<?xml version="1.0" encoding="ISO-8859-1"?>
<modeling>
 <generator>
  <i name="program" type="string">vasp </i>
  <i name="version" type="string">5.4.1  </i>
  <i name="subversion" type="string">24Jun15 (build Nov 20 2020 10:29:34) complex                          parallel </i>
  <i name="platform" type="string">IFC91_ompi </i>
  <i name="date" type="string">2021 09 09 </i>
  <i name="time" type="string">15:19:17 </i>
 </generator>
 <incar>
  <i type="string" name="PREC">a</i>
  <i type="string" name="ALGO"> Normal</i>
  <i type="int" name="ISPIN">     1</i>
  <i type="int" name="ICHARG">     2</i>
  <i type="int" name="NELM">   250</i>
  <i type="int" name="NELMDL">    -5</i>
  <i type="int" name="NELMIN">     6</i>
  <i type="int" name="IBRION">     2</i>
  <i name="EDIFF">      0.00001000</i>
  <i name="EDIFFG">     -0.01000000</i>
  <i type="int" name="NSW">   200</i>
  <i type="int" name="ISIF">     2</i>
  <i name="ENCUT">    520.00000000</i>
  <i name="POTIM">      0.30000000</i>
  <i type="logical" name="LREAL"> F  </i>
  <i type="int" name="ISMEAR">     0</i>
  <i name="SIGMA">      0.02000000</i>
  <i type="logical" name="LWAVE"> F  </i>
  <i type="logical" name="LCHARG"> F  </i>
  <i type="logical" name="LAECHG"> F  </i>
  <v type="int" name="KPOINT_BSE">    -1     0     0     0</v>
  <i type="int" name="NELM">   250</i>
 </incar>
 <kpoints>
  <generation param="Gamma">
   <v type="int" name="divisions">      22       14        1 </v>
   <v name="usershift">      0.00000000       0.00000000       0.00000000 </v>
   <v name="genvec1">      0.04545455       0.00000000       0.00000000 </v>
   <v name="genvec2">      0.00000000       0.07142857       0.00000000 </v>
   <v name="genvec3">      0.00000000       0.00000000       1.00000000 </v>
   <v name="shift">      0.00000000       0.00000000       0.00000000 </v>
  </generation>
  <varray name="kpointlist" >
   <v>       0.00000000       0.00000000       0.00000000 </v>
   <v>       0.04545455       0.00000000       0.00000000 </v>
   <v>       0.09090909       0.00000000       0.00000000 </v>
   <v>       0.13636364       0.00000000       0.00000000 </v>
   <v>       0.18181818       0.00000000       0.00000000 </v>
   <v>       0.22727273       0.00000000       0.00000000 </v>
   <v>       0.27272727       0.00000000       0.00000000 </v>
   <v>       0.31818182       0.00000000       0.00000000 </v>
   <v>       0.36363636       0.00000000       0.00000000 </v>
   <v>       0.40909091       0.00000000       0.00000000 </v>
   <v>       0.45454545       0.00000000       0.00000000 </v>
   <v>       0.50000000       0.00000000       0.00000000 </v>
   <v>       0.00000000       0.07142857       0.00000000 </v>
   <v>       0.04545455       0.07142857       0.00000000 </v>
   <v>       0.09090909       0.07142857       0.00000000 </v>
   <v>       0.13636364       0.07142857       0.00000000 </v>
   <v>       0.18181818       0.07142857       0.00000000 </v>
   <v>       0.22727273       0.07142857       0.00000000 </v>
   <v>       0.27272727       0.07142857       0.00000000 </v>
   <v>       0.31818182       0.07142857       0.00000000 </v>
   <v>       0.36363636       0.07142857       0.00000000 </v>
   <v>       0.40909091       0.07142857       0.00000000 </v>
   <v>       0.45454545       0.07142857       0.00000000 </v>
   <v>       0.50000000       0.07142857       0.00000000 </v>
   <v>      -0.45454545       0.07142857       0.00000000 </v>
   <v>      -0.40909091       0.07142857       0.00000000 </v>
   <v>      -0.36363636       0.07142857       0.00000000 </v>
   <v>      -0.31818182       0.07142857       0.00000000 </v>
   <v>      -0.27272727       0.07142857       0.00000000 </v>
   <v>      -0.22727273       0.07142857       0.00000000 </v>
   <v>      -0.18181818       0.07142857       0.00000000 </v>
   <v>      -0.13636364       0.07142857       0.00000000 </v>
   <v>      -0.09090909       0.07142857       0.00000000 </v>
   <v>      -0.04545455       0.07142857       0.00000000 </v>
   <v>       0.00000000       0.14285714       0.00000000 </v>
   <v>       0.04545455       0.14285714       0.00000000 </v>
   <v>       0.09090909       0.14285714       0.00000000 </v>
   <v>       0.13636364       0.14285714       0.00000000 </v>
   <v>       0.18181818       0.14285714       0.00000000 </v>
   <v>       0.22727273       0.14285714       0.00000000 </v>
   <v>       0.27272727       0.14285714       0.00000000 </v>
   <v>       0.31818182       0.14285714       0.00000000 </v>
   <v>       0.36363636       0.14285714       0.00000000 </v>
   <v>       0.40909091       0.14285714       0.00000000 </v>
   <v>       0.45454545       0.14285714       0.00000000 </v>
   <v>       0.50000000       0.14285714       0.00000000 </v>
   <v>      -0.45454545       0.14285714       0.00000000 </v>
   <v>      -0.40909091       0.14285714       0.00000000 </v>
   <v>      -0.36363636       0.14285714       0.00000000 </v>
   <v>      -0.31818182       0.14285714       0.00000000 </v>
   <v>      -0.27272727       0.14285714       0.00000000 </v>
   <v>      -0.22727273       0.14285714       0.00000000 </v>
   <v>      -0.18181818       0.14285714       0.00000000 </v>
   <v>      -0.13636364       0.14285714       0.00000000 </v>
   <v>      -0.09090909       0.14285714       0.00000000 </v>
   <v>      -0.04545455       0.14285714       0.00000000 </v>
   <v>       0.00000000       0.21428571       0.00000000 </v>
   <v>       0.04545455       0.21428571       0.00000000 </v>
   <v>       0.09090909       0.21428571       0.00000000 </v>
   <v>       0.13636364       0.21428571       0.00000000 </v>
   <v>       0.18181818       0.21428571       0.00000000 </v>
   <v>       0.22727273       0.21428571       0.00000000 </v>
   <v>       0.27272727       0.21428571       0.00000000 </v>
   <v>       0.31818182       0.21428571       0.00000000 </v>
   <v>       0.36363636       0.21428571       0.00000000 </v>
   <v>       0.40909091       0.21428571       0.00000000 </v>
   <v>       0.45454545       0.21428571       0.00000000 </v>
   <v>       0.50000000       0.21428571       0.00000000 </v>
   <v>      -0.45454545       0.21428571       0.00000000 </v>
   <v>      -0.40909091       0.21428571       0.00000000 </v>
   <v>      -0.36363636       0.21428571       0.00000000 </v>
   <v>      -0.31818182       0.21428571       0.00000000 </v>
   <v>      -0.27272727       0.21428571       0.00000000 </v>
   <v>      -0.22727273       0.21428571       0.00000000 </v>
   <v>      -0.18181818       0.21428571       0.00000000 </v>
   <v>      -0.13636364       0.21428571       0.00000000 </v>
   <v>      -0.09090909       0.21428571       0.00000000 </v>
   <v>      -0.04545455       0.21428571       0.00000000 </v>
   <v>       0.00000000       0.28571429       0.00000000 </v>
   <v>       0.04545455       0.28571429       0.00000000 </v>
   <v>       0.09090909       0.28571429       0.00000000 </v>
   <v>       0.13636364       0.28571429       0.00000000 </v>
   <v>       0.18181818       0.28571429       0.00000000 </v>
   <v>       0.22727273       0.28571429       0.00000000 </v>
   <v>       0.27272727       0.28571429       0.00000000 </v>
   <v>       0.31818182       0.28571429       0.00000000 </v>
   <v>       0.36363636       0.28571429       0.00000000 </v>
   <v>       0.40909091       0.28571429       0.00000000 </v>
   <v>       0.45454545       0.28571429       0.00000000 </v>
   <v>       0.50000000       0.28571429       0.00000000 </v>
   <v>      -0.45454545       0.28571429       0.00000000 </v>
   <v>      -0.40909091       0.28571429       0.00000000 </v>
   <v>      -0.36363636       0.28571429       0.00000000 </v>
   <v>      -0.31818182       0.28571429       0.00000000 </v>
   <v>      -0.27272727       0.28571429       0.00000000 </v>
   <v>      -0.22727273       0.28571429       0.00000000 </v>
   <v>      -0.18181818       0.28571429       0.00000000 </v>
   <v>      -0.13636364       0.28571429       0.00000000 </v>
   <v>      -0.09090909       0.28571429       0.00000000 </v>
   <v>      -0.04545455       0.28571429       0.00000000 </v>
   <v>       0.00000000       0.35714286       0.00000000 </v>
   <v>       0.04545455       0.35714286       0.00000000 </v>
   <v>       0.09090909       0.35714286       0.00000000 </v>
   <v>       0.13636364       0.35714286       0.00000000 </v>
   <v>       0.18181818       0.35714286       0.00000000 </v>
   <v>       0.22727273       0.35714286       0.00000000 </v>
   <v>       0.27272727       0.35714286       0.00000000 </v>
   <v>       0.31818182       0.35714286       0.00000000 </v>
   <v>       0.36363636       0.35714286       0.00000000 </v>
   <v>       0.40909091       0.35714286       0.00000000 </v>
   <v>       0.45454545       0.35714286       0.00000000 </v>
   <v>       0.50000000       0.35714286       0.00000000 </v>
   <v>      -0.45454545       0.35714286       0.00000000 </v>
   <v>      -0.40909091       0.35714286       0.00000000 </v>
   <v>      -0.36363636       0.35714286       0.00000000 </v>
   <v>      -0.31818182       0.35714286       0.00000000 </v>
   <v>      -0.27272727       0.35714286       0.00000000 </v>
   <v>      -0.22727273       0.35714286       0.00000000 </v>
   <v>      -0.18181818       0.35714286       0.00000000 </v>
   <v>      -0.13636364       0.35714286       0.00000000 </v>
   <v>      -0.09090909       0.35714286       0.00000000 </v>
   <v>      -0.04545455       0.35714286       0.00000000 </v>
   <v>       0.00000000       0.42857143       0.00000000 </v>
   <v>       0.04545455       0.42857143       0.00000000 </v>
   <v>       0.09090909       0.42857143       0.00000000 </v>
   <v>       0.13636364       0.42857143       0.00000000 </v>
   <v>       0.18181818       0.42857143       0.00000000 </v>
   <v>       0.22727273       0.42857143       0.00000000 </v>
   <v>       0.27272727       0.42857143       0.00000000 </v>
   <v>       0.31818182       0.42857143       0.00000000 </v>
   <v>       0.36363636       0.42857143       0.00000000 </v>
   <v>       0.40909091       0.42857143       0.00000000 </v>
   <v>       0.45454545       0.42857143       0.00000000 </v>
   <v>       0.50000000       0.42857143       0.00000000 </v>
   <v>      -0.45454545       0.42857143       0.00000000 </v>
   <v>      -0.40909091       0.42857143       0.00000000 </v>
   <v>      -0.36363636       0.42857143       0.00000000 </v>
   <v>      -0.31818182       0.42857143       0.00000000 </v>
   <v>      -0.27272727       0.42857143       0.00000000 </v>
   <v>      -0.22727273       0.42857143       0.00000000 </v>
   <v>      -0.18181818       0.42857143       0.00000000 </v>
   <v>      -0.13636364       0.42857143       0.00000000 </v>
   <v>      -0.09090909       0.42857143       0.00000000 </v>
   <v>      -0.04545455       0.42857143       0.00000000 </v>
   <v>       0.00000000       0.50000000       0.00000000 </v>
   <v>       0.04545455       0.50000000       0.00000000 </v>
   <v>       0.09090909       0.50000000       0.00000000 </v>
   <v>       0.13636364       0.50000000       0.00000000 </v>
   <v>       0.18181818       0.50000000       0.00000000 </v>
   <v>       0.22727273       0.50000000       0.00000000 </v>
   <v>       0.27272727       0.50000000       0.00000000 </v>
   <v>       0.31818182       0.50000000       0.00000000 </v>
   <v>       0.36363636       0.50000000       0.00000000 </v>
   <v>       0.40909091       0.50000000       0.00000000 </v>
   <v>       0.45454545       0.50000000       0.00000000 </v>
   <v>       0.50000000       0.50000000       0.00000000 </v>
  </varray>
  <varray name="weights" >
   <v>       0.00324675 </v>
   <v>       0.00649351 </v>
   <v>       0.00649351 </v>
   <v>       0.00649351 </v>
   <v>       0.00649351 </v>
   <v>       0.00649351 </v>
   <v>       0.00649351 </v>
   <v>       0.00649351 </v>
   <v>       0.00649351 </v>
   <v>       0.00649351 </v>
   <v>       0.00649351 </v>
   <v>       0.00324675 </v>
   <v>       0.00649351 </v>
   <v>       0.00649351 </v>
   <v>       0.00649351 </v>
   <v>       0.00649351 </v>
   <v>       0.00649351 </v>
   <v>       0.00649351 </v>
   <v>       0.00649351 </v>
   <v>       0.00649351 </v>
   <v>       0.00649351 </v>
   <v>       0.00649351 </v>
   <v>       0.00649351 </v>
   <v>       0.00649351 </v>
   <v>       0.00649351 </v>
   <v>       0.00649351 </v>
   <v>       0.00649351 </v>
   <v>       0.00649351 </v>
   <v>       0.00649351 </v>
   <v>       0.00649351 </v>
   <v>       0.00649351 </v>
   <v>       0.00649351 </v>
   <v>       0.00649351 </v>
   <v>       0.00649351 </v>
   <v>       0.00649351 </v>
   <v>       0.00649351 </v>
   <v>       0.00649351 </v>
   <v>       0.00649351 </v>
   <v>       0.00649351 </v>
   <v>       0.00649351 </v>
   <v>       0.00649351 </v>
   <v>       0.00649351 </v>
   <v>       0.00649351 </v>
   <v>       0.00649351 </v>
   <v>       0.00649351 </v>
   <v>       0.00649351 </v>
   <v>       0.00649351 </v>
   <v>       0.00649351 </v>
   <v>       0.00649351 </v>
   <v>       0.00649351 </v>
   <v>       0.00649351 </v>
   <v>       0.00649351 </v>
   <v>       0.00649351 </v>
   <v>       0.00649351 </v>
   <v>       0.00649351 </v>
   <v>       0.00649351 </v>
   <v>       0.00649351 </v>
   <v>       0.00649351 </v>
   <v>       0.00649351 </v>
   <v>       0.00649351 </v>
   <v>       0.00649351 </v>
   <v>       0.00649351 </v>
   <v>       0.00649351 </v>
   <v>       0.00649351 </v>
   <v>       0.00649351 </v>
   <v>       0.00649351 </v>
   <v>       0.00649351 </v>
   <v>       0.00649351 </v>
   <v>       0.00649351 </v>
   <v>       0.00649351 </v>
   <v>       0.00649351 </v>
   <v>       0.00649351 </v>
   <v>       0.00649351 </v>
   <v>       0.00649351 </v>
   <v>       0.00649351 </v>
   <v>       0.00649351 </v>
   <v>       0.00649351 </v>
   <v>       0.00649351 </v>
   <v>       0.00649351 </v>
   <v>       0.00649351 </v>
   <v>       0.00649351 </v>
   <v>       0.00649351 </v>
   <v>       0.00649351 </v>
   <v>       0.00649351 </v>
   <v>       0.00649351 </v>
   <v>       0.00649351 </v>
   <v>       0.00649351 </v>
   <v>       0.00649351 </v>
   <v>       0.00649351 </v>
   <v>       0.00649351 </v>
   <v>       0.00649351 </v>
   <v>       0.00649351 </v>
   <v>       0.00649351 </v>
   <v>       0.00649351 </v>
   <v>       0.00649351 </v>
   <v>       0.00649351 </v>
   <v>       0.00649351 </v>
   <v>       0.00649351 </v>
   <v>       0.00649351 </v>
   <v>       0.00649351 </v>
   <v>       0.00649351 </v>
   <v>       0.00649351 </v>
   <v>       0.00649351 </v>
   <v>       0.00649351 </v>
   <v>       0.00649351 </v>
   <v>       0.00649351 </v>
   <v>       0.00649351 </v>
   <v>       0.00649351 </v>
   <v>       0.00649351 </v>
   <v>       0.00649351 </v>
   <v>       0.00649351 </v>
   <v>       0.00649351 </v>
   <v>       0.00649351 </v>
   <v>       0.00649351 </v>
   <v>       0.00649351 </v>
   <v>       0.00649351 </v>
   <v>       0.00649351 </v>
   <v>       0.00649351 </v>
   <v>       0.00649351 </v>
   <v>       0.00649351 </v>
   <v>       0.00649351 </v>
   <v>       0.00649351 </v>
   <v>       0.00649351 </v>
   <v>       0.00649351 </v>
   <v>       0.00649351 </v>
   <v>       0.00649351 </v>
   <v>       0.00649351 </v>
   <v>       0.00649351 </v>
   <v>       0.00649351 </v>
   <v>       0.00649351 </v>
   <v>       0.00649351 </v>
   <v>       0.00649351 </v>
   <v>       0.00649351 </v>
   <v>       0.00649351 </v>
   <v>       0.00649351 </v>
   <v>       0.00649351 </v>
   <v>       0.00649351 </v>
   <v>       0.00649351 </v>
   <v>       0.00649351 </v>
   <v>       0.00649351 </v>
   <v>       0.00649351 </v>
   <v>       0.00649351 </v>
   <v>       0.00649351 </v>
   <v>       0.00649351 </v>
   <v>       0.00324675 </v>
   <v>       0.00649351 </v>
   <v>       0.00649351 </v>
   <v>       0.00649351 </v>
   <v>       0.00649351 </v>
   <v>       0.00649351 </v>
   <v>       0.00649351 </v>
   <v>       0.00649351 </v>
   <v>       0.00649351 </v>
   <v>       0.00649351 </v>
   <v>       0.00649351 </v>
   <v>       0.00324675 </v>
  </varray>
 </kpoints>
 <parameters>
  <separator name="general" >
   <i type="string" name="SYSTEM">unknown system</i>
   <i type="logical" name="LCOMPAT"> F  </i>
  </separator>
  <separator name="electronic" >
   <i type="string" name="PREC">a</i>
   <i name="ENMAX">    520.00000000</i>
   <i name="ENAUG">    342.92400000</i>
   <i name="EDIFF">      0.00001000</i>
   <i type="int" name="IALGO">    38</i>
   <i type="int" name="IWAVPR">    11</i>
   <i type="int" name="NBANDS">    16</i>
   <i name="NELECT">     20.00000000</i>
   <i type="int" name="TURBO">     0</i>
   <i type="int" name="IRESTART">     0</i>
   <i type="int" name="NREBOOT">     0</i>
   <i type="int" name="NMIN">     0</i>
   <i name="EREF">      0.00000000</i>
   <separator name="electronic smearing" >
    <i type="int" name="ISMEAR">     0</i>
    <i name="SIGMA">      0.02000000</i>
    <i name="KSPACING">      0.50000000</i>
    <i type="logical" name="KGAMMA"> T  </i>
   </separator>
   <separator name="electronic projectors" >
    <i type="logical" name="LREAL"> F  </i>
    <v name="ROPT">      0.00000000</v>
    <i type="int" name="LMAXPAW">  -100</i>
    <i type="int" name="LMAXMIX">     2</i>
    <i type="logical" name="NLSPLINE"> F  </i>
   </separator>
   <separator name="electronic startup" >
    <i type="int" name="ISTART">     0</i>
    <i type="int" name="ICHARG">     2</i>
    <i type="int" name="INIWAV">     1</i>
   </separator>
   <separator name="electronic spin" >
    <i type="int" name="ISPIN">     1</i>
    <i type="logical" name="LNONCOLLINEAR"> F  </i>
    <v name="MAGMOM">      1.00000000      1.00000000      1.00000000      1.00000000</v>
    <i name="NUPDOWN">     -1.00000000</i>
    <i type="logical" name="LSORBIT"> F  </i>
    <v name="SAXIS">      0.00000000      0.00000000      1.00000000</v>
    <i type="logical" name="LSPIRAL"> F  </i>
    <v name="QSPIRAL">      0.00000000      0.00000000      0.00000000</v>
    <i type="logical" name="LZEROZ"> F  </i>
   </separator>
   <separator name="electronic exchange-correlation" >
    <i type="logical" name="LASPH"> F  </i>
    <i type="logical" name="LMETAGGA"> F  </i>
   </separator>
   <separator name="electronic convergence" >
    <i type="int" name="NELM">   250</i>
    <i type="int" name="NELMDL">    -5</i>
    <i type="int" name="NELMIN">     6</i>
    <i name="ENINI">    520.00000000</i>
    <separator name="electronic convergence detail" >
     <i type="logical" name="LDIAG"> T  </i>
     <i type="logical" name="LSUBROT"> F  </i>
     <i name="WEIMIN">      0.00100000</i>
     <i name="EBREAK">      0.00000016</i>
     <i name="DEPER">      0.30000000</i>
     <i type="int" name="NRMM">     4</i>
     <i name="TIME">      0.40000000</i>
    </separator>
   </separator>
   <separator name="electronic mixer" >
    <i name="AMIX">      0.40000000</i>
    <i name="BMIX">      1.00000000</i>
    <i name="AMIN">      0.10000000</i>
    <i name="AMIX_MAG">      1.60000000</i>
    <i name="BMIX_MAG">      1.00000000</i>
    <separator name="electronic mixer details" >
     <i type="int" name="IMIX">     4</i>
     <i type="logical" name="MIXFIRST"> F  </i>
     <i type="int" name="MAXMIX">   -45</i>
     <i name="WC">    100.00000000</i>
     <i type="int" name="INIMIX">     1</i>
     <i type="int" name="MIXPRE">     1</i>
     <i type="int" name="MREMOVE">     5</i>
    </separator>
   </separator>
   <separator name="electronic dipolcorrection" >
    <i type="logical" name="LDIPOL"> F  </i>
    <i type="logical" name="LMONO"> F  </i>
    <i type="int" name="IDIPOL">     0</i>
    <i name="EPSILON">      1.00000000</i>
    <v name="DIPOL">   -100.00000000   -100.00000000   -100.00000000</v>
    <i name="EFIELD">      0.00000000</i>
   </separator>
  </separator>
  <separator name="grids" >
   <i type="int" name="NGX">    28</i>
   <i type="int" name="NGY">    40</i>
   <i type="int" name="NGZ">   150</i>
   <i type="int" name="NGXF">    56</i>
   <i type="int" name="NGYF">    80</i>
   <i type="int" name="NGZF">   300</i>
   <i type="logical" name="ADDGRID"> F  </i>
  </separator>
  <separator name="ionic" >
   <i type="int" name="NSW">   200</i>
   <i type="int" name="IBRION">     2</i>
   <i type="int" name="ISIF">     2</i>
   <i name="PSTRESS">      0.00000000</i>
   <i name="EDIFFG">     -0.01000000</i>
   <i type="int" name="NFREE">     1</i>
   <i name="POTIM">      0.30000000</i>
   <i name="SMASS">     -3.00000000</i>
   <i name="SCALEE">      1.00000000</i>
  </separator>
  <separator name="ionic md" >
   <i name="TEBEG">      0.00010000</i>
   <i name="TEEND">      0.00010000</i>
   <i type="int" name="NBLOCK">     1</i>
   <i type="int" name="KBLOCK">   200</i>
   <i type="int" name="NPACO">   256</i>
   <i name="APACO">     16.00000000</i>
  </separator>
  <separator name="symmetry" >
   <i type="int" name="ISYM">     2</i>
   <i name="SYMPREC">      0.00001000</i>
  </separator>
  <separator name="dos" >
   <i type="logical" name="LORBIT"> F  </i>
   <v name="RWIGS">     -1.00000000</v>
   <i type="int" name="NEDOS">   301</i>
   <i name="EMIN">     10.00000000</i>
   <i name="EMAX">    -10.00000000</i>
   <i name="EFERMI">      0.00000000</i>
  </separator>
  <separator name="writing" >
   <i type="int" name="NWRITE">     2</i>
   <i type="logical" name="LWAVE"> F  </i>
   <i type="logical" name="LCHARG"> F  </i>
   <i type="logical" name="LPARD"> F  </i>
   <i type="logical" name="LVTOT"> F  </i>
   <i type="logical" name="LVHAR"> F  </i>
   <i type="logical" name="LELF"> F  </i>
   <i type="logical" name="LOPTICS"> F  </i>
   <v name="STM">      0.00000000      0.00000000      0.00000000      0.00000000      0.00000000      0.00000000      0.00000000</v>
  </separator>
  <separator name="performance" >
   <i type="int" name="NPAR">     4</i>
   <i type="int" name="NSIM">     4</i>
   <i type="int" name="NBLK">    -1</i>
   <i type="logical" name="LPLANE"> T  </i>
   <i type="logical" name="LSCALAPACK"> T  </i>
   <i type="logical" name="LSCAAWARE"> F  </i>
   <i type="logical" name="LSCALU"> F  </i>
   <i type="logical" name="LASYNC"> F  </i>
   <i type="logical" name="LORBITALREAL"> F  </i>
  </separator>
  <separator name="miscellaneous" >
   <i type="int" name="IDIOT">     3</i>
   <i type="logical" name="LMUSIC"> F  </i>
   <v name="POMASS">     30.97400000</v>
   <v name="DARWINR">      0.00000000</v>
   <v name="DARWINV">      1.00000000</v>
   <i type="logical" name="LCORR"> T  </i>
  </separator>
  <i type="logical" name="GGA_COMPAT"> T  </i>
  <i type="logical" name="LBERRY"> F  </i>
  <i type="int" name="ICORELEVEL">     0</i>
  <i type="logical" name="LDAU"> F  </i>
  <i type="int" name="I_CONSTRAINED_M">     0</i>
  <separator name="electronic exchange-correlation" >
   <i type="string" name="GGA">--</i>
   <i type="int" name="VOSKOWN">     0</i>
   <i type="logical" name="LHFCALC"> F  </i>
   <i type="string" name="PRECFOCK"></i>
   <i type="logical" name="LSYMGRAD"> F  </i>
   <i type="logical" name="LHFONE"> F  </i>
   <i type="logical" name="LRHFCALC"> F  </i>
   <i type="logical" name="LTHOMAS"> F  </i>
   <i type="logical" name="LMODELHF"> F  </i>
   <i name="ENCUT4O">     -1.00000000</i>
   <i type="int" name="EXXOEP">     0</i>
   <i type="int" name="FOURORBIT">     0</i>
   <i name="AEXX">      0.00000000</i>
   <i name="HFALPHA">      0.00000000</i>
   <i name="MCALPHA">      0.00000000</i>
   <i name="ALDAX">      1.00000000</i>
   <i name="AGGAX">      1.00000000</i>
   <i name="ALDAC">      1.00000000</i>
   <i name="AGGAC">      1.00000000</i>
   <i type="int" name="NKREDX">     1</i>
   <i type="int" name="NKREDY">     1</i>
   <i type="int" name="NKREDZ">     1</i>
   <i type="logical" name="SHIFTRED"> F  </i>
   <i type="logical" name="ODDONLY"> F  </i>
   <i type="logical" name="EVENONLY"> F  </i>
   <i type="int" name="LMAXFOCK">     0</i>
   <i type="int" name="NMAXFOCKAE">     0</i>
   <i type="logical" name="LFOCKAEDFT"> F  </i>
   <i name="HFSCREEN">      0.00000000</i>
   <i name="HFSCREENC">      0.00000000</i>
   <i type="int" name="NBANDSGWLOW">     0</i>
  </separator>
  <separator name="vdW DFT" >
   <i type="logical" name="LUSE_VDW"> F  </i>
   <i name="Zab_VDW">     -0.84910000</i>
   <i name="PARAM1">      0.12340000</i>
   <i name="PARAM2">      1.00000000</i>
   <i name="PARAM3">      0.00000000</i>
  </separator>
  <separator name="model GW" >
   <i type="int" name="MODEL_GW">     0</i>
   <i name="MODEL_EPS0">     50.15841890</i>
   <i name="MODEL_ALPHA">      1.00000000</i>
  </separator>
  <separator name="linear response parameters" >
   <i type="logical" name="LEPSILON"> F  </i>
   <i type="logical" name="LRPA"> F  </i>
   <i type="logical" name="LNABLA"> F  </i>
   <i type="logical" name="LVEL"> F  </i>
   <i type="int" name="KINTER">     0</i>
   <i name="CSHIFT">      0.10000000</i>
   <i name="OMEGAMAX">     -1.00000000</i>
   <i name="DEG_THRESHOLD">      0.00200000</i>
  </separator>
  <separator name="orbital magnetization" >
   <i type="logical" name="NUCIND"> F  </i>
   <v name="MAGPOS">      0.00000000      0.00000000      0.00000000</v>
   <i type="logical" name="LNICSALL"> T  </i>
   <i type="logical" name="ORBITALMAG"> F  </i>
   <i type="logical" name="LMAGBLOCH"> F  </i>
   <i type="logical" name="LCHIMAG"> F  </i>
   <i type="logical" name="LGAUGE"> T  </i>
   <i type="int" name="MAGATOM">     0</i>
   <v name="MAGDIPOL">      0.00000000      0.00000000      0.00000000</v>
   <v name="AVECCONST">      0.00000000      0.00000000      0.00000000</v>
  </separator>
  <separator name="response functions" >
   <i type="logical" name="LADDER"> F  </i>
   <i type="logical" name="LFXC"> F  </i>
   <i type="logical" name="LHARTREE"> T  </i>
   <i type="int" name="IBSE">     0</i>
   <v type="int" name="KPOINT">    -1     0     0     0</v>
   <i type="logical" name="LTCTE"> F  </i>
   <i type="logical" name="LTETE"> F  </i>
   <i type="logical" name="LTRIPLET"> F  </i>
   <i type="logical" name="LFXCEPS"> F  </i>
   <i type="logical" name="LFXHEG"> F  </i>
   <i type="int" name="NATURALO">     0</i>
   <i type="logical" name="L2ORDER"> F  </i>
   <i type="logical" name="LUSEW"> F  </i>
   <i name="ENCUTGW">     -2.00000000</i>
   <i name="ENCUTGWSOFT">     -2.00000000</i>
   <i name="ENCUTLF">     -1.00000000</i>
   <i type="int" name="LMAXMP2">    -1</i>
   <i name="SCISSOR">      0.00000000</i>
   <i type="int" name="NOMEGA">     0</i>
   <i type="int" name="NOMEGAR">     0</i>
   <i type="int" name="NBANDSGW">    -1</i>
   <i type="int" name="NBANDSO">    -1</i>
   <i type="int" name="NBANDSV">    -1</i>
   <i type="int" name="NELM">   250</i>
   <i type="int" name="NELMHF">     1</i>
   <i type="int" name="DIM">     3</i>
   <i type="int" name="ANTIRES">     0</i>
   <i name="OMEGAMAX">    -30.00000000</i>
   <i name="OMEGAMIN">    -30.00000000</i>
   <i name="OMEGATL">   -200.00000000</i>
   <i type="int" name="OMEGAGRID">     0</i>
   <i name="CSHIFT">     -0.10000000</i>
   <i type="logical" name="SELFENERGY"> F  </i>
   <i type="logical" name="LSPECTRAL"> F  </i>
   <i type="logical" name="LSPECTRALGW"> F  </i>
   <i type="logical" name="LSINGLES"> F  </i>
   <i type="logical" name="LFERMIGW"> F  </i>
   <i type="logical" name="ODDONLYGW"> F  </i>
   <i type="logical" name="EVENONLYGW"> F  </i>
   <i type="int" name="NKREDLFX">     1</i>
   <i type="int" name="NKREDLFY">     1</i>
   <i type="int" name="NKREDLFZ">     1</i>
   <i type="int" name="MAXMEM">  1800</i>
   <i type="int" name="TELESCOPE">     0</i>
   <i type="int" name="TAUPAR">     1</i>
   <i type="int" name="OMEGAPAR">    -1</i>
   <i name="LAMBDA">      1.00000000</i>
  </separator>
  <separator name="External order field" >
   <i name="OFIELD_KAPPA">      0.00000000</i>
   <v name="OFIELD_K">      0.00000000      0.00000000      0.00000000</v>
   <i name="OFIELD_Q6_NEAR">      0.00000000</i>
   <i name="OFIELD_Q6_FAR">      0.00000000</i>
   <i name="OFIELD_A">      0.00000000</i>
  </separator>
 </parameters>
 <atominfo>
  <atoms>       4 </atoms>
  <types>       1 </types>
  <array name="atoms" >
   <dimension dim="1">ion</dimension>
   <field type="string">element</field>
   <field type="int">atomtype</field>
   <set>
    <rc><c>P </c><c>   1</c></rc>
    <rc><c>P </c><c>   1</c></rc>
    <rc><c>P </c><c>   1</c></rc>
    <rc><c>P </c><c>   1</c></rc>
   </set>
  </array>
  <array name="atomtypes" >
   <dimension dim="1">type</dimension>
   <field type="int">atomspertype</field>
   <field type="string">element</field>
   <field>mass</field>
   <field>valence</field>
   <field type="string">pseudopotential</field>
   <set>
    <rc><c>   4</c><c>P </c><c>     30.97400000</c><c>      5.00000000</c><c>  PAW_PBE P 06Sep2000                   </c></rc>
   </set>
  </array>
 </atominfo>
 <structure name="initialpos" >
  <crystal>
   <varray name="basis" >
    <v>       3.29720400       0.00000000       0.00000000 </v>
    <v>       0.00000000       5.06462700      -0.00005300 </v>
    <v>       0.00000000       0.00000000      20.02439000 </v>
   </varray>
   <i name="volume">    334.38945931 </i>
   <varray name="rec_basis" >
    <v>       0.30328727       0.00000000       0.00000000 </v>
    <v>       0.00000000       0.19744791       0.00000000 </v>
    <v>       0.00000000       0.00000052       0.04993910 </v>
   </varray>
  </crystal>
  <varray name="positions" >
   <v>       0.50000000       0.91077300       0.55252100 </v>
   <v>       0.50000000       0.08922700       0.44747900 </v>
   <v>       0.00000000       0.41076900       0.44747900 </v>
   <v>       0.00000000       0.58923100       0.55252100 </v>
  </varray>
 </structure>
 <calculation>
  <scstep>
   <time name="dav">    1.60    1.61</time>
   <time name="total">    1.63    1.64</time>
   <energy>
    <i name="alphaZ">      4.79728351 </i>
    <i name="ewald">   1661.03886259 </i>
    <i name="hartreedc">  -2255.75151687 </i>
    <i name="XCdc">     12.26938213 </i>
    <i name="pawpsdc">    559.04011960 </i>
    <i name="pawaedc">   -526.39432044 </i>
    <i name="eentropy">     -0.00062655 </i>
    <i name="bandstr">    -29.06670129 </i>
    <i name="atom">    704.16778566 </i>
    <i name="e_fr_energy">    130.10026834 </i>
    <i name="e_wo_entrp">    130.10089489 </i>
    <i name="e_0_energy">    130.10058162 </i>
   </energy>
  </scstep>
  <scstep>
   <time name="dav">    2.14    2.14</time>
   <time name="total">    2.14    2.14</time>
   <energy>
    <i name="e_fr_energy">     -5.43544157 </i>
    <i name="e_wo_entrp">     -5.43544157 </i>
    <i name="e_0_energy">     -5.43544157 </i>
   </energy>
  </scstep>
  <scstep>
   <time name="dav">    1.99    2.00</time>
   <time name="total">    2.00    2.00</time>
   <energy>
    <i name="e_fr_energy">    -21.01119800 </i>
    <i name="e_wo_entrp">    -21.01119800 </i>
    <i name="e_0_energy">    -21.01119800 </i>
   </energy>
  </scstep>
  <scstep>
   <time name="dav">    2.00    2.00</time>
   <time name="total">    2.01    2.01</time>
   <energy>
    <i name="e_fr_energy">    -21.33986952 </i>
    <i name="e_wo_entrp">    -21.33986952 </i>
    <i name="e_0_energy">    -21.33986952 </i>
   </energy>
  </scstep>
  <scstep>
   <time name="dav">    2.16    2.16</time>
   <time name="total">    2.27    2.27</time>
   <energy>
    <i name="e_fr_energy">    -21.34924549 </i>
    <i name="e_wo_entrp">    -21.34924549 </i>
    <i name="e_0_energy">    -21.34924549 </i>
   </energy>
  </scstep>
  <scstep>
   <time name="dav">    1.94    1.94</time>
   <time name="total">    2.06    2.07</time>
   <energy>
    <i name="e_fr_energy">    -21.23491233 </i>
    <i name="e_wo_entrp">    -21.23491233 </i>
    <i name="e_0_energy">    -21.23491233 </i>
   </energy>
  </scstep>
  <scstep>
   <time name="dav">    1.88    1.88</time>
   <time name="total">    2.00    2.00</time>
   <energy>
    <i name="e_fr_energy">    -21.18123094 </i>
    <i name="e_wo_entrp">    -21.18123094 </i>
    <i name="e_0_energy">    -21.18123094 </i>
   </energy>
  </scstep>
  <scstep>
   <time name="dav">    1.96    1.96</time>
   <time name="total">    2.09    2.09</time>
   <energy>
    <i name="e_fr_energy">    -21.18092667 </i>
    <i name="e_wo_entrp">    -21.18092667 </i>
    <i name="e_0_energy">    -21.18092667 </i>
   </energy>
  </scstep>
  <scstep>
   <time name="dav">    2.22    2.22</time>
   <time name="total">    2.34    2.34</time>
   <energy>
    <i name="e_fr_energy">    -21.18088755 </i>
    <i name="e_wo_entrp">    -21.18088755 </i>
    <i name="e_0_energy">    -21.18088755 </i>
   </energy>
  </scstep>
  <scstep>
   <time name="dav">    1.94    1.94</time>
   <time name="total">    2.06    2.06</time>
   <energy>
    <i name="e_fr_energy">    -21.18077529 </i>
    <i name="e_wo_entrp">    -21.18077529 </i>
    <i name="e_0_energy">    -21.18077529 </i>
   </energy>
  </scstep>
  <scstep>
   <time name="dav">    1.94    1.94</time>
   <time name="total">    2.06    2.06</time>
   <energy>
    <i name="e_fr_energy">    -21.18075053 </i>
    <i name="e_wo_entrp">    -21.18075053 </i>
    <i name="e_0_energy">    -21.18075053 </i>
   </energy>
  </scstep>
  <scstep>
   <time name="dav">    1.69    1.69</time>
   <time name="total">    1.81    1.81</time>
   <energy>
    <i name="e_fr_energy">    -21.18098314 </i>
    <i name="e_wo_entrp">    -21.18098314 </i>
    <i name="e_0_energy">    -21.18098314 </i>
   </energy>
  </scstep>
  <scstep>
   <time name="dav">    1.72    1.72</time>
   <time name="total">    1.84    1.84</time>
   <energy>
    <i name="e_fr_energy">    -21.18105909 </i>
    <i name="e_wo_entrp">    -21.18105909 </i>
    <i name="e_0_energy">    -21.18105909 </i>
   </energy>
  </scstep>
  <scstep>
   <time name="dav">    1.70    1.70</time>
   <time name="total">    1.81    1.82</time>
   <energy>
    <i name="e_fr_energy">    -21.18122208 </i>
    <i name="e_wo_entrp">    -21.18122208 </i>
    <i name="e_0_energy">    -21.18122208 </i>
   </energy>
  </scstep>
  <scstep>
   <time name="dav">    1.68    1.68</time>
   <time name="total">    1.80    1.80</time>
   <energy>
    <i name="e_fr_energy">    -21.18124383 </i>
    <i name="e_wo_entrp">    -21.18124383 </i>
    <i name="e_0_energy">    -21.18124383 </i>
   </energy>
  </scstep>
  <scstep>
   <time name="dav">    1.57    1.57</time>
   <time name="total">    1.69    1.69</time>
   <energy>
    <i name="e_fr_energy">    -21.18127885 </i>
    <i name="e_wo_entrp">    -21.18127885 </i>
    <i name="e_0_energy">    -21.18127885 </i>
   </energy>
  </scstep>
  <scstep>
   <time name="dav">    1.49    1.49</time>
   <time name="total">    1.51    1.51</time>
   <energy>
    <i name="alphaZ">      4.79728351 </i>
    <i name="ewald">   1661.03886259 </i>
    <i name="hartreedc">  -2268.43403542 </i>
    <i name="XCdc">     13.20252964 </i>
    <i name="pawpsdc">   1750.79657863 </i>
    <i name="pawaedc">  -1718.36232121 </i>
    <i name="eentropy">     -0.00000000 </i>
    <i name="bandstr">   -168.38796608 </i>
    <i name="atom">    704.16778566 </i>
    <i name="e_fr_energy">    -21.18128267 </i>
    <i name="e_wo_entrp">    -21.18128267 </i>
    <i name="e_0_energy">    -21.18128267 </i>
   </energy>
  </scstep>
  <structure>
   <crystal>
    <varray name="basis" >
     <v>       3.29720400       0.00000000       0.00000000 </v>
     <v>       0.00000000       5.06462700      -0.00005300 </v>
     <v>       0.00000000       0.00000000      20.02439000 </v>
    </varray>
    <i name="volume">    334.38945931 </i>
    <varray name="rec_basis" >
     <v>       0.30328727       0.00000000       0.00000000 </v>
     <v>       0.00000000       0.19744791       0.00000000 </v>
     <v>       0.00000000       0.00000052       0.04993910 </v>
    </varray>
   </crystal>
   <varray name="positions" >
    <v>       0.50000000       0.91077300       0.55252100 </v>
    <v>       0.50000000       0.08922700       0.44747900 </v>
    <v>       0.00000000       0.41076900       0.44747900 </v>
    <v>       0.00000000       0.58923100       0.55252100 </v>
   </varray>
  </structure>
  <varray name="forces" >
   <v>       0.00000006      -1.17380137      -0.24753301 </v>
   <v>      -0.00000006       1.17380137       0.24753301 </v>
   <v>       0.00000002      -1.17380498       0.24755912 </v>
   <v>      -0.00000002       1.17380498      -0.24755912 </v>
  </varray>
  <varray name="stress" >
   <v>      -8.45064588      -0.00000078       0.00000008 </v>
   <v>      -0.00000077     -28.99815264       0.00034270 </v>
   <v>       0.00000010       0.00034268      -5.05071788 </v>
  </varray>
  <energy>
   <i name="e_fr_energy">    -21.18128267 </i>
   <i name="e_wo_entrp">    -21.18128267 </i>
   <i name="e_0_energy">     -0.00000000 </i>
  </energy>
  <time name="totalsc">   33.95   33.99</time>
 </calculation>
 <calculation>
  <scstep>
   <time name="dav">    1.70    1.70</time>
   <time name="total">    1.82    1.82</time>
   <energy>
    <i name="alphaZ">      4.79728351 </i>
    <i name="ewald">   1672.07140657 </i>
    <i name="hartreedc">  -2277.78180670 </i>
    <i name="XCdc">     13.40196203 </i>
    <i name="pawpsdc">   1750.52314762 </i>
    <i name="pawaedc">  -1718.08893667 </i>
    <i name="eentropy">     -0.00000000 </i>
    <i name="bandstr">   -170.38616034 </i>
    <i name="atom">    704.16778566 </i>
    <i name="e_fr_energy">    -21.29531833 </i>
    <i name="e_wo_entrp">    -21.29531833 </i>
    <i name="e_0_energy">    -21.29531833 </i>
   </energy>
  </scstep>
  <scstep>
   <time name="dav">    1.98    1.98</time>
   <time name="total">    2.10    2.10</time>
   <energy>
    <i name="e_fr_energy">    -21.31070872 </i>
    <i name="e_wo_entrp">    -21.31070872 </i>
    <i name="e_0_energy">    -21.31070872 </i>
   </energy>
  </scstep>
  <scstep>
   <time name="dav">    2.15    2.15</time>
   <time name="total">    2.27    2.28</time>
   <energy>
    <i name="e_fr_energy">    -21.31064926 </i>
    <i name="e_wo_entrp">    -21.31064926 </i>
    <i name="e_0_energy">    -21.31064926 </i>
   </energy>
  </scstep>
  <scstep>
   <time name="dav">    2.11    2.11</time>
   <time name="total">    2.23    2.24</time>
   <energy>
    <i name="e_fr_energy">    -21.31059344 </i>
    <i name="e_wo_entrp">    -21.31059344 </i>
    <i name="e_0_energy">    -21.31059344 </i>
   </energy>
  </scstep>
  <scstep>
   <time name="dav">    1.92    1.93</time>
   <time name="total">    2.04    2.05</time>
   <energy>
    <i name="e_fr_energy">    -21.31060890 </i>
    <i name="e_wo_entrp">    -21.31060890 </i>
    <i name="e_0_energy">    -21.31060890 </i>
   </energy>
  </scstep>
  <scstep>
   <time name="dav">    1.46    1.46</time>
   <time name="total">    1.48    1.48</time>
   <energy>
    <i name="alphaZ">      4.79728351 </i>
    <i name="ewald">   1672.07140657 </i>
    <i name="hartreedc">  -2277.79537034 </i>
    <i name="XCdc">     13.42081710 </i>
    <i name="pawpsdc">   1855.90854918 </i>
    <i name="pawaedc">  -1823.51295793 </i>
    <i name="eentropy">     -0.00000000 </i>
    <i name="bandstr">   -170.36812252 </i>
    <i name="atom">    704.16778566 </i>
    <i name="e_fr_energy">    -21.31060878 </i>
    <i name="e_wo_entrp">    -21.31060878 </i>
    <i name="e_0_energy">    -21.31060878 </i>
   </energy>
  </scstep>
  <structure>
   <crystal>
    <varray name="basis" >
     <v>       3.29720400       0.00000000       0.00000000 </v>
     <v>       0.00000000       5.06462700      -0.00005300 </v>
     <v>       0.00000000       0.00000000      20.02439000 </v>
    </varray>
    <i name="volume">    334.38945931 </i>
    <varray name="rec_basis" >
     <v>       0.30328727       0.00000000       0.00000000 </v>
     <v>       0.00000000       0.19744791       0.00000000 </v>
     <v>       0.00000000       0.00000052       0.04993910 </v>
    </varray>
   </crystal>
   <varray name="positions" >
    <v>       0.50000000       0.90406444       0.55216317 </v>
    <v>       0.50000000       0.09593556       0.44783683 </v>
    <v>       0.00000000       0.40406042       0.44783683 </v>
    <v>      -0.00000000       0.59593958       0.55216317 </v>
   </varray>
  </structure>
  <varray name="forces" >
   <v>       0.00000003      -0.61011969      -0.23307467 </v>
   <v>      -0.00000003       0.61011969       0.23307467 </v>
   <v>      -0.00000002      -0.61012244       0.23308654 </v>
   <v>       0.00000002       0.61012244      -0.23308654 </v>
  </varray>
  <varray name="stress" >
   <v>      -7.69826233      -0.00000035      -0.00000057 </v>
   <v>      -0.00000034     -20.23192423       0.00024031 </v>
   <v>      -0.00000054       0.00024033      -4.85206899 </v>
  </varray>
  <energy>
   <i name="e_fr_energy">    -21.31060878 </i>
   <i name="e_wo_entrp">    -21.31060878 </i>
   <i name="e_0_energy">     -0.00000000 </i>
  </energy>
  <time name="totalsc">   12.77   12.80</time>
 </calculation>
 <calculation>
  <scstep>
   <time name="dav">    1.71    1.71</time>
   <time name="total">    1.83    1.83</time>
   <energy>
    <i name="alphaZ">      4.79728351 </i>
    <i name="ewald">   1683.18913623 </i>
    <i name="hartreedc">  -2287.00399859 </i>
    <i name="XCdc">     13.61958820 </i>
    <i name="pawpsdc">   1856.48364364 </i>
    <i name="pawaedc">  -1824.08757717 </i>
    <i name="eentropy">     -0.00000000 </i>
    <i name="bandstr">   -172.50683190 </i>
    <i name="atom">    704.16778566 </i>
    <i name="e_fr_energy">    -21.34097041 </i>
    <i name="e_wo_entrp">    -21.34097041 </i>
    <i name="e_0_energy">    -21.34097041 </i>
   </energy>
  </scstep>
  <scstep>
   <time name="dav">    1.99    1.99</time>
   <time name="total">    2.11    2.11</time>
   <energy>
    <i name="e_fr_energy">    -21.35623971 </i>
    <i name="e_wo_entrp">    -21.35623971 </i>
    <i name="e_0_energy">    -21.35623971 </i>
   </energy>
  </scstep>
  <scstep>
   <time name="dav">    2.16    2.16</time>
   <time name="total">    2.28    2.28</time>
   <energy>
    <i name="e_fr_energy">    -21.35616693 </i>
    <i name="e_wo_entrp">    -21.35616693 </i>
    <i name="e_0_energy">    -21.35616693 </i>
   </energy>
  </scstep>
  <scstep>
   <time name="dav">    2.13    2.13</time>
   <time name="total">    2.25    2.25</time>
   <energy>
    <i name="e_fr_energy">    -21.35610992 </i>
    <i name="e_wo_entrp">    -21.35610992 </i>
    <i name="e_0_energy">    -21.35610992 </i>
   </energy>
  </scstep>
  <scstep>
   <time name="dav">    1.89    1.89</time>
   <time name="total">    2.01    2.01</time>
   <energy>
    <i name="e_fr_energy">    -21.35612991 </i>
    <i name="e_wo_entrp">    -21.35612991 </i>
    <i name="e_0_energy">    -21.35612991 </i>
   </energy>
  </scstep>
  <scstep>
   <time name="dav">    1.51    1.51</time>
   <time name="total">    1.53    1.53</time>
   <energy>
    <i name="alphaZ">      4.79728351 </i>
    <i name="ewald">   1683.18913623 </i>
    <i name="hartreedc">  -2287.08496024 </i>
    <i name="XCdc">     13.64088949 </i>
    <i name="pawpsdc">   1972.80624759 </i>
    <i name="pawaedc">  -1940.45359904 </i>
    <i name="eentropy">     -0.00000000 </i>
    <i name="bandstr">   -172.41891355 </i>
    <i name="atom">    704.16778566 </i>
    <i name="e_fr_energy">    -21.35613034 </i>
    <i name="e_wo_entrp">    -21.35613034 </i>
    <i name="e_0_energy">    -21.35613034 </i>
   </energy>
  </scstep>
  <structure>
   <crystal>
    <varray name="basis" >
     <v>       3.29720400       0.00000000       0.00000000 </v>
     <v>       0.00000000       5.06462700      -0.00005300 </v>
     <v>       0.00000000       0.00000000      20.02439000 </v>
    </varray>
    <i name="volume">    334.38945931 </i>
    <varray name="rec_basis" >
     <v>       0.30328727       0.00000000       0.00000000 </v>
     <v>       0.00000000       0.19744791       0.00000000 </v>
     <v>       0.00000000       0.00000052       0.04993910 </v>
    </varray>
   </crystal>
   <varray name="positions" >
    <v>       0.50000000       0.89749244       0.55181262 </v>
    <v>       0.50000000       0.10250756       0.44818738 </v>
    <v>       0.00000000       0.39748840       0.44818738 </v>
    <v>      -0.00000000       0.60251160       0.55181262 </v>
   </varray>
  </structure>
  <varray name="forces" >
   <v>      -0.00000018       0.04306302      -0.23072115 </v>
   <v>       0.00000018      -0.04306302       0.23072115 </v>
   <v>      -0.00000021       0.04306140       0.23071981 </v>
   <v>       0.00000021      -0.04306140      -0.23071981 </v>
  </varray>
  <varray name="stress" >
   <v>      -5.66533228      -0.00000343       0.00000003 </v>
   <v>      -0.00000341     -10.84815702       0.00012846 </v>
   <v>      -0.00000003       0.00012845      -4.77164477 </v>
  </varray>
  <energy>
   <i name="e_fr_energy">    -21.35613034 </i>
   <i name="e_wo_entrp">    -21.35613034 </i>
   <i name="e_0_energy">     -0.00000000 </i>
  </energy>
  <time name="totalsc">   12.83   12.84</time>
 </calculation>
 <calculation>
  <scstep>
   <time name="dav">    1.58    1.58</time>
   <time name="total">    1.70    1.70</time>
   <energy>
    <i name="alphaZ">      4.79728351 </i>
    <i name="ewald">   1689.95083894 </i>
    <i name="hartreedc">  -2293.45814082 </i>
    <i name="XCdc">     13.68598923 </i>
    <i name="pawpsdc">   1973.42147888 </i>
    <i name="pawaedc">  -1941.06836118 </i>
    <i name="eentropy">     -0.00000000 </i>
    <i name="bandstr">   -172.85806850 </i>
    <i name="atom">    704.16778566 </i>
    <i name="e_fr_energy">    -21.36119428 </i>
    <i name="e_wo_entrp">    -21.36119428 </i>
    <i name="e_0_energy">    -21.36119428 </i>
   </energy>
  </scstep>
  <scstep>
   <time name="dav">    2.00    2.01</time>
   <time name="total">    2.12    2.13</time>
   <energy>
    <i name="e_fr_energy">    -21.36236076 </i>
    <i name="e_wo_entrp">    -21.36236076 </i>
    <i name="e_0_energy">    -21.36236076 </i>
   </energy>
  </scstep>
  <scstep>
   <time name="dav">    2.18    2.19</time>
   <time name="total">    2.30    2.31</time>
   <energy>
    <i name="e_fr_energy">    -21.36234263 </i>
    <i name="e_wo_entrp">    -21.36234263 </i>
    <i name="e_0_energy">    -21.36234263 </i>
   </energy>
  </scstep>
  <scstep>
   <time name="dav">    1.89    1.89</time>
   <time name="total">    2.01    2.02</time>
   <energy>
    <i name="e_fr_energy">    -21.36234219 </i>
    <i name="e_wo_entrp">    -21.36234219 </i>
    <i name="e_0_energy">    -21.36234219 </i>
   </energy>
  </scstep>
  <scstep>
   <time name="dav">    1.40    1.40</time>
   <time name="total">    1.52    1.52</time>
   <energy>
    <i name="e_fr_energy">    -21.36234299 </i>
    <i name="e_wo_entrp">    -21.36234299 </i>
    <i name="e_0_energy">    -21.36234299 </i>
   </energy>
  </scstep>
  <scstep>
   <time name="dav">    1.33    1.33</time>
   <time name="total">    1.35    1.35</time>
   <energy>
    <i name="alphaZ">      4.79728351 </i>
    <i name="ewald">   1689.95083894 </i>
    <i name="hartreedc">  -2293.42982923 </i>
    <i name="XCdc">     13.68786069 </i>
    <i name="pawpsdc">   1993.25754338 </i>
    <i name="pawaedc">  -1960.91107966 </i>
    <i name="eentropy">     -0.00000000 </i>
    <i name="bandstr">   -172.88274796 </i>
    <i name="atom">    704.16778566 </i>
    <i name="e_fr_energy">    -21.36234466 </i>
    <i name="e_wo_entrp">    -21.36234466 </i>
    <i name="e_0_energy">    -21.36234466 </i>
   </energy>
  </scstep>
  <structure>
   <crystal>
    <varray name="basis" >
     <v>       3.29720400       0.00000000       0.00000000 </v>
     <v>       0.00000000       5.06462700      -0.00005300 </v>
     <v>       0.00000000       0.00000000      20.02439000 </v>
    </varray>
    <i name="volume">    334.38945931 </i>
    <varray name="rec_basis" >
     <v>       0.30328727       0.00000000       0.00000000 </v>
     <v>       0.00000000       0.19744791       0.00000000 </v>
     <v>       0.00000000       0.00000052       0.04993910 </v>
    </varray>
   </crystal>
   <varray name="positions" >
    <v>       0.50000000       0.89751628       0.55139934 </v>
    <v>       0.50000000       0.10248372       0.44860066 </v>
    <v>      -0.00000000       0.39751223       0.44860066 </v>
    <v>       0.00000000       0.60248777       0.55139934 </v>
   </varray>
  </structure>
  <varray name="forces" >
   <v>       0.00000006       0.01883914      -0.14108125 </v>
   <v>      -0.00000006      -0.01883914       0.14108125 </v>
   <v>       0.00000009       0.01883690       0.14108027 </v>
   <v>      -0.00000009      -0.01883690      -0.14108027 </v>
  </varray>
  <varray name="stress" >
   <v>      -5.49441150       0.00000034      -0.00000013 </v>
   <v>       0.00000039     -10.48338964       0.00012948 </v>
   <v>      -0.00000011       0.00012947      -2.90052973 </v>
  </varray>
  <energy>
   <i name="e_fr_energy">    -21.36234466 </i>
   <i name="e_wo_entrp">    -21.36234466 </i>
   <i name="e_0_energy">     -0.00000000 </i>
  </energy>
  <time name="totalsc">   11.83   11.84</time>
 </calculation>
 <calculation>
  <scstep>
   <time name="dav">    1.56    1.56</time>
   <time name="total">    1.68    1.69</time>
   <energy>
    <i name="alphaZ">      4.79728351 </i>
    <i name="ewald">   1698.73957195 </i>
    <i name="hartreedc">  -2301.72585707 </i>
    <i name="XCdc">     13.74766366 </i>
    <i name="pawpsdc">   1993.30604012 </i>
    <i name="pawaedc">  -1960.95943653 </i>
    <i name="eentropy">     -0.00000000 </i>
    <i name="bandstr">   -173.43691533 </i>
    <i name="atom">    704.16778566 </i>
    <i name="e_fr_energy">    -21.36386402 </i>
    <i name="e_wo_entrp">    -21.36386402 </i>
    <i name="e_0_energy">    -21.36386402 </i>
   </energy>
  </scstep>
  <scstep>
   <time name="dav">    2.02    2.03</time>
   <time name="total">    2.14    2.15</time>
   <energy>
    <i name="e_fr_energy">    -21.36584978 </i>
    <i name="e_wo_entrp">    -21.36584978 </i>
    <i name="e_0_energy">    -21.36584978 </i>
   </energy>
  </scstep>
  <scstep>
   <time name="dav">    2.18    2.18</time>
   <time name="total">    2.30    2.30</time>
   <energy>
    <i name="e_fr_energy">    -21.36581153 </i>
    <i name="e_wo_entrp">    -21.36581153 </i>
    <i name="e_0_energy">    -21.36581153 </i>
   </energy>
  </scstep>
  <scstep>
   <time name="dav">    1.92    1.92</time>
   <time name="total">    2.04    2.05</time>
   <energy>
    <i name="e_fr_energy">    -21.36580646 </i>
    <i name="e_wo_entrp">    -21.36580646 </i>
    <i name="e_0_energy">    -21.36580646 </i>
   </energy>
  </scstep>
  <scstep>
   <time name="dav">    1.76    1.76</time>
   <time name="total">    1.88    1.88</time>
   <energy>
    <i name="e_fr_energy">    -21.36580548 </i>
    <i name="e_wo_entrp">    -21.36580548 </i>
    <i name="e_0_energy">    -21.36580548 </i>
   </energy>
  </scstep>
  <scstep>
   <time name="dav">    1.33    1.33</time>
   <time name="total">    1.35    1.35</time>
   <energy>
    <i name="alphaZ">      4.79728351 </i>
    <i name="ewald">   1698.73957195 </i>
    <i name="hartreedc">  -2301.72256448 </i>
    <i name="XCdc">     13.75072067 </i>
    <i name="pawpsdc">   2020.54864415 </i>
    <i name="pawaedc">  -1988.21111779 </i>
    <i name="eentropy">     -0.00000000 </i>
    <i name="bandstr">   -173.43613008 </i>
    <i name="atom">    704.16778566 </i>
    <i name="e_fr_energy">    -21.36580642 </i>
    <i name="e_wo_entrp">    -21.36580642 </i>
    <i name="e_0_energy">    -21.36580642 </i>
   </energy>
  </scstep>
  <structure>
   <crystal>
    <varray name="basis" >
     <v>       3.29720400       0.00000000       0.00000000 </v>
     <v>       0.00000000       5.06462700      -0.00005300 </v>
     <v>       0.00000000       0.00000000      20.02439000 </v>
    </varray>
    <i name="volume">    334.38945931 </i>
    <varray name="rec_basis" >
     <v>       0.30328727       0.00000000       0.00000000 </v>
     <v>       0.00000000       0.19744791       0.00000000 </v>
     <v>       0.00000000       0.00000052       0.04993910 </v>
    </varray>
   </crystal>
   <varray name="positions" >
    <v>       0.50000000       0.89754722       0.55086312 </v>
    <v>       0.50000000       0.10245278       0.44913688 </v>
    <v>      -0.00000000       0.39754315       0.44913688 </v>
    <v>       0.00000000       0.60245685       0.55086312 </v>
   </varray>
  </structure>
  <varray name="forces" >
   <v>       0.00000017      -0.01641884      -0.01660311 </v>
   <v>      -0.00000017       0.01641884       0.01660311 </v>
   <v>       0.00000018      -0.01642227       0.01660270 </v>
   <v>      -0.00000018       0.01642227      -0.01660270 </v>
  </varray>
  <varray name="stress" >
   <v>      -5.24493501       0.00000048      -0.00000014 </v>
   <v>       0.00000054      -9.98167961       0.00013722 </v>
   <v>      -0.00000018       0.00013728      -0.44920377 </v>
  </varray>
  <energy>
   <i name="e_fr_energy">    -21.36580642 </i>
   <i name="e_wo_entrp">    -21.36580642 </i>
   <i name="e_0_energy">     -0.00000000 </i>
  </energy>
  <time name="totalsc">   12.21   12.24</time>
 </calculation>
 <calculation>
  <scstep>
   <time name="dav">    1.58    1.58</time>
   <time name="total">    1.70    1.70</time>
   <energy>
    <i name="alphaZ">      4.79728351 </i>
    <i name="ewald">   1699.89145426 </i>
    <i name="hartreedc">  -2302.79021793 </i>
    <i name="XCdc">     13.75840629 </i>
    <i name="pawpsdc">   2020.51381757 </i>
    <i name="pawaedc">  -1988.17607039 </i>
    <i name="eentropy">     -0.00000000 </i>
    <i name="bandstr">   -173.52827839 </i>
    <i name="atom">    704.16778566 </i>
    <i name="e_fr_energy">    -21.36581942 </i>
    <i name="e_wo_entrp">    -21.36581942 </i>
    <i name="e_0_energy">    -21.36581942 </i>
   </energy>
  </scstep>
  <scstep>
   <time name="dav">    2.01    2.01</time>
   <time name="total">    2.13    2.13</time>
   <energy>
    <i name="e_fr_energy">    -21.36585687 </i>
    <i name="e_wo_entrp">    -21.36585687 </i>
    <i name="e_0_energy">    -21.36585687 </i>
   </energy>
  </scstep>
  <scstep>
   <time name="dav">    1.50    1.50</time>
   <time name="total">    1.62    1.62</time>
   <energy>
    <i name="e_fr_energy">    -21.36585728 </i>
    <i name="e_wo_entrp">    -21.36585728 </i>
    <i name="e_0_energy">    -21.36585728 </i>
   </energy>
  </scstep>
  <scstep>
   <time name="dav">    1.44    1.44</time>
   <time name="total">    1.56    1.56</time>
   <energy>
    <i name="e_fr_energy">    -21.36585927 </i>
    <i name="e_wo_entrp">    -21.36585927 </i>
    <i name="e_0_energy">    -21.36585927 </i>
   </energy>
  </scstep>
  <scstep>
   <time name="dav">    1.37    1.37</time>
   <time name="total">    1.49    1.49</time>
   <energy>
    <i name="e_fr_energy">    -21.36586013 </i>
    <i name="e_wo_entrp">    -21.36586013 </i>
    <i name="e_0_energy">    -21.36586013 </i>
   </energy>
  </scstep>
  <scstep>
   <time name="dav">    1.33    1.33</time>
   <time name="total">    1.35    1.35</time>
   <energy>
    <i name="alphaZ">      4.79728351 </i>
    <i name="ewald">   1699.89145426 </i>
    <i name="hartreedc">  -2302.76569511 </i>
    <i name="XCdc">     13.75856998 </i>
    <i name="pawpsdc">   2024.12829253 </i>
    <i name="pawaedc">  -1991.79180170 </i>
    <i name="eentropy">     -0.00000000 </i>
    <i name="bandstr">   -173.55174985 </i>
    <i name="atom">    704.16778566 </i>
    <i name="e_fr_energy">    -21.36586071 </i>
    <i name="e_wo_entrp">    -21.36586071 </i>
    <i name="e_0_energy">    -21.36586071 </i>
   </energy>
  </scstep>
  <structure>
   <crystal>
    <varray name="basis" >
     <v>       3.29720400       0.00000000       0.00000000 </v>
     <v>       0.00000000       5.06462700      -0.00005300 </v>
     <v>       0.00000000       0.00000000      20.02439000 </v>
    </varray>
    <i name="volume">    334.38945931 </i>
    <varray name="rec_basis" >
     <v>       0.30328727       0.00000000       0.00000000 </v>
     <v>       0.00000000       0.19744791       0.00000000 </v>
     <v>       0.00000000       0.00000052       0.04993910 </v>
    </varray>
   </crystal>
   <varray name="positions" >
    <v>       0.50000000       0.89755127       0.55079292 </v>
    <v>       0.50000000       0.10244873       0.44920708 </v>
    <v>      -0.00000000       0.39754720       0.44920708 </v>
    <v>       0.00000000       0.60245280       0.55079292 </v>
   </varray>
  </structure>
  <varray name="forces" >
   <v>       0.00000027      -0.02130433       0.00021962 </v>
   <v>      -0.00000027       0.02130433      -0.00021962 </v>
   <v>       0.00000029      -0.02130799      -0.00021981 </v>
   <v>      -0.00000029       0.02130799       0.00021981 </v>
  </varray>
  <varray name="stress" >
   <v>      -5.18739085       0.00000347      -0.00000015 </v>
   <v>       0.00000340      -9.90311615       0.00014147 </v>
   <v>      -0.00000017       0.00014149      -0.08196823 </v>
  </varray>
  <energy>
   <i name="e_fr_energy">    -21.36586071 </i>
   <i name="e_wo_entrp">    -21.36586071 </i>
   <i name="e_0_energy">     -0.00000000 </i>
  </energy>
  <time name="totalsc">   10.68   10.70</time>
 </calculation>
 <calculation>
  <scstep>
   <time name="dav">    1.51    1.51</time>
   <time name="total">    1.63    1.63</time>
   <energy>
    <i name="alphaZ">      4.79728351 </i>
    <i name="ewald">   1699.85527630 </i>
    <i name="hartreedc">  -2302.72103298 </i>
    <i name="XCdc">     13.75819390 </i>
    <i name="pawpsdc">   2024.25837802 </i>
    <i name="pawaedc">  -1991.92186107 </i>
    <i name="eentropy">     -0.00000000 </i>
    <i name="bandstr">   -173.55988559 </i>
    <i name="atom">    704.16778566 </i>
    <i name="e_fr_energy">    -21.36586225 </i>
    <i name="e_wo_entrp">    -21.36586225 </i>
    <i name="e_0_energy">    -21.36586225 </i>
   </energy>
  </scstep>
  <scstep>
   <time name="dav">    1.36    1.36</time>
   <time name="total">    1.48    1.48</time>
   <energy>
    <i name="e_fr_energy">    -21.36586255 </i>
    <i name="e_wo_entrp">    -21.36586255 </i>
    <i name="e_0_energy">    -21.36586255 </i>
   </energy>
  </scstep>
  <scstep>
   <time name="dav">    1.28    1.28</time>
   <time name="total">    1.40    1.40</time>
   <energy>
    <i name="e_fr_energy">    -21.36586282 </i>
    <i name="e_wo_entrp">    -21.36586282 </i>
    <i name="e_0_energy">    -21.36586282 </i>
   </energy>
  </scstep>
  <scstep>
   <time name="dav">    1.36    1.36</time>
   <time name="total">    1.48    1.48</time>
   <energy>
    <i name="e_fr_energy">    -21.36586312 </i>
    <i name="e_wo_entrp">    -21.36586312 </i>
    <i name="e_0_energy">    -21.36586312 </i>
   </energy>
  </scstep>
  <scstep>
   <time name="dav">    1.32    1.33</time>
   <time name="total">    1.44    1.45</time>
   <energy>
    <i name="e_fr_energy">    -21.36586329 </i>
    <i name="e_wo_entrp">    -21.36586329 </i>
    <i name="e_0_energy">    -21.36586329 </i>
   </energy>
  </scstep>
  <scstep>
   <time name="dav">    1.45    1.45</time>
   <time name="total">    1.47    1.47</time>
   <energy>
    <i name="alphaZ">      4.79728351 </i>
    <i name="ewald">   1699.85527630 </i>
    <i name="hartreedc">  -2302.71214700 </i>
    <i name="XCdc">     13.75812762 </i>
    <i name="pawpsdc">   2024.10546817 </i>
    <i name="pawaedc">  -1991.76892658 </i>
    <i name="eentropy">     -0.00000000 </i>
    <i name="bandstr">   -173.56873124 </i>
    <i name="atom">    704.16778566 </i>
    <i name="e_fr_energy">    -21.36586355 </i>
    <i name="e_wo_entrp">    -21.36586355 </i>
    <i name="e_0_energy">    -21.36586355 </i>
   </energy>
  </scstep>
  <structure>
   <crystal>
    <varray name="basis" >
     <v>       3.29720400       0.00000000       0.00000000 </v>
     <v>       0.00000000       5.06462700      -0.00005300 </v>
     <v>       0.00000000       0.00000000      20.02439000 </v>
    </varray>
    <i name="volume">    334.38945931 </i>
    <varray name="rec_basis" >
     <v>       0.30328727       0.00000000       0.00000000 </v>
     <v>       0.00000000       0.19744791       0.00000000 </v>
     <v>       0.00000000       0.00000052       0.04993910 </v>
    </varray>
   </crystal>
   <varray name="positions" >
    <v>       0.50000000       0.89755114       0.55079512 </v>
    <v>       0.50000000       0.10244886       0.44920488 </v>
    <v>      -0.00000000       0.39754707       0.44920488 </v>
    <v>       0.00000000       0.60245293       0.55079512 </v>
   </varray>
  </structure>
  <varray name="forces" >
   <v>       0.00000027      -0.02116018      -0.00054104 </v>
   <v>      -0.00000027       0.02116018       0.00054104 </v>
   <v>       0.00000029      -0.02116385       0.00054086 </v>
   <v>      -0.00000029       0.02116385      -0.00054086 </v>
  </varray>
  <varray name="stress" >
   <v>      -5.18537624       0.00000352      -0.00000019 </v>
   <v>       0.00000352      -9.90247955       0.00014143 </v>
   <v>      -0.00000018       0.00014144      -0.08275588 </v>
  </varray>
  <energy>
   <i name="e_fr_energy">    -21.36586355 </i>
   <i name="e_wo_entrp">    -21.36586355 </i>
   <i name="e_0_energy">     -0.00000000 </i>
  </energy>
  <time name="totalsc">    9.73    9.75</time>
 </calculation>
 <calculation>
  <scstep>
   <time name="dav">    1.74    1.74</time>
   <time name="total">    1.86    1.86</time>
   <energy>
    <i name="alphaZ">      4.79728351 </i>
    <i name="ewald">   1700.22336516 </i>
    <i name="hartreedc">  -2303.02208416 </i>
    <i name="XCdc">     13.76411920 </i>
    <i name="pawpsdc">   2024.10996927 </i>
    <i name="pawaedc">  -1991.77342915 </i>
    <i name="eentropy">     -0.00000000 </i>
    <i name="bandstr">   -173.63290356 </i>
    <i name="atom">    704.16778566 </i>
    <i name="e_fr_energy">    -21.36589407 </i>
    <i name="e_wo_entrp">    -21.36589407 </i>
    <i name="e_0_energy">    -21.36589407 </i>
   </energy>
  </scstep>
  <scstep>
   <time name="dav">    2.02    2.02</time>
   <time name="total">    2.14    2.14</time>
   <energy>
    <i name="e_fr_energy">    -21.36590747 </i>
    <i name="e_wo_entrp">    -21.36590747 </i>
    <i name="e_0_energy">    -21.36590747 </i>
   </energy>
  </scstep>
  <scstep>
   <time name="dav">    1.31    1.31</time>
   <time name="total">    1.43    1.43</time>
   <energy>
    <i name="e_fr_energy">    -21.36590766 </i>
    <i name="e_wo_entrp">    -21.36590766 </i>
    <i name="e_0_energy">    -21.36590766 </i>
   </energy>
  </scstep>
  <scstep>
   <time name="dav">    1.16    1.16</time>
   <time name="total">    1.28    1.28</time>
   <energy>
    <i name="e_fr_energy">    -21.36590816 </i>
    <i name="e_wo_entrp">    -21.36590816 </i>
    <i name="e_0_energy">    -21.36590816 </i>
   </energy>
  </scstep>
  <scstep>
   <time name="dav">    1.16    1.16</time>
   <time name="total">    1.28    1.28</time>
   <energy>
    <i name="e_fr_energy">    -21.36590807 </i>
    <i name="e_wo_entrp">    -21.36590807 </i>
    <i name="e_0_energy">    -21.36590807 </i>
   </energy>
  </scstep>
  <scstep>
   <time name="dav">    1.17    1.17</time>
   <time name="total">    1.19    1.19</time>
   <energy>
    <i name="alphaZ">      4.79728351 </i>
    <i name="ewald">   1700.22336516 </i>
    <i name="hartreedc">  -2303.02551374 </i>
    <i name="XCdc">     13.76471344 </i>
    <i name="pawpsdc">   2027.51223825 </i>
    <i name="pawaedc">  -1995.17701317 </i>
    <i name="eentropy">     -0.00000000 </i>
    <i name="bandstr">   -173.62876718 </i>
    <i name="atom">    704.16778566 </i>
    <i name="e_fr_energy">    -21.36590808 </i>
    <i name="e_wo_entrp">    -21.36590808 </i>
    <i name="e_0_energy">    -21.36590808 </i>
   </energy>
  </scstep>
  <structure>
   <crystal>
    <varray name="basis" >
     <v>       3.29720400       0.00000000       0.00000000 </v>
     <v>       0.00000000       5.06462700      -0.00005300 </v>
     <v>       0.00000000       0.00000000      20.02439000 </v>
    </varray>
    <i name="volume">    334.38945931 </i>
    <varray name="rec_basis" >
     <v>       0.30328727       0.00000000       0.00000000 </v>
     <v>       0.00000000       0.19744791       0.00000000 </v>
     <v>       0.00000000       0.00000052       0.04993910 </v>
    </varray>
   </crystal>
   <varray name="positions" >
    <v>       0.50000000       0.89736491       0.55078194 </v>
    <v>       0.50000000       0.10263509       0.44921806 </v>
    <v>      -0.00000000       0.39736081       0.44921806 </v>
    <v>       0.00000000       0.60263919       0.55078194 </v>
   </varray>
  </structure>
  <varray name="forces" >
   <v>       0.00000006      -0.00132349      -0.00042390 </v>
   <v>      -0.00000006       0.00132349       0.00042390 </v>
   <v>       0.00000008      -0.00132611       0.00042390 </v>
   <v>      -0.00000008       0.00132611      -0.00042390 </v>
  </varray>
  <varray name="stress" >
   <v>      -5.10258962      -0.00000013      -0.00000010 </v>
   <v>      -0.00000015      -9.62771245       0.00012947 </v>
   <v>      -0.00000021       0.00012941      -0.08381595 </v>
  </varray>
  <energy>
   <i name="e_fr_energy">    -21.36590808 </i>
   <i name="e_wo_entrp">    -21.36590808 </i>
   <i name="e_0_energy">     -0.00000000 </i>
  </energy>
  <time name="totalsc">    9.93    9.95</time>
  <eigenvalues>
   <array>
    <dimension dim="1">band</dimension>
    <dimension dim="2">kpoint</dimension>
    <dimension dim="3">spin</dimension>
    <field>eigene</field>
    <field>occ</field>
    <set>
     <set comment="spin 1">
      <set comment="kpoint 1">
       <r>  -17.2810    1.0000 </r>
       <r>  -15.1229    1.0000 </r>
       <r>  -12.1175    1.0000 </r>
       <r>   -8.1048    1.0000 </r>
       <r>   -7.5892    1.0000 </r>
       <r>   -6.8192    1.0000 </r>
       <r>   -5.7078    1.0000 </r>
       <r>   -4.3509    1.0000 </r>
       <r>   -3.9710    1.0000 </r>
       <r>   -2.6146    1.0000 </r>
       <r>   -1.4205    0.0000 </r>
       <r>   -0.8495    0.0000 </r>
       <r>   -0.0755    0.0000 </r>
       <r>    0.4057    0.0000 </r>
       <r>    1.8348    0.0000 </r>
       <r>    2.1598    0.0000 </r>
      </set>
      <set comment="kpoint 2">
       <r>  -17.2566    1.0000 </r>
       <r>  -15.0972    1.0000 </r>
       <r>  -12.1184    1.0000 </r>
       <r>   -8.0878    1.0000 </r>
       <r>   -7.5982    1.0000 </r>
       <r>   -6.7979    1.0000 </r>
       <r>   -5.8820    1.0000 </r>
       <r>   -4.5334    1.0000 </r>
       <r>   -3.9668    1.0000 </r>
       <r>   -2.6152    1.0000 </r>
       <r>   -1.4000    0.0000 </r>
       <r>   -0.6157    0.0000 </r>
       <r>    0.1513    0.0000 </r>
       <r>    0.2627    0.0000 </r>
       <r>    1.8594    0.0000 </r>
       <r>    2.1894    0.0000 </r>
      </set>
      <set comment="kpoint 3">
       <r>  -17.1834    1.0000 </r>
       <r>  -15.0201    1.0000 </r>
       <r>  -12.1247    1.0000 </r>
       <r>   -8.0377    1.0000 </r>
       <r>   -7.6386    1.0000 </r>
       <r>   -6.7347    1.0000 </r>
       <r>   -6.3156    1.0000 </r>
       <r>   -4.9665    1.0000 </r>
       <r>   -3.9585    1.0000 </r>
       <r>   -2.6267    1.0000 </r>
       <r>   -1.3392    0.0000 </r>
       <r>   -0.0907    0.0000 </r>
       <r>    0.0055    0.0000 </r>
       <r>    0.7093    0.0000 </r>
       <r>    1.9266    0.0000 </r>
       <r>    2.2751    0.0000 </r>
      </set>
      <set comment="kpoint 4">
       <r>  -17.0618    1.0000 </r>
       <r>  -14.8918    1.0000 </r>
       <r>  -12.1473    1.0000 </r>
       <r>   -7.9574    1.0000 </r>
       <r>   -7.7556    1.0000 </r>
       <r>   -6.8535    1.0000 </r>
       <r>   -6.6307    1.0000 </r>
       <r>   -5.4445    1.0000 </r>
       <r>   -3.9597    1.0000 </r>
       <r>   -2.6623    1.0000 </r>
       <r>   -1.2416    0.0000 </r>
       <r>   -0.5194    0.0000 </r>
       <r>    0.8687    0.0000 </r>
       <r>    1.3186    0.0000 </r>
       <r>    1.9466    0.0000 </r>
       <r>    2.3048    0.0000 </r>
      </set>
      <set comment="kpoint 5">
       <r>  -16.8925    1.0000 </r>
       <r>  -14.7124    1.0000 </r>
       <r>  -12.2049    1.0000 </r>
       <r>   -8.0217    1.0000 </r>
       <r>   -7.8523    1.0000 </r>
       <r>   -7.3815    1.0000 </r>
       <r>   -6.4884    1.0000 </r>
       <r>   -5.7980    1.0000 </r>
       <r>   -3.9940    1.0000 </r>
       <r>   -2.7330    1.0000 </r>
       <r>   -1.1151    0.0000 </r>
       <r>   -0.9144    0.0000 </r>
       <r>    1.4455    0.0000 </r>
       <r>    1.5455    0.0000 </r>
       <r>    1.8439    0.0000 </r>
       <r>    2.3472    0.0000 </r>
      </set>
      <set comment="kpoint 6">
       <r>  -16.6762    1.0000 </r>
       <r>  -14.4825    1.0000 </r>
       <r>  -12.3223    1.0000 </r>
       <r>   -8.4696    1.0000 </r>
       <r>   -7.8258    1.0000 </r>
       <r>   -7.7319    1.0000 </r>
       <r>   -6.3121    1.0000 </r>
       <r>   -5.9485    1.0000 </r>
       <r>   -4.0880    1.0000 </r>
       <r>   -2.8503    1.0000 </r>
       <r>   -1.1957    0.0000 </r>
       <r>   -0.9792    0.0000 </r>
       <r>    1.0105    0.0000 </r>
       <r>    1.0368    0.0000 </r>
       <r>    2.4396    0.0000 </r>
       <r>    2.5769    0.0000 </r>
      </set>
      <set comment="kpoint 7">
       <r>  -16.4145    1.0000 </r>
       <r>  -14.2024    1.0000 </r>
       <r>  -12.5228    1.0000 </r>
       <r>   -9.0447    1.0000 </r>
       <r>   -8.1390    1.0000 </r>
       <r>   -7.6119    1.0000 </r>
       <r>   -6.1084    1.0000 </r>
       <r>   -5.9316    1.0000 </r>
       <r>   -4.2488    1.0000 </r>
       <r>   -3.0231    1.0000 </r>
       <r>   -1.3168    0.0000 </r>
       <r>   -0.8847    0.0000 </r>
       <r>    0.4390    0.0000 </r>
       <r>    0.6188    0.0000 </r>
       <r>    2.0849    0.0000 </r>
       <r>    2.8759    0.0000 </r>
      </set>
      <set comment="kpoint 8">
       <r>  -16.1090    1.0000 </r>
       <r>  -13.8728    1.0000 </r>
       <r>  -12.8158    1.0000 </r>
       <r>   -9.6737    1.0000 </r>
       <r>   -8.3011    1.0000 </r>
       <r>   -7.5167    1.0000 </r>
       <r>   -5.8880    1.0000 </r>
       <r>   -5.8161    1.0000 </r>
       <r>   -4.4407    1.0000 </r>
       <r>   -3.2526    1.0000 </r>
       <r>   -1.2762    0.0000 </r>
       <r>   -0.9332    0.0000 </r>
       <r>   -0.1342    0.0000 </r>
       <r>    0.4273    0.0000 </r>
       <r>    1.6463    0.0000 </r>
       <r>    3.0665    0.0000 </r>
      </set>
      <set comment="kpoint 9">
       <r>  -15.7625    1.0000 </r>
       <r>  -13.4945    1.0000 </r>
       <r>  -13.1887    1.0000 </r>
       <r>  -10.3110    1.0000 </r>
       <r>   -8.3211    1.0000 </r>
       <r>   -7.4792    1.0000 </r>
       <r>   -5.6680    1.0000 </r>
       <r>   -5.6542    1.0000 </r>
       <r>   -4.5955    1.0000 </r>
       <r>   -3.5283    1.0000 </r>
       <r>   -1.1505    0.0000 </r>
       <r>   -1.1030    0.0000 </r>
       <r>   -0.6594    0.0000 </r>
       <r>    0.5146    0.0000 </r>
       <r>    1.2119    0.0000 </r>
       <r>    2.7499    0.0000 </r>
      </set>
      <set comment="kpoint 10">
       <r>  -15.3785    1.0000 </r>
       <r>  -13.6151    1.0000 </r>
       <r>  -13.0688    1.0000 </r>
       <r>  -10.9324    1.0000 </r>
       <r>   -8.2282    1.0000 </r>
       <r>   -7.5281    1.0000 </r>
       <r>   -5.4869    1.0000 </r>
       <r>   -5.4742    1.0000 </r>
       <r>   -4.6488    1.0000 </r>
       <r>   -3.8293    1.0000 </r>
       <r>   -1.4019    0.0000 </r>
       <r>   -1.1000    0.0000 </r>
       <r>   -0.8309    0.0000 </r>
       <r>    0.7736    0.0000 </r>
       <r>    0.7754    0.0000 </r>
       <r>    2.3588    0.0000 </r>
      </set>
      <set comment="kpoint 11">
       <r>  -14.9623    1.0000 </r>
       <r>  -14.0669    1.0000 </r>
       <r>  -12.5971    1.0000 </r>
       <r>  -11.5251    1.0000 </r>
       <r>   -8.0602    1.0000 </r>
       <r>   -7.6648    1.0000 </r>
       <r>   -5.3549    1.0000 </r>
       <r>   -5.3406    1.0000 </r>
       <r>   -4.5742    1.0000 </r>
       <r>   -4.1270    1.0000 </r>
       <r>   -1.5673    0.0000 </r>
       <r>   -1.4190    0.0000 </r>
       <r>   -0.4869    0.0000 </r>
       <r>    0.3340    0.0000 </r>
       <r>    1.1234    0.0000 </r>
       <r>    1.9384    0.0000 </r>
      </set>
      <set comment="kpoint 12">
       <r>  -14.5213    1.0000 </r>
       <r>  -14.5213    1.0000 </r>
       <r>  -12.0815    1.0000 </r>
       <r>  -12.0815    1.0000 </r>
       <r>   -7.8575    1.0000 </r>
       <r>   -7.8575    1.0000 </r>
       <r>   -5.2983    1.0000 </r>
       <r>   -5.2983    1.0000 </r>
       <r>   -4.3880    1.0000 </r>
       <r>   -4.3880    1.0000 </r>
       <r>   -1.5804    0.0000 </r>
       <r>   -1.5804    0.0000 </r>
       <r>   -0.0923    0.0000 </r>
       <r>   -0.0923    0.0000 </r>
       <r>    1.5190    0.0000 </r>
       <r>    1.5190    0.0000 </r>
      </set>
      <set comment="kpoint 13">
       <r>  -17.2616    1.0000 </r>
       <r>  -15.1650    1.0000 </r>
       <r>  -12.0847    1.0000 </r>
       <r>   -8.3605    1.0000 </r>
       <r>   -7.3538    1.0000 </r>
       <r>   -6.7548    1.0000 </r>
       <r>   -5.6933    1.0000 </r>
       <r>   -4.3708    1.0000 </r>
       <r>   -3.9313    1.0000 </r>
       <r>   -2.7927    1.0000 </r>
       <r>   -1.2439    0.0000 </r>
       <r>   -0.8347    0.0000 </r>
       <r>   -0.1239    0.0000 </r>
       <r>    0.4210    0.0000 </r>
       <r>    1.8829    0.0000 </r>
       <r>    2.1818    0.0000 </r>
      </set>
      <set comment="kpoint 14">
       <r>  -17.2371    1.0000 </r>
       <r>  -15.1395    1.0000 </r>
       <r>  -12.0851    1.0000 </r>
       <r>   -8.3493    1.0000 </r>
       <r>   -7.3565    1.0000 </r>
       <r>   -6.7375    1.0000 </r>
       <r>   -5.8638    1.0000 </r>
       <r>   -4.5549    1.0000 </r>
       <r>   -3.9287    1.0000 </r>
       <r>   -2.7905    1.0000 </r>
       <r>   -1.2258    0.0000 </r>
       <r>   -0.6019    0.0000 </r>
       <r>    0.0977    0.0000 </r>
       <r>    0.2866    0.0000 </r>
       <r>    1.9068    0.0000 </r>
       <r>    2.2122    0.0000 </r>
      </set>
      <set comment="kpoint 15">
       <r>  -17.1640    1.0000 </r>
       <r>  -15.0630    1.0000 </r>
       <r>  -12.0898    1.0000 </r>
       <r>   -8.3207    1.0000 </r>
       <r>   -7.3744    1.0000 </r>
       <r>   -6.6995    1.0000 </r>
       <r>   -6.2729    1.0000 </r>
       <r>   -4.9909    1.0000 </r>
       <r>   -3.9251    1.0000 </r>
       <r>   -2.7920    1.0000 </r>
       <r>   -1.1753    0.0000 </r>
       <r>   -0.0699    0.0000 </r>
       <r>    0.0178    0.0000 </r>
       <r>    0.6681    0.0000 </r>
       <r>    1.9710    0.0000 </r>
       <r>    2.2995    0.0000 </r>
      </set>
      <set comment="kpoint 16">
       <r>  -17.0425    1.0000 </r>
       <r>  -14.9357    1.0000 </r>
       <r>  -12.1096    1.0000 </r>
       <r>   -8.2966    1.0000 </r>
       <r>   -7.4360    1.0000 </r>
       <r>   -6.9044    1.0000 </r>
       <r>   -6.5042    1.0000 </r>
       <r>   -5.4702    1.0000 </r>
       <r>   -3.9345    1.0000 </r>
       <r>   -2.8105    1.0000 </r>
       <r>   -1.0952    0.0000 </r>
       <r>   -0.4845    0.0000 </r>
       <r>    0.8758    0.0000 </r>
       <r>    1.2824    0.0000 </r>
       <r>    1.9323    0.0000 </r>
       <r>    2.2363    0.0000 </r>
      </set>
      <set comment="kpoint 17">
       <r>  -16.8733    1.0000 </r>
       <r>  -14.7583    1.0000 </r>
       <r>  -12.1631    1.0000 </r>
       <r>   -8.3486    1.0000 </r>
       <r>   -7.5523    1.0000 </r>
       <r>   -7.4024    1.0000 </r>
       <r>   -6.3960    1.0000 </r>
       <r>   -5.8183    1.0000 </r>
       <r>   -3.9795    1.0000 </r>
       <r>   -2.8592    1.0000 </r>
       <r>   -0.9911    0.0000 </r>
       <r>   -0.8630    0.0000 </r>
       <r>    1.4060    0.0000 </r>
       <r>    1.4493    0.0000 </r>
       <r>    1.8989    0.0000 </r>
       <r>    2.3388    0.0000 </r>
      </set>
      <set comment="kpoint 18">
       <r>  -16.6573    1.0000 </r>
       <r>  -14.5315    1.0000 </r>
       <r>  -12.2751    1.0000 </r>
       <r>   -8.6220    1.0000 </r>
       <r>   -7.8414    1.0000 </r>
       <r>   -7.6190    1.0000 </r>
       <r>   -6.2308    1.0000 </r>
       <r>   -5.9597    1.0000 </r>
       <r>   -4.0834    1.0000 </r>
       <r>   -2.9521    1.0000 </r>
       <r>   -1.1276    0.0000 </r>
       <r>   -0.8800    0.0000 </r>
       <r>    0.9057    0.0000 </r>
       <r>    1.0503    0.0000 </r>
       <r>    2.4374    0.0000 </r>
       <r>    2.7089    0.0000 </r>
      </set>
      <set comment="kpoint 19">
       <r>  -16.3958    1.0000 </r>
       <r>  -14.2574    1.0000 </r>
       <r>  -12.4681    1.0000 </r>
       <r>   -9.1231    1.0000 </r>
       <r>   -8.1525    1.0000 </r>
       <r>   -7.5794    1.0000 </r>
       <r>   -6.0370    1.0000 </r>
       <r>   -5.9440    1.0000 </r>
       <r>   -4.2463    1.0000 </r>
       <r>   -3.1006    1.0000 </r>
       <r>   -1.2364    0.0000 </r>
       <r>   -0.8129    0.0000 </r>
       <r>    0.4892    0.0000 </r>
       <r>    0.4941    0.0000 </r>
       <r>    2.2112    0.0000 </r>
       <r>    2.9367    0.0000 </r>
      </set>
      <set comment="kpoint 20">
       <r>  -16.0908    1.0000 </r>
       <r>  -13.9416    1.0000 </r>
       <r>  -12.7468    1.0000 </r>
       <r>   -9.7242    1.0000 </r>
       <r>   -8.3123    1.0000 </r>
       <r>   -7.5084    1.0000 </r>
       <r>   -5.8488    1.0000 </r>
       <r>   -5.8298    1.0000 </r>
       <r>   -4.4248    1.0000 </r>
       <r>   -3.3061    1.0000 </r>
       <r>   -1.1919    0.0000 </r>
       <r>   -0.8962    0.0000 </r>
       <r>   -0.0715    0.0000 </r>
       <r>    0.3047    0.0000 </r>
       <r>    1.8194    0.0000 </r>
       <r>    2.9963    0.0000 </r>
      </set>
      <set comment="kpoint 21">
       <r>  -15.7450    1.0000 </r>
       <r>  -13.6213    1.0000 </r>
       <r>  -13.0626    1.0000 </r>
       <r>  -10.3486    1.0000 </r>
       <r>   -8.3291    1.0000 </r>
       <r>   -7.4731    1.0000 </r>
       <r>   -5.7273    1.0000 </r>
       <r>   -5.6304    1.0000 </r>
       <r>   -4.5462    1.0000 </r>
       <r>   -3.5555    1.0000 </r>
       <r>   -1.1412    0.0000 </r>
       <r>   -1.0344    0.0000 </r>
       <r>   -0.5807    0.0000 </r>
       <r>    0.3776    0.0000 </r>
       <r>    1.4281    0.0000 </r>
       <r>    2.6878    0.0000 </r>
      </set>
      <set comment="kpoint 22">
       <r>  -15.3622    1.0000 </r>
       <r>  -13.6636    1.0000 </r>
       <r>  -13.0225    1.0000 </r>
       <r>  -10.9624    1.0000 </r>
       <r>   -8.2322    1.0000 </r>
       <r>   -7.5191    1.0000 </r>
       <r>   -5.6047    1.0000 </r>
       <r>   -5.4699    1.0000 </r>
       <r>   -4.5564    1.0000 </r>
       <r>   -3.8227    1.0000 </r>
       <r>   -1.4020    0.0000 </r>
       <r>   -1.0936    0.0000 </r>
       <r>   -0.6987    0.0000 </r>
       <r>    0.5187    0.0000 </r>
       <r>    1.1139    0.0000 </r>
       <r>    2.3052    0.0000 </r>
      </set>
      <set comment="kpoint 23">
       <r>  -14.9482    1.0000 </r>
       <r>  -14.0686    1.0000 </r>
       <r>  -12.5997    1.0000 </r>
       <r>  -11.5488    1.0000 </r>
       <r>   -8.0595    1.0000 </r>
       <r>   -7.6559    1.0000 </r>
       <r>   -5.4875    1.0000 </r>
       <r>   -5.3858    1.0000 </r>
[...]
       <r>    2.5453    0.0000 </r>
       <r>    2.5453    0.0000 </r>
      </set>
      <set comment="kpoint 151">
       <r>  -15.5643    1.0000 </r>
       <r>  -15.5643    1.0000 </r>
       <r>  -10.9484    1.0000 </r>
       <r>  -10.9484    1.0000 </r>
       <r>   -7.9319    1.0000 </r>
       <r>   -7.9319    1.0000 </r>
       <r>   -5.2300    1.0000 </r>
       <r>   -5.2300    1.0000 </r>
       <r>   -4.1864    1.0000 </r>
       <r>   -4.1864    1.0000 </r>
       <r>   -0.3218    0.0000 </r>
       <r>   -0.3218    0.0000 </r>
       <r>    0.9344    0.0000 </r>
       <r>    0.9344    0.0000 </r>
       <r>    2.8629    0.0000 </r>
       <r>    2.8629    0.0000 </r>
      </set>
      <set comment="kpoint 152">
       <r>  -15.2805    1.0000 </r>
       <r>  -15.2805    1.0000 </r>
       <r>  -11.2293    1.0000 </r>
       <r>  -11.2293    1.0000 </r>
       <r>   -8.0633    1.0000 </r>
       <r>   -8.0633    1.0000 </r>
       <r>   -5.4989    1.0000 </r>
       <r>   -5.4989    1.0000 </r>
       <r>   -4.0244    1.0000 </r>
       <r>   -4.0244    1.0000 </r>
       <r>   -0.3796    0.0000 </r>
       <r>   -0.3796    0.0000 </r>
       <r>    0.7250    0.0000 </r>
       <r>    0.7250    0.0000 </r>
       <r>    2.9205    0.0000 </r>
       <r>    2.9205    0.0000 </r>
      </set>
      <set comment="kpoint 153">
       <r>  -14.9729    1.0000 </r>
       <r>  -14.9729    1.0000 </r>
       <r>  -11.6001    1.0000 </r>
       <r>  -11.6001    1.0000 </r>
       <r>   -8.0171    1.0000 </r>
       <r>   -8.0171    1.0000 </r>
       <r>   -5.8410    1.0000 </r>
       <r>   -5.8410    1.0000 </r>
       <r>   -3.8283    1.0000 </r>
       <r>   -3.8283    1.0000 </r>
       <r>   -0.3958    0.0000 </r>
       <r>   -0.3958    0.0000 </r>
       <r>    0.5247    0.0000 </r>
       <r>    0.5247    0.0000 </r>
       <r>    2.7340    0.0000 </r>
       <r>    2.7340    0.0000 </r>
      </set>
      <set comment="kpoint 154">
       <r>  -14.6646    1.0000 </r>
       <r>  -14.6646    1.0000 </r>
       <r>  -11.9907    1.0000 </r>
       <r>  -11.9907    1.0000 </r>
       <r>   -7.8499    1.0000 </r>
       <r>   -7.8499    1.0000 </r>
       <r>   -6.2078    1.0000 </r>
       <r>   -6.2078    1.0000 </r>
       <r>   -3.6370    1.0000 </r>
       <r>   -3.6370    1.0000 </r>
       <r>   -0.4484    0.0000 </r>
       <r>   -0.4484    0.0000 </r>
       <r>    0.4409    0.0000 </r>
       <r>    0.4409    0.0000 </r>
       <r>    2.4064    0.0000 </r>
       <r>    2.4064    0.0000 </r>
      </set>
      <set comment="kpoint 155">
       <r>  -14.4069    1.0000 </r>
       <r>  -14.4069    1.0000 </r>
       <r>  -12.3115    1.0000 </r>
       <r>  -12.3115    1.0000 </r>
       <r>   -7.6329    1.0000 </r>
       <r>   -7.6329    1.0000 </r>
       <r>   -6.5404    1.0000 </r>
       <r>   -6.5404    1.0000 </r>
       <r>   -3.4927    1.0000 </r>
       <r>   -3.4927    1.0000 </r>
       <r>   -0.5433    0.0000 </r>
       <r>   -0.5433    0.0000 </r>
       <r>    0.4856    0.0000 </r>
       <r>    0.4856    0.0000 </r>
       <r>    2.1065    0.0000 </r>
       <r>    2.1065    0.0000 </r>
      </set>
      <set comment="kpoint 156">
       <r>  -14.2977    1.0000 </r>
       <r>  -14.2977    1.0000 </r>
       <r>  -12.4438    1.0000 </r>
       <r>  -12.4438    1.0000 </r>
       <r>   -7.5082    1.0000 </r>
       <r>   -7.5082    1.0000 </r>
       <r>   -6.7031    1.0000 </r>
       <r>   -6.7031    1.0000 </r>
       <r>   -3.4380    1.0000 </r>
       <r>   -3.4380    1.0000 </r>
       <r>   -0.5906    0.0000 </r>
       <r>   -0.5906    0.0000 </r>
       <r>    0.5298    0.0000 </r>
       <r>    0.5298    0.0000 </r>
       <r>    1.9810    0.0000 </r>
       <r>    1.9810    0.0000 </r>
      </set>
     </set>
    </set>
   </array>
  </eigenvalues>
  <separator name="orbital magnetization" >
   <v name="MAGDIPOLOUT">      0.00000000      0.00000000      0.00000000</v>
  </separator>
  <dos>
   <i name="efermi">     -2.51416573 </i>
   <total>
    <array>
     <dimension dim="1">gridpoints</dimension>
     <dimension dim="2">spin</dimension>
     <field>energy</field>
     <field>total</field>
     <field>integrated</field>
     <set>
      <set comment="spin 1">
       <r>   -18.3058     0.0000     0.0000 </r>
       <r>   -18.2307     0.0000     0.0000 </r>
       <r>   -18.1555     0.0000     0.0000 </r>
       <r>   -18.0803     0.0000     0.0000 </r>
       <r>   -18.0052     0.0000     0.0000 </r>
       <r>   -17.9300     0.0000     0.0000 </r>
       <r>   -17.8549     0.0000     0.0000 </r>
       <r>   -17.7797     0.0000     0.0000 </r>
       <r>   -17.7046     0.0000     0.0000 </r>
       <r>   -17.6294     0.0000     0.0000 </r>
       <r>   -17.5543     0.0000     0.0000 </r>
       <r>   -17.4791     0.0000     0.0000 </r>
       <r>   -17.4040     0.0000     0.0000 </r>
       <r>   -17.3288     0.0000     0.0000 </r>
       <r>   -17.2537     0.3496     0.0263 </r>
       <r>   -17.1785     0.9367     0.0967 </r>
       <r>   -17.1033     0.8674     0.1619 </r>
       <r>   -17.0282     1.0272     0.2391 </r>
       <r>   -16.9530     1.0371     0.3170 </r>
       <r>   -16.8779     0.9377     0.3875 </r>
       <r>   -16.8027     0.9312     0.4575 </r>
       <r>   -16.7276     0.9266     0.5271 </r>
       <r>   -16.6524     0.8889     0.5939 </r>
       <r>   -16.5773     1.5534     0.7107 </r>
       <r>   -16.5021     0.6788     0.7617 </r>
       <r>   -16.4270     0.4087     0.7924 </r>
       <r>   -16.3518     1.8596     0.9321 </r>
       <r>   -16.2767     0.6450     0.9806 </r>
       <r>   -16.2015     1.0430     1.0590 </r>
       <r>   -16.1264     0.9586     1.1310 </r>
       <r>   -16.0512     1.1501     1.2175 </r>
       <r>   -15.9760     1.0800     1.2986 </r>
       <r>   -15.9009     1.2566     1.3931 </r>
       <r>   -15.8257     0.6115     1.4390 </r>
       <r>   -15.7506     1.5743     1.5574 </r>
       <r>   -15.6754     1.2018     1.6477 </r>
       <r>   -15.6003     0.9469     1.7188 </r>
       <r>   -15.5251     1.3751     1.8222 </r>
       <r>   -15.4500     1.2486     1.9160 </r>
       <r>   -15.3748     0.6043     1.9614 </r>
       <r>   -15.2997     2.1592     2.1237 </r>
       <r>   -15.2245     1.6099     2.2447 </r>
       <r>   -15.1494     1.0271     2.3219 </r>
       <r>   -15.0742     1.8389     2.4601 </r>
       <r>   -14.9990     1.4203     2.5668 </r>
       <r>   -14.9239     1.4005     2.6721 </r>
       <r>   -14.8487     1.4874     2.7839 </r>
       <r>   -14.7736     1.2679     2.8791 </r>
       <r>   -14.6984     1.0689     2.9595 </r>
       <r>   -14.6233     1.0887     3.0413 </r>
       <r>   -14.5481     0.7662     3.0989 </r>
       <r>   -14.4730     2.1060     3.2572 </r>
       <r>   -14.3978     1.1748     3.3454 </r>
       <r>   -14.3227     1.1155     3.4293 </r>
       <r>   -14.2475     1.8076     3.5651 </r>
       <r>   -14.1724     0.5969     3.6100 </r>
       <r>   -14.0972     1.1289     3.6948 </r>
       <r>   -14.0221     1.4679     3.8051 </r>
       <r>   -13.9469     0.2007     3.8202 </r>
       <r>   -13.8717     0.5847     3.8642 </r>
       <r>   -13.7966     0.4759     3.8999 </r>
       <r>   -13.7214     0.2946     3.9221 </r>
       <r>   -13.6463     0.3232     3.9464 </r>
       <r>   -13.5711     0.5406     3.9870 </r>
       <r>   -13.4960     0.0797     3.9930 </r>
       <r>   -13.4208     0.0934     4.0000 </r>
       <r>   -13.3457     0.0000     4.0000 </r>
       <r>   -13.2705     0.0000     4.0000 </r>
       <r>   -13.1954     0.0550     4.0041 </r>
       <r>   -13.1202     0.1179     4.0130 </r>
       <r>   -13.0451     0.4924     4.0500 </r>
       <r>   -12.9699     0.3716     4.0779 </r>
       <r>   -12.8947     0.2979     4.1003 </r>
       <r>   -12.8196     0.4544     4.1345 </r>
       <r>   -12.7444     0.6196     4.1810 </r>
       <r>   -12.6693     0.1834     4.1948 </r>
       <r>   -12.5941     1.3832     4.2988 </r>
       <r>   -12.5190     1.5208     4.4130 </r>
       <r>   -12.4438     0.7275     4.4677 </r>
       <r>   -12.3687     1.4703     4.5782 </r>
       <r>   -12.2935     1.6212     4.7001 </r>
       <r>   -12.2184     0.7390     4.7556 </r>
       <r>   -12.1432     1.8337     4.8934 </r>
       <r>   -12.0681     3.4635     5.1537 </r>
       <r>   -11.9929     1.5212     5.2680 </r>
       <r>   -11.9178     1.1802     5.3567 </r>
       <r>   -11.8426     1.6208     5.4785 </r>
       <r>   -11.7674     1.5523     5.5952 </r>
       <r>   -11.6923     0.7465     5.6513 </r>
       <r>   -11.6171     1.5046     5.7644 </r>
       <r>   -11.5420     1.7679     5.8972 </r>
       <r>   -11.4668     0.5910     5.9417 </r>
       <r>   -11.3917     0.7181     5.9956 </r>
       <r>   -11.3165     1.8402     6.1339 </r>
       <r>   -11.2414     0.4388     6.1669 </r>
       <r>   -11.1662     0.6013     6.2121 </r>
       <r>   -11.0911     1.1041     6.2951 </r>
       <r>   -11.0159     1.5141     6.4089 </r>
       <r>   -10.9408     0.6686     6.4591 </r>
       <r>   -10.8656     0.5506     6.5005 </r>
       <r>   -10.7904     0.8143     6.5617 </r>
       <r>   -10.7153     1.3974     6.6667 </r>
       <r>   -10.6401     0.1343     6.6768 </r>
       <r>   -10.5650     0.9308     6.7467 </r>
       <r>   -10.4898     0.0037     6.7470 </r>
       <r>   -10.4147     1.3021     6.8449 </r>
       <r>   -10.3395     1.3561     6.9468 </r>
       <r>   -10.2644     0.6948     6.9990 </r>
       <r>   -10.1892     0.0994     7.0065 </r>
       <r>   -10.1141     0.0023     7.0067 </r>
       <r>   -10.0389     1.1608     7.0939 </r>
       <r>    -9.9638     1.0839     7.1754 </r>
       <r>    -9.8886     0.3647     7.2028 </r>
       <r>    -9.8135     0.3259     7.2273 </r>
       <r>    -9.7383     0.0552     7.2314 </r>
       <r>    -9.6631     0.7905     7.2908 </r>
       <r>    -9.5880     1.6373     7.4139 </r>
       <r>    -9.5128     0.2819     7.4351 </r>
       <r>    -9.4377     0.0000     7.4351 </r>
       <r>    -9.3625     0.0032     7.4353 </r>
       <r>    -9.2874     0.6573     7.4847 </r>
       <r>    -9.2122     0.2787     7.5057 </r>
       <r>    -9.1371     1.3525     7.6073 </r>
       <r>    -9.0619     0.3197     7.6313 </r>
       <r>    -8.9868     0.1536     7.6429 </r>
       <r>    -8.9116     0.3366     7.6682 </r>
       <r>    -8.8365     0.0089     7.6688 </r>
       <r>    -8.7613     0.6382     7.7168 </r>
       <r>    -8.6862     0.9165     7.7857 </r>
       <r>    -8.6110     0.2706     7.8060 </r>
       <r>    -8.5358     0.0755     7.8117 </r>
       <r>    -8.4607     0.1273     7.8213 </r>
       <r>    -8.3855     0.0613     7.8259 </r>
       <r>    -8.3104     3.8778     8.1173 </r>
       <r>    -8.2352     1.9697     8.2653 </r>
       <r>    -8.1601     2.7061     8.4687 </r>
       <r>    -8.0849     1.5040     8.5817 </r>
       <r>    -8.0098     2.5309     8.7719 </r>
       <r>    -7.9346     1.1075     8.8552 </r>
       <r>    -7.8595     2.2242     9.0223 </r>
       <r>    -7.7843     2.8242     9.2346 </r>
       <r>    -7.7092     1.8190     9.3713 </r>
       <r>    -7.6340     2.2674     9.5417 </r>
       <r>    -7.5588     3.1334     9.7772 </r>
       <r>    -7.4837     5.5305    10.1928 </r>
       <r>    -7.4085     3.7008    10.4709 </r>
       <r>    -7.3334     1.9165    10.6150 </r>
       <r>    -7.2582     0.8547    10.6792 </r>
       <r>    -7.1831     0.7256    10.7337 </r>
       <r>    -7.1079     0.1339    10.7438 </r>
       <r>    -7.0328     0.5550    10.7855 </r>
       <r>    -6.9576     1.4986    10.8981 </r>
       <r>    -6.8825     1.2503    10.9921 </r>
       <r>    -6.8073     1.1781    11.0806 </r>
       <r>    -6.7322     1.0255    11.1577 </r>
       <r>    -6.6570     1.2311    11.2502 </r>
       <r>    -6.5819     2.2441    11.4189 </r>
       <r>    -6.5067     1.5723    11.5370 </r>
       <r>    -6.4315     1.1497    11.6234 </r>
       <r>    -6.3564     1.9104    11.7670 </r>
       <r>    -6.2812     2.9621    11.9896 </r>
       <r>    -6.2061     1.7628    12.1221 </r>
       <r>    -6.1309     1.7368    12.2526 </r>
       <r>    -6.0558     1.6880    12.3795 </r>
       <r>    -5.9806     2.4992    12.5673 </r>
       <r>    -5.9055     4.8705    12.9333 </r>
       <r>    -5.8303     5.5512    13.3505 </r>
       <r>    -5.7552     2.6717    13.5513 </r>
       <r>    -5.6800     3.0212    13.7784 </r>
       <r>    -5.6049     4.1888    14.0932 </r>
       <r>    -5.5297     2.5570    14.2854 </r>
       <r>    -5.4545     4.7109    14.6394 </r>
       <r>    -5.3794     3.2329    14.8824 </r>
       <r>    -5.3042     2.3919    15.0621 </r>
       <r>    -5.2291     1.7458    15.1933 </r>
       <r>    -5.1539     1.5498    15.3098 </r>
       <r>    -5.0788     1.6936    15.4371 </r>
       <r>    -5.0036     2.1970    15.6022 </r>
       <r>    -4.9285     1.3063    15.7004 </r>
       <r>    -4.8533     0.6271    15.7475 </r>
       <r>    -4.7782     0.6349    15.7952 </r>
       <r>    -4.7030     1.4088    15.9011 </r>
       <r>    -4.6279     1.2617    15.9959 </r>
       <r>    -4.5527     1.4574    16.1054 </r>
       <r>    -4.4776     0.9703    16.1784 </r>
       <r>    -4.4024     2.2237    16.3455 </r>
       <r>    -4.3272     2.5200    16.5349 </r>
       <r>    -4.2521     3.0236    16.7621 </r>
       <r>    -4.1769     3.5898    17.0319 </r>
       <r>    -4.1018     1.7624    17.1643 </r>
       <r>    -4.0266     4.4248    17.4969 </r>
       <r>    -3.9515     4.2711    17.8179 </r>
       <r>    -3.8763     4.5461    18.1595 </r>
       <r>    -3.8012     3.8854    18.4515 </r>
       <r>    -3.7260     3.7123    18.7305 </r>
       <r>    -3.6509     3.0498    18.9597 </r>
       <r>    -3.5757     2.7366    19.1654 </r>
       <r>    -3.5006     3.3495    19.4171 </r>
       <r>    -3.4254     1.5665    19.5348 </r>
       <r>    -3.3502     0.0553    19.5390 </r>
       <r>    -3.2751     0.6874    19.5907 </r>
       <r>    -3.1999     0.4233    19.6225 </r>
       <r>    -3.1248     1.6268    19.7447 </r>
       <r>    -3.0496     0.3777    19.7731 </r>
       <r>    -2.9745     0.1873    19.7872 </r>
       <r>    -2.8993     0.3268    19.8117 </r>
       <r>    -2.8242     0.5767    19.8551 </r>
       <r>    -2.7490     1.1717    19.9431 </r>
       <r>    -2.6739     0.1875    19.9572 </r>
       <r>    -2.5987     0.5323    19.9972 </r>
       <r>    -2.5236     0.0366    20.0000 </r>
       <r>    -2.4484     0.0000    20.0000 </r>
       <r>    -2.3733     0.0000    20.0000 </r>
       <r>    -2.2981     0.0000    20.0000 </r>
       <r>    -2.2229     0.0000    20.0000 </r>
       <r>    -2.1478     0.0000    20.0000 </r>
       <r>    -2.0726     0.0000    20.0000 </r>
       <r>    -1.9975     0.0000    20.0000 </r>
       <r>    -1.9223     0.0000    20.0000 </r>
       <r>    -1.8472     0.0000    20.0000 </r>
       <r>    -1.7720     0.0000    20.0000 </r>
       <r>    -1.6969     0.0000    20.0000 </r>
       <r>    -1.6217     0.0004    20.0000 </r>
       <r>    -1.5466     1.0925    20.0821 </r>
       <r>    -1.4714     0.6582    20.1316 </r>
       <r>    -1.3963     1.3978    20.2366 </r>
       <r>    -1.3211     1.6010    20.3570 </r>
       <r>    -1.2459     1.1131    20.4406 </r>
       <r>    -1.1708     1.9067    20.5839 </r>
       <r>    -1.0956     2.8064    20.7948 </r>
       <r>    -1.0205     1.5943    20.9146 </r>
       <r>    -0.9453     2.1171    21.0737 </r>
       <r>    -0.8702     2.6499    21.2729 </r>
       <r>    -0.7950     2.7990    21.4833 </r>
       <r>    -0.7199     2.4155    21.6648 </r>
       <r>    -0.6447     2.8188    21.8766 </r>
       <r>    -0.5696     3.5066    22.1402 </r>
       <r>    -0.4944     2.6692    22.3408 </r>
       <r>    -0.4193     3.3198    22.5903 </r>
       <r>    -0.3441     4.5445    22.9318 </r>
       <r>    -0.2690     3.6482    23.2060 </r>
       <r>    -0.1938     1.0496    23.2848 </r>
       <r>    -0.1186     3.3713    23.5382 </r>
       <r>    -0.0435     2.7422    23.7443 </r>
       <r>     0.0317     4.1050    24.0528 </r>
       <r>     0.1068     5.2971    24.4509 </r>
       <r>     0.1820     2.9719    24.6742 </r>
       <r>     0.2571     3.8909    24.9667 </r>
       <r>     0.3323     3.9413    25.2629 </r>
       <r>     0.4074     5.2940    25.6607 </r>
       <r>     0.4826     4.5716    26.0043 </r>
       <r>     0.5577     4.2049    26.3203 </r>
       <r>     0.6329     2.5557    26.5124 </r>
       <r>     0.7080     1.5951    26.6323 </r>
       <r>     0.7832     2.1876    26.7967 </r>
       <r>     0.8583     3.6287    27.0694 </r>
       <r>     0.9335     1.8262    27.2066 </r>
       <r>     1.0087     1.2154    27.2980 </r>
       <r>     1.0838     2.0943    27.4553 </r>
       <r>     1.1590     3.2606    27.7004 </r>
       <r>     1.2341     2.5108    27.8891 </r>
       <r>     1.3093     2.3687    28.0671 </r>
       <r>     1.3844     2.3665    28.2450 </r>
       <r>     1.4596     2.5754    28.4385 </r>
       <r>     1.5347     2.1896    28.6031 </r>
       <r>     1.6099     1.1804    28.6918 </r>
       <r>     1.6850     0.8506    28.7557 </r>
       <r>     1.7602     2.0150    28.9071 </r>
       <r>     1.8353     1.8725    29.0479 </r>
       <r>     1.9105     2.9233    29.2675 </r>
       <r>     1.9857     3.3842    29.5219 </r>
       <r>     2.0608     3.4663    29.7824 </r>
       <r>     2.1360     2.0752    29.9384 </r>
       <r>     2.2111     3.2658    30.1838 </r>
       <r>     2.2863     2.8215    30.3958 </r>
       <r>     2.3614     4.0559    30.7007 </r>
       <r>     2.4366     2.1100    30.8592 </r>
       <r>     2.5117     1.8897    31.0012 </r>
       <r>     2.5869     2.1362    31.1618 </r>
       <r>     2.6620     1.6151    31.2832 </r>
       <r>     2.7372     1.4476    31.3920 </r>
       <r>     2.8123     1.7713    31.5251 </r>
       <r>     2.8875     2.2642    31.6952 </r>
       <r>     2.9626     1.2034    31.7857 </r>
       <r>     3.0378     1.1220    31.8700 </r>
       <r>     3.1130     1.1783    31.9586 </r>
       <r>     3.1881     0.2150    31.9747 </r>
       <r>     3.2633     0.3363    32.0000 </r>
       <r>     3.3384     0.0001    32.0000 </r>
       <r>     3.4136     0.0000    32.0000 </r>
       <r>     3.4887     0.0000    32.0000 </r>
       <r>     3.5639     0.0000    32.0000 </r>
       <r>     3.6390     0.0000    32.0000 </r>
       <r>     3.7142     0.0000    32.0000 </r>
       <r>     3.7893     0.0000    32.0000 </r>
       <r>     3.8645     0.0000    32.0000 </r>
       <r>     3.9396     0.0000    32.0000 </r>
       <r>     4.0148     0.0000    32.0000 </r>
       <r>     4.0900     0.0000    32.0000 </r>
       <r>     4.1651     0.0000    32.0000 </r>
       <r>     4.2403     0.0000    32.0000 </r>
      </set>
     </set>
    </array>
   </total>
  </dos>
 </calculation>
 <structure name="finalpos" >
  <crystal>
   <varray name="basis" >
    <v>       3.29720400       0.00000000       0.00000000 </v>
    <v>       0.00000000       5.06462700      -0.00005300 </v>
    <v>       0.00000000       0.00000000      20.02439000 </v>
   </varray>
   <i name="volume">    334.38945931 </i>
   <varray name="rec_basis" >
    <v>       0.30328727       0.00000000       0.00000000 </v>
    <v>       0.00000000       0.19744791       0.00000000 </v>
    <v>       0.00000000       0.00000052       0.04993910 </v>
   </varray>
  </crystal>
  <varray name="positions" >
   <v>       0.50000000       0.89736491       0.55078194 </v>
   <v>       0.50000000       0.10263509       0.44921806 </v>
   <v>      -0.00000000       0.39736081       0.44921806 </v>
   <v>       0.00000000       0.60263919       0.55078194 </v>
  </varray>
 </structure>
</modeling>
