<?xml version="1.0" encoding="ISO-8859-1"?>
<modeling>
 <generator>
  <i name="program" type="string">vasp </i>
  <i name="version" type="string">5.4.1  </i>
  <i name="subversion" type="string">24Jun15 (build Nov 20 2020 10:29:34) complex                          parallel </i>
  <i name="platform" type="string">IFC91_ompi </i>
  <i name="date" type="string">2021 09 09 </i>
  <i name="time" type="string">15:21:14 </i>
 </generator>
 <incar>
  <i type="string" name="PREC">a</i>
  <i type="string" name="ALGO"> Normal</i>
  <i type="int" name="ISPIN">     1</i>
  <i type="int" name="ICHARG">     2</i>
  <i type="int" name="NELM">   250</i>
  <i type="int" name="NELMDL">    -5</i>
  <i type="int" name="NELMIN">     6</i>
  <i type="int" name="IBRION">     2</i>
  <i name="EDIFF">      0.00001000</i>
  <i name="EDIFFG">     -0.01000000</i>
  <i type="int" name="NSW">   200</i>
  <i type="int" name="ISIF">     2</i>
  <i name="ENCUT">    520.00000000</i>
  <i name="POTIM">      0.30000000</i>
  <i type="logical" name="LREAL"> F  </i>
  <i type="int" name="ISMEAR">     0</i>
  <i name="SIGMA">      0.02000000</i>
  <i type="logical" name="LWAVE"> F  </i>
  <i type="logical" name="LCHARG"> F  </i>
  <i type="logical" name="LAECHG"> F  </i>
  <v type="int" name="KPOINT_BSE">    -1     0     0     0</v>
  <i type="int" name="NELM">   250</i>
 </incar>
 <kpoints>
  <generation param="Gamma">
   <v type="int" name="divisions">      22       14        1 </v>
   <v name="usershift">      0.00000000       0.00000000       0.00000000 </v>
   <v name="genvec1">      0.04545455       0.00000000       0.00000000 </v>
   <v name="genvec2">      0.00000000       0.07142857       0.00000000 </v>
   <v name="genvec3">      0.00000000       0.00000000       1.00000000 </v>
   <v name="shift">      0.00000000       0.00000000       0.00000000 </v>
  </generation>
  <varray name="kpointlist" >
   <v>       0.00000000       0.00000000       0.00000000 </v>
   <v>       0.04545455       0.00000000       0.00000000 </v>
   <v>       0.09090909       0.00000000       0.00000000 </v>
   <v>       0.13636364       0.00000000       0.00000000 </v>
   <v>       0.18181818       0.00000000       0.00000000 </v>
   <v>       0.22727273       0.00000000       0.00000000 </v>
   <v>       0.27272727       0.00000000       0.00000000 </v>
   <v>       0.31818182       0.00000000       0.00000000 </v>
   <v>       0.36363636       0.00000000       0.00000000 </v>
   <v>       0.40909091       0.00000000       0.00000000 </v>
   <v>       0.45454545       0.00000000       0.00000000 </v>
   <v>       0.50000000       0.00000000       0.00000000 </v>
   <v>       0.00000000       0.07142857       0.00000000 </v>
   <v>       0.04545455       0.07142857       0.00000000 </v>
   <v>       0.09090909       0.07142857       0.00000000 </v>
   <v>       0.13636364       0.07142857       0.00000000 </v>
   <v>       0.18181818       0.07142857       0.00000000 </v>
   <v>       0.22727273       0.07142857       0.00000000 </v>
   <v>       0.27272727       0.07142857       0.00000000 </v>
   <v>       0.31818182       0.07142857       0.00000000 </v>
   <v>       0.36363636       0.07142857       0.00000000 </v>
   <v>       0.40909091       0.07142857       0.00000000 </v>
   <v>       0.45454545       0.07142857       0.00000000 </v>
   <v>       0.50000000       0.07142857       0.00000000 </v>
   <v>      -0.45454545       0.07142857       0.00000000 </v>
   <v>      -0.40909091       0.07142857       0.00000000 </v>
   <v>      -0.36363636       0.07142857       0.00000000 </v>
   <v>      -0.31818182       0.07142857       0.00000000 </v>
   <v>      -0.27272727       0.07142857       0.00000000 </v>
   <v>      -0.22727273       0.07142857       0.00000000 </v>
   <v>      -0.18181818       0.07142857       0.00000000 </v>
   <v>      -0.13636364       0.07142857       0.00000000 </v>
   <v>      -0.09090909       0.07142857       0.00000000 </v>
   <v>      -0.04545455       0.07142857       0.00000000 </v>
   <v>       0.00000000       0.14285714       0.00000000 </v>
   <v>       0.04545455       0.14285714       0.00000000 </v>
   <v>       0.09090909       0.14285714       0.00000000 </v>
   <v>       0.13636364       0.14285714       0.00000000 </v>
   <v>       0.18181818       0.14285714       0.00000000 </v>
   <v>       0.22727273       0.14285714       0.00000000 </v>
   <v>       0.27272727       0.14285714       0.00000000 </v>
   <v>       0.31818182       0.14285714       0.00000000 </v>
   <v>       0.36363636       0.14285714       0.00000000 </v>
   <v>       0.40909091       0.14285714       0.00000000 </v>
   <v>       0.45454545       0.14285714       0.00000000 </v>
   <v>       0.50000000       0.14285714       0.00000000 </v>
   <v>      -0.45454545       0.14285714       0.00000000 </v>
   <v>      -0.40909091       0.14285714       0.00000000 </v>
   <v>      -0.36363636       0.14285714       0.00000000 </v>
   <v>      -0.31818182       0.14285714       0.00000000 </v>
   <v>      -0.27272727       0.14285714       0.00000000 </v>
   <v>      -0.22727273       0.14285714       0.00000000 </v>
   <v>      -0.18181818       0.14285714       0.00000000 </v>
   <v>      -0.13636364       0.14285714       0.00000000 </v>
   <v>      -0.09090909       0.14285714       0.00000000 </v>
   <v>      -0.04545455       0.14285714       0.00000000 </v>
   <v>       0.00000000       0.21428571       0.00000000 </v>
   <v>       0.04545455       0.21428571       0.00000000 </v>
   <v>       0.09090909       0.21428571       0.00000000 </v>
   <v>       0.13636364       0.21428571       0.00000000 </v>
   <v>       0.18181818       0.21428571       0.00000000 </v>
   <v>       0.22727273       0.21428571       0.00000000 </v>
   <v>       0.27272727       0.21428571       0.00000000 </v>
   <v>       0.31818182       0.21428571       0.00000000 </v>
   <v>       0.36363636       0.21428571       0.00000000 </v>
   <v>       0.40909091       0.21428571       0.00000000 </v>
   <v>       0.45454545       0.21428571       0.00000000 </v>
   <v>       0.50000000       0.21428571       0.00000000 </v>
   <v>      -0.45454545       0.21428571       0.00000000 </v>
   <v>      -0.40909091       0.21428571       0.00000000 </v>
   <v>      -0.36363636       0.21428571       0.00000000 </v>
   <v>      -0.31818182       0.21428571       0.00000000 </v>
   <v>      -0.27272727       0.21428571       0.00000000 </v>
   <v>      -0.22727273       0.21428571       0.00000000 </v>
   <v>      -0.18181818       0.21428571       0.00000000 </v>
   <v>      -0.13636364       0.21428571       0.00000000 </v>
   <v>      -0.09090909       0.21428571       0.00000000 </v>
   <v>      -0.04545455       0.21428571       0.00000000 </v>
   <v>       0.00000000       0.28571429       0.00000000 </v>
   <v>       0.04545455       0.28571429       0.00000000 </v>
   <v>       0.09090909       0.28571429       0.00000000 </v>
   <v>       0.13636364       0.28571429       0.00000000 </v>
   <v>       0.18181818       0.28571429       0.00000000 </v>
   <v>       0.22727273       0.28571429       0.00000000 </v>
   <v>       0.27272727       0.28571429       0.00000000 </v>
   <v>       0.31818182       0.28571429       0.00000000 </v>
   <v>       0.36363636       0.28571429       0.00000000 </v>
   <v>       0.40909091       0.28571429       0.00000000 </v>
   <v>       0.45454545       0.28571429       0.00000000 </v>
   <v>       0.50000000       0.28571429       0.00000000 </v>
   <v>      -0.45454545       0.28571429       0.00000000 </v>
   <v>      -0.40909091       0.28571429       0.00000000 </v>
   <v>      -0.36363636       0.28571429       0.00000000 </v>
   <v>      -0.31818182       0.28571429       0.00000000 </v>
   <v>      -0.27272727       0.28571429       0.00000000 </v>
   <v>      -0.22727273       0.28571429       0.00000000 </v>
   <v>      -0.18181818       0.28571429       0.00000000 </v>
   <v>      -0.13636364       0.28571429       0.00000000 </v>
   <v>      -0.09090909       0.28571429       0.00000000 </v>
   <v>      -0.04545455       0.28571429       0.00000000 </v>
   <v>       0.00000000       0.35714286       0.00000000 </v>
   <v>       0.04545455       0.35714286       0.00000000 </v>
   <v>       0.09090909       0.35714286       0.00000000 </v>
   <v>       0.13636364       0.35714286       0.00000000 </v>
   <v>       0.18181818       0.35714286       0.00000000 </v>
   <v>       0.22727273       0.35714286       0.00000000 </v>
   <v>       0.27272727       0.35714286       0.00000000 </v>
   <v>       0.31818182       0.35714286       0.00000000 </v>
   <v>       0.36363636       0.35714286       0.00000000 </v>
   <v>       0.40909091       0.35714286       0.00000000 </v>
   <v>       0.45454545       0.35714286       0.00000000 </v>
   <v>       0.50000000       0.35714286       0.00000000 </v>
   <v>      -0.45454545       0.35714286       0.00000000 </v>
   <v>      -0.40909091       0.35714286       0.00000000 </v>
   <v>      -0.36363636       0.35714286       0.00000000 </v>
   <v>      -0.31818182       0.35714286       0.00000000 </v>
   <v>      -0.27272727       0.35714286       0.00000000 </v>
   <v>      -0.22727273       0.35714286       0.00000000 </v>
   <v>      -0.18181818       0.35714286       0.00000000 </v>
   <v>      -0.13636364       0.35714286       0.00000000 </v>
   <v>      -0.09090909       0.35714286       0.00000000 </v>
   <v>      -0.04545455       0.35714286       0.00000000 </v>
   <v>       0.00000000       0.42857143       0.00000000 </v>
   <v>       0.04545455       0.42857143       0.00000000 </v>
   <v>       0.09090909       0.42857143       0.00000000 </v>
   <v>       0.13636364       0.42857143       0.00000000 </v>
   <v>       0.18181818       0.42857143       0.00000000 </v>
   <v>       0.22727273       0.42857143       0.00000000 </v>
   <v>       0.27272727       0.42857143       0.00000000 </v>
   <v>       0.31818182       0.42857143       0.00000000 </v>
   <v>       0.36363636       0.42857143       0.00000000 </v>
   <v>       0.40909091       0.42857143       0.00000000 </v>
   <v>       0.45454545       0.42857143       0.00000000 </v>
   <v>       0.50000000       0.42857143       0.00000000 </v>
   <v>      -0.45454545       0.42857143       0.00000000 </v>
   <v>      -0.40909091       0.42857143       0.00000000 </v>
   <v>      -0.36363636       0.42857143       0.00000000 </v>
   <v>      -0.31818182       0.42857143       0.00000000 </v>
   <v>      -0.27272727       0.42857143       0.00000000 </v>
   <v>      -0.22727273       0.42857143       0.00000000 </v>
   <v>      -0.18181818       0.42857143       0.00000000 </v>
   <v>      -0.13636364       0.42857143       0.00000000 </v>
   <v>      -0.09090909       0.42857143       0.00000000 </v>
   <v>      -0.04545455       0.42857143       0.00000000 </v>
   <v>       0.00000000       0.50000000       0.00000000 </v>
   <v>       0.04545455       0.50000000       0.00000000 </v>
   <v>       0.09090909       0.50000000       0.00000000 </v>
   <v>       0.13636364       0.50000000       0.00000000 </v>
   <v>       0.18181818       0.50000000       0.00000000 </v>
   <v>       0.22727273       0.50000000       0.00000000 </v>
   <v>       0.27272727       0.50000000       0.00000000 </v>
   <v>       0.31818182       0.50000000       0.00000000 </v>
   <v>       0.36363636       0.50000000       0.00000000 </v>
   <v>       0.40909091       0.50000000       0.00000000 </v>
   <v>       0.45454545       0.50000000       0.00000000 </v>
   <v>       0.50000000       0.50000000       0.00000000 </v>
  </varray>
  <varray name="weights" >
   <v>       0.00324675 </v>
   <v>       0.00649351 </v>
   <v>       0.00649351 </v>
   <v>       0.00649351 </v>
   <v>       0.00649351 </v>
   <v>       0.00649351 </v>
   <v>       0.00649351 </v>
   <v>       0.00649351 </v>
   <v>       0.00649351 </v>
   <v>       0.00649351 </v>
   <v>       0.00649351 </v>
   <v>       0.00324675 </v>
   <v>       0.00649351 </v>
   <v>       0.00649351 </v>
   <v>       0.00649351 </v>
   <v>       0.00649351 </v>
   <v>       0.00649351 </v>
   <v>       0.00649351 </v>
   <v>       0.00649351 </v>
   <v>       0.00649351 </v>
   <v>       0.00649351 </v>
   <v>       0.00649351 </v>
   <v>       0.00649351 </v>
   <v>       0.00649351 </v>
   <v>       0.00649351 </v>
   <v>       0.00649351 </v>
   <v>       0.00649351 </v>
   <v>       0.00649351 </v>
   <v>       0.00649351 </v>
   <v>       0.00649351 </v>
   <v>       0.00649351 </v>
   <v>       0.00649351 </v>
   <v>       0.00649351 </v>
   <v>       0.00649351 </v>
   <v>       0.00649351 </v>
   <v>       0.00649351 </v>
   <v>       0.00649351 </v>
   <v>       0.00649351 </v>
   <v>       0.00649351 </v>
   <v>       0.00649351 </v>
   <v>       0.00649351 </v>
   <v>       0.00649351 </v>
   <v>       0.00649351 </v>
   <v>       0.00649351 </v>
   <v>       0.00649351 </v>
   <v>       0.00649351 </v>
   <v>       0.00649351 </v>
   <v>       0.00649351 </v>
   <v>       0.00649351 </v>
   <v>       0.00649351 </v>
   <v>       0.00649351 </v>
   <v>       0.00649351 </v>
   <v>       0.00649351 </v>
   <v>       0.00649351 </v>
   <v>       0.00649351 </v>
   <v>       0.00649351 </v>
   <v>       0.00649351 </v>
   <v>       0.00649351 </v>
   <v>       0.00649351 </v>
   <v>       0.00649351 </v>
   <v>       0.00649351 </v>
   <v>       0.00649351 </v>
   <v>       0.00649351 </v>
   <v>       0.00649351 </v>
   <v>       0.00649351 </v>
   <v>       0.00649351 </v>
   <v>       0.00649351 </v>
   <v>       0.00649351 </v>
   <v>       0.00649351 </v>
   <v>       0.00649351 </v>
   <v>       0.00649351 </v>
   <v>       0.00649351 </v>
   <v>       0.00649351 </v>
   <v>       0.00649351 </v>
   <v>       0.00649351 </v>
   <v>       0.00649351 </v>
   <v>       0.00649351 </v>
   <v>       0.00649351 </v>
   <v>       0.00649351 </v>
   <v>       0.00649351 </v>
   <v>       0.00649351 </v>
   <v>       0.00649351 </v>
   <v>       0.00649351 </v>
   <v>       0.00649351 </v>
   <v>       0.00649351 </v>
   <v>       0.00649351 </v>
   <v>       0.00649351 </v>
   <v>       0.00649351 </v>
   <v>       0.00649351 </v>
   <v>       0.00649351 </v>
   <v>       0.00649351 </v>
   <v>       0.00649351 </v>
   <v>       0.00649351 </v>
   <v>       0.00649351 </v>
   <v>       0.00649351 </v>
   <v>       0.00649351 </v>
   <v>       0.00649351 </v>
   <v>       0.00649351 </v>
   <v>       0.00649351 </v>
   <v>       0.00649351 </v>
   <v>       0.00649351 </v>
   <v>       0.00649351 </v>
   <v>       0.00649351 </v>
   <v>       0.00649351 </v>
   <v>       0.00649351 </v>
   <v>       0.00649351 </v>
   <v>       0.00649351 </v>
   <v>       0.00649351 </v>
   <v>       0.00649351 </v>
   <v>       0.00649351 </v>
   <v>       0.00649351 </v>
   <v>       0.00649351 </v>
   <v>       0.00649351 </v>
   <v>       0.00649351 </v>
   <v>       0.00649351 </v>
   <v>       0.00649351 </v>
   <v>       0.00649351 </v>
   <v>       0.00649351 </v>
   <v>       0.00649351 </v>
   <v>       0.00649351 </v>
   <v>       0.00649351 </v>
   <v>       0.00649351 </v>
   <v>       0.00649351 </v>
   <v>       0.00649351 </v>
   <v>       0.00649351 </v>
   <v>       0.00649351 </v>
   <v>       0.00649351 </v>
   <v>       0.00649351 </v>
   <v>       0.00649351 </v>
   <v>       0.00649351 </v>
   <v>       0.00649351 </v>
   <v>       0.00649351 </v>
   <v>       0.00649351 </v>
   <v>       0.00649351 </v>
   <v>       0.00649351 </v>
   <v>       0.00649351 </v>
   <v>       0.00649351 </v>
   <v>       0.00649351 </v>
   <v>       0.00649351 </v>
   <v>       0.00649351 </v>
   <v>       0.00649351 </v>
   <v>       0.00649351 </v>
   <v>       0.00649351 </v>
   <v>       0.00649351 </v>
   <v>       0.00324675 </v>
   <v>       0.00649351 </v>
   <v>       0.00649351 </v>
   <v>       0.00649351 </v>
   <v>       0.00649351 </v>
   <v>       0.00649351 </v>
   <v>       0.00649351 </v>
   <v>       0.00649351 </v>
   <v>       0.00649351 </v>
   <v>       0.00649351 </v>
   <v>       0.00649351 </v>
   <v>       0.00324675 </v>
  </varray>
 </kpoints>
 <parameters>
  <separator name="general" >
   <i type="string" name="SYSTEM">unknown system</i>
   <i type="logical" name="LCOMPAT"> F  </i>
  </separator>
  <separator name="electronic" >
   <i type="string" name="PREC">a</i>
   <i name="ENMAX">    520.00000000</i>
   <i name="ENAUG">    342.92400000</i>
   <i name="EDIFF">      0.00001000</i>
   <i type="int" name="IALGO">    38</i>
   <i type="int" name="IWAVPR">    11</i>
   <i type="int" name="NBANDS">    16</i>
   <i name="NELECT">     20.00000000</i>
   <i type="int" name="TURBO">     0</i>
   <i type="int" name="IRESTART">     0</i>
   <i type="int" name="NREBOOT">     0</i>
   <i type="int" name="NMIN">     0</i>
   <i name="EREF">      0.00000000</i>
   <separator name="electronic smearing" >
    <i type="int" name="ISMEAR">     0</i>
    <i name="SIGMA">      0.02000000</i>
    <i name="KSPACING">      0.50000000</i>
    <i type="logical" name="KGAMMA"> T  </i>
   </separator>
   <separator name="electronic projectors" >
    <i type="logical" name="LREAL"> F  </i>
    <v name="ROPT">      0.00000000</v>
    <i type="int" name="LMAXPAW">  -100</i>
    <i type="int" name="LMAXMIX">     2</i>
    <i type="logical" name="NLSPLINE"> F  </i>
   </separator>
   <separator name="electronic startup" >
    <i type="int" name="ISTART">     0</i>
    <i type="int" name="ICHARG">     2</i>
    <i type="int" name="INIWAV">     1</i>
   </separator>
   <separator name="electronic spin" >
    <i type="int" name="ISPIN">     1</i>
    <i type="logical" name="LNONCOLLINEAR"> F  </i>
    <v name="MAGMOM">      1.00000000      1.00000000      1.00000000      1.00000000</v>
    <i name="NUPDOWN">     -1.00000000</i>
    <i type="logical" name="LSORBIT"> F  </i>
    <v name="SAXIS">      0.00000000      0.00000000      1.00000000</v>
    <i type="logical" name="LSPIRAL"> F  </i>
    <v name="QSPIRAL">      0.00000000      0.00000000      0.00000000</v>
    <i type="logical" name="LZEROZ"> F  </i>
   </separator>
   <separator name="electronic exchange-correlation" >
    <i type="logical" name="LASPH"> F  </i>
    <i type="logical" name="LMETAGGA"> F  </i>
   </separator>
   <separator name="electronic convergence" >
    <i type="int" name="NELM">   250</i>
    <i type="int" name="NELMDL">    -5</i>
    <i type="int" name="NELMIN">     6</i>
    <i name="ENINI">    520.00000000</i>
    <separator name="electronic convergence detail" >
     <i type="logical" name="LDIAG"> T  </i>
     <i type="logical" name="LSUBROT"> F  </i>
     <i name="WEIMIN">      0.00100000</i>
     <i name="EBREAK">      0.00000016</i>
     <i name="DEPER">      0.30000000</i>
     <i type="int" name="NRMM">     4</i>
     <i name="TIME">      0.40000000</i>
    </separator>
   </separator>
   <separator name="electronic mixer" >
    <i name="AMIX">      0.40000000</i>
    <i name="BMIX">      1.00000000</i>
    <i name="AMIN">      0.10000000</i>
    <i name="AMIX_MAG">      1.60000000</i>
    <i name="BMIX_MAG">      1.00000000</i>
    <separator name="electronic mixer details" >
     <i type="int" name="IMIX">     4</i>
     <i type="logical" name="MIXFIRST"> F  </i>
     <i type="int" name="MAXMIX">   -45</i>
     <i name="WC">    100.00000000</i>
     <i type="int" name="INIMIX">     1</i>
     <i type="int" name="MIXPRE">     1</i>
     <i type="int" name="MREMOVE">     5</i>
    </separator>
   </separator>
   <separator name="electronic dipolcorrection" >
    <i type="logical" name="LDIPOL"> F  </i>
    <i type="logical" name="LMONO"> F  </i>
    <i type="int" name="IDIPOL">     0</i>
    <i name="EPSILON">      1.00000000</i>
    <v name="DIPOL">   -100.00000000   -100.00000000   -100.00000000</v>
    <i name="EFIELD">      0.00000000</i>
   </separator>
  </separator>
  <separator name="grids" >
   <i type="int" name="NGX">    28</i>
   <i type="int" name="NGY">    40</i>
   <i type="int" name="NGZ">   150</i>
   <i type="int" name="NGXF">    56</i>
   <i type="int" name="NGYF">    80</i>
   <i type="int" name="NGZF">   300</i>
   <i type="logical" name="ADDGRID"> F  </i>
  </separator>
  <separator name="ionic" >
   <i type="int" name="NSW">   200</i>
   <i type="int" name="IBRION">     2</i>
   <i type="int" name="ISIF">     2</i>
   <i name="PSTRESS">      0.00000000</i>
   <i name="EDIFFG">     -0.01000000</i>
   <i type="int" name="NFREE">     1</i>
   <i name="POTIM">      0.30000000</i>
   <i name="SMASS">     -3.00000000</i>
   <i name="SCALEE">      1.00000000</i>
  </separator>
  <separator name="ionic md" >
   <i name="TEBEG">      0.00010000</i>
   <i name="TEEND">      0.00010000</i>
   <i type="int" name="NBLOCK">     1</i>
   <i type="int" name="KBLOCK">   200</i>
   <i type="int" name="NPACO">   256</i>
   <i name="APACO">     16.00000000</i>
  </separator>
  <separator name="symmetry" >
   <i type="int" name="ISYM">     2</i>
   <i name="SYMPREC">      0.00001000</i>
  </separator>
  <separator name="dos" >
   <i type="logical" name="LORBIT"> F  </i>
   <v name="RWIGS">     -1.00000000</v>
   <i type="int" name="NEDOS">   301</i>
   <i name="EMIN">     10.00000000</i>
   <i name="EMAX">    -10.00000000</i>
   <i name="EFERMI">      0.00000000</i>
  </separator>
  <separator name="writing" >
   <i type="int" name="NWRITE">     2</i>
   <i type="logical" name="LWAVE"> F  </i>
   <i type="logical" name="LCHARG"> F  </i>
   <i type="logical" name="LPARD"> F  </i>
   <i type="logical" name="LVTOT"> F  </i>
   <i type="logical" name="LVHAR"> F  </i>
   <i type="logical" name="LELF"> F  </i>
   <i type="logical" name="LOPTICS"> F  </i>
   <v name="STM">      0.00000000      0.00000000      0.00000000      0.00000000      0.00000000      0.00000000      0.00000000</v>
  </separator>
  <separator name="performance" >
   <i type="int" name="NPAR">     4</i>
   <i type="int" name="NSIM">     4</i>
   <i type="int" name="NBLK">    -1</i>
   <i type="logical" name="LPLANE"> T  </i>
   <i type="logical" name="LSCALAPACK"> T  </i>
   <i type="logical" name="LSCAAWARE"> F  </i>
   <i type="logical" name="LSCALU"> F  </i>
   <i type="logical" name="LASYNC"> F  </i>
   <i type="logical" name="LORBITALREAL"> F  </i>
  </separator>
  <separator name="miscellaneous" >
   <i type="int" name="IDIOT">     3</i>
   <i type="logical" name="LMUSIC"> F  </i>
   <v name="POMASS">     30.97400000</v>
   <v name="DARWINR">      0.00000000</v>
   <v name="DARWINV">      1.00000000</v>
   <i type="logical" name="LCORR"> T  </i>
  </separator>
  <i type="logical" name="GGA_COMPAT"> T  </i>
  <i type="logical" name="LBERRY"> F  </i>
  <i type="int" name="ICORELEVEL">     0</i>
  <i type="logical" name="LDAU"> F  </i>
  <i type="int" name="I_CONSTRAINED_M">     0</i>
  <separator name="electronic exchange-correlation" >
   <i type="string" name="GGA">--</i>
   <i type="int" name="VOSKOWN">     0</i>
   <i type="logical" name="LHFCALC"> F  </i>
   <i type="string" name="PRECFOCK"></i>
   <i type="logical" name="LSYMGRAD"> F  </i>
   <i type="logical" name="LHFONE"> F  </i>
   <i type="logical" name="LRHFCALC"> F  </i>
   <i type="logical" name="LTHOMAS"> F  </i>
   <i type="logical" name="LMODELHF"> F  </i>
   <i name="ENCUT4O">     -1.00000000</i>
   <i type="int" name="EXXOEP">     0</i>
   <i type="int" name="FOURORBIT">     0</i>
   <i name="AEXX">      0.00000000</i>
   <i name="HFALPHA">      0.00000000</i>
   <i name="MCALPHA">      0.00000000</i>
   <i name="ALDAX">      1.00000000</i>
   <i name="AGGAX">      1.00000000</i>
   <i name="ALDAC">      1.00000000</i>
   <i name="AGGAC">      1.00000000</i>
   <i type="int" name="NKREDX">     1</i>
   <i type="int" name="NKREDY">     1</i>
   <i type="int" name="NKREDZ">     1</i>
   <i type="logical" name="SHIFTRED"> F  </i>
   <i type="logical" name="ODDONLY"> F  </i>
   <i type="logical" name="EVENONLY"> F  </i>
   <i type="int" name="LMAXFOCK">     0</i>
   <i type="int" name="NMAXFOCKAE">     0</i>
   <i type="logical" name="LFOCKAEDFT"> F  </i>
   <i name="HFSCREEN">      0.00000000</i>
   <i name="HFSCREENC">      0.00000000</i>
   <i type="int" name="NBANDSGWLOW">     0</i>
  </separator>
  <separator name="vdW DFT" >
   <i type="logical" name="LUSE_VDW"> F  </i>
   <i name="Zab_VDW">     -0.84910000</i>
   <i name="PARAM1">      0.12340000</i>
   <i name="PARAM2">      1.00000000</i>
   <i name="PARAM3">      0.00000000</i>
  </separator>
  <separator name="model GW" >
   <i type="int" name="MODEL_GW">     0</i>
   <i name="MODEL_EPS0">     49.73868135</i>
   <i name="MODEL_ALPHA">      1.00000000</i>
  </separator>
  <separator name="linear response parameters" >
   <i type="logical" name="LEPSILON"> F  </i>
   <i type="logical" name="LRPA"> F  </i>
   <i type="logical" name="LNABLA"> F  </i>
   <i type="logical" name="LVEL"> F  </i>
   <i type="int" name="KINTER">     0</i>
   <i name="CSHIFT">      0.10000000</i>
   <i name="OMEGAMAX">     -1.00000000</i>
   <i name="DEG_THRESHOLD">      0.00200000</i>
  </separator>
  <separator name="orbital magnetization" >
   <i type="logical" name="NUCIND"> F  </i>
   <v name="MAGPOS">      0.00000000      0.00000000      0.00000000</v>
   <i type="logical" name="LNICSALL"> T  </i>
   <i type="logical" name="ORBITALMAG"> F  </i>
   <i type="logical" name="LMAGBLOCH"> F  </i>
   <i type="logical" name="LCHIMAG"> F  </i>
   <i type="logical" name="LGAUGE"> T  </i>
   <i type="int" name="MAGATOM">     0</i>
   <v name="MAGDIPOL">      0.00000000      0.00000000      0.00000000</v>
   <v name="AVECCONST">      0.00000000      0.00000000      0.00000000</v>
  </separator>
  <separator name="response functions" >
   <i type="logical" name="LADDER"> F  </i>
   <i type="logical" name="LFXC"> F  </i>
   <i type="logical" name="LHARTREE"> T  </i>
   <i type="int" name="IBSE">     0</i>
   <v type="int" name="KPOINT">    -1     0     0     0</v>
   <i type="logical" name="LTCTE"> F  </i>
   <i type="logical" name="LTETE"> F  </i>
   <i type="logical" name="LTRIPLET"> F  </i>
   <i type="logical" name="LFXCEPS"> F  </i>
   <i type="logical" name="LFXHEG"> F  </i>
   <i type="int" name="NATURALO">     0</i>
   <i type="logical" name="L2ORDER"> F  </i>
   <i type="logical" name="LUSEW"> F  </i>
   <i name="ENCUTGW">     -2.00000000</i>
   <i name="ENCUTGWSOFT">     -2.00000000</i>
   <i name="ENCUTLF">     -1.00000000</i>
   <i type="int" name="LMAXMP2">    -1</i>
   <i name="SCISSOR">      0.00000000</i>
   <i type="int" name="NOMEGA">     0</i>
   <i type="int" name="NOMEGAR">     0</i>
   <i type="int" name="NBANDSGW">    -1</i>
   <i type="int" name="NBANDSO">    -1</i>
   <i type="int" name="NBANDSV">    -1</i>
   <i type="int" name="NELM">   250</i>
   <i type="int" name="NELMHF">     1</i>
   <i type="int" name="DIM">     3</i>
   <i type="int" name="ANTIRES">     0</i>
   <i name="OMEGAMAX">    -30.00000000</i>
   <i name="OMEGAMIN">    -30.00000000</i>
   <i name="OMEGATL">   -200.00000000</i>
   <i type="int" name="OMEGAGRID">     0</i>
   <i name="CSHIFT">     -0.10000000</i>
   <i type="logical" name="SELFENERGY"> F  </i>
   <i type="logical" name="LSPECTRAL"> F  </i>
   <i type="logical" name="LSPECTRALGW"> F  </i>
   <i type="logical" name="LSINGLES"> F  </i>
   <i type="logical" name="LFERMIGW"> F  </i>
   <i type="logical" name="ODDONLYGW"> F  </i>
   <i type="logical" name="EVENONLYGW"> F  </i>
   <i type="int" name="NKREDLFX">     1</i>
   <i type="int" name="NKREDLFY">     1</i>
   <i type="int" name="NKREDLFZ">     1</i>
   <i type="int" name="MAXMEM">  1800</i>
   <i type="int" name="TELESCOPE">     0</i>
   <i type="int" name="TAUPAR">     1</i>
   <i type="int" name="OMEGAPAR">    -1</i>
   <i name="LAMBDA">      1.00000000</i>
  </separator>
  <separator name="External order field" >
   <i name="OFIELD_KAPPA">      0.00000000</i>
   <v name="OFIELD_K">      0.00000000      0.00000000      0.00000000</v>
   <i name="OFIELD_Q6_NEAR">      0.00000000</i>
   <i name="OFIELD_Q6_FAR">      0.00000000</i>
   <i name="OFIELD_A">      0.00000000</i>
  </separator>
 </parameters>
 <atominfo>
  <atoms>       4 </atoms>
  <types>       1 </types>
  <array name="atoms" >
   <dimension dim="1">ion</dimension>
   <field type="string">element</field>
   <field type="int">atomtype</field>
   <set>
    <rc><c>P </c><c>   1</c></rc>
    <rc><c>P </c><c>   1</c></rc>
    <rc><c>P </c><c>   1</c></rc>
    <rc><c>P </c><c>   1</c></rc>
   </set>
  </array>
  <array name="atomtypes" >
   <dimension dim="1">type</dimension>
   <field type="int">atomspertype</field>
   <field type="string">element</field>
   <field>mass</field>
   <field>valence</field>
   <field type="string">pseudopotential</field>
   <set>
    <rc><c>   4</c><c>P </c><c>     30.97400000</c><c>      5.00000000</c><c>  PAW_PBE P 06Sep2000                   </c></rc>
   </set>
  </array>
 </atominfo>
 <structure name="initialpos" >
  <crystal>
   <varray name="basis" >
    <v>       3.29720400       0.00000000       0.00000000 </v>
    <v>       0.00000000       5.02224500      -0.00005300 </v>
    <v>       0.00000000       0.00000000      20.02439000 </v>
   </varray>
   <i name="volume">    331.59120900 </i>
   <varray name="rec_basis" >
    <v>       0.30328727       0.00000000       0.00000000 </v>
    <v>       0.00000000       0.19911414       0.00000000 </v>
    <v>       0.00000000       0.00000053       0.04993910 </v>
   </varray>
  </crystal>
  <varray name="positions" >
   <v>       0.50000000       0.91077300       0.55252100 </v>
   <v>       0.50000000       0.08922700       0.44747900 </v>
   <v>       0.00000000       0.41076900       0.44747900 </v>
   <v>       0.00000000       0.58923100       0.55252100 </v>
  </varray>
 </structure>
 <calculation>
  <scstep>
   <time name="dav">    1.60    1.61</time>
   <time name="total">    1.63    1.64</time>
   <energy>
    <i name="alphaZ">      4.83776710 </i>
    <i name="ewald">   1678.85157571 </i>
    <i name="hartreedc">  -2273.48967564 </i>
    <i name="XCdc">     12.33762925 </i>
    <i name="pawpsdc">    559.04011960 </i>
    <i name="pawaedc">   -526.39432044 </i>
    <i name="eentropy">     -0.00050320 </i>
    <i name="bandstr">    -29.33929687 </i>
    <i name="atom">    704.16778566 </i>
    <i name="e_fr_energy">    130.01108116 </i>
    <i name="e_wo_entrp">    130.01158435 </i>
    <i name="e_0_energy">    130.01133275 </i>
   </energy>
  </scstep>
  <scstep>
   <time name="dav">    2.16    2.16</time>
   <time name="total">    2.16    2.16</time>
   <energy>
    <i name="e_fr_energy">     -5.82793568 </i>
    <i name="e_wo_entrp">     -5.82793568 </i>
    <i name="e_0_energy">     -5.82793568 </i>
   </energy>
  </scstep>
  <scstep>
   <time name="dav">    1.99    1.99</time>
   <time name="total">    1.99    2.00</time>
   <energy>
    <i name="e_fr_energy">    -21.07128330 </i>
    <i name="e_wo_entrp">    -21.07128330 </i>
    <i name="e_0_energy">    -21.07128330 </i>
   </energy>
  </scstep>
  <scstep>
   <time name="dav">    2.03    2.03</time>
   <time name="total">    2.03    2.03</time>
   <energy>
    <i name="e_fr_energy">    -21.39153415 </i>
    <i name="e_wo_entrp">    -21.39153415 </i>
    <i name="e_0_energy">    -21.39153415 </i>
   </energy>
  </scstep>
  <scstep>
   <time name="dav">    2.13    2.13</time>
   <time name="total">    2.24    2.24</time>
   <energy>
    <i name="e_fr_energy">    -21.40117268 </i>
    <i name="e_wo_entrp">    -21.40117268 </i>
    <i name="e_0_energy">    -21.40117268 </i>
   </energy>
  </scstep>
  <scstep>
   <time name="dav">    1.96    1.96</time>
   <time name="total">    2.09    2.09</time>
   <energy>
    <i name="e_fr_energy">    -21.28456865 </i>
    <i name="e_wo_entrp">    -21.28456865 </i>
    <i name="e_0_energy">    -21.28456865 </i>
   </energy>
  </scstep>
  <scstep>
   <time name="dav">    1.89    1.89</time>
   <time name="total">    2.01    2.01</time>
   <energy>
    <i name="e_fr_energy">    -21.22971647 </i>
    <i name="e_wo_entrp">    -21.22971647 </i>
    <i name="e_0_energy">    -21.22971647 </i>
   </energy>
  </scstep>
  <scstep>
   <time name="dav">    1.93    1.94</time>
   <time name="total">    2.06    2.06</time>
   <energy>
    <i name="e_fr_energy">    -21.22941145 </i>
    <i name="e_wo_entrp">    -21.22941145 </i>
    <i name="e_0_energy">    -21.22941145 </i>
   </energy>
  </scstep>
  <scstep>
   <time name="dav">    2.23    2.23</time>
   <time name="total">    2.35    2.35</time>
   <energy>
    <i name="e_fr_energy">    -21.22936116 </i>
    <i name="e_wo_entrp">    -21.22936116 </i>
    <i name="e_0_energy">    -21.22936116 </i>
   </energy>
  </scstep>
  <scstep>
   <time name="dav">    1.92    1.92</time>
   <time name="total">    2.04    2.04</time>
   <energy>
    <i name="e_fr_energy">    -21.22924350 </i>
    <i name="e_wo_entrp">    -21.22924350 </i>
    <i name="e_0_energy">    -21.22924350 </i>
   </energy>
  </scstep>
  <scstep>
   <time name="dav">    1.95    1.95</time>
   <time name="total">    2.07    2.07</time>
   <energy>
    <i name="e_fr_energy">    -21.22921442 </i>
    <i name="e_wo_entrp">    -21.22921442 </i>
    <i name="e_0_energy">    -21.22921442 </i>
   </energy>
  </scstep>
  <scstep>
   <time name="dav">    1.69    1.69</time>
   <time name="total">    1.81    1.81</time>
   <energy>
    <i name="e_fr_energy">    -21.22945697 </i>
    <i name="e_wo_entrp">    -21.22945697 </i>
    <i name="e_0_energy">    -21.22945697 </i>
   </energy>
  </scstep>
  <scstep>
   <time name="dav">    1.72    1.72</time>
   <time name="total">    1.84    1.84</time>
   <energy>
    <i name="e_fr_energy">    -21.22953512 </i>
    <i name="e_wo_entrp">    -21.22953512 </i>
    <i name="e_0_energy">    -21.22953512 </i>
   </energy>
  </scstep>
  <scstep>
   <time name="dav">    1.71    1.71</time>
   <time name="total">    1.83    1.83</time>
   <energy>
    <i name="e_fr_energy">    -21.22969790 </i>
    <i name="e_wo_entrp">    -21.22969790 </i>
    <i name="e_0_energy">    -21.22969790 </i>
   </energy>
  </scstep>
  <scstep>
   <time name="dav">    1.67    1.67</time>
   <time name="total">    1.79    1.79</time>
   <energy>
    <i name="e_fr_energy">    -21.22971849 </i>
    <i name="e_wo_entrp">    -21.22971849 </i>
    <i name="e_0_energy">    -21.22971849 </i>
   </energy>
  </scstep>
  <scstep>
   <time name="dav">    1.56    1.56</time>
   <time name="total">    1.68    1.68</time>
   <energy>
    <i name="e_fr_energy">    -21.22975348 </i>
    <i name="e_wo_entrp">    -21.22975348 </i>
    <i name="e_0_energy">    -21.22975348 </i>
   </energy>
  </scstep>
  <scstep>
   <time name="dav">    1.50    1.50</time>
   <time name="total">    1.52    1.53</time>
   <energy>
    <i name="alphaZ">      4.83776710 </i>
    <i name="ewald">   1678.85157571 </i>
    <i name="hartreedc">  -2286.37931596 </i>
    <i name="XCdc">     13.28374101 </i>
    <i name="pawpsdc">   1780.71252061 </i>
    <i name="pawaedc">  -1748.28930251 </i>
    <i name="eentropy">     -0.00000000 </i>
    <i name="bandstr">   -168.41452913 </i>
    <i name="atom">    704.16778566 </i>
    <i name="e_fr_energy">    -21.22975752 </i>
    <i name="e_wo_entrp">    -21.22975752 </i>
    <i name="e_0_energy">    -21.22975752 </i>
   </energy>
  </scstep>
  <structure>
   <crystal>
    <varray name="basis" >
     <v>       3.29720400       0.00000000       0.00000000 </v>
     <v>       0.00000000       5.02224500      -0.00005300 </v>
     <v>       0.00000000       0.00000000      20.02439000 </v>
    </varray>
    <i name="volume">    331.59120900 </i>
    <varray name="rec_basis" >
     <v>       0.30328727       0.00000000       0.00000000 </v>
     <v>       0.00000000       0.19911414       0.00000000 </v>
     <v>       0.00000000       0.00000053       0.04993910 </v>
    </varray>
   </crystal>
   <varray name="positions" >
    <v>       0.50000000       0.91077300       0.55252100 </v>
    <v>       0.50000000       0.08922700       0.44747900 </v>
    <v>       0.00000000       0.41076900       0.44747900 </v>
    <v>       0.00000000       0.58923100       0.55252100 </v>
   </varray>
  </structure>
  <varray name="forces" >
   <v>      -0.00000009      -1.07923191      -0.22370490 </v>
   <v>       0.00000009       1.07923191       0.22370490 </v>
   <v>       0.00000002      -1.07923830       0.22372964 </v>
   <v>      -0.00000002       1.07923830      -0.22372964 </v>
  </varray>
  <varray name="stress" >
   <v>      -8.08447762       0.00000206       0.00000014 </v>
   <v>       0.00000201     -26.61691601       0.00034500 </v>
   <v>       0.00000017       0.00034506      -4.60873289 </v>
  </varray>
  <energy>
   <i name="e_fr_energy">    -21.22975752 </i>
   <i name="e_wo_entrp">    -21.22975752 </i>
   <i name="e_0_energy">     -0.00000000 </i>
  </energy>
  <time name="totalsc">   33.96   34.01</time>
 </calculation>
 <calculation>
  <scstep>
   <time name="dav">    1.70    1.70</time>
   <time name="total">    1.82    1.82</time>
   <energy>
    <i name="alphaZ">      4.83776710 </i>
    <i name="ewald">   1688.96741262 </i>
    <i name="hartreedc">  -2294.91793595 </i>
    <i name="XCdc">     13.46706197 </i>
    <i name="pawpsdc">   1780.41878576 </i>
    <i name="pawaedc">  -1747.99561297 </i>
    <i name="eentropy">     -0.00000000 </i>
    <i name="bandstr">   -170.27017464 </i>
    <i name="atom">    704.16778566 </i>
    <i name="e_fr_energy">    -21.32491047 </i>
    <i name="e_wo_entrp">    -21.32491047 </i>
    <i name="e_0_energy">    -21.32491047 </i>
   </energy>
  </scstep>
  <scstep>
   <time name="dav">    1.98    1.98</time>
   <time name="total">    2.10    2.10</time>
   <energy>
    <i name="e_fr_energy">    -21.33793248 </i>
    <i name="e_wo_entrp">    -21.33793248 </i>
    <i name="e_0_energy">    -21.33793248 </i>
   </energy>
  </scstep>
  <scstep>
   <time name="dav">    2.15    2.15</time>
   <time name="total">    2.27    2.28</time>
   <energy>
    <i name="e_fr_energy">    -21.33788422 </i>
    <i name="e_wo_entrp">    -21.33788422 </i>
    <i name="e_0_energy">    -21.33788422 </i>
   </energy>
  </scstep>
  <scstep>
   <time name="dav">    2.12    2.13</time>
   <time name="total">    2.25    2.25</time>
   <energy>
    <i name="e_fr_energy">    -21.33783736 </i>
    <i name="e_wo_entrp">    -21.33783736 </i>
    <i name="e_0_energy">    -21.33783736 </i>
   </energy>
  </scstep>
  <scstep>
   <time name="dav">    1.88    1.88</time>
   <time name="total">    2.00    2.00</time>
   <energy>
    <i name="e_fr_energy">    -21.33785034 </i>
    <i name="e_wo_entrp">    -21.33785034 </i>
    <i name="e_0_energy">    -21.33785034 </i>
   </energy>
  </scstep>
  <scstep>
   <time name="dav">    1.45    1.45</time>
   <time name="total">    1.47    1.47</time>
   <energy>
    <i name="alphaZ">      4.83776710 </i>
    <i name="ewald">   1688.96741262 </i>
    <i name="hartreedc">  -2294.93576975 </i>
    <i name="XCdc">     13.48487661 </i>
    <i name="pawpsdc">   1879.57798344 </i>
    <i name="pawaedc">  -1847.19115657 </i>
    <i name="eentropy">     -0.00000000 </i>
    <i name="bandstr">   -170.24674956 </i>
    <i name="atom">    704.16778566 </i>
    <i name="e_fr_energy">    -21.33785046 </i>
    <i name="e_wo_entrp">    -21.33785046 </i>
    <i name="e_0_energy">    -21.33785046 </i>
   </energy>
  </scstep>
  <structure>
   <crystal>
    <varray name="basis" >
     <v>       3.29720400       0.00000000       0.00000000 </v>
     <v>       0.00000000       5.02224500      -0.00005300 </v>
     <v>       0.00000000       0.00000000      20.02439000 </v>
    </varray>
    <i name="volume">    331.59120900 </i>
    <varray name="rec_basis" >
     <v>       0.30328727       0.00000000       0.00000000 </v>
     <v>       0.00000000       0.19911414       0.00000000 </v>
     <v>       0.00000000       0.00000053       0.04993910 </v>
    </varray>
   </crystal>
   <varray name="positions" >
    <v>       0.50000000       0.90455287       0.55219761 </v>
    <v>       0.50000000       0.09544713       0.44780239 </v>
    <v>       0.00000000       0.40454884       0.44780239 </v>
    <v>      -0.00000000       0.59545116       0.55219761 </v>
   </varray>
  </structure>
  <varray name="forces" >
   <v>       0.00000014      -0.54465324      -0.21382112 </v>
   <v>      -0.00000014       0.54465324       0.21382112 </v>
   <v>       0.00000046      -0.54465775       0.21383221 </v>
   <v>      -0.00000046       0.54465775      -0.21383221 </v>
  </varray>
  <varray name="stress" >
   <v>      -7.20090155       0.00000829      -0.00000112 </v>
   <v>       0.00000833     -18.36428648       0.00024181 </v>
   <v>      -0.00000112       0.00024182      -4.49735263 </v>
  </varray>
  <energy>
   <i name="e_fr_energy">    -21.33785046 </i>
   <i name="e_wo_entrp">    -21.33785046 </i>
   <i name="e_0_energy">     -0.00000000 </i>
  </energy>
  <time name="totalsc">   12.74   12.77</time>
 </calculation>
 <calculation>
  <scstep>
   <time name="dav">    1.71    1.71</time>
   <time name="total">    1.83    1.83</time>
   <energy>
    <i name="alphaZ">      4.83776710 </i>
    <i name="ewald">   1698.72067039 </i>
    <i name="hartreedc">  -2302.99289212 </i>
    <i name="XCdc">     13.65974153 </i>
    <i name="pawpsdc">   1880.10982567 </i>
    <i name="pawaedc">  -1847.72255498 </i>
    <i name="eentropy">     -0.00000000 </i>
    <i name="bandstr">   -172.14224975 </i>
    <i name="atom">    704.16778566 </i>
    <i name="e_fr_energy">    -21.36190650 </i>
    <i name="e_wo_entrp">    -21.36190650 </i>
    <i name="e_0_energy">    -21.36190650 </i>
   </energy>
  </scstep>
  <scstep>
   <time name="dav">    1.98    1.98</time>
   <time name="total">    2.10    2.10</time>
   <energy>
    <i name="e_fr_energy">    -21.37377655 </i>
    <i name="e_wo_entrp">    -21.37377655 </i>
    <i name="e_0_energy">    -21.37377655 </i>
   </energy>
  </scstep>
  <scstep>
   <time name="dav">    2.15    2.15</time>
   <time name="total">    2.27    2.27</time>
   <energy>
    <i name="e_fr_energy">    -21.37372201 </i>
    <i name="e_wo_entrp">    -21.37372201 </i>
    <i name="e_0_energy">    -21.37372201 </i>
   </energy>
  </scstep>
  <scstep>
   <time name="dav">    2.12    2.12</time>
   <time name="total">    2.24    2.24</time>
   <energy>
    <i name="e_fr_energy">    -21.37367828 </i>
    <i name="e_wo_entrp">    -21.37367828 </i>
    <i name="e_0_energy">    -21.37367828 </i>
   </energy>
  </scstep>
  <scstep>
   <time name="dav">    1.86    1.87</time>
   <time name="total">    1.98    1.99</time>
   <energy>
    <i name="e_fr_energy">    -21.37369413 </i>
    <i name="e_wo_entrp">    -21.37369413 </i>
    <i name="e_0_energy">    -21.37369413 </i>
   </energy>
  </scstep>
  <scstep>
   <time name="dav">    1.50    1.50</time>
   <time name="total">    1.52    1.52</time>
   <energy>
    <i name="alphaZ">      4.83776710 </i>
    <i name="ewald">   1698.72067039 </i>
    <i name="hartreedc">  -2303.05929511 </i>
    <i name="XCdc">     13.67862913 </i>
    <i name="pawpsdc">   1983.67257446 </i>
    <i name="pawaedc">  -1951.32390692 </i>
    <i name="eentropy">     -0.00000000 </i>
    <i name="bandstr">   -172.06791963 </i>
    <i name="atom">    704.16778566 </i>
    <i name="e_fr_energy">    -21.37369493 </i>
    <i name="e_wo_entrp">    -21.37369493 </i>
    <i name="e_0_energy">    -21.37369493 </i>
   </energy>
  </scstep>
  <structure>
   <crystal>
    <varray name="basis" >
     <v>       3.29720400       0.00000000       0.00000000 </v>
     <v>       0.00000000       5.02224500      -0.00005300 </v>
     <v>       0.00000000       0.00000000      20.02439000 </v>
    </varray>
    <i name="volume">    331.59120900 </i>
    <varray name="rec_basis" >
     <v>       0.30328727       0.00000000       0.00000000 </v>
     <v>       0.00000000       0.19911414       0.00000000 </v>
     <v>       0.00000000       0.00000053       0.04993910 </v>
    </varray>
   </crystal>
   <varray name="positions" >
    <v>       0.50000000       0.89870828       0.55189375 </v>
    <v>       0.50000000       0.10129172       0.44810625 </v>
    <v>       0.00000000       0.39870421       0.44810625 </v>
    <v>      -0.00000000       0.60129579       0.55189375 </v>
   </varray>
  </structure>
  <varray name="forces" >
   <v>       0.00000012       0.03785790      -0.21413420 </v>
   <v>      -0.00000012      -0.03785790       0.21413420 </v>
   <v>       0.00000016       0.03785459       0.21413300 </v>
   <v>      -0.00000016      -0.03785459      -0.21413300 </v>
  </varray>
  <varray name="stress" >
   <v>      -5.30298760       0.00000253       0.00000013 </v>
   <v>       0.00000266      -9.99651630       0.00013577 </v>
   <v>       0.00000016       0.00013577      -4.47307399 </v>
  </varray>
  <energy>
   <i name="e_fr_energy">    -21.37369493 </i>
   <i name="e_wo_entrp">    -21.37369493 </i>
   <i name="e_0_energy">     -0.00000000 </i>
  </energy>
  <time name="totalsc">   12.77   12.79</time>
 </calculation>
 <calculation>
  <scstep>
   <time name="dav">    1.56    1.56</time>
   <time name="total">    1.68    1.69</time>
   <energy>
    <i name="alphaZ">      4.83776710 </i>
    <i name="ewald">   1705.02333167 </i>
    <i name="hartreedc">  -2308.99740476 </i>
    <i name="XCdc">     13.72081554 </i>
    <i name="pawpsdc">   1984.21850767 </i>
    <i name="pawaedc">  -1951.86943784 </i>
    <i name="eentropy">     -0.00000000 </i>
    <i name="bandstr">   -172.47935420 </i>
    <i name="atom">    704.16778566 </i>
    <i name="e_fr_energy">    -21.37798916 </i>
    <i name="e_wo_entrp">    -21.37798916 </i>
    <i name="e_0_energy">    -21.37798916 </i>
   </energy>
  </scstep>
  <scstep>
   <time name="dav">    2.00    2.00</time>
   <time name="total">    2.12    2.12</time>
   <energy>
    <i name="e_fr_energy">    -21.37898458 </i>
    <i name="e_wo_entrp">    -21.37898458 </i>
    <i name="e_0_energy">    -21.37898458 </i>
   </energy>
  </scstep>
  <scstep>
   <time name="dav">    2.17    2.17</time>
   <time name="total">    2.29    2.30</time>
   <energy>
    <i name="e_fr_energy">    -21.37896811 </i>
    <i name="e_wo_entrp">    -21.37896811 </i>
    <i name="e_0_energy">    -21.37896811 </i>
   </energy>
  </scstep>
  <scstep>
   <time name="dav">    1.86    1.86</time>
   <time name="total">    1.97    1.98</time>
   <energy>
    <i name="e_fr_energy">    -21.37896799 </i>
    <i name="e_wo_entrp">    -21.37896799 </i>
    <i name="e_0_energy">    -21.37896799 </i>
   </energy>
  </scstep>
  <scstep>
   <time name="dav">    1.39    1.39</time>
   <time name="total">    1.51    1.51</time>
   <energy>
    <i name="e_fr_energy">    -21.37896858 </i>
    <i name="e_wo_entrp">    -21.37896858 </i>
    <i name="e_0_energy">    -21.37896858 </i>
   </energy>
  </scstep>
  <scstep>
   <time name="dav">    1.33    1.33</time>
   <time name="total">    1.35    1.35</time>
   <energy>
    <i name="alphaZ">      4.83776710 </i>
    <i name="ewald">   1705.02333167 </i>
    <i name="hartreedc">  -2308.97229993 </i>
    <i name="XCdc">     13.72267960 </i>
    <i name="pawpsdc">   2003.02962018 </i>
    <i name="pawaedc">  -1970.68687952 </i>
    <i name="eentropy">     -0.00000000 </i>
    <i name="bandstr">   -172.50097488 </i>
    <i name="atom">    704.16778566 </i>
    <i name="e_fr_energy">    -21.37897012 </i>
    <i name="e_wo_entrp">    -21.37897012 </i>
    <i name="e_0_energy">    -21.37897012 </i>
   </energy>
  </scstep>
  <structure>
   <crystal>
    <varray name="basis" >
     <v>       3.29720400       0.00000000       0.00000000 </v>
     <v>       0.00000000       5.02224500      -0.00005300 </v>
     <v>       0.00000000       0.00000000      20.02439000 </v>
    </varray>
    <i name="volume">    331.59120900 </i>
    <varray name="rec_basis" >
     <v>       0.30328727       0.00000000       0.00000000 </v>
     <v>       0.00000000       0.19911414       0.00000000 </v>
     <v>       0.00000000       0.00000053       0.04993910 </v>
    </varray>
   </crystal>
   <varray name="positions" >
    <v>       0.50000000       0.89872274       0.55151333 </v>
    <v>       0.50000000       0.10127726       0.44848667 </v>
    <v>       0.00000000       0.39871864       0.44848668 </v>
    <v>      -0.00000000       0.60128136       0.55151332 </v>
   </varray>
  </structure>
  <varray name="forces" >
   <v>      -0.00000009       0.01569125      -0.12900943 </v>
   <v>       0.00000009      -0.01569125       0.12900943 </v>
   <v>      -0.00000014       0.01568734       0.12900812 </v>
   <v>       0.00000014      -0.01568734      -0.12900812 </v>
  </varray>
  <varray name="stress" >
   <v>      -5.14207469      -0.00000104       0.00000006 </v>
   <v>      -0.00000104      -9.64332755       0.00013788 </v>
   <v>       0.00000010       0.00013789      -2.68623257 </v>
  </varray>
  <energy>
   <i name="e_fr_energy">    -21.37897012 </i>
   <i name="e_wo_entrp">    -21.37897012 </i>
   <i name="e_0_energy">     -0.00000000 </i>
  </energy>
  <time name="totalsc">   11.75   11.77</time>
 </calculation>
 <calculation>
  <scstep>
   <time name="dav">    1.56    1.56</time>
   <time name="total">    1.68    1.68</time>
   <energy>
    <i name="alphaZ">      4.83776710 </i>
    <i name="ewald">   1714.58013095 </i>
    <i name="hartreedc">  -2317.99114596 </i>
    <i name="XCdc">     13.78791008 </i>
    <i name="pawpsdc">   2003.07209422 </i>
    <i name="pawaedc">  -1970.72922393 </i>
    <i name="eentropy">     -0.00000000 </i>
    <i name="bandstr">   -173.10489681 </i>
    <i name="atom">    704.16778566 </i>
    <i name="e_fr_energy">    -21.37957870 </i>
    <i name="e_wo_entrp">    -21.37957870 </i>
    <i name="e_0_energy">    -21.37957870 </i>
   </energy>
  </scstep>
  <scstep>
   <time name="dav">    2.01    2.02</time>
   <time name="total">    2.13    2.14</time>
   <energy>
    <i name="e_fr_energy">    -21.38187432 </i>
    <i name="e_wo_entrp">    -21.38187432 </i>
    <i name="e_0_energy">    -21.38187432 </i>
   </energy>
  </scstep>
  <scstep>
   <time name="dav">    2.17    2.17</time>
   <time name="total">    2.29    2.29</time>
   <energy>
    <i name="e_fr_energy">    -21.38182737 </i>
    <i name="e_wo_entrp">    -21.38182737 </i>
    <i name="e_0_energy">    -21.38182737 </i>
   </energy>
  </scstep>
  <scstep>
   <time name="dav">    1.90    1.90</time>
   <time name="total">    2.02    2.03</time>
   <energy>
    <i name="e_fr_energy">    -21.38182078 </i>
    <i name="e_wo_entrp">    -21.38182078 </i>
    <i name="e_0_energy">    -21.38182078 </i>
   </energy>
  </scstep>
  <scstep>
   <time name="dav">    1.81    1.81</time>
   <time name="total">    1.93    1.93</time>
   <energy>
    <i name="e_fr_energy">    -21.38181936 </i>
    <i name="e_wo_entrp">    -21.38181936 </i>
    <i name="e_0_energy">    -21.38181936 </i>
   </energy>
  </scstep>
  <scstep>
   <time name="dav">    1.33    1.33</time>
   <time name="total">    1.35    1.36</time>
   <energy>
    <i name="alphaZ">      4.83776710 </i>
    <i name="ewald">   1714.58013095 </i>
    <i name="hartreedc">  -2317.99288267 </i>
    <i name="XCdc">     13.79147696 </i>
    <i name="pawpsdc">   2033.19118116 </i>
    <i name="pawaedc">  -2000.85838759 </i>
    <i name="eentropy">     -0.00000000 </i>
    <i name="bandstr">   -173.09889181 </i>
    <i name="atom">    704.16778566 </i>
    <i name="e_fr_energy">    -21.38182024 </i>
    <i name="e_wo_entrp">    -21.38182024 </i>
    <i name="e_0_energy">    -21.38182024 </i>
   </energy>
  </scstep>
  <structure>
   <crystal>
    <varray name="basis" >
     <v>       3.29720400       0.00000000       0.00000000 </v>
     <v>       0.00000000       5.02224500      -0.00005300 </v>
     <v>       0.00000000       0.00000000      20.02439000 </v>
    </varray>
    <i name="volume">    331.59120900 </i>
    <varray name="rec_basis" >
     <v>       0.30328727       0.00000000       0.00000000 </v>
     <v>       0.00000000       0.19911414       0.00000000 </v>
     <v>       0.00000000       0.00000053       0.04993910 </v>
    </varray>
   </crystal>
   <varray name="positions" >
    <v>       0.50000000       0.89874462       0.55093754 </v>
    <v>       0.50000000       0.10125538       0.44906246 </v>
    <v>       0.00000000       0.39874049       0.44906247 </v>
    <v>      -0.00000000       0.60125951       0.55093753 </v>
   </varray>
  </structure>
  <varray name="forces" >
   <v>      -0.00000017      -0.02220020       0.00909541 </v>
   <v>       0.00000017       0.02220020      -0.00909541 </v>
   <v>      -0.00000021      -0.02220500      -0.00909632 </v>
   <v>       0.00000021       0.02220500       0.00909632 </v>
  </varray>
  <varray name="stress" >
   <v>      -4.87247119      -0.00000235       0.00000036 </v>
   <v>      -0.00000235      -9.07668650       0.00013994 </v>
   <v>       0.00000036       0.00013985       0.05024157 </v>
  </varray>
  <energy>
   <i name="e_fr_energy">    -21.38182024 </i>
   <i name="e_wo_entrp">    -21.38182024 </i>
   <i name="e_0_energy">     -0.00000000 </i>
  </energy>
  <time name="totalsc">   12.23   12.25</time>
 </calculation>
 <calculation>
  <scstep>
   <time name="dav">    1.58    1.58</time>
   <time name="total">    1.70    1.70</time>
   <energy>
    <i name="alphaZ">      4.83776710 </i>
    <i name="ewald">   1713.93708583 </i>
    <i name="hartreedc">  -2317.36334576 </i>
    <i name="XCdc">     13.78672830 </i>
    <i name="pawpsdc">   2033.15579737 </i>
    <i name="pawaedc">  -2000.82276139 </i>
    <i name="eentropy">     -0.00000000 </i>
    <i name="bandstr">   -173.08088177 </i>
    <i name="atom">    704.16778566 </i>
    <i name="e_fr_energy">    -21.38182468 </i>
    <i name="e_wo_entrp">    -21.38182468 </i>
    <i name="e_0_energy">    -21.38182468 </i>
   </energy>
  </scstep>
  <scstep>
   <time name="dav">    1.96    1.96</time>
   <time name="total">    2.08    2.08</time>
   <energy>
    <i name="e_fr_energy">    -21.38183487 </i>
    <i name="e_wo_entrp">    -21.38183487 </i>
    <i name="e_0_energy">    -21.38183487 </i>
   </energy>
  </scstep>
  <scstep>
   <time name="dav">    1.32    1.32</time>
   <time name="total">    1.44    1.44</time>
   <energy>
    <i name="e_fr_energy">    -21.38183544 </i>
    <i name="e_wo_entrp">    -21.38183544 </i>
    <i name="e_0_energy">    -21.38183544 </i>
   </energy>
  </scstep>
  <scstep>
   <time name="dav">    1.42    1.42</time>
   <time name="total">    1.54    1.54</time>
   <energy>
    <i name="e_fr_energy">    -21.38183721 </i>
    <i name="e_wo_entrp">    -21.38183721 </i>
    <i name="e_0_energy">    -21.38183721 </i>
   </energy>
  </scstep>
  <scstep>
   <time name="dav">    1.42    1.43</time>
   <time name="total">    1.54    1.54</time>
   <energy>
    <i name="e_fr_energy">    -21.38183847 </i>
    <i name="e_wo_entrp">    -21.38183847 </i>
    <i name="e_0_energy">    -21.38183847 </i>
   </energy>
  </scstep>
  <scstep>
   <time name="dav">    1.37    1.37</time>
   <time name="total">    1.39    1.39</time>
   <energy>
    <i name="alphaZ">      4.83776710 </i>
    <i name="ewald">   1713.93708583 </i>
    <i name="hartreedc">  -2317.33387396 </i>
    <i name="XCdc">     13.78619405 </i>
    <i name="pawpsdc">   2031.15789444 </i>
    <i name="pawaedc">  -1998.82419782 </i>
    <i name="eentropy">     -0.00000000 </i>
    <i name="bandstr">   -173.11049435 </i>
    <i name="atom">    704.16778566 </i>
    <i name="e_fr_energy">    -21.38183906 </i>
    <i name="e_wo_entrp">    -21.38183906 </i>
    <i name="e_0_energy">    -21.38183906 </i>
   </energy>
  </scstep>
  <structure>
   <crystal>
    <varray name="basis" >
     <v>       3.29720400       0.00000000       0.00000000 </v>
     <v>       0.00000000       5.02224500      -0.00005300 </v>
     <v>       0.00000000       0.00000000      20.02439000 </v>
    </varray>
    <i name="volume">    331.59120900 </i>
    <varray name="rec_basis" >
     <v>       0.30328727       0.00000000       0.00000000 </v>
     <v>       0.00000000       0.19911414       0.00000000 </v>
     <v>       0.00000000       0.00000053       0.04993910 </v>
    </varray>
   </crystal>
   <varray name="positions" >
    <v>       0.50000000       0.89874315       0.55097624 </v>
    <v>       0.50000000       0.10125685       0.44902376 </v>
    <v>       0.00000000       0.39873902       0.44902376 </v>
    <v>      -0.00000000       0.60126098       0.55097624 </v>
   </varray>
  </structure>
  <varray name="forces" >
   <v>      -0.00000017      -0.01924969      -0.00122001 </v>
   <v>       0.00000017       0.01924969       0.00122001 </v>
   <v>      -0.00000021      -0.01925444       0.00121903 </v>
   <v>       0.00000021       0.01925444      -0.00121903 </v>
  </varray>
  <varray name="stress" >
   <v>      -4.86067335      -0.00000242       0.00000035 </v>
   <v>      -0.00000237      -9.10513788       0.00014022 </v>
   <v>       0.00000032       0.00014023      -0.09891906 </v>
  </varray>
  <energy>
   <i name="e_fr_energy">    -21.38183906 </i>
   <i name="e_wo_entrp">    -21.38183906 </i>
   <i name="e_0_energy">     -0.00000000 </i>
  </energy>
  <time name="totalsc">   10.51   10.53</time>
 </calculation>
 <calculation>
  <scstep>
   <time name="dav">    1.49    1.49</time>
   <time name="total">    1.61    1.61</time>
   <energy>
    <i name="alphaZ">      4.83776710 </i>
    <i name="ewald">   1714.00150061 </i>
    <i name="hartreedc">  -2317.38929266 </i>
    <i name="XCdc">     13.78661195 </i>
    <i name="pawpsdc">   2031.11036287 </i>
    <i name="pawaedc">  -1998.77669001 </i>
    <i name="eentropy">     -0.00000000 </i>
    <i name="bandstr">   -173.11988564 </i>
    <i name="atom">    704.16778566 </i>
    <i name="e_fr_energy">    -21.38184014 </i>
    <i name="e_wo_entrp">    -21.38184014 </i>
    <i name="e_0_energy">    -21.38184014 </i>
   </energy>
  </scstep>
  <scstep>
   <time name="dav">    1.35    1.35</time>
   <time name="total">    1.47    1.48</time>
   <energy>
    <i name="e_fr_energy">    -21.38184049 </i>
    <i name="e_wo_entrp">    -21.38184049 </i>
    <i name="e_0_energy">    -21.38184049 </i>
   </energy>
  </scstep>
  <scstep>
   <time name="dav">    1.26    1.26</time>
   <time name="total">    1.38    1.38</time>
   <energy>
    <i name="e_fr_energy">    -21.38184068 </i>
    <i name="e_wo_entrp">    -21.38184068 </i>
    <i name="e_0_energy">    -21.38184068 </i>
   </energy>
  </scstep>
  <scstep>
   <time name="dav">    1.32    1.32</time>
   <time name="total">    1.44    1.45</time>
   <energy>
    <i name="e_fr_energy">    -21.38184090 </i>
    <i name="e_wo_entrp">    -21.38184090 </i>
    <i name="e_0_energy">    -21.38184090 </i>
   </energy>
  </scstep>
  <scstep>
   <time name="dav">    1.28    1.28</time>
   <time name="total">    1.40    1.40</time>
   <energy>
    <i name="e_fr_energy">    -21.38184100 </i>
    <i name="e_wo_entrp">    -21.38184100 </i>
    <i name="e_0_energy">    -21.38184100 </i>
   </energy>
  </scstep>
  <scstep>
   <time name="dav">    1.34    1.34</time>
   <time name="total">    1.36    1.36</time>
   <energy>
    <i name="alphaZ">      4.83776710 </i>
    <i name="ewald">   1714.00150061 </i>
    <i name="hartreedc">  -2317.38352923 </i>
    <i name="XCdc">     13.78658333 </i>
    <i name="pawpsdc">   2031.30758420 </i>
    <i name="pawaedc">  -1998.97398435 </i>
    <i name="eentropy">     -0.00000000 </i>
    <i name="bandstr">   -173.12554842 </i>
    <i name="atom">    704.16778566 </i>
    <i name="e_fr_energy">    -21.38184111 </i>
    <i name="e_wo_entrp">    -21.38184111 </i>
    <i name="e_0_energy">    -21.38184111 </i>
   </energy>
  </scstep>
  <structure>
   <crystal>
    <varray name="basis" >
     <v>       3.29720400       0.00000000       0.00000000 </v>
     <v>       0.00000000       5.02224500      -0.00005300 </v>
     <v>       0.00000000       0.00000000      20.02439000 </v>
    </varray>
    <i name="volume">    331.59120900 </i>
    <varray name="rec_basis" >
     <v>       0.30328727       0.00000000       0.00000000 </v>
     <v>       0.00000000       0.19911414       0.00000000 </v>
     <v>       0.00000000       0.00000053       0.04993910 </v>
    </varray>
   </crystal>
   <varray name="positions" >
    <v>       0.50000000       0.89874330       0.55097236 </v>
    <v>       0.50000000       0.10125670       0.44902764 </v>
    <v>       0.00000000       0.39873917       0.44902764 </v>
    <v>      -0.00000000       0.60126083       0.55097236 </v>
   </varray>
  </structure>
  <varray name="forces" >
   <v>      -0.00000017      -0.01952089      -0.00009026 </v>
   <v>       0.00000017       0.01952089       0.00009026 </v>
   <v>      -0.00000021      -0.01952563       0.00008928 </v>
   <v>       0.00000021       0.01952563      -0.00008928 </v>
  </varray>
  <varray name="stress" >
   <v>      -4.85965974      -0.00000243       0.00000037 </v>
   <v>      -0.00000242      -9.10154273       0.00014026 </v>
   <v>       0.00000037       0.00014032      -0.07493389 </v>
  </varray>
  <energy>
   <i name="e_fr_energy">    -21.38184111 </i>
   <i name="e_wo_entrp">    -21.38184111 </i>
   <i name="e_0_energy">     -0.00000000 </i>
  </energy>
  <time name="totalsc">    9.49    9.51</time>
 </calculation>
 <calculation>
  <scstep>
   <time name="dav">    1.72    1.72</time>
   <time name="total">    1.84    1.85</time>
   <energy>
    <i name="alphaZ">      4.83776710 </i>
    <i name="ewald">   1714.33145974 </i>
    <i name="hartreedc">  -2317.66025377 </i>
    <i name="XCdc">     13.79200569 </i>
    <i name="pawpsdc">   2031.31221695 </i>
    <i name="pawaedc">  -1998.97861572 </i>
    <i name="eentropy">     -0.00000000 </i>
    <i name="bandstr">   -173.18423268 </i>
    <i name="atom">    704.16778566 </i>
    <i name="e_fr_energy">    -21.38186704 </i>
    <i name="e_wo_entrp">    -21.38186704 </i>
    <i name="e_0_energy">    -21.38186704 </i>
   </energy>
  </scstep>
  <scstep>
   <time name="dav">    2.00    2.00</time>
   <time name="total">    2.12    2.12</time>
   <energy>
    <i name="e_fr_energy">    -21.38187818 </i>
    <i name="e_wo_entrp">    -21.38187818 </i>
    <i name="e_0_energy">    -21.38187818 </i>
   </energy>
  </scstep>
  <scstep>
   <time name="dav">    1.28    1.28</time>
   <time name="total">    1.40    1.40</time>
   <energy>
    <i name="e_fr_energy">    -21.38187836 </i>
    <i name="e_wo_entrp">    -21.38187836 </i>
    <i name="e_0_energy">    -21.38187836 </i>
   </energy>
  </scstep>
  <scstep>
   <time name="dav">    1.17    1.17</time>
   <time name="total">    1.29    1.29</time>
   <energy>
    <i name="e_fr_energy">    -21.38187882 </i>
    <i name="e_wo_entrp">    -21.38187882 </i>
    <i name="e_0_energy">    -21.38187882 </i>
   </energy>
  </scstep>
  <scstep>
   <time name="dav">    1.16    1.16</time>
   <time name="total">    1.28    1.28</time>
   <energy>
    <i name="e_fr_energy">    -21.38187874 </i>
    <i name="e_wo_entrp">    -21.38187874 </i>
    <i name="e_0_energy">    -21.38187874 </i>
   </energy>
  </scstep>
  <scstep>
   <time name="dav">    1.18    1.18</time>
   <time name="total">    1.20    1.20</time>
   <energy>
    <i name="alphaZ">      4.83776710 </i>
    <i name="ewald">   1714.33145974 </i>
    <i name="hartreedc">  -2317.66279624 </i>
    <i name="XCdc">     13.79254610 </i>
    <i name="pawpsdc">   2034.41895169 </i>
    <i name="pawaedc">  -2002.08654856 </i>
    <i name="eentropy">     -0.00000000 </i>
    <i name="bandstr">   -173.18104424 </i>
    <i name="atom">    704.16778566 </i>
    <i name="e_fr_energy">    -21.38187875 </i>
    <i name="e_wo_entrp">    -21.38187875 </i>
    <i name="e_0_energy">    -21.38187875 </i>
   </energy>
  </scstep>
  <structure>
   <crystal>
    <varray name="basis" >
     <v>       3.29720400       0.00000000       0.00000000 </v>
     <v>       0.00000000       5.02224500      -0.00005300 </v>
     <v>       0.00000000       0.00000000      20.02439000 </v>
    </varray>
    <i name="volume">    331.59120900 </i>
    <varray name="rec_basis" >
     <v>       0.30328727       0.00000000       0.00000000 </v>
     <v>       0.00000000       0.19911414       0.00000000 </v>
     <v>       0.00000000       0.00000053       0.04993910 </v>
    </varray>
   </crystal>
   <varray name="positions" >
    <v>       0.50000000       0.89857207       0.55096079 </v>
    <v>       0.50000000       0.10142793       0.44903921 </v>
    <v>       0.00000000       0.39856790       0.44903921 </v>
    <v>      -0.00000000       0.60143210       0.55096079 </v>
   </varray>
  </structure>
  <varray name="forces" >
   <v>      -0.00000001      -0.00137773      -0.00012107 </v>
   <v>       0.00000001       0.00137773       0.00012107 </v>
   <v>      -0.00000004      -0.00138121       0.00012101 </v>
   <v>       0.00000004       0.00138121      -0.00012101 </v>
  </varray>
  <varray name="stress" >
   <v>      -4.78285606      -0.00000037       0.00000035 </v>
   <v>      -0.00000035      -8.84878491       0.00012567 </v>
   <v>       0.00000033       0.00012567      -0.07696863 </v>
  </varray>
  <energy>
   <i name="e_fr_energy">    -21.38187875 </i>
   <i name="e_wo_entrp">    -21.38187875 </i>
   <i name="e_0_energy">     -0.00000000 </i>
  </energy>
  <time name="totalsc">    9.90    9.92</time>
  <eigenvalues>
   <array>
    <dimension dim="1">band</dimension>
    <dimension dim="2">kpoint</dimension>
    <dimension dim="3">spin</dimension>
    <field>eigene</field>
    <field>occ</field>
    <set>
     <set comment="spin 1">
      <set comment="kpoint 1">
       <r>  -17.2778    1.0000 </r>
       <r>  -15.0910    1.0000 </r>
       <r>  -12.0678    1.0000 </r>
       <r>   -8.0924    1.0000 </r>
       <r>   -7.5438    1.0000 </r>
       <r>   -6.8153    1.0000 </r>
       <r>   -5.6978    1.0000 </r>
       <r>   -4.3202    1.0000 </r>
       <r>   -3.9623    1.0000 </r>
       <r>   -2.5936    1.0000 </r>
       <r>   -1.4169    0.0000 </r>
       <r>   -0.8312    0.0000 </r>
       <r>   -0.0326    0.0000 </r>
       <r>    0.4531    0.0000 </r>
       <r>    1.8588    0.0000 </r>
       <r>    2.1768    0.0000 </r>
      </set>
      <set comment="kpoint 2">
       <r>  -17.2533    1.0000 </r>
       <r>  -15.0652    1.0000 </r>
       <r>  -12.0692    1.0000 </r>
       <r>   -8.0753    1.0000 </r>
       <r>   -7.5531    1.0000 </r>
       <r>   -6.7941    1.0000 </r>
       <r>   -5.8710    1.0000 </r>
       <r>   -4.5020    1.0000 </r>
       <r>   -3.9576    1.0000 </r>
       <r>   -2.5941    1.0000 </r>
       <r>   -1.3961    0.0000 </r>
       <r>   -0.5983    0.0000 </r>
       <r>    0.1941    0.0000 </r>
       <r>    0.3092    0.0000 </r>
       <r>    1.8834    0.0000 </r>
       <r>    2.2058    0.0000 </r>
      </set>
      <set comment="kpoint 3">
       <r>  -17.1801    1.0000 </r>
       <r>  -14.9882    1.0000 </r>
       <r>  -12.0771    1.0000 </r>
       <r>   -8.0247    1.0000 </r>
       <r>   -7.5948    1.0000 </r>
       <r>   -6.7307    1.0000 </r>
       <r>   -6.3021    1.0000 </r>
       <r>   -4.9331    1.0000 </r>
       <r>   -3.9477    1.0000 </r>
       <r>   -2.6058    1.0000 </r>
       <r>   -1.3343    0.0000 </r>
       <r>   -0.0471    0.0000 </r>
       <r>    0.0215    0.0000 </r>
       <r>    0.7526    0.0000 </r>
       <r>    1.9511    0.0000 </r>
       <r>    2.2906    0.0000 </r>
      </set>
      <set comment="kpoint 4">
       <r>  -17.0585    1.0000 </r>
       <r>  -14.8598    1.0000 </r>
       <r>  -12.1025    1.0000 </r>
       <r>   -7.9435    1.0000 </r>
       <r>   -7.7143    1.0000 </r>
       <r>   -6.8362    1.0000 </r>
       <r>   -6.6265    1.0000 </r>
       <r>   -5.4084    1.0000 </r>
       <r>   -3.9460    1.0000 </r>
       <r>   -2.6425    1.0000 </r>
       <r>   -1.2348    0.0000 </r>
       <r>   -0.4807    0.0000 </r>
       <r>    0.8837    0.0000 </r>
       <r>    1.3661    0.0000 </r>
       <r>    1.9776    0.0000 </r>
       <r>    2.3387    0.0000 </r>
      </set>
      <set comment="kpoint 5">
       <r>  -16.8890    1.0000 </r>
       <r>  -14.6805    1.0000 </r>
       <r>  -12.1644    1.0000 </r>
       <r>   -7.9837    1.0000 </r>
       <r>   -7.8369    1.0000 </r>
       <r>   -7.3593    1.0000 </r>
       <r>   -6.4840    1.0000 </r>
       <r>   -5.7586    1.0000 </r>
       <r>   -3.9757    1.0000 </r>
       <r>   -2.7150    1.0000 </r>
       <r>   -1.1047    0.0000 </r>
       <r>   -0.8827    0.0000 </r>
       <r>    1.4981    0.0000 </r>
       <r>    1.5830    0.0000 </r>
       <r>    1.8588    0.0000 </r>
       <r>    2.3720    0.0000 </r>
      </set>
      <set comment="kpoint 6">
       <r>  -16.6726    1.0000 </r>
       <r>  -14.4505    1.0000 </r>
       <r>  -12.2876    1.0000 </r>
       <r>   -8.4346    1.0000 </r>
       <r>   -7.7973    1.0000 </r>
       <r>   -7.7141    1.0000 </r>
       <r>   -6.3073    1.0000 </r>
       <r>   -5.9066    1.0000 </r>
       <r>   -4.0642    1.0000 </r>
       <r>   -2.8345    1.0000 </r>
       <r>   -1.1725    0.0000 </r>
       <r>   -0.9617    0.0000 </r>
       <r>    1.0561    0.0000 </r>
       <r>    1.0685    0.0000 </r>
       <r>    2.4556    0.0000 </r>
       <r>    2.6010    0.0000 </r>
      </set>
      <set comment="kpoint 7">
       <r>  -16.4107    1.0000 </r>
       <r>  -14.1704    1.0000 </r>
       <r>  -12.4950    1.0000 </r>
       <r>   -9.0113    1.0000 </r>
       <r>   -8.1036    1.0000 </r>
       <r>   -7.5905    1.0000 </r>
       <r>   -6.1029    1.0000 </r>
       <r>   -5.8892    1.0000 </r>
       <r>   -4.2209    1.0000 </r>
       <r>   -3.0098    1.0000 </r>
       <r>   -1.3021    0.0000 </r>
       <r>   -0.8536    0.0000 </r>
       <r>    0.4783    0.0000 </r>
       <r>    0.6370    0.0000 </r>
       <r>    2.0996    0.0000 </r>
       <r>    2.8999    0.0000 </r>
      </set>
      <set comment="kpoint 8">
       <r>  -16.1049    1.0000 </r>
       <r>  -13.8408    1.0000 </r>
       <r>  -12.7946    1.0000 </r>
       <r>   -9.6411    1.0000 </r>
       <r>   -8.2590    1.0000 </r>
       <r>   -7.4901    1.0000 </r>
       <r>   -5.8814    1.0000 </r>
       <r>   -5.7748    1.0000 </r>
       <r>   -4.4124    1.0000 </r>
       <r>   -3.2416    1.0000 </r>
       <r>   -1.2678    0.0000 </r>
       <r>   -0.8834    0.0000 </r>
       <r>   -0.0983    0.0000 </r>
       <r>    0.4264    0.0000 </r>
       <r>    1.6581    0.0000 </r>
       <r>    3.0685    0.0000 </r>
      </set>
      <set comment="kpoint 9">
       <r>  -15.7580    1.0000 </r>
       <r>  -13.4626    1.0000 </r>
       <r>  -13.1729    1.0000 </r>
       <r>  -10.2787    1.0000 </r>
       <r>   -8.2739    1.0000 </r>
       <r>   -7.4456    1.0000 </r>
       <r>   -5.6594    1.0000 </r>
       <r>   -5.6153    1.0000 </r>
       <r>   -4.5707    1.0000 </r>
       <r>   -3.5191    1.0000 </r>
       <r>   -1.0984    0.0000 </r>
       <r>   -1.0923    0.0000 </r>
       <r>   -0.6242    0.0000 </r>
       <r>    0.5042    0.0000 </r>
       <r>    1.2202    0.0000 </r>
       <r>    2.7476    0.0000 </r>
      </set>
      <set comment="kpoint 10">
       <r>  -15.3734    1.0000 </r>
       <r>  -13.6033    1.0000 </r>
       <r>  -13.0369    1.0000 </r>
       <r>  -10.9003    1.0000 </r>
       <r>   -8.1778    1.0000 </r>
       <r>   -7.4869    1.0000 </r>
       <r>   -5.4624    1.0000 </r>
       <r>   -5.4519    1.0000 </r>
       <r>   -4.6297    1.0000 </r>
       <r>   -3.8209    1.0000 </r>
       <r>   -1.3448    0.0000 </r>
       <r>   -1.0632    0.0000 </r>
       <r>   -0.8284    0.0000 </r>
       <r>    0.7640    0.0000 </r>
       <r>    0.7787    0.0000 </r>
       <r>    2.3536    0.0000 </r>
      </set>
      <set comment="kpoint 11">
       <r>  -14.9563    1.0000 </r>
       <r>  -14.0578    1.0000 </r>
       <r>  -12.5651    1.0000 </r>
       <r>  -11.4930    1.0000 </r>
       <r>   -8.0086    1.0000 </r>
       <r>   -7.6176    1.0000 </r>
       <r>   -5.3254    1.0000 </r>
       <r>   -5.3239    1.0000 </r>
       <r>   -4.5604    1.0000 </r>
       <r>   -4.1184    1.0000 </r>
       <r>   -1.5147    0.0000 </r>
       <r>   -1.3781    0.0000 </r>
       <r>   -0.4853    0.0000 </r>
       <r>    0.3369    0.0000 </r>
       <r>    1.1130    0.0000 </r>
       <r>    1.9311    0.0000 </r>
      </set>
      <set comment="kpoint 12">
       <r>  -14.5142    1.0000 </r>
       <r>  -14.5142    1.0000 </r>
       <r>  -12.0495    1.0000 </r>
       <r>  -12.0495    1.0000 </r>
       <r>   -7.8069    1.0000 </r>
       <r>   -7.8069    1.0000 </r>
       <r>   -5.2753    1.0000 </r>
       <r>   -5.2753    1.0000 </r>
       <r>   -4.3777    1.0000 </r>
       <r>   -4.3777    1.0000 </r>
       <r>   -1.5337    0.0000 </r>
       <r>   -1.5337    0.0000 </r>
       <r>   -0.0905    0.0000 </r>
       <r>   -0.0905    0.0000 </r>
       <r>    1.5100    0.0000 </r>
       <r>    1.5100    0.0000 </r>
      </set>
      <set comment="kpoint 13">
       <r>  -17.2580    1.0000 </r>
       <r>  -15.1328    1.0000 </r>
       <r>  -12.0375    1.0000 </r>
       <r>   -8.3409    1.0000 </r>
       <r>   -7.3183    1.0000 </r>
       <r>   -6.7480    1.0000 </r>
       <r>   -5.6829    1.0000 </r>
       <r>   -4.3402    1.0000 </r>
       <r>   -3.9179    1.0000 </r>
       <r>   -2.7750    1.0000 </r>
       <r>   -1.2380    0.0000 </r>
       <r>   -0.8161    0.0000 </r>
       <r>   -0.0816    0.0000 </r>
       <r>    0.4666    0.0000 </r>
       <r>    1.9085    0.0000 </r>
       <r>    2.2010    0.0000 </r>
      </set>
      <set comment="kpoint 14">
       <r>  -17.2335    1.0000 </r>
       <r>  -15.1073    1.0000 </r>
       <r>  -12.0383    1.0000 </r>
       <r>   -8.3294    1.0000 </r>
       <r>   -7.3216    1.0000 </r>
       <r>   -6.7309    1.0000 </r>
       <r>   -5.8521    1.0000 </r>
       <r>   -4.5236    1.0000 </r>
       <r>   -3.9148    1.0000 </r>
       <r>   -2.7725    1.0000 </r>
       <r>   -1.2198    0.0000 </r>
       <r>   -0.5841    0.0000 </r>
       <r>    0.1395    0.0000 </r>
       <r>    0.3319    0.0000 </r>
       <r>    1.9324    0.0000 </r>
       <r>    2.2306    0.0000 </r>
      </set>
      <set comment="kpoint 15">
       <r>  -17.1604    1.0000 </r>
       <r>  -15.0308    1.0000 </r>
       <r>  -12.0444    1.0000 </r>
       <r>   -8.2996    1.0000 </r>
       <r>   -7.3411    1.0000 </r>
       <r>   -6.6945    1.0000 </r>
       <r>   -6.2573    1.0000 </r>
       <r>   -4.9580    1.0000 </r>
       <r>   -3.9100    1.0000 </r>
       <r>   -2.7739    1.0000 </r>
       <r>   -1.1687    0.0000 </r>
       <r>   -0.0284    0.0000 </r>
       <r>    0.0342    0.0000 </r>
       <r>    0.7122    0.0000 </r>
       <r>    1.9972    0.0000 </r>
       <r>    2.3165    0.0000 </r>
      </set>
      <set comment="kpoint 16">
       <r>  -17.0388    1.0000 </r>
       <r>  -14.9036    1.0000 </r>
       <r>  -12.0668    1.0000 </r>
       <r>   -8.2728    1.0000 </r>
       <r>   -7.4064    1.0000 </r>
       <r>   -6.8934    1.0000 </r>
       <r>   -6.4909    1.0000 </r>
       <r>   -5.4350    1.0000 </r>
       <r>   -3.9170    1.0000 </r>
       <r>   -2.7928    1.0000 </r>
       <r>   -1.0872    0.0000 </r>
       <r>   -0.4472    0.0000 </r>
       <r>    0.8912    0.0000 </r>
       <r>    1.3320    0.0000 </r>
       <r>    1.9666    0.0000 </r>
       <r>    2.2635    0.0000 </r>
      </set>
      <set comment="kpoint 17">
       <r>  -16.8695    1.0000 </r>
       <r>  -14.7262    1.0000 </r>
       <r>  -12.1243    1.0000 </r>
       <r>   -8.3199    1.0000 </r>
       <r>   -7.5289    1.0000 </r>
       <r>   -7.3837    1.0000 </r>
       <r>   -6.3856    1.0000 </r>
       <r>   -5.7805    1.0000 </r>
       <r>   -3.9587    1.0000 </r>
       <r>   -2.8424    1.0000 </r>
       <r>   -0.9802    0.0000 </r>
       <r>   -0.8315    0.0000 </r>
       <r>    1.4384    0.0000 </r>
       <r>    1.5065    0.0000 </r>
       <r>    1.9165    0.0000 </r>
       <r>    2.3617    0.0000 </r>
      </set>
      <set comment="kpoint 18">
       <r>  -16.6533    1.0000 </r>
       <r>  -14.4994    1.0000 </r>
       <r>  -12.2417    1.0000 </r>
       <r>   -8.5894    1.0000 </r>
       <r>   -7.8159    1.0000 </r>
       <r>   -7.5994    1.0000 </r>
       <r>   -6.2210    1.0000 </r>
       <r>   -5.9201    1.0000 </r>
       <r>   -4.0589    1.0000 </r>
       <r>   -2.9368    1.0000 </r>
       <r>   -1.1029    0.0000 </r>
       <r>   -0.8627    0.0000 </r>
       <r>    0.9333    0.0000 </r>
       <r>    1.1009    0.0000 </r>
       <r>    2.4544    0.0000 </r>
       <r>    2.7337    0.0000 </r>
      </set>
      <set comment="kpoint 19">
       <r>  -16.3916    1.0000 </r>
       <r>  -14.2254    1.0000 </r>
       <r>  -12.4410    1.0000 </r>
       <r>   -9.0902    1.0000 </r>
       <r>   -8.1200    1.0000 </r>
       <r>   -7.5580    1.0000 </r>
       <r>   -6.0271    1.0000 </r>
       <r>   -5.9041    1.0000 </r>
       <r>   -4.2194    1.0000 </r>
       <r>   -3.0870    1.0000 </r>
       <r>   -1.2182    0.0000 </r>
       <r>   -0.7821    0.0000 </r>
       <r>    0.5033    0.0000 </r>
       <r>    0.5378    0.0000 </r>
       <r>    2.2275    0.0000 </r>
       <r>    2.9627    0.0000 </r>
      </set>
      <set comment="kpoint 20">
       <r>  -16.0864    1.0000 </r>
       <r>  -13.9099    1.0000 </r>
       <r>  -12.7257    1.0000 </r>
       <r>   -9.6915    1.0000 </r>
       <r>   -8.2732    1.0000 </r>
       <r>   -7.4822    1.0000 </r>
       <r>   -5.8195    1.0000 </r>
       <r>   -5.8099    1.0000 </r>
       <r>   -4.3984    1.0000 </r>
       <r>   -3.2941    1.0000 </r>
       <r>   -1.1785    0.0000 </r>
       <r>   -0.8477    0.0000 </r>
       <r>   -0.0320    0.0000 </r>
       <r>    0.3014    0.0000 </r>
       <r>    1.8341    0.0000 </r>
       <r>    2.9988    0.0000 </r>
      </set>
      <set comment="kpoint 21">
       <r>  -15.7401    1.0000 </r>
       <r>  -13.5922    1.0000 </r>
       <r>  -13.0441    1.0000 </r>
       <r>  -10.3162    1.0000 </r>
       <r>   -8.2848    1.0000 </r>
       <r>   -7.4404    1.0000 </r>
       <r>   -5.6914    1.0000 </r>
       <r>   -5.6191    1.0000 </r>
       <r>   -4.5227    1.0000 </r>
       <r>   -3.5447    1.0000 </r>
       <r>   -1.0866    0.0000 </r>
       <r>   -1.0231    0.0000 </r>
       <r>   -0.5436    0.0000 </r>
       <r>    0.3691    0.0000 </r>
       <r>    1.4388    0.0000 </r>
       <r>    2.6861    0.0000 </r>
      </set>
      <set comment="kpoint 22">
       <r>  -15.3568    1.0000 </r>
       <r>  -13.6496    1.0000 </r>
       <r>  -12.9927    1.0000 </r>
       <r>  -10.9301    1.0000 </r>
       <r>   -8.1846    1.0000 </r>
       <r>   -7.4791    1.0000 </r>
       <r>   -5.5742    1.0000 </r>
       <r>   -5.4568    1.0000 </r>
       <r>   -4.5365    1.0000 </r>
       <r>   -3.8123    1.0000 </r>
       <r>   -1.3489    0.0000 </r>
       <r>   -1.0593    0.0000 </r>
       <r>   -0.6856    0.0000 </r>
       <r>    0.5168    0.0000 </r>
       <r>    1.1157    0.0000 </r>
       <r>    2.3008    0.0000 </r>
      </set>
      <set comment="kpoint 23">
       <r>  -14.9419    1.0000 </r>
       <r>  -14.0590    1.0000 </r>
       <r>  -12.5679    1.0000 </r>
       <r>  -11.5166    1.0000 </r>
       <r>   -8.0104    1.0000 </r>
       <r>   -7.6102    1.0000 </r>
       <r>   -5.4629    1.0000 </r>
       <r>   -5.3700    1.0000 </r>
[...]
       <r>    2.5898    0.0000 </r>
       <r>    2.5898    0.0000 </r>
      </set>
      <set comment="kpoint 151">
       <r>  -15.5446    1.0000 </r>
       <r>  -15.5446    1.0000 </r>
       <r>  -10.9268    1.0000 </r>
       <r>  -10.9268    1.0000 </r>
       <r>   -7.9192    1.0000 </r>
       <r>   -7.9192    1.0000 </r>
       <r>   -5.2181    1.0000 </r>
       <r>   -5.2181    1.0000 </r>
       <r>   -4.1495    1.0000 </r>
       <r>   -4.1495    1.0000 </r>
       <r>   -0.2591    0.0000 </r>
       <r>   -0.2591    0.0000 </r>
       <r>    0.9687    0.0000 </r>
       <r>    0.9687    0.0000 </r>
       <r>    2.9096    0.0000 </r>
       <r>    2.9096    0.0000 </r>
      </set>
      <set comment="kpoint 152">
       <r>  -15.2612    1.0000 </r>
       <r>  -15.2612    1.0000 </r>
       <r>  -11.2052    1.0000 </r>
       <r>  -11.2052    1.0000 </r>
       <r>   -8.0514    1.0000 </r>
       <r>   -8.0514    1.0000 </r>
       <r>   -5.4870    1.0000 </r>
       <r>   -5.4870    1.0000 </r>
       <r>   -3.9990    1.0000 </r>
       <r>   -3.9990    1.0000 </r>
       <r>   -0.3042    0.0000 </r>
       <r>   -0.3042    0.0000 </r>
       <r>    0.7606    0.0000 </r>
       <r>    0.7606    0.0000 </r>
       <r>    2.9721    0.0000 </r>
       <r>    2.9721    0.0000 </r>
      </set>
      <set comment="kpoint 153">
       <r>  -14.9543    1.0000 </r>
       <r>  -14.9543    1.0000 </r>
       <r>  -11.5744    1.0000 </r>
       <r>  -11.5744    1.0000 </r>
       <r>   -8.0044    1.0000 </r>
       <r>   -8.0044    1.0000 </r>
       <r>   -5.8325    1.0000 </r>
       <r>   -5.8325    1.0000 </r>
       <r>   -3.8106    1.0000 </r>
       <r>   -3.8106    1.0000 </r>
       <r>   -0.3109    0.0000 </r>
       <r>   -0.3109    0.0000 </r>
       <r>    0.5626    0.0000 </r>
       <r>    0.5626    0.0000 </r>
       <r>    2.8024    0.0000 </r>
       <r>    2.8024    0.0000 </r>
      </set>
      <set comment="kpoint 154">
       <r>  -14.6468    1.0000 </r>
       <r>  -14.6468    1.0000 </r>
       <r>  -11.9637    1.0000 </r>
       <r>  -11.9637    1.0000 </r>
       <r>   -7.8341    1.0000 </r>
       <r>   -7.8341    1.0000 </r>
       <r>   -6.2046    1.0000 </r>
       <r>   -6.2046    1.0000 </r>
       <r>   -3.6247    1.0000 </r>
       <r>   -3.6247    1.0000 </r>
       <r>   -0.3624    0.0000 </r>
       <r>   -0.3624    0.0000 </r>
       <r>    0.4872    0.0000 </r>
       <r>    0.4872    0.0000 </r>
       <r>    2.4847    0.0000 </r>
       <r>    2.4847    0.0000 </r>
      </set>
      <set comment="kpoint 155">
       <r>  -14.3903    1.0000 </r>
       <r>  -14.3903    1.0000 </r>
       <r>  -12.2832    1.0000 </r>
       <r>  -12.2832    1.0000 </r>
       <r>   -7.6111    1.0000 </r>
       <r>   -7.6111    1.0000 </r>
       <r>   -6.5447    1.0000 </r>
       <r>   -6.5447    1.0000 </r>
       <r>   -3.4844    1.0000 </r>
       <r>   -3.4844    1.0000 </r>
       <r>   -0.4607    0.0000 </r>
       <r>   -0.4607    0.0000 </r>
       <r>    0.5427    0.0000 </r>
       <r>    0.5427    0.0000 </r>
       <r>    2.1868    0.0000 </r>
       <r>    2.1868    0.0000 </r>
      </set>
      <set comment="kpoint 156">
       <r>  -14.2819    1.0000 </r>
       <r>  -14.2819    1.0000 </r>
       <r>  -12.4147    1.0000 </r>
       <r>  -12.4147    1.0000 </r>
       <r>   -7.4800    1.0000 </r>
       <r>   -7.4800    1.0000 </r>
       <r>   -6.7141    1.0000 </r>
       <r>   -6.7141    1.0000 </r>
       <r>   -3.4312    1.0000 </r>
       <r>   -3.4312    1.0000 </r>
       <r>   -0.5093    0.0000 </r>
       <r>   -0.5093    0.0000 </r>
       <r>    0.5912    0.0000 </r>
       <r>    0.5912    0.0000 </r>
       <r>    2.0611    0.0000 </r>
       <r>    2.0611    0.0000 </r>
      </set>
     </set>
    </set>
   </array>
  </eigenvalues>
  <separator name="orbital magnetization" >
   <v name="MAGDIPOLOUT">      0.00000000      0.00000000      0.00000000</v>
  </separator>
  <dos>
   <i name="efermi">     -2.49821374 </i>
   <total>
    <array>
     <dimension dim="1">gridpoints</dimension>
     <dimension dim="2">spin</dimension>
     <field>energy</field>
     <field>total</field>
     <field>integrated</field>
     <set>
      <set comment="spin 1">
       <r>   -18.3028     0.0000     0.0000 </r>
       <r>   -18.2277     0.0000     0.0000 </r>
       <r>   -18.1525     0.0000     0.0000 </r>
       <r>   -18.0773     0.0000     0.0000 </r>
       <r>   -18.0022     0.0000     0.0000 </r>
       <r>   -17.9270     0.0000     0.0000 </r>
       <r>   -17.8518     0.0000     0.0000 </r>
       <r>   -17.7766     0.0000     0.0000 </r>
       <r>   -17.7015     0.0000     0.0000 </r>
       <r>   -17.6263     0.0000     0.0000 </r>
       <r>   -17.5511     0.0000     0.0000 </r>
       <r>   -17.4760     0.0000     0.0000 </r>
       <r>   -17.4008     0.0000     0.0000 </r>
       <r>   -17.3256     0.0000     0.0000 </r>
       <r>   -17.2504     0.3458     0.0260 </r>
       <r>   -17.1753     0.9203     0.0952 </r>
       <r>   -17.1001     0.8436     0.1586 </r>
       <r>   -17.0249     1.0533     0.2378 </r>
       <r>   -16.9498     0.9845     0.3118 </r>
       <r>   -16.8746     0.9161     0.3806 </r>
       <r>   -16.7994     0.9309     0.4506 </r>
       <r>   -16.7243     0.9316     0.5207 </r>
       <r>   -16.6491     0.9669     0.5933 </r>
       <r>   -16.5739     1.3643     0.6959 </r>
       <r>   -16.4987     0.7647     0.7534 </r>
       <r>   -16.4236     0.4083     0.7841 </r>
       <r>   -16.3484     1.8556     0.9235 </r>
       <r>   -16.2732     0.6910     0.9755 </r>
       <r>   -16.1981     0.9887     1.0498 </r>
       <r>   -16.1229     0.8333     1.1125 </r>
       <r>   -16.0477     1.2044     1.2030 </r>
       <r>   -15.9725     1.2047     1.2935 </r>
       <r>   -15.8974     1.0936     1.3758 </r>
       <r>   -15.8222     0.5651     1.4182 </r>
       <r>   -15.7470     1.7452     1.5494 </r>
       <r>   -15.6719     0.9878     1.6237 </r>
       <r>   -15.5967     1.1426     1.7096 </r>
       <r>   -15.5215     1.2820     1.8059 </r>
       <r>   -15.4464     1.0332     1.8836 </r>
       <r>   -15.3712     0.9216     1.9529 </r>
       <r>   -15.2960     1.9142     2.0968 </r>
       <r>   -15.2208     1.5911     2.2164 </r>
       <r>   -15.1457     1.0029     2.2918 </r>
       <r>   -15.0705     1.3980     2.3968 </r>
       <r>   -14.9953     2.0704     2.5525 </r>
       <r>   -14.9202     1.3298     2.6524 </r>
       <r>   -14.8450     1.1844     2.7415 </r>
       <r>   -14.7698     1.6959     2.8690 </r>
       <r>   -14.6946     1.0745     2.9497 </r>
       <r>   -14.6195     1.0527     3.0289 </r>
       <r>   -14.5443     0.6529     3.0780 </r>
       <r>   -14.4691     2.0734     3.2338 </r>
       <r>   -14.3940     1.0871     3.3155 </r>
       <r>   -14.3188     1.1566     3.4025 </r>
       <r>   -14.2436     1.9222     3.5470 </r>
       <r>   -14.1685     0.7341     3.6021 </r>
       <r>   -14.0933     0.7336     3.6573 </r>
       <r>   -14.0181     1.9435     3.8034 </r>
       <r>   -13.9429     0.0370     3.8062 </r>
       <r>   -13.8678     0.6825     3.8575 </r>
       <r>   -13.7926     0.4754     3.8932 </r>
       <r>   -13.7174     0.3839     3.9221 </r>
       <r>   -13.6423     0.2416     3.9402 </r>
       <r>   -13.5671     0.6084     3.9860 </r>
       <r>   -13.4919     0.0173     3.9873 </r>
       <r>   -13.4167     0.1694     4.0000 </r>
       <r>   -13.3416     0.0001     4.0000 </r>
       <r>   -13.2664     0.0000     4.0000 </r>
       <r>   -13.1912     0.0169     4.0013 </r>
       <r>   -13.1161     0.1559     4.0130 </r>
       <r>   -13.0409     0.2706     4.0333 </r>
       <r>   -12.9657     0.5836     4.0772 </r>
       <r>   -12.8906     0.1176     4.0860 </r>
       <r>   -12.8154     0.5387     4.1265 </r>
       <r>   -12.7402     0.4260     4.1585 </r>
       <r>   -12.6650     0.4823     4.1948 </r>
       <r>   -12.5899     0.3686     4.2225 </r>
       <r>   -12.5147     2.2606     4.3924 </r>
       <r>   -12.4395     0.6780     4.4434 </r>
       <r>   -12.3644     1.4107     4.5494 </r>
       <r>   -12.2892     1.4137     4.6557 </r>
       <r>   -12.2140     1.1215     4.7400 </r>
       <r>   -12.1388     1.1007     4.8228 </r>
       <r>   -12.0637     3.0222     5.0499 </r>
       <r>   -11.9885     1.9604     5.1973 </r>
       <r>   -11.9133     2.0224     5.3493 </r>
       <r>   -11.8382     0.6839     5.4007 </r>
       <r>   -11.7630     2.3834     5.5799 </r>
       <r>   -11.6878     0.6637     5.6298 </r>
       <r>   -11.6127     0.8759     5.6956 </r>
       <r>   -11.5375     2.1402     5.8565 </r>
       <r>   -11.4623     1.1284     5.9413 </r>
       <r>   -11.3871     0.4415     5.9745 </r>
       <r>   -11.3120     1.8835     6.1161 </r>
       <r>   -11.2368     0.5558     6.1579 </r>
       <r>   -11.1616     0.4977     6.1953 </r>
       <r>   -11.0865     1.0286     6.2726 </r>
       <r>   -11.0113     1.6918     6.3998 </r>
       <r>   -10.9361     0.3301     6.4246 </r>
       <r>   -10.8609     1.0013     6.4999 </r>
       <r>   -10.7858     0.5481     6.5411 </r>
       <r>   -10.7106     1.5860     6.6603 </r>
       <r>   -10.6354     0.1151     6.6690 </r>
       <r>   -10.5603     1.0232     6.7459 </r>
       <r>   -10.4851     0.0118     6.7468 </r>
       <r>   -10.4099     1.0527     6.8259 </r>
       <r>   -10.3348     1.2255     6.9180 </r>
       <r>   -10.2596     0.8803     6.9842 </r>
       <r>   -10.1844     0.2969     7.0065 </r>
       <r>   -10.1092     0.0000     7.0065 </r>
       <r>   -10.0341     0.8988     7.0741 </r>
       <r>    -9.9589     1.3058     7.1722 </r>
       <r>    -9.8837     0.3668     7.1998 </r>
       <r>    -9.8086     0.3529     7.2263 </r>
       <r>    -9.7334     0.0133     7.2273 </r>
       <r>    -9.6582     0.5985     7.2723 </r>
       <r>    -9.5830     1.4035     7.3778 </r>
       <r>    -9.5079     0.7618     7.4351 </r>
       <r>    -9.4327     0.0000     7.4351 </r>
       <r>    -9.3575     0.0000     7.4351 </r>
       <r>    -9.2824     0.4440     7.4684 </r>
       <r>    -9.2072     0.3216     7.4926 </r>
       <r>    -9.1320     1.3859     7.5968 </r>
       <r>    -9.0568     0.4370     7.6296 </r>
       <r>    -8.9817     0.1727     7.6426 </r>
       <r>    -8.9065     0.2055     7.6581 </r>
       <r>    -8.8313     0.1432     7.6688 </r>
       <r>    -8.7562     0.2296     7.6861 </r>
       <r>    -8.6810     1.3094     7.7845 </r>
       <r>    -8.6058     0.0582     7.7889 </r>
       <r>    -8.5307     0.3032     7.8117 </r>
       <r>    -8.4555     0.0121     7.8126 </r>
       <r>    -8.3803     0.1612     7.8247 </r>
       <r>    -8.3051     2.4442     8.0084 </r>
       <r>    -8.2300     2.8862     8.2254 </r>
       <r>    -8.1548     2.7852     8.4348 </r>
       <r>    -8.0796     1.8321     8.5725 </r>
       <r>    -8.0045     1.8557     8.7120 </r>
       <r>    -7.9293     1.7829     8.8460 </r>
       <r>    -7.8541     1.7133     8.9748 </r>
       <r>    -7.7789     2.9639     9.1976 </r>
       <r>    -7.7038     1.9477     9.3440 </r>
       <r>    -7.6286     1.4942     9.4563 </r>
       <r>    -7.5534     3.3825     9.7106 </r>
       <r>    -7.4783     4.5867    10.0554 </r>
       <r>    -7.4031     5.1300    10.4410 </r>
       <r>    -7.3279     1.7267    10.5708 </r>
       <r>    -7.2528     1.2511    10.6648 </r>
       <r>    -7.1776     0.9008    10.7325 </r>
       <r>    -7.1024     0.0615    10.7372 </r>
       <r>    -7.0272     0.5523    10.7787 </r>
       <r>    -6.9521     1.1552    10.8655 </r>
       <r>    -6.8769     1.6098    10.9865 </r>
       <r>    -6.8017     1.1908    11.0760 </r>
       <r>    -6.7266     1.0678    11.1563 </r>
       <r>    -6.6514     1.1412    11.2421 </r>
       <r>    -6.5762     2.3193    11.4164 </r>
       <r>    -6.5010     1.3992    11.5216 </r>
       <r>    -6.4259     1.2957    11.6190 </r>
       <r>    -6.3507     1.8239    11.7561 </r>
       <r>    -6.2755     2.5994    11.9515 </r>
       <r>    -6.2004     2.1466    12.1129 </r>
       <r>    -6.1252     1.5041    12.2259 </r>
       <r>    -6.0500     1.7870    12.3603 </r>
       <r>    -5.9749     2.1843    12.5245 </r>
       <r>    -5.8997     4.3261    12.8497 </r>
       <r>    -5.8245     5.5044    13.2634 </r>
       <r>    -5.7493     3.6222    13.5357 </r>
       <r>    -5.6742     2.5712    13.7290 </r>
       <r>    -5.5990     4.5295    14.0695 </r>
       <r>    -5.5238     1.7027    14.1975 </r>
       <r>    -5.4487     4.7704    14.5561 </r>
       <r>    -5.3735     3.7782    14.8401 </r>
       <r>    -5.2983     2.2664    15.0104 </r>
       <r>    -5.2231     1.9672    15.1583 </r>
       <r>    -5.1480     1.5289    15.2732 </r>
       <r>    -5.0728     1.5883    15.3926 </r>
       <r>    -4.9976     2.0411    15.5461 </r>
       <r>    -4.9225     1.6834    15.6726 </r>
       <r>    -4.8473     0.6813    15.7238 </r>
       <r>    -4.7721     0.8537    15.7880 </r>
       <r>    -4.6970     1.1083    15.8713 </r>
       <r>    -4.6218     0.9017    15.9391 </r>
       <r>    -4.5466     1.4938    16.0514 </r>
       <r>    -4.4714     1.6392    16.1746 </r>
       <r>    -4.3963     1.7714    16.3078 </r>
       <r>    -4.3211     2.5210    16.4973 </r>
       <r>    -4.2459     1.8894    16.6393 </r>
       <r>    -4.1708     4.1975    16.9548 </r>
       <r>    -4.0956     2.4239    17.1370 </r>
       <r>    -4.0204     3.8181    17.4240 </r>
       <r>    -3.9452     3.6700    17.6999 </r>
       <r>    -3.8701     5.3465    18.1018 </r>
       <r>    -3.7949     3.6999    18.3799 </r>
       <r>    -3.7197     2.7917    18.5898 </r>
       <r>    -3.6446     4.0667    18.8955 </r>
       <r>    -3.5694     3.1732    19.1340 </r>
       <r>    -3.4942     3.6315    19.4070 </r>
       <r>    -3.4191     1.6594    19.5317 </r>
       <r>    -3.3439     0.0963    19.5390 </r>
       <r>    -3.2687     0.6563    19.5883 </r>
       <r>    -3.1935     0.3775    19.6167 </r>
       <r>    -3.1184     1.6214    19.7386 </r>
       <r>    -3.0432     0.4558    19.7728 </r>
       <r>    -2.9680     0.1759    19.7860 </r>
       <r>    -2.8929     0.3409    19.8117 </r>
       <r>    -2.8177     0.4987    19.8492 </r>
       <r>    -2.7425     1.2213    19.9410 </r>
       <r>    -2.6673     0.1874    19.9551 </r>
       <r>    -2.5922     0.4519    19.9890 </r>
       <r>    -2.5170     0.1461    20.0000 </r>
       <r>    -2.4418     0.0000    20.0000 </r>
       <r>    -2.3667     0.0000    20.0000 </r>
       <r>    -2.2915     0.0000    20.0000 </r>
       <r>    -2.2163     0.0000    20.0000 </r>
       <r>    -2.1412     0.0000    20.0000 </r>
       <r>    -2.0660     0.0000    20.0000 </r>
       <r>    -1.9908     0.0000    20.0000 </r>
       <r>    -1.9156     0.0000    20.0000 </r>
       <r>    -1.8405     0.0000    20.0000 </r>
       <r>    -1.7653     0.0000    20.0000 </r>
       <r>    -1.6901     0.0000    20.0000 </r>
       <r>    -1.6150     0.0000    20.0000 </r>
       <r>    -1.5398     0.1375    20.0103 </r>
       <r>    -1.4646     1.4890    20.1223 </r>
       <r>    -1.3894     0.6502    20.1711 </r>
       <r>    -1.3143     1.9818    20.3201 </r>
       <r>    -1.2391     1.2262    20.4123 </r>
       <r>    -1.1639     2.0808    20.5687 </r>
       <r>    -1.0888     1.6761    20.6947 </r>
       <r>    -1.0136     2.3999    20.8751 </r>
       <r>    -0.9384     2.1592    21.0374 </r>
       <r>    -0.8633     1.6733    21.1632 </r>
       <r>    -0.7881     3.4566    21.4230 </r>
       <r>    -0.7129     2.1499    21.5846 </r>
       <r>    -0.6377     2.4893    21.7717 </r>
       <r>    -0.5626     3.3696    22.0250 </r>
       <r>    -0.4874     2.7626    22.2327 </r>
       <r>    -0.4122     3.3679    22.4859 </r>
       <r>    -0.3371     4.0547    22.7907 </r>
       <r>    -0.2619     3.7697    23.0740 </r>
       <r>    -0.1867     2.0858    23.2308 </r>
       <r>    -0.1115     1.9478    23.3772 </r>
       <r>    -0.0364     2.8532    23.5917 </r>
       <r>     0.0388     5.7536    24.0242 </r>
       <r>     0.1140     4.1728    24.3379 </r>
       <r>     0.1891     3.8793    24.6295 </r>
       <r>     0.2643     3.8700    24.9204 </r>
       <r>     0.3395     3.2609    25.1655 </r>
       <r>     0.4146     5.4726    25.5769 </r>
       <r>     0.4898     4.4366    25.9104 </r>
       <r>     0.5650     3.4808    26.1721 </r>
       <r>     0.6402     3.8141    26.4588 </r>
       <r>     0.7153     1.8997    26.6016 </r>
       <r>     0.7905     1.8619    26.7415 </r>
       <r>     0.8657     3.1351    26.9772 </r>
       <r>     0.9408     2.7872    27.1867 </r>
       <r>     1.0160     0.8553    27.2510 </r>
       <r>     1.0912     1.7987    27.3862 </r>
       <r>     1.1664     3.2169    27.6280 </r>
       <r>     1.2415     2.6007    27.8235 </r>
       <r>     1.3167     1.6705    27.9491 </r>
       <r>     1.3919     2.8871    28.1661 </r>
       <r>     1.4670     2.7403    28.3721 </r>
       <r>     1.5422     2.5472    28.5636 </r>
       <r>     1.6174     1.4868    28.6754 </r>
       <r>     1.6925     0.9272    28.7451 </r>
       <r>     1.7677     1.4101    28.8511 </r>
       <r>     1.8429     2.1227    29.0106 </r>
       <r>     1.9181     2.8256    29.2230 </r>
       <r>     1.9932     2.5925    29.4179 </r>
       <r>     2.0684     3.3328    29.6685 </r>
       <r>     2.1436     2.6863    29.8704 </r>
       <r>     2.2187     3.4708    30.1313 </r>
       <r>     2.2939     2.7932    30.3412 </r>
       <r>     2.3691     3.7317    30.6218 </r>
       <r>     2.4443     2.5509    30.8135 </r>
       <r>     2.5194     1.9866    30.9628 </r>
       <r>     2.5946     2.1819    31.1269 </r>
       <r>     2.6698     2.0676    31.2823 </r>
       <r>     2.7449     0.8322    31.3448 </r>
       <r>     2.8201     1.9512    31.4915 </r>
       <r>     2.8953     2.1350    31.6520 </r>
       <r>     2.9704     1.4801    31.7633 </r>
       <r>     3.0456     1.2757    31.8592 </r>
       <r>     3.1208     1.1051    31.9422 </r>
       <r>     3.1960     0.4322    31.9747 </r>
       <r>     3.2711     0.3363    32.0000 </r>
       <r>     3.3463     0.0001    32.0000 </r>
       <r>     3.4215     0.0000    32.0000 </r>
       <r>     3.4966     0.0000    32.0000 </r>
       <r>     3.5718     0.0000    32.0000 </r>
       <r>     3.6470     0.0000    32.0000 </r>
       <r>     3.7222     0.0000    32.0000 </r>
       <r>     3.7973     0.0000    32.0000 </r>
       <r>     3.8725     0.0000    32.0000 </r>
       <r>     3.9477     0.0000    32.0000 </r>
       <r>     4.0228     0.0000    32.0000 </r>
       <r>     4.0980     0.0000    32.0000 </r>
       <r>     4.1732     0.0000    32.0000 </r>
       <r>     4.2483     0.0000    32.0000 </r>
      </set>
     </set>
    </array>
   </total>
  </dos>
 </calculation>
 <structure name="finalpos" >
  <crystal>
   <varray name="basis" >
    <v>       3.29720400       0.00000000       0.00000000 </v>
    <v>       0.00000000       5.02224500      -0.00005300 </v>
    <v>       0.00000000       0.00000000      20.02439000 </v>
   </varray>
   <i name="volume">    331.59120900 </i>
   <varray name="rec_basis" >
    <v>       0.30328727       0.00000000       0.00000000 </v>
    <v>       0.00000000       0.19911414       0.00000000 </v>
    <v>       0.00000000       0.00000053       0.04993910 </v>
   </varray>
  </crystal>
  <varray name="positions" >
   <v>       0.50000000       0.89857207       0.55096079 </v>
   <v>       0.50000000       0.10142793       0.44903921 </v>
   <v>       0.00000000       0.39856790       0.44903921 </v>
   <v>      -0.00000000       0.60143210       0.55096079 </v>
  </varray>
 </structure>
</modeling>
