<?xml version="1.0" encoding="ISO-8859-1"?>
<modeling>
 <generator>
  <i name="program" type="string">vasp </i>
  <i name="version" type="string">5.4.1  </i>
  <i name="subversion" type="string">24Jun15 (build Nov 20 2020 10:29:34) complex                          parallel </i>
  <i name="platform" type="string">IFC91_ompi </i>
  <i name="date" type="string">2021 09 09 </i>
  <i name="time" type="string">14:56:38 </i>
 </generator>
 <incar>
  <i type="string" name="PREC">a</i>
  <i type="string" name="ALGO"> Normal</i>
  <i type="int" name="ISPIN">     1</i>
  <i type="int" name="ICHARG">     2</i>
  <i type="int" name="NELM">   250</i>
  <i type="int" name="NELMDL">    -5</i>
  <i type="int" name="NELMIN">     6</i>
  <i type="int" name="IBRION">     2</i>
  <i name="EDIFF">      0.00001000</i>
  <i name="EDIFFG">     -0.01000000</i>
  <i type="int" name="NSW">   200</i>
  <i type="int" name="ISIF">     2</i>
  <i name="ENCUT">    520.00000000</i>
  <i name="POTIM">      0.30000000</i>
  <i type="logical" name="LREAL"> F  </i>
  <i type="int" name="ISMEAR">     0</i>
  <i name="SIGMA">      0.02000000</i>
  <i type="logical" name="LWAVE"> F  </i>
  <i type="logical" name="LCHARG"> F  </i>
  <i type="logical" name="LAECHG"> F  </i>
  <v type="int" name="KPOINT_BSE">    -1     0     0     0</v>
  <i type="int" name="NELM">   250</i>
 </incar>
 <kpoints>
  <generation param="Gamma">
   <v type="int" name="divisions">      15       13        1 </v>
   <v name="usershift">      0.00000000       0.00000000       0.00000000 </v>
   <v name="genvec1">      0.06666667       0.00000000       0.00000000 </v>
   <v name="genvec2">      0.00000000       0.07692308       0.00000000 </v>
   <v name="genvec3">      0.00000000       0.00000000       1.00000000 </v>
   <v name="shift">      0.00000000       0.00000000       0.00000000 </v>
  </generation>
  <varray name="kpointlist" >
   <v>       0.00000000       0.00000000       0.00000000 </v>
   <v>       0.06666667       0.00000000       0.00000000 </v>
   <v>       0.13333333       0.00000000       0.00000000 </v>
   <v>       0.20000000       0.00000000       0.00000000 </v>
   <v>       0.26666667       0.00000000       0.00000000 </v>
   <v>       0.33333333       0.00000000       0.00000000 </v>
   <v>       0.40000000       0.00000000       0.00000000 </v>
   <v>       0.46666667       0.00000000       0.00000000 </v>
   <v>       0.00000000       0.07692308       0.00000000 </v>
   <v>       0.06666667       0.07692308       0.00000000 </v>
   <v>       0.13333333       0.07692308       0.00000000 </v>
   <v>       0.20000000       0.07692308       0.00000000 </v>
   <v>       0.26666667       0.07692308       0.00000000 </v>
   <v>       0.33333333       0.07692308       0.00000000 </v>
   <v>       0.40000000       0.07692308       0.00000000 </v>
   <v>       0.46666667       0.07692308       0.00000000 </v>
   <v>       0.00000000       0.15384615       0.00000000 </v>
   <v>       0.06666667       0.15384615       0.00000000 </v>
   <v>       0.13333333       0.15384615       0.00000000 </v>
   <v>       0.20000000       0.15384615       0.00000000 </v>
   <v>       0.26666667       0.15384615       0.00000000 </v>
   <v>       0.33333333       0.15384615       0.00000000 </v>
   <v>       0.40000000       0.15384615       0.00000000 </v>
   <v>       0.46666667       0.15384615       0.00000000 </v>
   <v>       0.00000000       0.23076923       0.00000000 </v>
   <v>       0.06666667       0.23076923       0.00000000 </v>
   <v>       0.13333333       0.23076923       0.00000000 </v>
   <v>       0.20000000       0.23076923       0.00000000 </v>
   <v>       0.26666667       0.23076923       0.00000000 </v>
   <v>       0.33333333       0.23076923       0.00000000 </v>
   <v>       0.40000000       0.23076923       0.00000000 </v>
   <v>       0.46666667       0.23076923       0.00000000 </v>
   <v>       0.00000000       0.30769231       0.00000000 </v>
   <v>       0.06666667       0.30769231       0.00000000 </v>
   <v>       0.13333333       0.30769231       0.00000000 </v>
   <v>       0.20000000       0.30769231       0.00000000 </v>
   <v>       0.26666667       0.30769231       0.00000000 </v>
   <v>       0.33333333       0.30769231       0.00000000 </v>
   <v>       0.40000000       0.30769231       0.00000000 </v>
   <v>       0.46666667       0.30769231       0.00000000 </v>
   <v>       0.00000000       0.38461538       0.00000000 </v>
   <v>       0.06666667       0.38461538       0.00000000 </v>
   <v>       0.13333333       0.38461538       0.00000000 </v>
   <v>       0.20000000       0.38461538       0.00000000 </v>
   <v>       0.26666667       0.38461538       0.00000000 </v>
   <v>       0.33333333       0.38461538       0.00000000 </v>
   <v>       0.40000000       0.38461538       0.00000000 </v>
   <v>       0.46666667       0.38461538       0.00000000 </v>
   <v>       0.00000000       0.46153846       0.00000000 </v>
   <v>       0.06666667       0.46153846       0.00000000 </v>
   <v>       0.13333333       0.46153846       0.00000000 </v>
   <v>       0.20000000       0.46153846       0.00000000 </v>
   <v>       0.26666667       0.46153846       0.00000000 </v>
   <v>       0.33333333       0.46153846       0.00000000 </v>
   <v>       0.40000000       0.46153846       0.00000000 </v>
   <v>       0.46666667       0.46153846       0.00000000 </v>
  </varray>
  <varray name="weights" >
   <v>       0.00512821 </v>
   <v>       0.01025641 </v>
   <v>       0.01025641 </v>
   <v>       0.01025641 </v>
   <v>       0.01025641 </v>
   <v>       0.01025641 </v>
   <v>       0.01025641 </v>
   <v>       0.01025641 </v>
   <v>       0.01025641 </v>
   <v>       0.02051282 </v>
   <v>       0.02051282 </v>
   <v>       0.02051282 </v>
   <v>       0.02051282 </v>
   <v>       0.02051282 </v>
   <v>       0.02051282 </v>
   <v>       0.02051282 </v>
   <v>       0.01025641 </v>
   <v>       0.02051282 </v>
   <v>       0.02051282 </v>
   <v>       0.02051282 </v>
   <v>       0.02051282 </v>
   <v>       0.02051282 </v>
   <v>       0.02051282 </v>
   <v>       0.02051282 </v>
   <v>       0.01025641 </v>
   <v>       0.02051282 </v>
   <v>       0.02051282 </v>
   <v>       0.02051282 </v>
   <v>       0.02051282 </v>
   <v>       0.02051282 </v>
   <v>       0.02051282 </v>
   <v>       0.02051282 </v>
   <v>       0.01025641 </v>
   <v>       0.02051282 </v>
   <v>       0.02051282 </v>
   <v>       0.02051282 </v>
   <v>       0.02051282 </v>
   <v>       0.02051282 </v>
   <v>       0.02051282 </v>
   <v>       0.02051282 </v>
   <v>       0.01025641 </v>
   <v>       0.02051282 </v>
   <v>       0.02051282 </v>
   <v>       0.02051282 </v>
   <v>       0.02051282 </v>
   <v>       0.02051282 </v>
   <v>       0.02051282 </v>
   <v>       0.02051282 </v>
   <v>       0.01025641 </v>
   <v>       0.02051282 </v>
   <v>       0.02051282 </v>
   <v>       0.02051282 </v>
   <v>       0.02051282 </v>
   <v>       0.02051282 </v>
   <v>       0.02051282 </v>
   <v>       0.02051282 </v>
  </varray>
 </kpoints>
 <parameters>
  <separator name="general" >
   <i type="string" name="SYSTEM">unknown system</i>
   <i type="logical" name="LCOMPAT"> F  </i>
  </separator>
  <separator name="electronic" >
   <i type="string" name="PREC">a</i>
   <i name="ENMAX">    520.00000000</i>
   <i name="ENAUG">    531.35600000</i>
   <i name="EDIFF">      0.00001000</i>
   <i type="int" name="IALGO">    38</i>
   <i type="int" name="IWAVPR">    11</i>
   <i type="int" name="NBANDS">    32</i>
   <i name="NELECT">     52.00000000</i>
   <i type="int" name="TURBO">     0</i>
   <i type="int" name="IRESTART">     0</i>
   <i type="int" name="NREBOOT">     0</i>
   <i type="int" name="NMIN">     0</i>
   <i name="EREF">      0.00000000</i>
   <separator name="electronic smearing" >
    <i type="int" name="ISMEAR">     0</i>
    <i name="SIGMA">      0.02000000</i>
    <i name="KSPACING">      0.50000000</i>
    <i type="logical" name="KGAMMA"> T  </i>
   </separator>
   <separator name="electronic projectors" >
    <i type="logical" name="LREAL"> F  </i>
    <v name="ROPT">      0.00000000      0.00000000</v>
    <i type="int" name="LMAXPAW">  -100</i>
    <i type="int" name="LMAXMIX">     2</i>
    <i type="logical" name="NLSPLINE"> F  </i>
   </separator>
   <separator name="electronic startup" >
    <i type="int" name="ISTART">     0</i>
    <i type="int" name="ICHARG">     2</i>
    <i type="int" name="INIWAV">     1</i>
   </separator>
   <separator name="electronic spin" >
    <i type="int" name="ISPIN">     1</i>
    <i type="logical" name="LNONCOLLINEAR"> F  </i>
    <v name="MAGMOM">      1.00000000      1.00000000      1.00000000      1.00000000      1.00000000      1.00000000</v>
    <i name="NUPDOWN">     -1.00000000</i>
    <i type="logical" name="LSORBIT"> F  </i>
    <v name="SAXIS">      0.00000000      0.00000000      1.00000000</v>
    <i type="logical" name="LSPIRAL"> F  </i>
    <v name="QSPIRAL">      0.00000000      0.00000000      0.00000000</v>
    <i type="logical" name="LZEROZ"> F  </i>
   </separator>
   <separator name="electronic exchange-correlation" >
    <i type="logical" name="LASPH"> F  </i>
    <i type="logical" name="LMETAGGA"> F  </i>
   </separator>
   <separator name="electronic convergence" >
    <i type="int" name="NELM">   250</i>
    <i type="int" name="NELMDL">    -5</i>
    <i type="int" name="NELMIN">     6</i>
    <i name="ENINI">    520.00000000</i>
    <separator name="electronic convergence detail" >
     <i type="logical" name="LDIAG"> T  </i>
     <i type="logical" name="LSUBROT"> F  </i>
     <i name="WEIMIN">      0.00100000</i>
     <i name="EBREAK">      0.00000008</i>
     <i name="DEPER">      0.30000000</i>
     <i type="int" name="NRMM">     4</i>
     <i name="TIME">      0.40000000</i>
    </separator>
   </separator>
   <separator name="electronic mixer" >
    <i name="AMIX">      0.40000000</i>
    <i name="BMIX">      1.00000000</i>
    <i name="AMIN">      0.10000000</i>
    <i name="AMIX_MAG">      1.60000000</i>
    <i name="BMIX_MAG">      1.00000000</i>
    <separator name="electronic mixer details" >
     <i type="int" name="IMIX">     4</i>
     <i type="logical" name="MIXFIRST"> F  </i>
     <i type="int" name="MAXMIX">   -45</i>
     <i name="WC">    100.00000000</i>
     <i type="int" name="INIMIX">     1</i>
     <i type="int" name="MIXPRE">     1</i>
     <i type="int" name="MREMOVE">     5</i>
    </separator>
   </separator>
   <separator name="electronic dipolcorrection" >
    <i type="logical" name="LDIPOL"> F  </i>
    <i type="logical" name="LMONO"> F  </i>
    <i type="int" name="IDIPOL">     0</i>
    <i name="EPSILON">      1.00000000</i>
    <v name="DIPOL">   -100.00000000   -100.00000000   -100.00000000</v>
    <i name="EFIELD">      0.00000000</i>
   </separator>
  </separator>
  <separator name="grids" >
   <i type="int" name="NGX">    40</i>
   <i type="int" name="NGY">    42</i>
   <i type="int" name="NGZ">   140</i>
   <i type="int" name="NGXF">    80</i>
   <i type="int" name="NGYF">    84</i>
   <i type="int" name="NGZF">   280</i>
   <i type="logical" name="ADDGRID"> F  </i>
  </separator>
  <separator name="ionic" >
   <i type="int" name="NSW">   200</i>
   <i type="int" name="IBRION">     2</i>
   <i type="int" name="ISIF">     2</i>
   <i name="PSTRESS">      0.00000000</i>
   <i name="EDIFFG">     -0.01000000</i>
   <i type="int" name="NFREE">     1</i>
   <i name="POTIM">      0.30000000</i>
   <i name="SMASS">     -3.00000000</i>
   <i name="SCALEE">      1.00000000</i>
  </separator>
  <separator name="ionic md" >
   <i name="TEBEG">      0.00010000</i>
   <i name="TEEND">      0.00010000</i>
   <i type="int" name="NBLOCK">     1</i>
   <i type="int" name="KBLOCK">   200</i>
   <i type="int" name="NPACO">   256</i>
   <i name="APACO">     16.00000000</i>
  </separator>
  <separator name="symmetry" >
   <i type="int" name="ISYM">     2</i>
   <i name="SYMPREC">      0.00001000</i>
  </separator>
  <separator name="dos" >
   <i type="logical" name="LORBIT"> F  </i>
   <v name="RWIGS">     -1.00000000     -1.00000000</v>
   <i type="int" name="NEDOS">   301</i>
   <i name="EMIN">     10.00000000</i>
   <i name="EMAX">    -10.00000000</i>
   <i name="EFERMI">      0.00000000</i>
  </separator>
  <separator name="writing" >
   <i type="int" name="NWRITE">     2</i>
   <i type="logical" name="LWAVE"> F  </i>
   <i type="logical" name="LCHARG"> F  </i>
   <i type="logical" name="LPARD"> F  </i>
   <i type="logical" name="LVTOT"> F  </i>
   <i type="logical" name="LVHAR"> F  </i>
   <i type="logical" name="LELF"> F  </i>
   <i type="logical" name="LOPTICS"> F  </i>
   <v name="STM">      0.00000000      0.00000000      0.00000000      0.00000000      0.00000000      0.00000000      0.00000000</v>
  </separator>
  <separator name="performance" >
   <i type="int" name="NPAR">     4</i>
   <i type="int" name="NSIM">     4</i>
   <i type="int" name="NBLK">    -1</i>
   <i type="logical" name="LPLANE"> T  </i>
   <i type="logical" name="LSCALAPACK"> T  </i>
   <i type="logical" name="LSCAAWARE"> F  </i>
   <i type="logical" name="LSCALU"> F  </i>
   <i type="logical" name="LASYNC"> F  </i>
   <i type="logical" name="LORBITALREAL"> F  </i>
  </separator>
  <separator name="miscellaneous" >
   <i type="int" name="IDIOT">     3</i>
   <i type="logical" name="LMUSIC"> F  </i>
   <v name="POMASS">     72.61000000     78.96000000</v>
   <v name="DARWINR">      0.00000000      0.00000000</v>
   <v name="DARWINV">      1.00000000      1.00000000</v>
   <i type="logical" name="LCORR"> T  </i>
  </separator>
  <i type="logical" name="GGA_COMPAT"> T  </i>
  <i type="logical" name="LBERRY"> F  </i>
  <i type="int" name="ICORELEVEL">     0</i>
  <i type="logical" name="LDAU"> F  </i>
  <i type="int" name="I_CONSTRAINED_M">     0</i>
  <separator name="electronic exchange-correlation" >
   <i type="string" name="GGA">--</i>
   <i type="int" name="VOSKOWN">     0</i>
   <i type="logical" name="LHFCALC"> F  </i>
   <i type="string" name="PRECFOCK"></i>
   <i type="logical" name="LSYMGRAD"> F  </i>
   <i type="logical" name="LHFONE"> F  </i>
   <i type="logical" name="LRHFCALC"> F  </i>
   <i type="logical" name="LTHOMAS"> F  </i>
   <i type="logical" name="LMODELHF"> F  </i>
   <i name="ENCUT4O">     -1.00000000</i>
   <i type="int" name="EXXOEP">     0</i>
   <i type="int" name="FOURORBIT">     0</i>
   <i name="AEXX">      0.00000000</i>
   <i name="HFALPHA">      0.00000000</i>
   <i name="MCALPHA">      0.00000000</i>
   <i name="ALDAX">      1.00000000</i>
   <i name="AGGAX">      1.00000000</i>
   <i name="ALDAC">      1.00000000</i>
   <i name="AGGAC">      1.00000000</i>
   <i type="int" name="NKREDX">     1</i>
   <i type="int" name="NKREDY">     1</i>
   <i type="int" name="NKREDZ">     1</i>
   <i type="logical" name="SHIFTRED"> F  </i>
   <i type="logical" name="ODDONLY"> F  </i>
   <i type="logical" name="EVENONLY"> F  </i>
   <i type="int" name="LMAXFOCK">     0</i>
   <i type="int" name="NMAXFOCKAE">     0</i>
   <i type="logical" name="LFOCKAEDFT"> F  </i>
   <i name="HFSCREEN">      0.00000000</i>
   <i name="HFSCREENC">      0.00000000</i>
   <i type="int" name="NBANDSGWLOW">     0</i>
  </separator>
  <separator name="vdW DFT" >
   <i type="logical" name="LUSE_VDW"> F  </i>
   <i name="Zab_VDW">     -0.84910000</i>
   <i name="PARAM1">      0.12340000</i>
   <i name="PARAM2">      1.00000000</i>
   <i name="PARAM3">      0.00000000</i>
  </separator>
  <separator name="model GW" >
   <i type="int" name="MODEL_GW">     0</i>
   <i name="MODEL_EPS0">     49.90737827</i>
   <i name="MODEL_ALPHA">      1.00000000</i>
  </separator>
  <separator name="linear response parameters" >
   <i type="logical" name="LEPSILON"> F  </i>
   <i type="logical" name="LRPA"> F  </i>
   <i type="logical" name="LNABLA"> F  </i>
   <i type="logical" name="LVEL"> F  </i>
   <i type="int" name="KINTER">     0</i>
   <i name="CSHIFT">      0.10000000</i>
   <i name="OMEGAMAX">     -1.00000000</i>
   <i name="DEG_THRESHOLD">      0.00200000</i>
  </separator>
  <separator name="orbital magnetization" >
   <i type="logical" name="NUCIND"> F  </i>
   <v name="MAGPOS">      0.00000000      0.00000000      0.00000000</v>
   <i type="logical" name="LNICSALL"> T  </i>
   <i type="logical" name="ORBITALMAG"> F  </i>
   <i type="logical" name="LMAGBLOCH"> F  </i>
   <i type="logical" name="LCHIMAG"> F  </i>
   <i type="logical" name="LGAUGE"> T  </i>
   <i type="int" name="MAGATOM">     0</i>
   <v name="MAGDIPOL">      0.00000000      0.00000000      0.00000000</v>
   <v name="AVECCONST">      0.00000000      0.00000000      0.00000000</v>
  </separator>
  <separator name="response functions" >
   <i type="logical" name="LADDER"> F  </i>
   <i type="logical" name="LFXC"> F  </i>
   <i type="logical" name="LHARTREE"> T  </i>
   <i type="int" name="IBSE">     0</i>
   <v type="int" name="KPOINT">    -1     0     0     0</v>
   <i type="logical" name="LTCTE"> F  </i>
   <i type="logical" name="LTETE"> F  </i>
   <i type="logical" name="LTRIPLET"> F  </i>
   <i type="logical" name="LFXCEPS"> F  </i>
   <i type="logical" name="LFXHEG"> F  </i>
   <i type="int" name="NATURALO">     0</i>
   <i type="logical" name="L2ORDER"> F  </i>
   <i type="logical" name="LUSEW"> F  </i>
   <i name="ENCUTGW">     -2.00000000</i>
   <i name="ENCUTGWSOFT">     -2.00000000</i>
   <i name="ENCUTLF">     -1.00000000</i>
   <i type="int" name="LMAXMP2">    -1</i>
   <i name="SCISSOR">      0.00000000</i>
   <i type="int" name="NOMEGA">     0</i>
   <i type="int" name="NOMEGAR">     0</i>
   <i type="int" name="NBANDSGW">    -1</i>
   <i type="int" name="NBANDSO">    -1</i>
   <i type="int" name="NBANDSV">    -1</i>
   <i type="int" name="NELM">   250</i>
   <i type="int" name="NELMHF">     1</i>
   <i type="int" name="DIM">     3</i>
   <i type="int" name="ANTIRES">     0</i>
   <i name="OMEGAMAX">    -30.00000000</i>
   <i name="OMEGAMIN">    -30.00000000</i>
   <i name="OMEGATL">   -200.00000000</i>
   <i type="int" name="OMEGAGRID">     0</i>
   <i name="CSHIFT">     -0.10000000</i>
   <i type="logical" name="SELFENERGY"> F  </i>
   <i type="logical" name="LSPECTRAL"> F  </i>
   <i type="logical" name="LSPECTRALGW"> F  </i>
   <i type="logical" name="LSINGLES"> F  </i>
   <i type="logical" name="LFERMIGW"> F  </i>
   <i type="logical" name="ODDONLYGW"> F  </i>
   <i type="logical" name="EVENONLYGW"> F  </i>
   <i type="int" name="NKREDLFX">     1</i>
   <i type="int" name="NKREDLFY">     1</i>
   <i type="int" name="NKREDLFZ">     1</i>
   <i type="int" name="MAXMEM">  1800</i>
   <i type="int" name="TELESCOPE">     0</i>
   <i type="int" name="TAUPAR">     1</i>
   <i type="int" name="OMEGAPAR">    -1</i>
   <i name="LAMBDA">      1.00000000</i>
  </separator>
  <separator name="External order field" >
   <i name="OFIELD_KAPPA">      0.00000000</i>
   <v name="OFIELD_K">      0.00000000      0.00000000      0.00000000</v>
   <i name="OFIELD_Q6_NEAR">      0.00000000</i>
   <i name="OFIELD_Q6_FAR">      0.00000000</i>
   <i name="OFIELD_A">      0.00000000</i>
  </separator>
 </parameters>
 <atominfo>
  <atoms>       6 </atoms>
  <types>       2 </types>
  <array name="atoms" >
   <dimension dim="1">ion</dimension>
   <field type="string">element</field>
   <field type="int">atomtype</field>
   <set>
    <rc><c>Ge</c><c>   1</c></rc>
    <rc><c>Ge</c><c>   1</c></rc>
    <rc><c>Se</c><c>   2</c></rc>
    <rc><c>Se</c><c>   2</c></rc>
    <rc><c>Se</c><c>   2</c></rc>
    <rc><c>Se</c><c>   2</c></rc>
   </set>
  </array>
  <array name="atomtypes" >
   <dimension dim="1">type</dimension>
   <field type="int">atomspertype</field>
   <field type="string">element</field>
   <field>mass</field>
   <field>valence</field>
   <field type="string">pseudopotential</field>
   <set>
    <rc><c>   2</c><c>Ge</c><c>     72.61000000</c><c>     14.00000000</c><c>  PAW_PBE Ge_d 03Jul2007                </c></rc>
    <rc><c>   4</c><c>Se</c><c>     78.96000000</c><c>      6.00000000</c><c>  PAW_PBE Se 06Sep2000                  </c></rc>
   </set>
  </array>
 </atominfo>
 <structure name="initialpos" >
  <crystal>
   <varray name="basis" >
    <v>       4.95489500       0.00000000       0.00000000 </v>
    <v>       0.00000000       5.57120200       0.00000000 </v>
    <v>       0.00000000       0.00000000      18.07929100 </v>
   </varray>
   <i name="volume">    499.07378274 </i>
   <varray name="rec_basis" >
    <v>       0.20182062       0.00000000       0.00000000 </v>
    <v>       0.00000000       0.17949448       0.00000000 </v>
    <v>       0.00000000       0.00000000       0.05531190 </v>
   </varray>
  </crystal>
  <varray name="positions" >
   <v>       0.50000000       0.50000000       0.50000000 </v>
   <v>       0.00000000       0.00000000       0.50000000 </v>
   <v>       0.25000000       0.25000000       0.41502600 </v>
   <v>       0.75000000       0.75000000       0.41502600 </v>
   <v>       0.75000000       0.25000000       0.58497400 </v>
   <v>       0.25000000       0.75000000       0.58497400 </v>
  </varray>
 </structure>
 <calculation>
  <scstep>
   <time name="dav">    2.00    2.00</time>
   <time name="total">    2.04    2.04</time>
   <energy>
    <i name="alphaZ">     46.02733751 </i>
    <i name="ewald">   4911.80226379 </i>
    <i name="hartreedc">  -9698.15118942 </i>
    <i name="XCdc">    142.34547322 </i>
    <i name="pawpsdc">   4514.43351212 </i>
    <i name="pawaedc">  -5329.26418529 </i>
    <i name="eentropy">     -0.00063631 </i>
    <i name="bandstr">   -373.37230968 </i>
    <i name="atom">   6220.98622430 </i>
    <i name="e_fr_energy">    434.80649023 </i>
    <i name="e_wo_entrp">    434.80712654 </i>
    <i name="e_0_energy">    434.80680838 </i>
   </energy>
  </scstep>
  <scstep>
   <time name="dav">    2.12    2.12</time>
   <time name="total">    2.12    2.12</time>
   <energy>
    <i name="e_fr_energy">     45.04815669 </i>
    <i name="e_wo_entrp">     45.04889009 </i>
    <i name="e_0_energy">     45.04852339 </i>
   </energy>
  </scstep>
  <scstep>
   <time name="dav">    2.25    2.25</time>
   <time name="total">    2.25    2.25</time>
   <energy>
    <i name="e_fr_energy">    -21.46435878 </i>
    <i name="e_wo_entrp">    -21.46435878 </i>
    <i name="e_0_energy">    -21.46435878 </i>
   </energy>
  </scstep>
  <scstep>
   <time name="dav">    2.06    2.06</time>
   <time name="total">    2.06    2.07</time>
   <energy>
    <i name="e_fr_energy">    -24.75704912 </i>
    <i name="e_wo_entrp">    -24.75704912 </i>
    <i name="e_0_energy">    -24.75704912 </i>
   </energy>
  </scstep>
  <scstep>
   <time name="dav">    2.42    2.42</time>
   <time name="total">    2.53    2.53</time>
   <energy>
    <i name="e_fr_energy">    -24.86916444 </i>
    <i name="e_wo_entrp">    -24.86916444 </i>
    <i name="e_0_energy">    -24.86916444 </i>
   </energy>
  </scstep>
  <scstep>
   <time name="dav">    2.34    2.34</time>
   <time name="total">    2.49    2.49</time>
   <energy>
    <i name="e_fr_energy">    -24.36309796 </i>
    <i name="e_wo_entrp">    -24.36309796 </i>
    <i name="e_0_energy">    -24.36309796 </i>
   </energy>
  </scstep>
  <scstep>
   <time name="dav">    2.13    2.13</time>
   <time name="total">    2.27    2.28</time>
   <energy>
    <i name="e_fr_energy">    -24.26806388 </i>
    <i name="e_wo_entrp">    -24.26806388 </i>
    <i name="e_0_energy">    -24.26806388 </i>
   </energy>
  </scstep>
  <scstep>
   <time name="dav">    2.23    2.23</time>
   <time name="total">    2.37    2.37</time>
   <energy>
    <i name="e_fr_energy">    -24.26219814 </i>
    <i name="e_wo_entrp">    -24.26219814 </i>
    <i name="e_0_energy">    -24.26219814 </i>
   </energy>
  </scstep>
  <scstep>
   <time name="dav">    2.25    2.25</time>
   <time name="total">    2.39    2.40</time>
   <energy>
    <i name="e_fr_energy">    -24.26172520 </i>
    <i name="e_wo_entrp">    -24.26172520 </i>
    <i name="e_0_energy">    -24.26172520 </i>
   </energy>
  </scstep>
  <scstep>
   <time name="dav">    2.36    2.36</time>
   <time name="total">    2.50    2.51</time>
   <energy>
    <i name="e_fr_energy">    -24.26151127 </i>
    <i name="e_wo_entrp">    -24.26151127 </i>
    <i name="e_0_energy">    -24.26151127 </i>
   </energy>
  </scstep>
  <scstep>
   <time name="dav">    1.95    1.95</time>
   <time name="total">    2.09    2.10</time>
   <energy>
    <i name="e_fr_energy">    -24.26132233 </i>
    <i name="e_wo_entrp">    -24.26132233 </i>
    <i name="e_0_energy">    -24.26132233 </i>
   </energy>
  </scstep>
  <scstep>
   <time name="dav">    1.90    1.90</time>
   <time name="total">    2.05    2.05</time>
   <energy>
    <i name="e_fr_energy">    -24.26145515 </i>
    <i name="e_wo_entrp">    -24.26145515 </i>
    <i name="e_0_energy">    -24.26145515 </i>
   </energy>
  </scstep>
  <scstep>
   <time name="dav">    1.87    1.87</time>
   <time name="total">    2.01    2.01</time>
   <energy>
    <i name="e_fr_energy">    -24.26171821 </i>
    <i name="e_wo_entrp">    -24.26171821 </i>
    <i name="e_0_energy">    -24.26171821 </i>
   </energy>
  </scstep>
  <scstep>
   <time name="dav">    1.75    1.75</time>
   <time name="total">    1.90    1.90</time>
   <energy>
    <i name="e_fr_energy">    -24.26181891 </i>
    <i name="e_wo_entrp">    -24.26181891 </i>
    <i name="e_0_energy">    -24.26181891 </i>
   </energy>
  </scstep>
  <scstep>
   <time name="dav">    1.71    1.71</time>
   <time name="total">    1.85    1.85</time>
   <energy>
    <i name="e_fr_energy">    -24.26187533 </i>
    <i name="e_wo_entrp">    -24.26187533 </i>
    <i name="e_0_energy">    -24.26187533 </i>
   </energy>
  </scstep>
  <scstep>
   <time name="dav">    1.66    1.66</time>
   <time name="total">    1.81    1.81</time>
   <energy>
    <i name="e_fr_energy">    -24.26193674 </i>
    <i name="e_wo_entrp">    -24.26193674 </i>
    <i name="e_0_energy">    -24.26193674 </i>
   </energy>
  </scstep>
  <scstep>
   <time name="dav">    1.53    1.53</time>
   <time name="total">    1.68    1.68</time>
   <energy>
    <i name="e_fr_energy">    -24.26198410 </i>
    <i name="e_wo_entrp">    -24.26198410 </i>
    <i name="e_0_energy">    -24.26198410 </i>
   </energy>
  </scstep>
  <scstep>
   <time name="dav">    1.61    1.61</time>
   <time name="total">    1.75    1.75</time>
   <energy>
    <i name="e_fr_energy">    -24.26201393 </i>
    <i name="e_wo_entrp">    -24.26201393 </i>
    <i name="e_0_energy">    -24.26201393 </i>
   </energy>
  </scstep>
  <scstep>
   <time name="dav">    1.64    1.64</time>
   <time name="total">    1.67    1.67</time>
   <energy>
    <i name="alphaZ">     46.02733751 </i>
    <i name="ewald">   4911.80226379 </i>
    <i name="hartreedc">  -9702.05380121 </i>
    <i name="XCdc">    142.88220133 </i>
    <i name="pawpsdc">   5736.57068503 </i>
    <i name="pawaedc">  -6556.52191020 </i>
    <i name="eentropy">     -0.00000000 </i>
    <i name="bandstr">   -823.95501959 </i>
    <i name="atom">   6220.98622430 </i>
    <i name="e_fr_energy">    -24.26201905 </i>
    <i name="e_wo_entrp">    -24.26201905 </i>
    <i name="e_0_energy">    -24.26201905 </i>
   </energy>
  </scstep>
  <structure>
   <crystal>
    <varray name="basis" >
     <v>       4.95489500       0.00000000       0.00000000 </v>
     <v>       0.00000000       5.57120200       0.00000000 </v>
     <v>       0.00000000       0.00000000      18.07929100 </v>
    </varray>
    <i name="volume">    499.07378274 </i>
    <varray name="rec_basis" >
     <v>       0.20182062       0.00000000       0.00000000 </v>
     <v>       0.00000000       0.17949448       0.00000000 </v>
     <v>       0.00000000       0.00000000       0.05531190 </v>
    </varray>
   </crystal>
   <varray name="positions" >
    <v>       0.50000000       0.50000000       0.50000000 </v>
    <v>       0.00000000       0.00000000       0.50000000 </v>
    <v>       0.25000000       0.25000000       0.41502600 </v>
    <v>       0.75000000       0.75000000       0.41502600 </v>
    <v>       0.75000000       0.25000000       0.58497400 </v>
    <v>       0.25000000       0.75000000       0.58497400 </v>
   </varray>
  </structure>
  <varray name="forces" >
   <v>       0.00000000       0.00000000      -0.00000000 </v>
   <v>       0.00000000      -0.00000000      -0.00000000 </v>
   <v>       0.00000000      -0.00000000       0.04810718 </v>
   <v>       0.00000000       0.00000000       0.04810718 </v>
   <v>      -0.00000000      -0.00000000      -0.04810718 </v>
   <v>       0.00000000       0.00000000      -0.04810718 </v>
  </varray>
  <varray name="stress" >
   <v>      -1.35809542       0.00000000       0.00000000 </v>
   <v>       0.00000000      -1.73737716       0.00000000 </v>
   <v>       0.00000000       0.00000000      -0.99345037 </v>
  </varray>
  <energy>
   <i name="e_fr_energy">    -24.26201905 </i>
   <i name="e_wo_entrp">    -24.26201905 </i>
   <i name="e_0_energy">     -0.00000000 </i>
  </energy>
  <time name="totalsc">   41.05   41.10</time>
 </calculation>
 <calculation>
  <scstep>
   <time name="dav">    1.69    1.69</time>
   <time name="total">    1.84    1.84</time>
   <energy>
    <i name="alphaZ">     46.02733751 </i>
    <i name="ewald">   4914.94323704 </i>
    <i name="hartreedc">  -9705.09488634 </i>
    <i name="XCdc">    142.89487218 </i>
    <i name="pawpsdc">   5736.55689542 </i>
    <i name="pawaedc">  -6556.50811545 </i>
    <i name="eentropy">     -0.00000000 </i>
    <i name="bandstr">   -824.06777629 </i>
    <i name="atom">   6220.98622430 </i>
    <i name="e_fr_energy">    -24.26221163 </i>
    <i name="e_wo_entrp">    -24.26221163 </i>
    <i name="e_0_energy">    -24.26221163 </i>
   </energy>
  </scstep>
  <scstep>
   <time name="dav">    1.95    1.96</time>
   <time name="total">    2.10    2.10</time>
   <energy>
    <i name="e_fr_energy">    -24.26224645 </i>
    <i name="e_wo_entrp">    -24.26224645 </i>
    <i name="e_0_energy">    -24.26224645 </i>
   </energy>
  </scstep>
  <scstep>
   <time name="dav">    1.56    1.57</time>
   <time name="total">    1.71    1.71</time>
   <energy>
    <i name="e_fr_energy">    -24.26224649 </i>
    <i name="e_wo_entrp">    -24.26224649 </i>
    <i name="e_0_energy">    -24.26224649 </i>
   </energy>
  </scstep>
  <scstep>
   <time name="dav">    1.45    1.45</time>
   <time name="total">    1.59    1.59</time>
   <energy>
    <i name="e_fr_energy">    -24.26224749 </i>
    <i name="e_wo_entrp">    -24.26224749 </i>
    <i name="e_0_energy">    -24.26224749 </i>
   </energy>
  </scstep>
  <scstep>
   <time name="dav">    1.46    1.46</time>
   <time name="total">    1.60    1.60</time>
   <energy>
    <i name="e_fr_energy">    -24.26224815 </i>
    <i name="e_wo_entrp">    -24.26224815 </i>
    <i name="e_0_energy">    -24.26224815 </i>
   </energy>
  </scstep>
  <scstep>
   <time name="dav">    1.35    1.35</time>
   <time name="total">    1.38    1.38</time>
   <energy>
    <i name="alphaZ">     46.02733751 </i>
    <i name="ewald">   4914.94323704 </i>
    <i name="hartreedc">  -9705.09392839 </i>
    <i name="XCdc">    142.89324295 </i>
    <i name="pawpsdc">   5739.79208255 </i>
    <i name="pawaedc">  -6559.76486241 </i>
    <i name="eentropy">     -0.00000000 </i>
    <i name="bandstr">   -824.04558182 </i>
    <i name="atom">   6220.98622430 </i>
    <i name="e_fr_energy">    -24.26224827 </i>
    <i name="e_wo_entrp">    -24.26224827 </i>
    <i name="e_0_energy">    -24.26224827 </i>
   </energy>
  </scstep>
  <structure>
   <crystal>
    <varray name="basis" >
     <v>       4.95489500       0.00000000       0.00000000 </v>
     <v>       0.00000000       5.57120200       0.00000000 </v>
     <v>       0.00000000       0.00000000      18.07929100 </v>
    </varray>
    <i name="volume">    499.07378274 </i>
    <varray name="rec_basis" >
     <v>       0.20182062       0.00000000       0.00000000 </v>
     <v>       0.00000000       0.17949448       0.00000000 </v>
     <v>       0.00000000       0.00000000       0.05531190 </v>
    </varray>
   </crystal>
   <varray name="positions" >
    <v>       0.50000000       0.50000000       0.50000000 </v>
    <v>       0.00000000      -0.00000000       0.50000000 </v>
    <v>       0.25000000       0.25000000       0.41510302 </v>
    <v>       0.75000000       0.75000000       0.41510302 </v>
    <v>       0.75000000       0.25000000       0.58489698 </v>
    <v>       0.25000000       0.75000000       0.58489698 </v>
   </varray>
  </structure>
  <varray name="forces" >
   <v>      -0.00000000       0.00000000       0.00000000 </v>
   <v>       0.00000000      -0.00000000       0.00000000 </v>
   <v>       0.00000000      -0.00000000       0.03240628 </v>
   <v>       0.00000000      -0.00000000       0.03240628 </v>
   <v>       0.00000000      -0.00000000      -0.03240628 </v>
   <v>       0.00000000      -0.00000000      -0.03240628 </v>
  </varray>
  <varray name="stress" >
   <v>      -1.28297682       0.00000000       0.00000000 </v>
   <v>       0.00000000      -1.65052494       0.00000000 </v>
   <v>       0.00000000       0.00000000      -0.69844247 </v>
  </varray>
  <energy>
   <i name="e_fr_energy">    -24.26224827 </i>
   <i name="e_wo_entrp">    -24.26224827 </i>
   <i name="e_0_energy">     -0.00000000 </i>
  </energy>
  <time name="totalsc">   11.43   11.44</time>
 </calculation>
 <calculation>
  <scstep>
   <time name="dav">    1.80    1.81</time>
   <time name="total">    1.95    1.95</time>
   <energy>
    <i name="alphaZ">     46.02733751 </i>
    <i name="ewald">   4921.42627523 </i>
    <i name="hartreedc">  -9711.36348833 </i>
    <i name="XCdc">    142.91939973 </i>
    <i name="pawpsdc">   5739.81427100 </i>
    <i name="pawaedc">  -6559.78709182 </i>
    <i name="eentropy">     -0.00000000 </i>
    <i name="bandstr">   -824.28521935 </i>
    <i name="atom">   6220.98622430 </i>
    <i name="e_fr_energy">    -24.26229173 </i>
    <i name="e_wo_entrp">    -24.26229173 </i>
    <i name="e_0_energy">    -24.26229173 </i>
   </energy>
  </scstep>
  <scstep>
   <time name="dav">    2.06    2.06</time>
   <time name="total">    2.20    2.20</time>
   <energy>
    <i name="e_fr_energy">    -24.26243856 </i>
    <i name="e_wo_entrp">    -24.26243856 </i>
    <i name="e_0_energy">    -24.26243856 </i>
   </energy>
  </scstep>
  <scstep>
   <time name="dav">    1.84    1.84</time>
   <time name="total">    1.98    1.98</time>
   <energy>
    <i name="e_fr_energy">    -24.26243650 </i>
    <i name="e_wo_entrp">    -24.26243650 </i>
    <i name="e_0_energy">    -24.26243650 </i>
   </energy>
  </scstep>
  <scstep>
   <time name="dav">    1.57    1.57</time>
   <time name="total">    1.72    1.72</time>
   <energy>
    <i name="e_fr_energy">    -24.26243753 </i>
    <i name="e_wo_entrp">    -24.26243753 </i>
    <i name="e_0_energy">    -24.26243753 </i>
   </energy>
  </scstep>
  <scstep>
   <time name="dav">    1.44    1.44</time>
   <time name="total">    1.58    1.58</time>
   <energy>
    <i name="e_fr_energy">    -24.26243887 </i>
    <i name="e_wo_entrp">    -24.26243887 </i>
    <i name="e_0_energy">    -24.26243887 </i>
   </energy>
  </scstep>
  <scstep>
   <time name="dav">    1.34    1.34</time>
   <time name="total">    1.37    1.37</time>
   <energy>
    <i name="alphaZ">     46.02733751 </i>
    <i name="ewald">   4921.42627523 </i>
    <i name="hartreedc">  -9711.35798176 </i>
    <i name="XCdc">    142.91600105 </i>
    <i name="pawpsdc">   5746.53275610 </i>
    <i name="pawaedc">  -6566.54970012 </i>
    <i name="eentropy">     -0.00000000 </i>
    <i name="bandstr">   -824.24335131 </i>
    <i name="atom">   6220.98622430 </i>
    <i name="e_fr_energy">    -24.26243900 </i>
    <i name="e_wo_entrp">    -24.26243900 </i>
    <i name="e_0_energy">    -24.26243900 </i>
   </energy>
  </scstep>
  <structure>
   <crystal>
    <varray name="basis" >
     <v>       4.95489500       0.00000000       0.00000000 </v>
     <v>       0.00000000       5.57120200       0.00000000 </v>
     <v>       0.00000000       0.00000000      18.07929100 </v>
    </varray>
    <i name="volume">    499.07378274 </i>
    <varray name="rec_basis" >
     <v>       0.20182062       0.00000000       0.00000000 </v>
     <v>       0.00000000       0.17949448       0.00000000 </v>
     <v>       0.00000000       0.00000000       0.05531190 </v>
    </varray>
   </crystal>
   <varray name="positions" >
    <v>       0.50000000       0.50000000       0.50000000 </v>
    <v>       0.00000000      -0.00000000       0.50000000 </v>
    <v>       0.25000000       0.25000000       0.41526199 </v>
    <v>       0.75000000       0.75000000       0.41526199 </v>
    <v>       0.75000000       0.25000000       0.58473801 </v>
    <v>       0.25000000       0.75000000       0.58473801 </v>
   </varray>
  </structure>
  <varray name="forces" >
   <v>      -0.00000000      -0.00000000       0.00000000 </v>
   <v>      -0.00000000       0.00000000       0.00000000 </v>
   <v>       0.00000000       0.00000000      -0.00019046 </v>
   <v>       0.00000000      -0.00000000      -0.00019046 </v>
   <v>       0.00000000       0.00000000       0.00019046 </v>
   <v>      -0.00000000      -0.00000000       0.00019046 </v>
  </varray>
  <varray name="stress" >
   <v>      -1.11396023       0.00000000       0.00000000 </v>
   <v>       0.00000000      -1.45777129       0.00000000 </v>
   <v>       0.00000000       0.00000000      -0.06878390 </v>
  </varray>
  <energy>
   <i name="e_fr_energy">    -24.26243900 </i>
   <i name="e_wo_entrp">    -24.26243900 </i>
   <i name="e_0_energy">     -0.00000000 </i>
  </energy>
  <time name="totalsc">   11.93   11.95</time>
  <eigenvalues>
   <array>
    <dimension dim="1">band</dimension>
    <dimension dim="2">kpoint</dimension>
    <dimension dim="3">spin</dimension>
    <field>eigene</field>
    <field>occ</field>
    <set>
     <set comment="spin 1">
      <set comment="kpoint 1">
       <r>  -27.8327    1.0000 </r>
       <r>  -27.8290    1.0000 </r>
       <r>  -27.8257    1.0000 </r>
       <r>  -27.8209    1.0000 </r>
       <r>  -27.8200    1.0000 </r>
       <r>  -27.8075    1.0000 </r>
       <r>  -27.8026    1.0000 </r>
       <r>  -27.7996    1.0000 </r>
       <r>  -27.7865    1.0000 </r>
       <r>  -27.7809    1.0000 </r>
       <r>  -16.9024    1.0000 </r>
       <r>  -15.3994    1.0000 </r>
       <r>  -14.9927    1.0000 </r>
       <r>  -14.8012    1.0000 </r>
       <r>  -11.8246    1.0000 </r>
       <r>   -9.2277    1.0000 </r>
       <r>   -7.4651    1.0000 </r>
       <r>   -5.8957    1.0000 </r>
       <r>   -5.5368    1.0000 </r>
       <r>   -5.5007    1.0000 </r>
       <r>   -5.2929    1.0000 </r>
       <r>   -5.1491    1.0000 </r>
       <r>   -4.6532    1.0000 </r>
       <r>   -4.1677    1.0000 </r>
       <r>   -2.8853    1.0000 </r>
       <r>   -2.8452    1.0000 </r>
       <r>   -1.9111    0.0000 </r>
       <r>   -1.3893    0.0000 </r>
       <r>   -0.9880    0.0000 </r>
       <r>    0.1442    0.0000 </r>
       <r>    0.6295    0.0000 </r>
       <r>    1.9241    0.0000 </r>
      </set>
      <set comment="kpoint 2">
       <r>  -27.8326    1.0000 </r>
       <r>  -27.8290    1.0000 </r>
       <r>  -27.8256    1.0000 </r>
       <r>  -27.8211    1.0000 </r>
       <r>  -27.8200    1.0000 </r>
       <r>  -27.8074    1.0000 </r>
       <r>  -27.8026    1.0000 </r>
       <r>  -27.7999    1.0000 </r>
       <r>  -27.7865    1.0000 </r>
       <r>  -27.7810    1.0000 </r>
       <r>  -16.8861    1.0000 </r>
       <r>  -15.3935    1.0000 </r>
       <r>  -14.9952    1.0000 </r>
       <r>  -14.8397    1.0000 </r>
       <r>  -11.7818    1.0000 </r>
       <r>   -9.2439    1.0000 </r>
       <r>   -7.4636    1.0000 </r>
       <r>   -5.8890    1.0000 </r>
       <r>   -5.6200    1.0000 </r>
       <r>   -5.5756    1.0000 </r>
       <r>   -5.3502    1.0000 </r>
       <r>   -5.0573    1.0000 </r>
       <r>   -4.6505    1.0000 </r>
       <r>   -4.1526    1.0000 </r>
       <r>   -2.9426    1.0000 </r>
       <r>   -2.8739    1.0000 </r>
       <r>   -1.8141    0.0000 </r>
       <r>   -1.3846    0.0000 </r>
       <r>   -0.8800    0.0000 </r>
       <r>    0.1902    0.0000 </r>
       <r>    0.6745    0.0000 </r>
       <r>    1.9523    0.0000 </r>
      </set>
      <set comment="kpoint 3">
       <r>  -27.8322    1.0000 </r>
       <r>  -27.8288    1.0000 </r>
       <r>  -27.8254    1.0000 </r>
       <r>  -27.8215    1.0000 </r>
       <r>  -27.8197    1.0000 </r>
       <r>  -27.8072    1.0000 </r>
       <r>  -27.8027    1.0000 </r>
       <r>  -27.8006    1.0000 </r>
       <r>  -27.7863    1.0000 </r>
       <r>  -27.7812    1.0000 </r>
       <r>  -16.8376    1.0000 </r>
       <r>  -15.3760    1.0000 </r>
       <r>  -15.0028    1.0000 </r>
       <r>  -14.9482    1.0000 </r>
       <r>  -11.6602    1.0000 </r>
       <r>   -9.2944    1.0000 </r>
       <r>   -7.4580    1.0000 </r>
       <r>   -5.8662    1.0000 </r>
       <r>   -5.7696    1.0000 </r>
       <r>   -5.7666    1.0000 </r>
       <r>   -5.4982    1.0000 </r>
       <r>   -4.8885    1.0000 </r>
       <r>   -4.6582    1.0000 </r>
       <r>   -4.1090    1.0000 </r>
       <r>   -3.0909    1.0000 </r>
       <r>   -2.9517    1.0000 </r>
       <r>   -1.5623    0.0000 </r>
       <r>   -1.3601    0.0000 </r>
       <r>   -0.5761    0.0000 </r>
       <r>    0.3188    0.0000 </r>
       <r>    0.7991    0.0000 </r>
       <r>    1.9830    0.0000 </r>
      </set>
      <set comment="kpoint 4">
       <r>  -27.8316    1.0000 </r>
       <r>  -27.8285    1.0000 </r>
       <r>  -27.8251    1.0000 </r>
       <r>  -27.8221    1.0000 </r>
       <r>  -27.8191    1.0000 </r>
       <r>  -27.8069    1.0000 </r>
       <r>  -27.8029    1.0000 </r>
       <r>  -27.8019    1.0000 </r>
       <r>  -27.7860    1.0000 </r>
       <r>  -27.7814    1.0000 </r>
       <r>  -16.7577    1.0000 </r>
       <r>  -15.3482    1.0000 </r>
       <r>  -15.1100    1.0000 </r>
       <r>  -15.0162    1.0000 </r>
       <r>  -11.4756    1.0000 </r>
       <r>   -9.3834    1.0000 </r>
       <r>   -7.4445    1.0000 </r>
       <r>   -6.0267    1.0000 </r>
       <r>   -5.9051    1.0000 </r>
       <r>   -5.8215    1.0000 </r>
       <r>   -5.6864    1.0000 </r>
       <r>   -4.7221    1.0000 </r>
       <r>   -4.6980    1.0000 </r>
       <r>   -4.0416    1.0000 </r>
       <r>   -3.2917    1.0000 </r>
       <r>   -3.0603    1.0000 </r>
       <r>   -1.2941    0.0000 </r>
       <r>   -1.2291    0.0000 </r>
       <r>   -0.1200    0.0000 </r>
       <r>    0.5072    0.0000 </r>
       <r>    0.9728    0.0000 </r>
       <r>    1.8174    0.0000 </r>
      </set>
      <set comment="kpoint 5">
       <r>  -27.8308    1.0000 </r>
       <r>  -27.8282    1.0000 </r>
       <r>  -27.8251    1.0000 </r>
       <r>  -27.8229    1.0000 </r>
       <r>  -27.8180    1.0000 </r>
       <r>  -27.8065    1.0000 </r>
       <r>  -27.8035    1.0000 </r>
       <r>  -27.8032    1.0000 </r>
       <r>  -27.7856    1.0000 </r>
       <r>  -27.7818    1.0000 </r>
       <r>  -16.6476    1.0000 </r>
       <r>  -15.3119    1.0000 </r>
       <r>  -15.3063    1.0000 </r>
       <r>  -15.0358    1.0000 </r>
       <r>  -11.2455    1.0000 </r>
       <r>   -9.5154    1.0000 </r>
       <r>   -7.4169    1.0000 </r>
       <r>   -6.3027    1.0000 </r>
       <r>   -6.0188    1.0000 </r>
       <r>   -5.8687    1.0000 </r>
       <r>   -5.7492    1.0000 </r>
       <r>   -4.7781    1.0000 </r>
       <r>   -4.5798    1.0000 </r>
       <r>   -3.9562    1.0000 </r>
       <r>   -3.5134    1.0000 </r>
       <r>   -3.1818    1.0000 </r>
       <r>   -1.1711    0.0000 </r>
       <r>   -0.8855    0.0000 </r>
       <r>    0.4436    0.0000 </r>
       <r>    0.7269    0.0000 </r>
       <r>    1.1467    0.0000 </r>
       <r>    1.6632    0.0000 </r>
      </set>
      <set comment="kpoint 6">
       <r>  -27.8298    1.0000 </r>
       <r>  -27.8277    1.0000 </r>
       <r>  -27.8253    1.0000 </r>
       <r>  -27.8239    1.0000 </r>
       <r>  -27.8165    1.0000 </r>
       <r>  -27.8061    1.0000 </r>
       <r>  -27.8055    1.0000 </r>
       <r>  -27.8036    1.0000 </r>
       <r>  -27.7851    1.0000 </r>
       <r>  -27.7823    1.0000 </r>
       <r>  -16.5093    1.0000 </r>
       <r>  -15.5208    1.0000 </r>
       <r>  -15.2696    1.0000 </r>
       <r>  -15.0622    1.0000 </r>
       <r>  -10.9860    1.0000 </r>
       <r>   -9.6920    1.0000 </r>
       <r>   -7.3671    1.0000 </r>
       <r>   -6.5688    1.0000 </r>
       <r>   -6.1038    1.0000 </r>
       <r>   -6.0163    1.0000 </r>
       <r>   -5.6472    1.0000 </r>
       <r>   -4.8961    1.0000 </r>
       <r>   -4.4614    1.0000 </r>
       <r>   -3.8584    1.0000 </r>
       <r>   -3.7318    1.0000 </r>
       <r>   -3.3036    1.0000 </r>
       <r>   -0.9936    0.0000 </r>
       <r>   -0.6012    0.0000 </r>
       <r>    0.9450    0.0000 </r>
       <r>    1.0748    0.0000 </r>
       <r>    1.2710    0.0000 </r>
       <r>    1.5276    0.0000 </r>
      </set>
      <set comment="kpoint 7">
       <r>  -27.8287    1.0000 </r>
       <r>  -27.8272    1.0000 </r>
       <r>  -27.8256    1.0000 </r>
       <r>  -27.8250    1.0000 </r>
       <r>  -27.8145    1.0000 </r>
       <r>  -27.8077    1.0000 </r>
       <r>  -27.8056    1.0000 </r>
       <r>  -27.8040    1.0000 </r>
       <r>  -27.7845    1.0000 </r>
       <r>  -27.7828    1.0000 </r>
       <r>  -16.3454    1.0000 </r>
       <r>  -15.7406    1.0000 </r>
       <r>  -15.2240    1.0000 </r>
       <r>  -15.0953    1.0000 </r>
       <r>  -10.7104    1.0000 </r>
       <r>   -9.9097    1.0000 </r>
       <r>   -7.2866    1.0000 </r>
       <r>   -6.8076    1.0000 </r>
       <r>   -6.1588    1.0000 </r>
       <r>   -6.1170    1.0000 </r>
       <r>   -5.5176    1.0000 </r>
       <r>   -5.0425    1.0000 </r>
       <r>   -4.3535    1.0000 </r>
       <r>   -3.9301    1.0000 </r>
       <r>   -3.7534    1.0000 </r>
       <r>   -3.4208    1.0000 </r>
       <r>   -0.7842    0.0000 </r>
       <r>   -0.4439    0.0000 </r>
       <r>    1.1272    0.0000 </r>
       <r>    1.3300    0.0000 </r>
       <r>    1.4116    0.0000 </r>
       <r>    1.4138    0.0000 </r>
      </set>
      <set comment="kpoint 8">
       <r>  -27.8275    1.0000 </r>
       <r>  -27.8267    1.0000 </r>
       <r>  -27.8262    1.0000 </r>
       <r>  -27.8261    1.0000 </r>
       <r>  -27.8123    1.0000 </r>
       <r>  -27.8100    1.0000 </r>
       <r>  -27.8050    1.0000 </r>
       <r>  -27.8045    1.0000 </r>
       <r>  -27.7840    1.0000 </r>
       <r>  -27.7834    1.0000 </r>
       <r>  -16.1595    1.0000 </r>
       <r>  -15.9560    1.0000 </r>
       <r>  -15.1781    1.0000 </r>
       <r>  -15.1344    1.0000 </r>
       <r>  -10.4309    1.0000 </r>
       <r>  -10.1599    1.0000 </r>
       <r>   -7.1686    1.0000 </r>
       <r>   -7.0089    1.0000 </r>
       <r>   -6.1824    1.0000 </r>
       <r>   -6.1706    1.0000 </r>
       <r>   -5.3667    1.0000 </r>
       <r>   -5.2041    1.0000 </r>
       <r>   -4.2377    1.0000 </r>
       <r>   -4.0991    1.0000 </r>
       <r>   -3.6446    1.0000 </r>
       <r>   -3.5339    1.0000 </r>
       <r>   -0.5831    0.0000 </r>
       <r>   -0.4480    0.0000 </r>
       <r>    1.2507    0.0000 </r>
       <r>    1.3280    0.0000 </r>
       <r>    1.3505    0.0000 </r>
       <r>    1.3711    0.0000 </r>
      </set>
      <set comment="kpoint 9">
       <r>  -27.8326    1.0000 </r>
       <r>  -27.8289    1.0000 </r>
       <r>  -27.8257    1.0000 </r>
       <r>  -27.8208    1.0000 </r>
       <r>  -27.8202    1.0000 </r>
       <r>  -27.8074    1.0000 </r>
       <r>  -27.8026    1.0000 </r>
       <r>  -27.7999    1.0000 </r>
       <r>  -27.7865    1.0000 </r>
       <r>  -27.7810    1.0000 </r>
       <r>  -16.8838    1.0000 </r>
       <r>  -15.3910    1.0000 </r>
       <r>  -15.0421    1.0000 </r>
       <r>  -14.8100    1.0000 </r>
       <r>  -11.7626    1.0000 </r>
       <r>   -9.2471    1.0000 </r>
       <r>   -7.4525    1.0000 </r>
       <r>   -5.9206    1.0000 </r>
       <r>   -5.5581    1.0000 </r>
       <r>   -5.5278    1.0000 </r>
       <r>   -5.3753    1.0000 </r>
       <r>   -5.1131    1.0000 </r>
       <r>   -4.6499    1.0000 </r>
       <r>   -4.1381    1.0000 </r>
       <r>   -2.9145    1.0000 </r>
       <r>   -2.9138    1.0000 </r>
       <r>   -1.7956    0.0000 </r>
       <r>   -1.3673    0.0000 </r>
       <r>   -0.8593    0.0000 </r>
       <r>    0.1635    0.0000 </r>
       <r>    0.6635    0.0000 </r>
       <r>    1.9510    0.0000 </r>
      </set>
      <set comment="kpoint 10">
       <r>  -27.8325    1.0000 </r>
       <r>  -27.8288    1.0000 </r>
       <r>  -27.8256    1.0000 </r>
       <r>  -27.8209    1.0000 </r>
       <r>  -27.8201    1.0000 </r>
       <r>  -27.8074    1.0000 </r>
       <r>  -27.8027    1.0000 </r>
       <r>  -27.8002    1.0000 </r>
       <r>  -27.7864    1.0000 </r>
       <r>  -27.7811    1.0000 </r>
       <r>  -16.8678    1.0000 </r>
       <r>  -15.3852    1.0000 </r>
       <r>  -15.0484    1.0000 </r>
       <r>  -14.8419    1.0000 </r>
       <r>  -11.7238    1.0000 </r>
       <r>   -9.2648    1.0000 </r>
       <r>   -7.4480    1.0000 </r>
       <r>   -5.9274    1.0000 </r>
       <r>   -5.6914    1.0000 </r>
       <r>   -5.5931    1.0000 </r>
       <r>   -5.3456    1.0000 </r>
       <r>   -5.0270    1.0000 </r>
       <r>   -4.6546    1.0000 </r>
       <r>   -4.1240    1.0000 </r>
       <r>   -3.0472    1.0000 </r>
       <r>   -2.8500    1.0000 </r>
       <r>   -1.7550    0.0000 </r>
       <r>   -1.3614    0.0000 </r>
       <r>   -0.7288    0.0000 </r>
       <r>    0.2076    0.0000 </r>
       <r>    0.7074    0.0000 </r>
       <r>    1.9229    0.0000 </r>
      </set>
      <set comment="kpoint 11">
       <r>  -27.8321    1.0000 </r>
       <r>  -27.8286    1.0000 </r>
       <r>  -27.8255    1.0000 </r>
       <r>  -27.8212    1.0000 </r>
       <r>  -27.8198    1.0000 </r>
       <r>  -27.8072    1.0000 </r>
       <r>  -27.8029    1.0000 </r>
       <r>  -27.8009    1.0000 </r>
       <r>  -27.7862    1.0000 </r>
       <r>  -27.7812    1.0000 </r>
       <r>  -16.8198    1.0000 </r>
       <r>  -15.3683    1.0000 </r>
       <r>  -15.0760    1.0000 </r>
       <r>  -14.9229    1.0000 </r>
       <r>  -11.6129    1.0000 </r>
       <r>   -9.3197    1.0000 </r>
       <r>   -7.4337    1.0000 </r>
       <r>   -5.9593    1.0000 </r>
       <r>   -5.9312    1.0000 </r>
       <r>   -5.6845    1.0000 </r>
       <r>   -5.3905    1.0000 </r>
       <r>   -4.8631    1.0000 </r>
       <r>   -4.6737    1.0000 </r>
       <r>   -4.0822    1.0000 </r>
       <r>   -3.2253    1.0000 </r>
       <r>   -2.8649    1.0000 </r>
       <r>   -1.6082    0.0000 </r>
       <r>   -1.3346    0.0000 </r>
       <r>   -0.3888    0.0000 </r>
       <r>    0.3305    0.0000 </r>
       <r>    0.8303    0.0000 </r>
       <r>    1.7980    0.0000 </r>
      </set>
      <set comment="kpoint 12">
       <r>  -27.8316    1.0000 </r>
       <r>  -27.8283    1.0000 </r>
       <r>  -27.8254    1.0000 </r>
       <r>  -27.8217    1.0000 </r>
       <r>  -27.8192    1.0000 </r>
       <r>  -27.8068    1.0000 </r>
       <r>  -27.8033    1.0000 </r>
       <r>  -27.8019    1.0000 </r>
       <r>  -27.7859    1.0000 </r>
       <r>  -27.7815    1.0000 </r>
       <r>  -16.7408    1.0000 </r>
       <r>  -15.3415    1.0000 </r>
       <r>  -15.1670    1.0000 </r>
       <r>  -14.9971    1.0000 </r>
       <r>  -11.4433    1.0000 </r>
       <r>   -9.4151    1.0000 </r>
       <r>   -7.4079    1.0000 </r>
       <r>   -6.1858    1.0000 </r>
       <r>   -6.0294    1.0000 </r>
       <r>   -5.7121    1.0000 </r>
       <r>   -5.5286    1.0000 </r>
       <r>   -4.7233    1.0000 </r>
       <r>   -4.7009    1.0000 </r>
       <r>   -4.0145    1.0000 </r>
       <r>   -3.4231    1.0000 </r>
       <r>   -2.9436    1.0000 </r>
       <r>   -1.3530    0.0000 </r>
       <r>   -1.2674    0.0000 </r>
       <r>    0.0777    0.0000 </r>
       <r>    0.5082    0.0000 </r>
       <r>    1.0047    0.0000 </r>
       <r>    1.6378    0.0000 </r>
      </set>
      <set comment="kpoint 13">
       <r>  -27.8310    1.0000 </r>
       <r>  -27.8278    1.0000 </r>
       <r>  -27.8256    1.0000 </r>
       <r>  -27.8224    1.0000 </r>
       <r>  -27.8181    1.0000 </r>
       <r>  -27.8064    1.0000 </r>
       <r>  -27.8043    1.0000 </r>
       <r>  -27.8027    1.0000 </r>
       <r>  -27.7855    1.0000 </r>
       <r>  -27.7819    1.0000 </r>
       <r>  -16.6321    1.0000 </r>
       <r>  -15.3340    1.0000 </r>
       <r>  -15.3065    1.0000 </r>
       <r>  -15.0354    1.0000 </r>
       <r>  -11.2304    1.0000 </r>
       <r>   -9.5540    1.0000 </r>
       <r>   -7.3673    1.0000 </r>
       <r>   -6.4243    1.0000 </r>
       <r>   -6.1087    1.0000 </r>
       <r>   -5.7103    1.0000 </r>
       <r>   -5.6803    1.0000 </r>
       <r>   -4.8140    1.0000 </r>
       <r>   -4.5636    1.0000 </r>
       <r>   -3.9250    1.0000 </r>
       <r>   -3.6199    1.0000 </r>
       <r>   -3.0598    1.0000 </r>
       <r>   -1.1467    0.0000 </r>
       <r>   -1.0417    0.0000 </r>
       <r>    0.6118    0.0000 </r>
       <r>    0.7112    0.0000 </r>
       <r>    1.1856    0.0000 </r>
       <r>    1.4944    0.0000 </r>
      </set>
      <set comment="kpoint 14">
       <r>  -27.8302    1.0000 </r>
       <r>  -27.8272    1.0000 </r>
       <r>  -27.8260    1.0000 </r>
       <r>  -27.8231    1.0000 </r>
       <r>  -27.8166    1.0000 </r>
       <r>  -27.8061    1.0000 </r>
       <r>  -27.8060    1.0000 </r>
       <r>  -27.8033    1.0000 </r>
       <r>  -27.7850    1.0000 </r>
       <r>  -27.7823    1.0000 </r>
       <r>  -16.4958    1.0000 </r>
       <r>  -15.5342    1.0000 </r>
       <r>  -15.2659    1.0000 </r>
       <r>  -15.0660    1.0000 </r>
       <r>  -10.9882    1.0000 </r>
       <r>   -9.7357    1.0000 </r>
       <r>   -7.3075    1.0000 </r>
       <r>   -6.6355    1.0000 </r>
       <r>   -6.1671    1.0000 </r>
       <r>   -5.8889    1.0000 </r>
       <r>   -5.6101    1.0000 </r>
       <r>   -4.9412    1.0000 </r>
       <r>   -4.4502    1.0000 </r>
       <r>   -3.8197    1.0000 </r>
       <r>   -3.8032    1.0000 </r>
       <r>   -3.1918    1.0000 </r>
       <r>   -0.9777    0.0000 </r>
       <r>   -0.7511    0.0000 </r>
       <r>    0.9079    0.0000 </r>
       <r>    1.1480    0.0000 </r>
       <r>    1.3235    0.0000 </r>
       <r>    1.4184    0.0000 </r>
      </set>
      <set comment="kpoint 15">
       <r>  -27.8293    1.0000 </r>
       <r>  -27.8267    1.0000 </r>
       <r>  -27.8265    1.0000 </r>
       <r>  -27.8240    1.0000 </r>
       <r>  -27.8147    1.0000 </r>
       <r>  -27.8081    1.0000 </r>
       <r>  -27.8054    1.0000 </r>
       <r>  -27.8038    1.0000 </r>
       <r>  -27.7845    1.0000 </r>
       <r>  -27.7828    1.0000 </r>
       <r>  -16.3347    1.0000 </r>
       <r>  -15.7448    1.0000 </r>
       <r>  -15.2222    1.0000 </r>
       <r>  -15.0991    1.0000 </r>
       <r>  -10.7286    1.0000 </r>
       <r>   -9.9546    1.0000 </r>
       <r>   -7.2243    1.0000 </r>
       <r>   -6.8198    1.0000 </r>
       <r>   -6.1937    1.0000 </r>
       <r>   -6.0341    1.0000 </r>
       <r>   -5.5103    1.0000 </r>
       <r>   -5.0897    1.0000 </r>
       <r>   -4.3470    1.0000 </r>
       <r>   -3.9683    1.0000 </r>
       <r>   -3.7044    1.0000 </r>
       <r>   -3.3260    1.0000 </r>
       <r>   -0.7858    0.0000 </r>
       <r>   -0.5608    0.0000 </r>
       <r>    1.0719    0.0000 </r>
       <r>    1.3034    0.0000 </r>
       <r>    1.3937    0.0000 </r>
       <r>    1.4869    0.0000 </r>
      </set>
      <set comment="kpoint 16">
       <r>  -27.8283    1.0000 </r>
       <r>  -27.8275    1.0000 </r>
       <r>  -27.8257    1.0000 </r>
       <r>  -27.8249    1.0000 </r>
       <r>  -27.8126    1.0000 </r>
       <r>  -27.8103    1.0000 </r>
       <r>  -27.8049    1.0000 </r>
       <r>  -27.8043    1.0000 </r>
       <r>  -27.7839    1.0000 </r>
       <r>  -27.7834    1.0000 </r>
       <r>  -16.1524    1.0000 </r>
       <r>  -15.9537    1.0000 </r>
       <r>  -15.1784    1.0000 </r>
       <r>  -15.1368    1.0000 </r>
       <r>  -10.4625    1.0000 </r>
       <r>  -10.2007    1.0000 </r>
       <r>   -7.1150    1.0000 </r>
       <r>   -6.9797    1.0000 </r>
       <r>   -6.1839    1.0000 </r>
       <r>   -6.1324    1.0000 </r>
       <r>   -5.3859    1.0000 </r>
       <r>   -5.2426    1.0000 </r>
       <r>   -4.2382    1.0000 </r>
       <r>   -4.1133    1.0000 </r>
       <r>   -3.5830    1.0000 </r>
       <r>   -3.4568    1.0000 </r>
       <r>   -0.6140    0.0000 </r>
       <r>   -0.5201    0.0000 </r>
       <r>    1.1952    0.0000 </r>
       <r>    1.2813    0.0000 </r>
       <r>    1.4073    0.0000 </r>
       <r>    1.4098    0.0000 </r>
      </set>
      <set comment="kpoint 17">
       <r>  -27.8322    1.0000 </r>
       <r>  -27.8285    1.0000 </r>
       <r>  -27.8257    1.0000 </r>
       <r>  -27.8206    1.0000 </r>
       <r>  -27.8202    1.0000 </r>
       <r>  -27.8072    1.0000 </r>
       <r>  -27.8028    1.0000 </r>
       <r>  -27.8009    1.0000 </r>
       <r>  -27.7862    1.0000 </r>
       <r>  -27.7813    1.0000 </r>
       <r>  -16.8284    1.0000 </r>
       <r>  -15.3660    1.0000 </r>
       <r>  -15.1780    1.0000 </r>
       <r>  -14.8359    1.0000 </r>
       <r>  -11.5895    1.0000 </r>
       <r>   -9.3078    1.0000 </r>
       <r>   -7.4134    1.0000 </r>
       <r>   -5.9832    1.0000 </r>
       <r>   -5.7048    1.0000 </r>
       <r>   -5.5848    1.0000 </r>
       <r>   -5.4991    1.0000 </r>
       <r>   -5.0162    1.0000 </r>
       <r>   -4.6600    1.0000 </r>
       <r>   -4.0553    1.0000 </r>
       <r>   -3.0828    1.0000 </r>
       <r>   -2.9877    1.0000 </r>
       <r>   -1.5054    0.0000 </r>
       <r>   -1.2981    0.0000 </r>
       <r>   -0.5033    0.0000 </r>
       <r>    0.2193    0.0000 </r>
       <r>    0.7570    0.0000 </r>
       <r>    1.8652    0.0000 </r>
      </set>
      <set comment="kpoint 18">
       <r>  -27.8322    1.0000 </r>
       <r>  -27.8284    1.0000 </r>
       <r>  -27.8257    1.0000 </r>
       <r>  -27.8204    1.0000 </r>
       <r>  -27.8202    1.0000 </r>
       <r>  -27.8071    1.0000 </r>
       <r>  -27.8030    1.0000 </r>
       <r>  -27.8011    1.0000 </r>
       <r>  -27.7862    1.0000 </r>
       <r>  -27.7813    1.0000 </r>
       <r>  -16.8129    1.0000 </r>
       <r>  -15.3608    1.0000 </r>
       <r>  -15.1867    1.0000 </r>
       <r>  -14.8582    1.0000 </r>
       <r>  -11.5611    1.0000 </r>
       <r>   -9.3298    1.0000 </r>
       <r>   -7.4005    1.0000 </r>
       <r>   -6.0082    1.0000 </r>
       <r>   -5.9142    1.0000 </r>
       <r>   -5.5395    1.0000 </r>
       <r>   -5.4239    1.0000 </r>
       <r>   -4.9415    1.0000 </r>
       <r>   -4.6750    1.0000 </r>
       <r>   -4.0426    1.0000 </r>
       <r>   -3.2263    1.0000 </r>
       <r>   -2.8863    1.0000 </r>
       <r>   -1.5583    0.0000 </r>
       <r>   -1.2898    0.0000 </r>
       <r>   -0.3408    0.0000 </r>
       <r>    0.2579    0.0000 </r>
       <r>    0.7986    0.0000 </r>
       <r>    1.7426    0.0000 </r>
      </set>
      <set comment="kpoint 19">
       <r>  -27.8320    1.0000 </r>
       <r>  -27.8281    1.0000 </r>
       <r>  -27.8258    1.0000 </r>
       <r>  -27.8205    1.0000 </r>
       <r>  -27.8201    1.0000 </r>
       <r>  -27.8069    1.0000 </r>
       <r>  -27.8034    1.0000 </r>
       <r>  -27.8014    1.0000 </r>
       <r>  -27.7860    1.0000 </r>
       <r>  -27.7815    1.0000 </r>
       <r>  -16.7667    1.0000 </r>
       <r>  -15.3457    1.0000 </r>
       <r>  -15.2181    1.0000 </r>
       <r>  -14.9161    1.0000 </r>
       <r>  -11.4789    1.0000 </r>
       <r>   -9.3966    1.0000 </r>
       <r>   -7.3624    1.0000 </r>
       <r>   -6.1747    1.0000 </r>
       <r>   -6.0815    1.0000 </r>
       <r>   -5.5908    1.0000 </r>
       <r>   -5.3148    1.0000 </r>
       <r>   -4.7915    1.0000 </r>
       <r>   -4.7192    1.0000 </r>
       <r>   -4.0019    1.0000 </r>
       <r>   -3.4231    1.0000 </r>
       <r>   -2.8114    1.0000 </r>
       <r>   -1.6029    0.0000 </r>
       <r>   -1.2581    0.0000 </r>
       <r>    0.0323    0.0000 </r>
       <r>    0.3634    0.0000 </r>
       <r>    0.9179    0.0000 </r>
       <r>    1.5812    0.0000 </r>
      </set>
      <set comment="kpoint 20">
       <r>  -27.8317    1.0000 </r>
       <r>  -27.8276    1.0000 </r>
       <r>  -27.8261    1.0000 </r>
       <r>  -27.8208    1.0000 </r>
       <r>  -27.8193    1.0000 </r>
       <r>  -27.8066    1.0000 </r>
       <r>  -27.8043    1.0000 </r>
       <r>  -27.8019    1.0000 </r>
       <r>  -27.7857    1.0000 </r>
       <r>  -27.7817    1.0000 </r>
       <r>  -16.6906    1.0000 </r>
       <r>  -15.3217    1.0000 </r>
       <r>  -15.2887    1.0000 </r>
       <r>  -14.9840    1.0000 </r>
       <r>  -11.3503    1.0000 </r>
       <r>   -9.5088    1.0000 </r>
       <r>   -7.3014    1.0000 </r>
       <r>   -6.4080    1.0000 </r>
       <r>   -6.1801    1.0000 </r>
       <r>   -5.6027    1.0000 </r>
       <r>   -5.3301    1.0000 </r>
       <r>   -4.7967    1.0000 </r>
       <r>   -4.6446    1.0000 </r>
       <r>   -3.9288    1.0000 </r>
       <r>   -3.6124    1.0000 </r>
       <r>   -2.8092    1.0000 </r>
       <r>   -1.5260    0.0000 </r>
       <r>   -1.1898    0.0000 </r>
       <r>    0.4804    0.0000 </r>
       <r>    0.5119    0.0000 </r>
       <r>    1.0944    0.0000 </r>
       <r>    1.4407    0.0000 </r>
      </set>
      <set comment="kpoint 21">
       <r>  -27.8313    1.0000 </r>
       <r>  -27.8269    1.0000 </r>
       <r>  -27.8265    1.0000 </r>
       <r>  -27.8213    1.0000 </r>
       <r>  -27.8182    1.0000 </r>
       <r>  -27.8061    1.0000 </r>
       <r>  -27.8056    1.0000 </r>
       <r>  -27.8024    1.0000 </r>
       <r>  -27.7853    1.0000 </r>
       <r>  -27.7820    1.0000 </r>
       <r>  -16.5863    1.0000 </r>
       <r>  -15.4113    1.0000 </r>
       <r>  -15.2907    1.0000 </r>
       <r>  -15.0376    1.0000 </r>
       <r>  -11.1844    1.0000 </r>
       <r>   -9.6646    1.0000 </r>
       <r>   -7.2229    1.0000 </r>
       <r>   -6.5965    1.0000 </r>
       <r>   -6.2644    1.0000 </r>
       <r>   -5.5828    1.0000 </r>
       <r>   -5.4483    1.0000 </r>
       <r>   -4.9139    1.0000 </r>
       <r>   -4.5266    1.0000 </r>
       <r>   -3.8239    1.0000 </r>
       <r>   -3.7775    1.0000 </r>
       <r>   -2.8726    1.0000 </r>
       <r>   -1.3276    0.0000 </r>
       <r>   -1.0793    0.0000 </r>
       <r>    0.6769    0.0000 </r>
       <r>    0.9003    0.0000 </r>
       <r>    1.2873    0.0000 </r>
       <r>    1.3836    0.0000 </r>
      </set>
      <set comment="kpoint 22">
       <r>  -27.8308    1.0000 </r>
       <r>  -27.8271    1.0000 </r>
       <r>  -27.8262    1.0000 </r>
       <r>  -27.8220    1.0000 </r>
       <r>  -27.8168    1.0000 </r>
       <r>  -27.8072    1.0000 </r>
       <r>  -27.8056    1.0000 </r>
       <r>  -27.8028    1.0000 </r>
       <r>  -27.7849    1.0000 </r>
       <r>  -27.7824    1.0000 </r>
       <r>  -16.4561    1.0000 </r>
       <r>  -15.5747    1.0000 </r>
       <r>  -15.2551    1.0000 </r>
       <r>  -15.0763    1.0000 </r>
       <r>  -10.9898    1.0000 </r>
       <r>   -9.8572    1.0000 </r>
       <r>   -7.1365    1.0000 </r>
       <r>   -6.7379    1.0000 </r>
       <r>   -6.3029    1.0000 </r>
       <r>   -5.6260    1.0000 </r>
       <r>   -5.5435    1.0000 </r>
       <r>   -5.0575    1.0000 </r>
       <r>   -4.4326    1.0000 </r>
       <r>   -3.9179    1.0000 </r>
       <r>   -3.6964    1.0000 </r>
       <r>   -2.9811    1.0000 </r>
       <r>   -1.0733    0.0000 </r>
       <r>   -0.9388    0.0000 </r>
       <r>    0.8381    0.0000 </r>
       <r>    1.0939    0.0000 </r>
       <r>    1.4404    0.0000 </r>
       <r>    1.5856    0.0000 </r>
      </set>
      <set comment="kpoint 23">
       <r>  -27.8301    1.0000 </r>
       <r>  -27.8279    1.0000 </r>
       <r>  -27.8253    1.0000 </r>
       <r>  -27.8227    1.0000 </r>
       <r>  -27.8150    1.0000 </r>
       <r>  -27.8091    1.0000 </r>
       <r>  -27.8050    1.0000 </r>
       <r>  -27.8033    1.0000 </r>
       <r>  -27.7844    1.0000 </r>
       <r>  -27.7828    1.0000 </r>
       <r>  -16.3032    1.0000 </r>
       <r>  -15.7587    1.0000 </r>
       <r>  -15.2172    1.0000 </r>
       <r>  -15.1096    1.0000 </r>
       <r>  -10.7742    1.0000 </r>
       <r>  -10.0759    1.0000 </r>
       <r>   -7.0544    1.0000 </r>
       <r>   -6.8402    1.0000 </r>
       <r>   -6.2754    1.0000 </r>
       <r>   -5.8262    1.0000 </r>
       <r>   -5.4891    1.0000 </r>
       <r>   -5.2002    1.0000 </r>
       <r>   -4.3463    1.0000 </r>
       <r>   -4.0415    1.0000 </r>
       <r>   -3.5563    1.0000 </r>
       <r>   -3.1153    1.0000 </r>
       <r>   -0.8473    0.0000 </r>
       <r>   -0.8006    0.0000 </r>
       <r>    0.9856    0.0000 </r>
       <r>    1.1443    0.0000 </r>
       <r>    1.5085    0.0000 </r>
       <r>    1.6227    0.0000 </r>
      </set>
      <set comment="kpoint 24">
       <r>  -27.8294    1.0000 </r>
       <r>  -27.8286    1.0000 </r>
       <r>  -27.8244    1.0000 </r>
       <r>  -27.8235    1.0000 </r>
       <r>  -27.8131    1.0000 </r>
       <r>  -27.8111    1.0000 </r>
       <r>  -27.8045    1.0000 </r>
       <r>  -27.8039    1.0000 </r>
       <r>  -27.7838    1.0000 </r>
       <r>  -27.7833    1.0000 </r>
       <r>  -16.1319    1.0000 </r>
       <r>  -15.9479    1.0000 </r>
       <r>  -15.1794    1.0000 </r>
       <r>  -15.1434    1.0000 </r>
       <r>  -10.5446    1.0000 </r>
       <r>  -10.3088    1.0000 </r>
       <r>   -6.9833    1.0000 </r>
       <r>   -6.9168    1.0000 </r>
       <r>   -6.1764    1.0000 </r>
       <r>   -6.0187    1.0000 </r>
       <r>   -5.4173    1.0000 </r>
       <r>   -5.3221    1.0000 </r>
       <r>   -4.2550    1.0000 </r>
       <r>   -4.1536    1.0000 </r>
       <r>   -3.4099    1.0000 </r>
       <r>   -3.2611    1.0000 </r>
       <r>   -0.7188    0.0000 </r>
       <r>   -0.7114    0.0000 </r>
       <r>    1.1141    0.0000 </r>
       <r>    1.1786    0.0000 </r>
       <r>    1.4949    0.0000 </r>
       <r>    1.4976    0.0000 </r>
      </set>
      <set comment="kpoint 25">
       <r>  -27.8317    1.0000 </r>
       <r>  -27.8279    1.0000 </r>
       <r>  -27.8259    1.0000 </r>
       <r>  -27.8212    1.0000 </r>
       <r>  -27.8190    1.0000 </r>
       <r>  -27.8068    1.0000 </r>
       <r>  -27.8031    1.0000 </r>
       <r>  -27.8025    1.0000 </r>
       <r>  -27.7859    1.0000 </r>
       <r>  -27.7817    1.0000 </r>
       <r>  -16.7371    1.0000 </r>
       <r>  -15.3724    1.0000 </r>
       <r>  -15.3258    1.0000 </r>
       <r>  -14.8774    1.0000 </r>
       <r>  -11.3351    1.0000 </r>
       <r>   -9.4163    1.0000 </r>
       <r>   -7.3443    1.0000 </r>
       <r>   -6.0624    1.0000 </r>
       <r>   -5.8858    1.0000 </r>
       <r>   -5.8587    1.0000 </r>
       <r>   -5.4473    1.0000 </r>
       <r>   -4.8774    1.0000 </r>
       <r>   -4.7046    1.0000 </r>
       <r>   -3.9341    1.0000 </r>
       <r>   -3.3060    1.0000 </r>
       <r>   -3.0810    1.0000 </r>
       <r>   -1.1761    0.0000 </r>
       <r>   -1.1324    0.0000 </r>
       <r>    0.0219    0.0000 </r>
       <r>    0.3066    0.0000 </r>
       <r>    0.8860    0.0000 </r>
       <r>    1.6108    0.0000 </r>
      </set>
      <set comment="kpoint 26">
       <r>  -27.8317    1.0000 </r>
       <r>  -27.8278    1.0000 </r>
       <r>  -27.8261    1.0000 </r>
       <r>  -27.8210    1.0000 </r>
       <r>  -27.8190    1.0000 </r>
       <r>  -27.8067    1.0000 </r>
       <r>  -27.8036    1.0000 </r>
       <r>  -27.8023    1.0000 </r>
       <r>  -27.7858    1.0000 </r>
       <r>  -27.7817    1.0000 </r>
       <r>  -16.7225    1.0000 </r>
       <r>  -15.3789    1.0000 </r>
       <r>  -15.3216    1.0000 </r>
       <r>  -14.8929    1.0000 </r>
       <r>  -11.3207    1.0000 </r>
       <r>   -9.4443    1.0000 </r>
       <r>   -7.3200    1.0000 </r>
       <r>   -6.1472    1.0000 </r>
       <r>   -6.0942    1.0000 </r>
       <r>   -5.5985    1.0000 </r>
       <r>   -5.4776    1.0000 </r>
       <r>   -4.8142    1.0000 </r>
       <r>   -4.7283    1.0000 </r>
       <r>   -3.9201    1.0000 </r>
       <r>   -3.4313    1.0000 </r>
       <r>   -2.9726    1.0000 </r>
       <r>   -1.2448    0.0000 </r>
       <r>   -1.1659    0.0000 </r>
       <r>    0.1859    0.0000 </r>
       <r>    0.3355    0.0000 </r>
       <r>    0.9262    0.0000 </r>
       <r>    1.5115    0.0000 </r>
      </set>
      <set comment="kpoint 27">
       <r>  -27.8317    1.0000 </r>
       <r>  -27.8273    1.0000 </r>
       <r>  -27.8264    1.0000 </r>
       <r>  -27.8206    1.0000 </r>
       <r>  -27.8191    1.0000 </r>
       <r>  -27.8065    1.0000 </r>
       <r>  -27.8045    1.0000 </r>
       <r>  -27.8021    1.0000 </r>
       <r>  -27.7856    1.0000 </r>
       <r>  -27.7818    1.0000 </r>
       <r>  -16.6792    1.0000 </r>
       <r>  -15.4011    1.0000 </r>
       <r>  -15.3094    1.0000 </r>
       <r>  -14.9351    1.0000 </r>
       <r>  -11.2776    1.0000 </r>
       <r>   -9.5270    1.0000 </r>
       <r>   -7.2489    1.0000 </r>
       <r>   -6.3901    1.0000 </r>
       <r>   -6.1837    1.0000 </r>
       <r>   -5.5186    1.0000 </r>
       <r>   -5.3729    1.0000 </r>
       <r>   -4.7986    1.0000 </r>
       <r>   -4.6857    1.0000 </r>
       <r>   -3.8725    1.0000 </r>
       <r>   -3.6164    1.0000 </r>
       <r>   -2.8371    1.0000 </r>
       <r>   -1.4374    0.0000 </r>
       <r>   -1.1325    0.0000 </r>
       <r>    0.4135    0.0000 </r>
       <r>    0.5312    0.0000 </r>
       <r>    1.0436    0.0000 </r>
       <r>    1.3828    0.0000 </r>
      </set>
      <set comment="kpoint 28">
       <r>  -27.8317    1.0000 </r>
       <r>  -27.8269    1.0000 </r>
       <r>  -27.8266    1.0000 </r>
       <r>  -27.8202    1.0000 </r>
       <r>  -27.8190    1.0000 </r>
       <r>  -27.8061    1.0000 </r>
       <r>  -27.8056    1.0000 </r>
       <r>  -27.8021    1.0000 </r>
       <r>  -27.7854    1.0000 </r>
       <r>  -27.7820    1.0000 </r>
       <r>  -16.6081    1.0000 </r>
       <r>  -15.4471    1.0000 </r>
       <r>  -15.2902    1.0000 </r>
       <r>  -14.9916    1.0000 </r>
       <r>  -11.2060    1.0000 </r>
       <r>   -9.6596    1.0000 </r>
       <r>   -7.1369    1.0000 </r>
       <r>   -6.5830    1.0000 </r>
       <r>   -6.3040    1.0000 </r>
       <r>   -5.5292    1.0000 </r>
       <r>   -5.2445    1.0000 </r>
       <r>   -4.9112    1.0000 </r>
       <r>   -4.5680    1.0000 </r>
       <r>   -3.7816    1.0000 </r>
       <r>   -3.7802    1.0000 </r>
       <r>   -2.7544    1.0000 </r>
       <r>   -1.5523    0.0000 </r>
       <r>   -1.0716    0.0000 </r>
       <r>    0.5225    0.0000 </r>
       <r>    0.8595    0.0000 </r>
       <r>    1.2220    0.0000 </r>
       <r>    1.3382    0.0000 </r>
      </set>
      <set comment="kpoint 29">
       <r>  -27.8315    1.0000 </r>
       <r>  -27.8275    1.0000 </r>
       <r>  -27.8258    1.0000 </r>
       <r>  -27.8204    1.0000 </r>
       <r>  -27.8182    1.0000 </r>
       <r>  -27.8071    1.0000 </r>
       <r>  -27.8056    1.0000 </r>
       <r>  -27.8023    1.0000 </r>
       <r>  -27.7850    1.0000 </r>
       <r>  -27.7822    1.0000 </r>
       <r>  -16.5113    1.0000 </r>
       <r>  -15.5266    1.0000 </r>
       <r>  -15.2659    1.0000 </r>
       <r>  -15.0467    1.0000 </r>
       <r>  -11.1061    1.0000 </r>
       <r>   -9.8325    1.0000 </r>
       <r>   -6.9988    1.0000 </r>
       <r>   -6.7206    1.0000 </r>
       <r>   -6.4117    1.0000 </r>
       <r>   -5.5146    1.0000 </r>
       <r>   -5.2410    1.0000 </r>
       <r>   -5.0560    1.0000 </r>
       <r>   -4.4851    1.0000 </r>
       <r>   -3.9117    1.0000 </r>
       <r>   -3.6499    1.0000 </r>
       <r>   -2.7387    1.0000 </r>
       <r>   -1.5310    0.0000 </r>
       <r>   -0.9881    0.0000 </r>
       <r>    0.6479    0.0000 </r>
       <r>    0.9762    0.0000 </r>
       <r>    1.4215    0.0000 </r>
       <r>    1.5270    0.0000 </r>
      </set>
      <set comment="kpoint 30">
       <r>  -27.8312    1.0000 </r>
       <r>  -27.8282    1.0000 </r>
       <r>  -27.8250    1.0000 </r>
       <r>  -27.8209    1.0000 </r>
       <r>  -27.8170    1.0000 </r>
       <r>  -27.8086    1.0000 </r>
       <r>  -27.8051    1.0000 </r>
       <r>  -27.8025    1.0000 </r>
       <r>  -27.7846    1.0000 </r>
       <r>  -27.7825    1.0000 </r>
       <r>  -16.3916    1.0000 </r>
       <r>  -15.6420    1.0000 </r>
       <r>  -15.2383    1.0000 </r>
       <r>  -15.0907    1.0000 </r>
       <r>  -10.9788    1.0000 </r>
       <r>  -10.0319    1.0000 </r>
       <r>   -6.8772    1.0000 </r>
       <r>   -6.8073    1.0000 </r>
       <r>   -6.4468    1.0000 </r>
       <r>   -5.4877    1.0000 </r>
       <r>   -5.3677    1.0000 </r>
       <r>   -5.1939    1.0000 </r>
       <r>   -4.4244    1.0000 </r>
       <r>   -4.0210    1.0000 </r>
       <r>   -3.4941    1.0000 </r>
       <r>   -2.7872    1.0000 </r>
       <r>   -1.3879    0.0000 </r>
       <r>   -0.9042    0.0000 </r>
       <r>    0.7838    0.0000 </r>
       <r>    0.9870    0.0000 </r>
       <r>    1.5786    0.0000 </r>
       <r>    1.8153    0.0000 </r>
      </set>
      <set comment="kpoint 31">
       <r>  -27.8308    1.0000 </r>
       <r>  -27.8290    1.0000 </r>
       <r>  -27.8240    1.0000 </r>
       <r>  -27.8215    1.0000 </r>
       <r>  -27.8155    1.0000 </r>
       <r>  -27.8104    1.0000 </r>
       <r>  -27.8045    1.0000 </r>
       <r>  -27.8029    1.0000 </r>
       <r>  -27.7842    1.0000 </r>
       <r>  -27.7829    1.0000 </r>
       <r>  -16.2529    1.0000 </r>
       <r>  -15.7846    1.0000 </r>
       <r>  -15.2095    1.0000 </r>
       <r>  -15.1245    1.0000 </r>
       <r>  -10.8253    1.0000 </r>
       <r>  -10.2427    1.0000 </r>
       <r>   -6.8522    1.0000 </r>
       <r>   -6.8391    1.0000 </r>
       <r>   -6.3376    1.0000 </r>
       <r>   -5.5961    1.0000 </r>
       <r>   -5.4554    1.0000 </r>
       <r>   -5.2921    1.0000 </r>
       <r>   -4.3652    1.0000 </r>
       <r>   -4.1201    1.0000 </r>
       <r>   -3.3305    1.0000 </r>
       <r>   -2.8856    1.0000 </r>
       <r>   -1.1860    0.0000 </r>
       <r>   -0.8569    0.0000 </r>
       <r>    0.9265    0.0000 </r>
       <r>    1.0247    0.0000 </r>
       <r>    1.6296    0.0000 </r>
       <r>    1.7233    0.0000 </r>
      </set>
      <set comment="kpoint 32">
       <r>  -27.8303    1.0000 </r>
       <r>  -27.8297    1.0000 </r>
       <r>  -27.8231    1.0000 </r>
       <r>  -27.8223    1.0000 </r>
       <r>  -27.8138    1.0000 </r>
       <r>  -27.8121    1.0000 </r>
       <r>  -27.8039    1.0000 </r>
       <r>  -27.8034    1.0000 </r>
       <r>  -27.7837    1.0000 </r>
       <r>  -27.7833    1.0000 </r>
       <r>  -16.1005    1.0000 </r>
       <r>  -15.9414    1.0000 </r>
       <r>  -15.1811    1.0000 </r>
       <r>  -15.1533    1.0000 </r>
       <r>  -10.6480    1.0000 </r>
       <r>  -10.4515    1.0000 </r>
       <r>   -6.8645    1.0000 </r>
       <r>   -6.8536    1.0000 </r>
       <r>   -6.1196    1.0000 </r>
       <r>   -5.8599    1.0000 </r>
       <r>   -5.4165    1.0000 </r>
       <r>   -5.3644    1.0000 </r>
       <r>   -4.2953    1.0000 </r>
       <r>   -4.2125    1.0000 </r>
       <r>   -3.1690    1.0000 </r>
       <r>   -3.0175    1.0000 </r>
       <r>   -0.9995    0.0000 </r>
       <r>   -0.8833    0.0000 </r>
       <r>    1.0513    0.0000 </r>
       <r>    1.0806    0.0000 </r>
       <r>    1.5808    0.0000 </r>
       <r>    1.5890    0.0000 </r>
      </set>
      <set comment="kpoint 33">
       <r>  -27.8309    1.0000 </r>
       <r>  -27.8271    1.0000 </r>
       <r>  -27.8265    1.0000 </r>
       <r>  -27.8220    1.0000 </r>
       <r>  -27.8172    1.0000 </r>
       <r>  -27.8063    1.0000 </r>
       <r>  -27.8046    1.0000 </r>
       <r>  -27.8035    1.0000 </r>
       <r>  -27.7854    1.0000 </r>
       <r>  -27.7822    1.0000 </r>
       <r>  -16.6114    1.0000 </r>
       <r>  -15.5971    1.0000 </r>
       <r>  -15.2726    1.0000 </r>
       <r>  -14.9320    1.0000 </r>
       <r>  -11.0310    1.0000 </r>
       <r>   -9.5793    1.0000 </r>
       <r>   -7.2408    1.0000 </r>
       <r>   -6.1518    1.0000 </r>
       <r>   -6.1406    1.0000 </r>
       <r>   -6.0510    1.0000 </r>
       <r>   -5.3702    1.0000 </r>
       <r>   -4.7858    1.0000 </r>
       <r>   -4.7087    1.0000 </r>
       <r>   -3.7930    1.0000 </r>
       <r>   -3.5558    1.0000 </r>
       <r>   -3.1803    1.0000 </r>
       <r>   -1.0003    0.0000 </r>
       <r>   -0.7640    0.0000 </r>
       <r>    0.4193    0.0000 </r>
       <r>    0.6652    0.0000 </r>
       <r>    1.0159    0.0000 </r>
       <r>    1.3550    0.0000 </r>
      </set>
      <set comment="kpoint 34">
       <r>  -27.8310    1.0000 </r>
       <r>  -27.8269    1.0000 </r>
       <r>  -27.8267    1.0000 </r>
       <r>  -27.8218    1.0000 </r>
       <r>  -27.8172    1.0000 </r>
       <r>  -27.8062    1.0000 </r>
       <r>  -27.8051    1.0000 </r>
       <r>  -27.8032    1.0000 </r>
       <r>  -27.7853    1.0000 </r>
       <r>  -27.7822    1.0000 </r>
       <r>  -16.5982    1.0000 </r>
       <r>  -15.5995    1.0000 </r>
       <r>  -15.2698    1.0000 </r>
       <r>  -14.9427    1.0000 </r>
       <r>  -11.0317    1.0000 </r>
       <r>   -9.6130    1.0000 </r>
       <r>   -7.2060    1.0000 </r>
       <r>   -6.3556    1.0000 </r>
       <r>   -6.1681    1.0000 </r>
       <r>   -5.8169    1.0000 </r>
       <r>   -5.4033    1.0000 </r>
       <r>   -4.8194    1.0000 </r>
       <r>   -4.6576    1.0000 </r>
       <r>   -3.7731    1.0000 </r>
       <r>   -3.6464    1.0000 </r>
       <r>   -3.0813    1.0000 </r>
       <r>   -0.9922    0.0000 </r>
       <r>   -0.8920    0.0000 </r>
       <r>    0.4358    0.0000 </r>
       <r>    0.7870    0.0000 </r>
       <r>    1.0559    0.0000 </r>
       <r>    1.2973    0.0000 </r>
      </set>
      <set comment="kpoint 35">
       <r>  -27.8312    1.0000 </r>
       <r>  -27.8272    1.0000 </r>
       <r>  -27.8263    1.0000 </r>
       <r>  -27.8213    1.0000 </r>
       <r>  -27.8174    1.0000 </r>
       <r>  -27.8061    1.0000 </r>
       <r>  -27.8060    1.0000 </r>
       <r>  -27.8028    1.0000 </r>
       <r>  -27.7852    1.0000 </r>
       <r>  -27.7822    1.0000 </r>
       <r>  -16.5591    1.0000 </r>
       <r>  -15.6083    1.0000 </r>
       <r>  -15.2617    1.0000 </r>
       <r>  -14.9728    1.0000 </r>
       <r>  -11.0309    1.0000 </r>
       <r>   -9.7095    1.0000 </r>
       <r>   -7.1048    1.0000 </r>
       <r>   -6.5533    1.0000 </r>
       <r>   -6.2491    1.0000 </r>
       <r>   -5.5414    1.0000 </r>
       <r>   -5.4567    1.0000 </r>
       <r>   -4.9148    1.0000 </r>
       <r>   -4.5583    1.0000 </r>
       <r>   -3.7934    1.0000 </r>
       <r>   -3.7068    1.0000 </r>
       <r>   -2.9155    1.0000 </r>
       <r>   -1.1569    0.0000 </r>
       <r>   -0.9689    0.0000 </r>
       <r>    0.4824    0.0000 </r>
       <r>    0.9729    0.0000 </r>
       <r>    1.1721    0.0000 </r>
       <r>    1.2979    0.0000 </r>
[...]
       <r>    1.2229    0.0000 </r>
       <r>    1.3391    0.0000 </r>
      </set>
      <set comment="kpoint 54">
       <r>  -27.8313    1.0000 </r>
       <r>  -27.8308    1.0000 </r>
       <r>  -27.8216    1.0000 </r>
       <r>  -27.8207    1.0000 </r>
       <r>  -27.8149    1.0000 </r>
       <r>  -27.8134    1.0000 </r>
       <r>  -27.8034    1.0000 </r>
       <r>  -27.8029    1.0000 </r>
       <r>  -27.7836    1.0000 </r>
       <r>  -27.7833    1.0000 </r>
       <r>  -16.0848    1.0000 </r>
       <r>  -15.9627    1.0000 </r>
       <r>  -15.1699    1.0000 </r>
       <r>  -15.1472    1.0000 </r>
       <r>  -10.7597    1.0000 </r>
       <r>  -10.6107    1.0000 </r>
       <r>   -6.8162    1.0000 </r>
       <r>   -6.7694    1.0000 </r>
       <r>   -5.8763    1.0000 </r>
       <r>   -5.6572    1.0000 </r>
       <r>   -5.3390    1.0000 </r>
       <r>   -5.2148    1.0000 </r>
       <r>   -4.3442    1.0000 </r>
       <r>   -4.2782    1.0000 </r>
       <r>   -2.8071    1.0000 </r>
       <r>   -2.6833    1.0000 </r>
       <r>   -1.4324    0.0000 </r>
       <r>   -1.2195    0.0000 </r>
       <r>    1.0601    0.0000 </r>
       <r>    1.1076    0.0000 </r>
       <r>    1.3100    0.0000 </r>
       <r>    1.3531    0.0000 </r>
      </set>
      <set comment="kpoint 55">
       <r>  -27.8315    1.0000 </r>
       <r>  -27.8312    1.0000 </r>
       <r>  -27.8208    1.0000 </r>
       <r>  -27.8202    1.0000 </r>
       <r>  -27.8153    1.0000 </r>
       <r>  -27.8143    1.0000 </r>
       <r>  -27.8030    1.0000 </r>
       <r>  -27.8027    1.0000 </r>
       <r>  -27.7835    1.0000 </r>
       <r>  -27.7833    1.0000 </r>
       <r>  -16.0304    1.0000 </r>
       <r>  -15.9518    1.0000 </r>
       <r>  -15.1797    1.0000 </r>
       <r>  -15.1684    1.0000 </r>
       <r>  -10.8133    1.0000 </r>
       <r>  -10.7216    1.0000 </r>
       <r>   -6.8324    1.0000 </r>
       <r>   -6.8009    1.0000 </r>
       <r>   -5.8122    1.0000 </r>
       <r>   -5.7001    1.0000 </r>
       <r>   -5.2129    1.0000 </r>
       <r>   -5.0903    1.0000 </r>
       <r>   -4.3731    1.0000 </r>
       <r>   -4.3285    1.0000 </r>
       <r>   -2.6813    1.0000 </r>
       <r>   -2.6090    1.0000 </r>
       <r>   -1.5784    0.0000 </r>
       <r>   -1.4173    0.0000 </r>
       <r>    1.1359    0.0000 </r>
       <r>    1.1647    0.0000 </r>
       <r>    1.3533    0.0000 </r>
       <r>    1.3650    0.0000 </r>
      </set>
      <set comment="kpoint 56">
       <r>  -27.8316    1.0000 </r>
       <r>  -27.8315    1.0000 </r>
       <r>  -27.8202    1.0000 </r>
       <r>  -27.8200    1.0000 </r>
       <r>  -27.8154    1.0000 </r>
       <r>  -27.8150    1.0000 </r>
       <r>  -27.8028    1.0000 </r>
       <r>  -27.8027    1.0000 </r>
       <r>  -27.7834    1.0000 </r>
       <r>  -27.7833    1.0000 </r>
       <r>  -15.9860    1.0000 </r>
       <r>  -15.9588    1.0000 </r>
       <r>  -15.1850    1.0000 </r>
       <r>  -15.1817    1.0000 </r>
       <r>  -10.8265    1.0000 </r>
       <r>  -10.7955    1.0000 </r>
       <r>   -6.8381    1.0000 </r>
       <r>   -6.8273    1.0000 </r>
       <r>   -5.7691    1.0000 </r>
       <r>   -5.7354    1.0000 </r>
       <r>   -5.0972    1.0000 </r>
       <r>   -5.0475    1.0000 </r>
       <r>   -4.3808    1.0000 </r>
       <r>   -4.3644    1.0000 </r>
       <r>   -2.6087    1.0000 </r>
       <r>   -2.5864    1.0000 </r>
       <r>   -1.6210    0.0000 </r>
       <r>   -1.5617    0.0000 </r>
       <r>    1.1779    0.0000 </r>
       <r>    1.2041    0.0000 </r>
       <r>    1.3627    0.0000 </r>
       <r>    1.3782    0.0000 </r>
      </set>
     </set>
    </set>
   </array>
  </eigenvalues>
  <separator name="orbital magnetization" >
   <v name="MAGDIPOLOUT">      0.00000000      0.00000000      0.00000000</v>
  </separator>
  <dos>
   <i name="efermi">     -2.41609567 </i>
   <total>
    <array>
     <dimension dim="1">gridpoints</dimension>
     <dimension dim="2">spin</dimension>
     <field>energy</field>
     <field>total</field>
     <field>integrated</field>
     <set>
      <set comment="spin 1">
       <r>   -29.3235     0.0000     0.0000 </r>
       <r>   -29.2141     0.0000     0.0000 </r>
       <r>   -29.1048     0.0000     0.0000 </r>
       <r>   -28.9955     0.0000     0.0000 </r>
       <r>   -28.8862     0.0000     0.0000 </r>
       <r>   -28.7768     0.0000     0.0000 </r>
       <r>   -28.6675     0.0000     0.0000 </r>
       <r>   -28.5582     0.0000     0.0000 </r>
       <r>   -28.4489     0.0000     0.0000 </r>
       <r>   -28.3396     0.0000     0.0000 </r>
       <r>   -28.2302     0.0000     0.0000 </r>
       <r>   -28.1209     0.0000     0.0000 </r>
       <r>   -28.0116     0.0000     0.0000 </r>
       <r>   -27.9023     0.0000     0.0000 </r>
       <r>   -27.7929   143.2566    15.6614 </r>
       <r>   -27.6836    39.6858    20.0000 </r>
       <r>   -27.5743     0.0000    20.0000 </r>
       <r>   -27.4650     0.0000    20.0000 </r>
       <r>   -27.3556     0.0000    20.0000 </r>
       <r>   -27.2463     0.0000    20.0000 </r>
       <r>   -27.1370     0.0000    20.0000 </r>
       <r>   -27.0277     0.0000    20.0000 </r>
       <r>   -26.9183     0.0000    20.0000 </r>
       <r>   -26.8090     0.0000    20.0000 </r>
       <r>   -26.6997     0.0000    20.0000 </r>
       <r>   -26.5904     0.0000    20.0000 </r>
       <r>   -26.4810     0.0000    20.0000 </r>
       <r>   -26.3717     0.0000    20.0000 </r>
       <r>   -26.2624     0.0000    20.0000 </r>
       <r>   -26.1531     0.0000    20.0000 </r>
       <r>   -26.0437     0.0000    20.0000 </r>
       <r>   -25.9344     0.0000    20.0000 </r>
       <r>   -25.8251     0.0000    20.0000 </r>
       <r>   -25.7158     0.0000    20.0000 </r>
       <r>   -25.6065     0.0000    20.0000 </r>
       <r>   -25.4971     0.0000    20.0000 </r>
       <r>   -25.3878     0.0000    20.0000 </r>
       <r>   -25.2785     0.0000    20.0000 </r>
       <r>   -25.1692     0.0000    20.0000 </r>
       <r>   -25.0598     0.0000    20.0000 </r>
       <r>   -24.9505     0.0000    20.0000 </r>
       <r>   -24.8412     0.0000    20.0000 </r>
       <r>   -24.7319     0.0000    20.0000 </r>
       <r>   -24.6225     0.0000    20.0000 </r>
       <r>   -24.5132     0.0000    20.0000 </r>
       <r>   -24.4039     0.0000    20.0000 </r>
       <r>   -24.2946     0.0000    20.0000 </r>
       <r>   -24.1852     0.0000    20.0000 </r>
       <r>   -24.0759     0.0000    20.0000 </r>
       <r>   -23.9666     0.0000    20.0000 </r>
       <r>   -23.8573     0.0000    20.0000 </r>
       <r>   -23.7479     0.0000    20.0000 </r>
       <r>   -23.6386     0.0000    20.0000 </r>
       <r>   -23.5293     0.0000    20.0000 </r>
       <r>   -23.4200     0.0000    20.0000 </r>
       <r>   -23.3106     0.0000    20.0000 </r>
       <r>   -23.2013     0.0000    20.0000 </r>
       <r>   -23.0920     0.0000    20.0000 </r>
       <r>   -22.9827     0.0000    20.0000 </r>
       <r>   -22.8734     0.0000    20.0000 </r>
       <r>   -22.7640     0.0000    20.0000 </r>
       <r>   -22.6547     0.0000    20.0000 </r>
       <r>   -22.5454     0.0000    20.0000 </r>
       <r>   -22.4361     0.0000    20.0000 </r>
       <r>   -22.3267     0.0000    20.0000 </r>
       <r>   -22.2174     0.0000    20.0000 </r>
       <r>   -22.1081     0.0000    20.0000 </r>
       <r>   -21.9988     0.0000    20.0000 </r>
       <r>   -21.8894     0.0000    20.0000 </r>
       <r>   -21.7801     0.0000    20.0000 </r>
       <r>   -21.6708     0.0000    20.0000 </r>
       <r>   -21.5615     0.0000    20.0000 </r>
       <r>   -21.4521     0.0000    20.0000 </r>
       <r>   -21.3428     0.0000    20.0000 </r>
       <r>   -21.2335     0.0000    20.0000 </r>
       <r>   -21.1242     0.0000    20.0000 </r>
       <r>   -21.0148     0.0000    20.0000 </r>
       <r>   -20.9055     0.0000    20.0000 </r>
       <r>   -20.7962     0.0000    20.0000 </r>
       <r>   -20.6869     0.0000    20.0000 </r>
       <r>   -20.5775     0.0000    20.0000 </r>
       <r>   -20.4682     0.0000    20.0000 </r>
       <r>   -20.3589     0.0000    20.0000 </r>
       <r>   -20.2496     0.0000    20.0000 </r>
       <r>   -20.1403     0.0000    20.0000 </r>
       <r>   -20.0309     0.0000    20.0000 </r>
       <r>   -19.9216     0.0000    20.0000 </r>
       <r>   -19.8123     0.0000    20.0000 </r>
       <r>   -19.7030     0.0000    20.0000 </r>
       <r>   -19.5936     0.0000    20.0000 </r>
       <r>   -19.4843     0.0000    20.0000 </r>
       <r>   -19.3750     0.0000    20.0000 </r>
       <r>   -19.2657     0.0000    20.0000 </r>
       <r>   -19.1563     0.0000    20.0000 </r>
       <r>   -19.0470     0.0000    20.0000 </r>
       <r>   -18.9377     0.0000    20.0000 </r>
       <r>   -18.8284     0.0000    20.0000 </r>
       <r>   -18.7190     0.0000    20.0000 </r>
       <r>   -18.6097     0.0000    20.0000 </r>
       <r>   -18.5004     0.0000    20.0000 </r>
       <r>   -18.3911     0.0000    20.0000 </r>
       <r>   -18.2817     0.0000    20.0000 </r>
       <r>   -18.1724     0.0000    20.0000 </r>
       <r>   -18.0631     0.0000    20.0000 </r>
       <r>   -17.9538     0.0000    20.0000 </r>
       <r>   -17.8444     0.0000    20.0000 </r>
       <r>   -17.7351     0.0000    20.0000 </r>
       <r>   -17.6258     0.0000    20.0000 </r>
       <r>   -17.5165     0.0000    20.0000 </r>
       <r>   -17.4072     0.0000    20.0000 </r>
       <r>   -17.2978     0.0000    20.0000 </r>
       <r>   -17.1885     0.0000    20.0000 </r>
       <r>   -17.0792     0.0000    20.0000 </r>
       <r>   -16.9699     0.0000    20.0000 </r>
       <r>   -16.8605     0.7268    20.0795 </r>
       <r>   -16.7512     1.8184    20.2783 </r>
       <r>   -16.6419     1.8964    20.4856 </r>
       <r>   -16.5326     2.0580    20.7106 </r>
       <r>   -16.4232     2.3120    20.9633 </r>
       <r>   -16.3139     2.1412    21.1974 </r>
       <r>   -16.2046     2.5330    21.4743 </r>
       <r>   -16.0953     2.8387    21.7847 </r>
       <r>   -15.9859     3.3024    22.1457 </r>
       <r>   -15.8766     3.7899    22.5600 </r>
       <r>   -15.7673     3.0355    22.8919 </r>
       <r>   -15.6580     1.5658    23.0631 </r>
       <r>   -15.5486     2.1692    23.3002 </r>
       <r>   -15.4393     1.1428    23.4252 </r>
       <r>   -15.3300     4.7501    23.9445 </r>
       <r>   -15.2207     7.5273    24.7674 </r>
       <r>   -15.1113    15.1394    26.4225 </r>
       <r>   -15.0020     8.6480    27.3679 </r>
       <r>   -14.8927     4.0045    27.8057 </r>
       <r>   -14.7834     1.7619    27.9983 </r>
       <r>   -14.6741     0.0153    28.0000 </r>
       <r>   -14.5647     0.0000    28.0000 </r>
       <r>   -14.4554     0.0000    28.0000 </r>
       <r>   -14.3461     0.0000    28.0000 </r>
       <r>   -14.2368     0.0000    28.0000 </r>
       <r>   -14.1274     0.0000    28.0000 </r>
       <r>   -14.0181     0.0000    28.0000 </r>
       <r>   -13.9088     0.0000    28.0000 </r>
       <r>   -13.7995     0.0000    28.0000 </r>
       <r>   -13.6901     0.0000    28.0000 </r>
       <r>   -13.5808     0.0000    28.0000 </r>
       <r>   -13.4715     0.0000    28.0000 </r>
       <r>   -13.3622     0.0000    28.0000 </r>
       <r>   -13.2528     0.0000    28.0000 </r>
       <r>   -13.1435     0.0000    28.0000 </r>
       <r>   -13.0342     0.0000    28.0000 </r>
       <r>   -12.9249     0.0000    28.0000 </r>
       <r>   -12.8155     0.0000    28.0000 </r>
       <r>   -12.7062     0.0000    28.0000 </r>
       <r>   -12.5969     0.0000    28.0000 </r>
       <r>   -12.4876     0.0000    28.0000 </r>
       <r>   -12.3782     0.0000    28.0000 </r>
       <r>   -12.2689     0.0000    28.0000 </r>
       <r>   -12.1596     0.0000    28.0000 </r>
       <r>   -12.0503     0.0000    28.0000 </r>
       <r>   -11.9410     0.0000    28.0000 </r>
       <r>   -11.8316     0.0290    28.0032 </r>
       <r>   -11.7223     0.6428    28.0734 </r>
       <r>   -11.6130     0.5560    28.1342 </r>
       <r>   -11.5037     0.7617    28.2175 </r>
       <r>   -11.3943     0.9190    28.3180 </r>
       <r>   -11.2850     1.0490    28.4327 </r>
       <r>   -11.1757     1.4705    28.5934 </r>
       <r>   -11.0664     0.4879    28.6468 </r>
       <r>   -10.9570     3.0148    28.9763 </r>
       <r>   -10.8477     1.5621    29.1471 </r>
       <r>   -10.7384     4.0460    29.5895 </r>
       <r>   -10.6291     2.6361    29.8777 </r>
       <r>   -10.5197     1.8554    30.0805 </r>
       <r>   -10.4104     2.4488    30.3482 </r>
       <r>   -10.3011     1.1993    30.4793 </r>
       <r>   -10.1918     1.7633    30.6721 </r>
       <r>   -10.0824     1.1398    30.7967 </r>
       <r>    -9.9731     1.3812    30.9477 </r>
       <r>    -9.8638     1.1503    31.0735 </r>
       <r>    -9.7545     1.4738    31.2346 </r>
       <r>    -9.6451     1.5687    31.4061 </r>
       <r>    -9.5358     1.1101    31.5274 </r>
       <r>    -9.4265     1.3171    31.6714 </r>
       <r>    -9.3172     1.6127    31.8477 </r>
       <r>    -9.2079     1.3837    31.9990 </r>
       <r>    -9.0985     0.0091    32.0000 </r>
       <r>    -8.9892     0.0000    32.0000 </r>
       <r>    -8.8799     0.0000    32.0000 </r>
       <r>    -8.7706     0.0000    32.0000 </r>
       <r>    -8.6612     0.0000    32.0000 </r>
       <r>    -8.5519     0.0000    32.0000 </r>
       <r>    -8.4426     0.0000    32.0000 </r>
       <r>    -8.3333     0.0000    32.0000 </r>
       <r>    -8.2239     0.0000    32.0000 </r>
       <r>    -8.1146     0.0000    32.0000 </r>
       <r>    -8.0053     0.0000    32.0000 </r>
       <r>    -7.8960     0.0000    32.0000 </r>
       <r>    -7.7866     0.0000    32.0000 </r>
       <r>    -7.6773     0.0000    32.0000 </r>
       <r>    -7.5680     0.0000    32.0000 </r>
       <r>    -7.4587     0.4647    32.0508 </r>
       <r>    -7.3493     3.1443    32.3946 </r>
       <r>    -7.2400     2.0199    32.6154 </r>
       <r>    -7.1307     1.9707    32.8308 </r>
       <r>    -7.0214     1.9293    33.0417 </r>
       <r>    -6.9120     2.3872    33.3027 </r>
       <r>    -6.8027     8.7826    34.2629 </r>
       <r>    -6.6934     6.9376    35.0213 </r>
       <r>    -6.5841     2.2404    35.2663 </r>
       <r>    -6.4747     1.9170    35.4759 </r>
       <r>    -6.3654     2.3946    35.7376 </r>
       <r>    -6.2561     3.5122    36.1216 </r>
       <r>    -6.1468     7.6796    36.9612 </r>
       <r>    -6.0375     3.8899    37.3865 </r>
       <r>    -5.9281     4.6340    37.8931 </r>
       <r>    -5.8188     4.1720    38.3492 </r>
       <r>    -5.7095     4.0696    38.7941 </r>
       <r>    -5.6002     4.9576    39.3361 </r>
       <r>    -5.4908     7.4820    40.1540 </r>
       <r>    -5.3815     8.4758    41.0806 </r>
       <r>    -5.2722     7.6312    41.9149 </r>
       <r>    -5.1629     5.9301    42.5632 </r>
       <r>    -5.0535     4.5929    43.0654 </r>
       <r>    -4.9442     2.4419    43.3323 </r>
       <r>    -4.8349     3.0171    43.6622 </r>
       <r>    -4.7256     3.1618    44.0078 </r>
       <r>    -4.6162     4.6999    44.5216 </r>
       <r>    -4.5069     1.8506    44.7240 </r>
       <r>    -4.3976     4.0835    45.1704 </r>
       <r>    -4.2883     6.9245    45.9274 </r>
       <r>    -4.1789     4.4467    46.4135 </r>
       <r>    -4.0696     4.5228    46.9080 </r>
       <r>    -3.9603     3.7459    47.3175 </r>
       <r>    -3.8510     3.8582    47.7393 </r>
       <r>    -3.7416     3.7007    48.1439 </r>
       <r>    -3.6323     2.4883    48.4159 </r>
       <r>    -3.5230     3.2021    48.7660 </r>
       <r>    -3.4137     3.1130    49.1063 </r>
       <r>    -3.3044     2.8263    49.4153 </r>
       <r>    -3.1950     2.6849    49.7088 </r>
       <r>    -3.0857     2.8957    50.0254 </r>
       <r>    -2.9764     3.8712    50.4486 </r>
       <r>    -2.8671     4.0179    50.8879 </r>
       <r>    -2.7577     4.6887    51.4005 </r>
       <r>    -2.6484     3.4356    51.7761 </r>
       <r>    -2.5391     2.0482    52.0000 </r>
       <r>    -2.4298     0.0002    52.0000 </r>
       <r>    -2.3204     0.0000    52.0000 </r>
       <r>    -2.2111     0.0000    52.0000 </r>
       <r>    -2.1018     0.0000    52.0000 </r>
       <r>    -1.9925     0.0000    52.0000 </r>
       <r>    -1.8831     0.0916    52.0100 </r>
       <r>    -1.7738     0.4000    52.0537 </r>
       <r>    -1.6645     0.3532    52.0924 </r>
       <r>    -1.5552     3.5297    52.4782 </r>
       <r>    -1.4458     2.6430    52.7672 </r>
       <r>    -1.3365     4.0593    53.2110 </r>
       <r>    -1.2272     3.0014    53.5391 </r>
       <r>    -1.1179     4.4286    54.0232 </r>
       <r>    -1.0085     2.5611    54.3032 </r>
       <r>    -0.8992     5.1316    54.8642 </r>
       <r>    -0.7899     4.3364    55.3383 </r>
       <r>    -0.6806     2.9948    55.6657 </r>
       <r>    -0.5713     2.0645    55.8914 </r>
       <r>    -0.4619     1.7066    56.0780 </r>
       <r>    -0.3526     0.9557    56.1825 </r>
       <r>    -0.2433     0.3011    56.2154 </r>
       <r>    -0.1340     0.0303    56.2187 </r>
       <r>    -0.0246     0.1574    56.2359 </r>
       <r>     0.0847     0.8211    56.3257 </r>
       <r>     0.1940     0.8483    56.4184 </r>
       <r>     0.3033     1.1681    56.5461 </r>
       <r>     0.4127     1.6440    56.7258 </r>
       <r>     0.5220     2.6606    57.0167 </r>
       <r>     0.6313     2.4976    57.2898 </r>
       <r>     0.7406     3.7331    57.6979 </r>
       <r>     0.8500     3.5093    58.0815 </r>
       <r>     0.9593     5.3745    58.6691 </r>
       <r>     1.0686     8.3927    59.5866 </r>
       <r>     1.1779     8.8414    60.5532 </r>
       <r>     1.2873     4.9221    61.0913 </r>
       <r>     1.3966     7.8656    61.9512 </r>
       <r>     1.5059     5.0130    62.4993 </r>
       <r>     1.6152     6.3526    63.1938 </r>
       <r>     1.7246     3.8302    63.6125 </r>
       <r>     1.8339     2.2673    63.8604 </r>
       <r>     1.9432     0.7817    63.9458 </r>
       <r>     2.0525     0.4956    64.0000 </r>
       <r>     2.1618     0.0000    64.0000 </r>
       <r>     2.2712     0.0000    64.0000 </r>
       <r>     2.3805     0.0000    64.0000 </r>
       <r>     2.4898     0.0000    64.0000 </r>
       <r>     2.5991     0.0000    64.0000 </r>
       <r>     2.7085     0.0000    64.0000 </r>
       <r>     2.8178     0.0000    64.0000 </r>
       <r>     2.9271     0.0000    64.0000 </r>
       <r>     3.0364     0.0000    64.0000 </r>
       <r>     3.1458     0.0000    64.0000 </r>
       <r>     3.2551     0.0000    64.0000 </r>
       <r>     3.3644     0.0000    64.0000 </r>
       <r>     3.4737     0.0000    64.0000 </r>
      </set>
     </set>
    </array>
   </total>
  </dos>
 </calculation>
 <structure name="finalpos" >
  <crystal>
   <varray name="basis" >
    <v>       4.95489500       0.00000000       0.00000000 </v>
    <v>       0.00000000       5.57120200       0.00000000 </v>
    <v>       0.00000000       0.00000000      18.07929100 </v>
   </varray>
   <i name="volume">    499.07378274 </i>
   <varray name="rec_basis" >
    <v>       0.20182062       0.00000000       0.00000000 </v>
    <v>       0.00000000       0.17949448       0.00000000 </v>
    <v>       0.00000000       0.00000000       0.05531190 </v>
   </varray>
  </crystal>
  <varray name="positions" >
   <v>       0.50000000       0.50000000       0.50000000 </v>
   <v>       0.00000000      -0.00000000       0.50000000 </v>
   <v>       0.25000000       0.25000000       0.41526199 </v>
   <v>       0.75000000       0.75000000       0.41526199 </v>
   <v>       0.75000000       0.25000000       0.58473801 </v>
   <v>       0.25000000       0.75000000       0.58473801 </v>
  </varray>
 </structure>
</modeling>
