<?xml version="1.0" encoding="ISO-8859-1"?>
<modeling>
 <generator>
  <i name="program" type="string">vasp </i>
  <i name="version" type="string">5.4.1  </i>
  <i name="subversion" type="string">24Jun15 (build Nov 20 2020 10:29:34) complex                          parallel </i>
  <i name="platform" type="string">IFC91_ompi </i>
  <i name="date" type="string">2021 09 09 </i>
  <i name="time" type="string">14:50:27 </i>
 </generator>
 <incar>
  <i type="string" name="PREC">a</i>
  <i type="string" name="ALGO"> Normal</i>
  <i type="int" name="ISPIN">     1</i>
  <i type="int" name="ICHARG">     2</i>
  <i type="int" name="NELM">   250</i>
  <i type="int" name="NELMDL">    -5</i>
  <i type="int" name="NELMIN">     6</i>
  <i type="int" name="IBRION">     2</i>
  <i name="EDIFF">      0.00001000</i>
  <i name="EDIFFG">     -0.01000000</i>
  <i type="int" name="NSW">   200</i>
  <i type="int" name="ISIF">     2</i>
  <i name="ENCUT">    520.00000000</i>
  <i name="POTIM">      0.30000000</i>
  <i type="logical" name="LREAL"> F  </i>
  <i type="int" name="ISMEAR">     0</i>
  <i name="SIGMA">      0.02000000</i>
  <i type="logical" name="LWAVE"> F  </i>
  <i type="logical" name="LCHARG"> F  </i>
  <i type="logical" name="LAECHG"> F  </i>
  <v type="int" name="KPOINT_BSE">    -1     0     0     0</v>
  <i type="int" name="NELM">   250</i>
 </incar>
 <kpoints>
  <generation param="Gamma">
   <v type="int" name="divisions">      21       15        1 </v>
   <v name="usershift">      0.00000000       0.00000000       0.00000000 </v>
   <v name="genvec1">      0.04761905       0.00000000       0.00000000 </v>
   <v name="genvec2">      0.00000000       0.06666667       0.00000000 </v>
   <v name="genvec3">      0.00000000       0.00000000       1.00000000 </v>
   <v name="shift">      0.00000000       0.00000000       0.00000000 </v>
  </generation>
  <varray name="kpointlist" >
   <v>       0.00000000       0.00000000       0.00000000 </v>
   <v>       0.04761905       0.00000000       0.00000000 </v>
   <v>       0.09523810       0.00000000       0.00000000 </v>
   <v>       0.14285714       0.00000000       0.00000000 </v>
   <v>       0.19047619       0.00000000       0.00000000 </v>
   <v>       0.23809524       0.00000000       0.00000000 </v>
   <v>       0.28571429       0.00000000       0.00000000 </v>
   <v>       0.33333333       0.00000000       0.00000000 </v>
   <v>       0.38095238       0.00000000       0.00000000 </v>
   <v>       0.42857143       0.00000000       0.00000000 </v>
   <v>       0.47619048       0.00000000       0.00000000 </v>
   <v>       0.00000000       0.06666667       0.00000000 </v>
   <v>       0.04761905       0.06666667       0.00000000 </v>
   <v>       0.09523810       0.06666667       0.00000000 </v>
   <v>       0.14285714       0.06666667       0.00000000 </v>
   <v>       0.19047619       0.06666667       0.00000000 </v>
   <v>       0.23809524       0.06666667       0.00000000 </v>
   <v>       0.28571429       0.06666667       0.00000000 </v>
   <v>       0.33333333       0.06666667       0.00000000 </v>
   <v>       0.38095238       0.06666667       0.00000000 </v>
   <v>       0.42857143       0.06666667       0.00000000 </v>
   <v>       0.47619048       0.06666667       0.00000000 </v>
   <v>      -0.47619048       0.06666667       0.00000000 </v>
   <v>      -0.42857143       0.06666667       0.00000000 </v>
   <v>      -0.38095238       0.06666667       0.00000000 </v>
   <v>      -0.33333333       0.06666667       0.00000000 </v>
   <v>      -0.28571429       0.06666667       0.00000000 </v>
   <v>      -0.23809524       0.06666667       0.00000000 </v>
   <v>      -0.19047619       0.06666667       0.00000000 </v>
   <v>      -0.14285714       0.06666667       0.00000000 </v>
   <v>      -0.09523810       0.06666667       0.00000000 </v>
   <v>      -0.04761905       0.06666667       0.00000000 </v>
   <v>       0.00000000       0.13333333       0.00000000 </v>
   <v>       0.04761905       0.13333333       0.00000000 </v>
   <v>       0.09523810       0.13333333       0.00000000 </v>
   <v>       0.14285714       0.13333333       0.00000000 </v>
   <v>       0.19047619       0.13333333       0.00000000 </v>
   <v>       0.23809524       0.13333333       0.00000000 </v>
   <v>       0.28571429       0.13333333       0.00000000 </v>
   <v>       0.33333333       0.13333333       0.00000000 </v>
   <v>       0.38095238       0.13333333       0.00000000 </v>
   <v>       0.42857143       0.13333333       0.00000000 </v>
   <v>       0.47619048       0.13333333       0.00000000 </v>
   <v>      -0.47619048       0.13333333       0.00000000 </v>
   <v>      -0.42857143       0.13333333       0.00000000 </v>
   <v>      -0.38095238       0.13333333       0.00000000 </v>
   <v>      -0.33333333       0.13333333       0.00000000 </v>
   <v>      -0.28571429       0.13333333       0.00000000 </v>
   <v>      -0.23809524       0.13333333       0.00000000 </v>
   <v>      -0.19047619       0.13333333       0.00000000 </v>
   <v>      -0.14285714       0.13333333       0.00000000 </v>
   <v>      -0.09523810       0.13333333       0.00000000 </v>
   <v>      -0.04761905       0.13333333       0.00000000 </v>
   <v>       0.00000000       0.20000000       0.00000000 </v>
   <v>       0.04761905       0.20000000       0.00000000 </v>
   <v>       0.09523810       0.20000000       0.00000000 </v>
   <v>       0.14285714       0.20000000       0.00000000 </v>
   <v>       0.19047619       0.20000000       0.00000000 </v>
   <v>       0.23809524       0.20000000       0.00000000 </v>
   <v>       0.28571429       0.20000000       0.00000000 </v>
   <v>       0.33333333       0.20000000       0.00000000 </v>
   <v>       0.38095238       0.20000000       0.00000000 </v>
   <v>       0.42857143       0.20000000       0.00000000 </v>
   <v>       0.47619048       0.20000000       0.00000000 </v>
   <v>      -0.47619048       0.20000000       0.00000000 </v>
   <v>      -0.42857143       0.20000000       0.00000000 </v>
   <v>      -0.38095238       0.20000000       0.00000000 </v>
   <v>      -0.33333333       0.20000000       0.00000000 </v>
   <v>      -0.28571429       0.20000000       0.00000000 </v>
   <v>      -0.23809524       0.20000000       0.00000000 </v>
   <v>      -0.19047619       0.20000000       0.00000000 </v>
   <v>      -0.14285714       0.20000000       0.00000000 </v>
   <v>      -0.09523810       0.20000000       0.00000000 </v>
   <v>      -0.04761905       0.20000000       0.00000000 </v>
   <v>       0.00000000       0.26666667       0.00000000 </v>
   <v>       0.04761905       0.26666667       0.00000000 </v>
   <v>       0.09523810       0.26666667       0.00000000 </v>
   <v>       0.14285714       0.26666667       0.00000000 </v>
   <v>       0.19047619       0.26666667       0.00000000 </v>
   <v>       0.23809524       0.26666667       0.00000000 </v>
   <v>       0.28571429       0.26666667       0.00000000 </v>
   <v>       0.33333333       0.26666667       0.00000000 </v>
   <v>       0.38095238       0.26666667       0.00000000 </v>
   <v>       0.42857143       0.26666667       0.00000000 </v>
   <v>       0.47619048       0.26666667       0.00000000 </v>
   <v>      -0.47619048       0.26666667       0.00000000 </v>
   <v>      -0.42857143       0.26666667       0.00000000 </v>
   <v>      -0.38095238       0.26666667       0.00000000 </v>
   <v>      -0.33333333       0.26666667       0.00000000 </v>
   <v>      -0.28571429       0.26666667       0.00000000 </v>
   <v>      -0.23809524       0.26666667       0.00000000 </v>
   <v>      -0.19047619       0.26666667       0.00000000 </v>
   <v>      -0.14285714       0.26666667       0.00000000 </v>
   <v>      -0.09523810       0.26666667       0.00000000 </v>
   <v>      -0.04761905       0.26666667       0.00000000 </v>
   <v>       0.00000000       0.33333333       0.00000000 </v>
   <v>       0.04761905       0.33333333       0.00000000 </v>
   <v>       0.09523810       0.33333333       0.00000000 </v>
   <v>       0.14285714       0.33333333       0.00000000 </v>
   <v>       0.19047619       0.33333333       0.00000000 </v>
   <v>       0.23809524       0.33333333       0.00000000 </v>
   <v>       0.28571429       0.33333333       0.00000000 </v>
   <v>       0.33333333       0.33333333       0.00000000 </v>
   <v>       0.38095238       0.33333333       0.00000000 </v>
   <v>       0.42857143       0.33333333       0.00000000 </v>
   <v>       0.47619048       0.33333333       0.00000000 </v>
   <v>      -0.47619048       0.33333333       0.00000000 </v>
   <v>      -0.42857143       0.33333333       0.00000000 </v>
   <v>      -0.38095238       0.33333333       0.00000000 </v>
   <v>      -0.33333333       0.33333333       0.00000000 </v>
   <v>      -0.28571429       0.33333333       0.00000000 </v>
   <v>      -0.23809524       0.33333333       0.00000000 </v>
   <v>      -0.19047619       0.33333333       0.00000000 </v>
   <v>      -0.14285714       0.33333333       0.00000000 </v>
   <v>      -0.09523810       0.33333333       0.00000000 </v>
   <v>      -0.04761905       0.33333333       0.00000000 </v>
   <v>       0.00000000       0.40000000       0.00000000 </v>
   <v>       0.04761905       0.40000000       0.00000000 </v>
   <v>       0.09523810       0.40000000       0.00000000 </v>
   <v>       0.14285714       0.40000000       0.00000000 </v>
   <v>       0.19047619       0.40000000       0.00000000 </v>
   <v>       0.23809524       0.40000000       0.00000000 </v>
   <v>       0.28571429       0.40000000       0.00000000 </v>
   <v>       0.33333333       0.40000000       0.00000000 </v>
   <v>       0.38095238       0.40000000       0.00000000 </v>
   <v>       0.42857143       0.40000000       0.00000000 </v>
   <v>       0.47619048       0.40000000       0.00000000 </v>
   <v>      -0.47619048       0.40000000       0.00000000 </v>
   <v>      -0.42857143       0.40000000       0.00000000 </v>
   <v>      -0.38095238       0.40000000       0.00000000 </v>
   <v>      -0.33333333       0.40000000       0.00000000 </v>
   <v>      -0.28571429       0.40000000       0.00000000 </v>
   <v>      -0.23809524       0.40000000       0.00000000 </v>
   <v>      -0.19047619       0.40000000       0.00000000 </v>
   <v>      -0.14285714       0.40000000       0.00000000 </v>
   <v>      -0.09523810       0.40000000       0.00000000 </v>
   <v>      -0.04761905       0.40000000       0.00000000 </v>
   <v>       0.00000000       0.46666667       0.00000000 </v>
   <v>       0.04761905       0.46666667       0.00000000 </v>
   <v>       0.09523810       0.46666667       0.00000000 </v>
   <v>       0.14285714       0.46666667       0.00000000 </v>
   <v>       0.19047619       0.46666667       0.00000000 </v>
   <v>       0.23809524       0.46666667       0.00000000 </v>
   <v>       0.28571429       0.46666667       0.00000000 </v>
   <v>       0.33333333       0.46666667       0.00000000 </v>
   <v>       0.38095238       0.46666667       0.00000000 </v>
   <v>       0.42857143       0.46666667       0.00000000 </v>
   <v>       0.47619048       0.46666667       0.00000000 </v>
   <v>      -0.47619048       0.46666667       0.00000000 </v>
   <v>      -0.42857143       0.46666667       0.00000000 </v>
   <v>      -0.38095238       0.46666667       0.00000000 </v>
   <v>      -0.33333333       0.46666667       0.00000000 </v>
   <v>      -0.28571429       0.46666667       0.00000000 </v>
   <v>      -0.23809524       0.46666667       0.00000000 </v>
   <v>      -0.19047619       0.46666667       0.00000000 </v>
   <v>      -0.14285714       0.46666667       0.00000000 </v>
   <v>      -0.09523810       0.46666667       0.00000000 </v>
   <v>      -0.04761905       0.46666667       0.00000000 </v>
  </varray>
  <varray name="weights" >
   <v>       0.00317460 </v>
   <v>       0.00634921 </v>
   <v>       0.00634921 </v>
   <v>       0.00634921 </v>
   <v>       0.00634921 </v>
   <v>       0.00634921 </v>
   <v>       0.00634921 </v>
   <v>       0.00634921 </v>
   <v>       0.00634921 </v>
   <v>       0.00634921 </v>
   <v>       0.00634921 </v>
   <v>       0.00634921 </v>
   <v>       0.00634921 </v>
   <v>       0.00634921 </v>
   <v>       0.00634921 </v>
   <v>       0.00634921 </v>
   <v>       0.00634921 </v>
   <v>       0.00634921 </v>
   <v>       0.00634921 </v>
   <v>       0.00634921 </v>
   <v>       0.00634921 </v>
   <v>       0.00634921 </v>
   <v>       0.00634921 </v>
   <v>       0.00634921 </v>
   <v>       0.00634921 </v>
   <v>       0.00634921 </v>
   <v>       0.00634921 </v>
   <v>       0.00634921 </v>
   <v>       0.00634921 </v>
   <v>       0.00634921 </v>
   <v>       0.00634921 </v>
   <v>       0.00634921 </v>
   <v>       0.00634921 </v>
   <v>       0.00634921 </v>
   <v>       0.00634921 </v>
   <v>       0.00634921 </v>
   <v>       0.00634921 </v>
   <v>       0.00634921 </v>
   <v>       0.00634921 </v>
   <v>       0.00634921 </v>
   <v>       0.00634921 </v>
   <v>       0.00634921 </v>
   <v>       0.00634921 </v>
   <v>       0.00634921 </v>
   <v>       0.00634921 </v>
   <v>       0.00634921 </v>
   <v>       0.00634921 </v>
   <v>       0.00634921 </v>
   <v>       0.00634921 </v>
   <v>       0.00634921 </v>
   <v>       0.00634921 </v>
   <v>       0.00634921 </v>
   <v>       0.00634921 </v>
   <v>       0.00634921 </v>
   <v>       0.00634921 </v>
   <v>       0.00634921 </v>
   <v>       0.00634921 </v>
   <v>       0.00634921 </v>
   <v>       0.00634921 </v>
   <v>       0.00634921 </v>
   <v>       0.00634921 </v>
   <v>       0.00634921 </v>
   <v>       0.00634921 </v>
   <v>       0.00634921 </v>
   <v>       0.00634921 </v>
   <v>       0.00634921 </v>
   <v>       0.00634921 </v>
   <v>       0.00634921 </v>
   <v>       0.00634921 </v>
   <v>       0.00634921 </v>
   <v>       0.00634921 </v>
   <v>       0.00634921 </v>
   <v>       0.00634921 </v>
   <v>       0.00634921 </v>
   <v>       0.00634921 </v>
   <v>       0.00634921 </v>
   <v>       0.00634921 </v>
   <v>       0.00634921 </v>
   <v>       0.00634921 </v>
   <v>       0.00634921 </v>
   <v>       0.00634921 </v>
   <v>       0.00634921 </v>
   <v>       0.00634921 </v>
   <v>       0.00634921 </v>
   <v>       0.00634921 </v>
   <v>       0.00634921 </v>
   <v>       0.00634921 </v>
   <v>       0.00634921 </v>
   <v>       0.00634921 </v>
   <v>       0.00634921 </v>
   <v>       0.00634921 </v>
   <v>       0.00634921 </v>
   <v>       0.00634921 </v>
   <v>       0.00634921 </v>
   <v>       0.00634921 </v>
   <v>       0.00634921 </v>
   <v>       0.00634921 </v>
   <v>       0.00634921 </v>
   <v>       0.00634921 </v>
   <v>       0.00634921 </v>
   <v>       0.00634921 </v>
   <v>       0.00634921 </v>
   <v>       0.00634921 </v>
   <v>       0.00634921 </v>
   <v>       0.00634921 </v>
   <v>       0.00634921 </v>
   <v>       0.00634921 </v>
   <v>       0.00634921 </v>
   <v>       0.00634921 </v>
   <v>       0.00634921 </v>
   <v>       0.00634921 </v>
   <v>       0.00634921 </v>
   <v>       0.00634921 </v>
   <v>       0.00634921 </v>
   <v>       0.00634921 </v>
   <v>       0.00634921 </v>
   <v>       0.00634921 </v>
   <v>       0.00634921 </v>
   <v>       0.00634921 </v>
   <v>       0.00634921 </v>
   <v>       0.00634921 </v>
   <v>       0.00634921 </v>
   <v>       0.00634921 </v>
   <v>       0.00634921 </v>
   <v>       0.00634921 </v>
   <v>       0.00634921 </v>
   <v>       0.00634921 </v>
   <v>       0.00634921 </v>
   <v>       0.00634921 </v>
   <v>       0.00634921 </v>
   <v>       0.00634921 </v>
   <v>       0.00634921 </v>
   <v>       0.00634921 </v>
   <v>       0.00634921 </v>
   <v>       0.00634921 </v>
   <v>       0.00634921 </v>
   <v>       0.00634921 </v>
   <v>       0.00634921 </v>
   <v>       0.00634921 </v>
   <v>       0.00634921 </v>
   <v>       0.00634921 </v>
   <v>       0.00634921 </v>
   <v>       0.00634921 </v>
   <v>       0.00634921 </v>
   <v>       0.00634921 </v>
   <v>       0.00634921 </v>
   <v>       0.00634921 </v>
   <v>       0.00634921 </v>
   <v>       0.00634921 </v>
   <v>       0.00634921 </v>
   <v>       0.00634921 </v>
   <v>       0.00634921 </v>
   <v>       0.00634921 </v>
   <v>       0.00634921 </v>
   <v>       0.00634921 </v>
   <v>       0.00634921 </v>
   <v>       0.00634921 </v>
   <v>       0.00634921 </v>
  </varray>
 </kpoints>
 <parameters>
  <separator name="general" >
   <i type="string" name="SYSTEM">unknown system</i>
   <i type="logical" name="LCOMPAT"> F  </i>
  </separator>
  <separator name="electronic" >
   <i type="string" name="PREC">a</i>
   <i name="ENMAX">    520.00000000</i>
   <i name="ENAUG">    342.92400000</i>
   <i name="EDIFF">      0.00001000</i>
   <i type="int" name="IALGO">    38</i>
   <i type="int" name="IWAVPR">    11</i>
   <i type="int" name="NBANDS">    16</i>
   <i name="NELECT">     20.00000000</i>
   <i type="int" name="TURBO">     0</i>
   <i type="int" name="IRESTART">     0</i>
   <i type="int" name="NREBOOT">     0</i>
   <i type="int" name="NMIN">     0</i>
   <i name="EREF">      0.00000000</i>
   <separator name="electronic smearing" >
    <i type="int" name="ISMEAR">     0</i>
    <i name="SIGMA">      0.02000000</i>
    <i name="KSPACING">      0.50000000</i>
    <i type="logical" name="KGAMMA"> T  </i>
   </separator>
   <separator name="electronic projectors" >
    <i type="logical" name="LREAL"> F  </i>
    <v name="ROPT">      0.00000000</v>
    <i type="int" name="LMAXPAW">  -100</i>
    <i type="int" name="LMAXMIX">     2</i>
    <i type="logical" name="NLSPLINE"> F  </i>
   </separator>
   <separator name="electronic startup" >
    <i type="int" name="ISTART">     0</i>
    <i type="int" name="ICHARG">     2</i>
    <i type="int" name="INIWAV">     1</i>
   </separator>
   <separator name="electronic spin" >
    <i type="int" name="ISPIN">     1</i>
    <i type="logical" name="LNONCOLLINEAR"> F  </i>
    <v name="MAGMOM">      1.00000000      1.00000000      1.00000000      1.00000000</v>
    <i name="NUPDOWN">     -1.00000000</i>
    <i type="logical" name="LSORBIT"> F  </i>
    <v name="SAXIS">      0.00000000      0.00000000      1.00000000</v>
    <i type="logical" name="LSPIRAL"> F  </i>
    <v name="QSPIRAL">      0.00000000      0.00000000      0.00000000</v>
    <i type="logical" name="LZEROZ"> F  </i>
   </separator>
   <separator name="electronic exchange-correlation" >
    <i type="logical" name="LASPH"> F  </i>
    <i type="logical" name="LMETAGGA"> F  </i>
   </separator>
   <separator name="electronic convergence" >
    <i type="int" name="NELM">   250</i>
    <i type="int" name="NELMDL">    -5</i>
    <i type="int" name="NELMIN">     6</i>
    <i name="ENINI">    520.00000000</i>
    <separator name="electronic convergence detail" >
     <i type="logical" name="LDIAG"> T  </i>
     <i type="logical" name="LSUBROT"> F  </i>
     <i name="WEIMIN">      0.00100000</i>
     <i name="EBREAK">      0.00000016</i>
     <i name="DEPER">      0.30000000</i>
     <i type="int" name="NRMM">     4</i>
     <i name="TIME">      0.40000000</i>
    </separator>
   </separator>
   <separator name="electronic mixer" >
    <i name="AMIX">      0.40000000</i>
    <i name="BMIX">      1.00000000</i>
    <i name="AMIN">      0.10000000</i>
    <i name="AMIX_MAG">      1.60000000</i>
    <i name="BMIX_MAG">      1.00000000</i>
    <separator name="electronic mixer details" >
     <i type="int" name="IMIX">     4</i>
     <i type="logical" name="MIXFIRST"> F  </i>
     <i type="int" name="MAXMIX">   -45</i>
     <i name="WC">    100.00000000</i>
     <i type="int" name="INIMIX">     1</i>
     <i type="int" name="MIXPRE">     1</i>
     <i type="int" name="MREMOVE">     5</i>
    </separator>
   </separator>
   <separator name="electronic dipolcorrection" >
    <i type="logical" name="LDIPOL"> F  </i>
    <i type="logical" name="LMONO"> F  </i>
    <i type="int" name="IDIPOL">     0</i>
    <i name="EPSILON">      1.00000000</i>
    <v name="DIPOL">   -100.00000000   -100.00000000   -100.00000000</v>
    <i name="EFIELD">      0.00000000</i>
   </separator>
  </separator>
  <separator name="grids" >
   <i type="int" name="NGX">    28</i>
   <i type="int" name="NGY">    36</i>
   <i type="int" name="NGZ">   150</i>
   <i type="int" name="NGXF">    56</i>
   <i type="int" name="NGYF">    72</i>
   <i type="int" name="NGZF">   300</i>
   <i type="logical" name="ADDGRID"> F  </i>
  </separator>
  <separator name="ionic" >
   <i type="int" name="NSW">   200</i>
   <i type="int" name="IBRION">     2</i>
   <i type="int" name="ISIF">     2</i>
   <i name="PSTRESS">      0.00000000</i>
   <i name="EDIFFG">     -0.01000000</i>
   <i type="int" name="NFREE">     1</i>
   <i name="POTIM">      0.30000000</i>
   <i name="SMASS">     -3.00000000</i>
   <i name="SCALEE">      1.00000000</i>
  </separator>
  <separator name="ionic md" >
   <i name="TEBEG">      0.00010000</i>
   <i name="TEEND">      0.00010000</i>
   <i type="int" name="NBLOCK">     1</i>
   <i type="int" name="KBLOCK">   200</i>
   <i type="int" name="NPACO">   256</i>
   <i name="APACO">     16.00000000</i>
  </separator>
  <separator name="symmetry" >
   <i type="int" name="ISYM">     2</i>
   <i name="SYMPREC">      0.00001000</i>
  </separator>
  <separator name="dos" >
   <i type="logical" name="LORBIT"> F  </i>
   <v name="RWIGS">     -1.00000000</v>
   <i type="int" name="NEDOS">   301</i>
   <i name="EMIN">     10.00000000</i>
   <i name="EMAX">    -10.00000000</i>
   <i name="EFERMI">      0.00000000</i>
  </separator>
  <separator name="writing" >
   <i type="int" name="NWRITE">     2</i>
   <i type="logical" name="LWAVE"> F  </i>
   <i type="logical" name="LCHARG"> F  </i>
   <i type="logical" name="LPARD"> F  </i>
   <i type="logical" name="LVTOT"> F  </i>
   <i type="logical" name="LVHAR"> F  </i>
   <i type="logical" name="LELF"> F  </i>
   <i type="logical" name="LOPTICS"> F  </i>
   <v name="STM">      0.00000000      0.00000000      0.00000000      0.00000000      0.00000000      0.00000000      0.00000000</v>
  </separator>
  <separator name="performance" >
   <i type="int" name="NPAR">     4</i>
   <i type="int" name="NSIM">     4</i>
   <i type="int" name="NBLK">    -1</i>
   <i type="logical" name="LPLANE"> T  </i>
   <i type="logical" name="LSCALAPACK"> T  </i>
   <i type="logical" name="LSCAAWARE"> F  </i>
   <i type="logical" name="LSCALU"> F  </i>
   <i type="logical" name="LASYNC"> F  </i>
   <i type="logical" name="LORBITALREAL"> F  </i>
  </separator>
  <separator name="miscellaneous" >
   <i type="int" name="IDIOT">     3</i>
   <i type="logical" name="LMUSIC"> F  </i>
   <v name="POMASS">     30.97400000</v>
   <v name="DARWINR">      0.00000000</v>
   <v name="DARWINV">      1.00000000</v>
   <i type="logical" name="LCORR"> T  </i>
  </separator>
  <i type="logical" name="GGA_COMPAT"> T  </i>
  <i type="logical" name="LBERRY"> F  </i>
  <i type="int" name="ICORELEVEL">     0</i>
  <i type="logical" name="LDAU"> F  </i>
  <i type="int" name="I_CONSTRAINED_M">     0</i>
  <separator name="electronic exchange-correlation" >
   <i type="string" name="GGA">--</i>
   <i type="int" name="VOSKOWN">     0</i>
   <i type="logical" name="LHFCALC"> F  </i>
   <i type="string" name="PRECFOCK"></i>
   <i type="logical" name="LSYMGRAD"> F  </i>
   <i type="logical" name="LHFONE"> F  </i>
   <i type="logical" name="LRHFCALC"> F  </i>
   <i type="logical" name="LTHOMAS"> F  </i>
   <i type="logical" name="LMODELHF"> F  </i>
   <i name="ENCUT4O">     -1.00000000</i>
   <i type="int" name="EXXOEP">     0</i>
   <i type="int" name="FOURORBIT">     0</i>
   <i name="AEXX">      0.00000000</i>
   <i name="HFALPHA">      0.00000000</i>
   <i name="MCALPHA">      0.00000000</i>
   <i name="ALDAX">      1.00000000</i>
   <i name="AGGAX">      1.00000000</i>
   <i name="ALDAC">      1.00000000</i>
   <i name="AGGAC">      1.00000000</i>
   <i type="int" name="NKREDX">     1</i>
   <i type="int" name="NKREDY">     1</i>
   <i type="int" name="NKREDZ">     1</i>
   <i type="logical" name="SHIFTRED"> F  </i>
   <i type="logical" name="ODDONLY"> F  </i>
   <i type="logical" name="EVENONLY"> F  </i>
   <i type="int" name="LMAXFOCK">     0</i>
   <i type="int" name="NMAXFOCKAE">     0</i>
   <i type="logical" name="LFOCKAEDFT"> F  </i>
   <i name="HFSCREEN">      0.00000000</i>
   <i name="HFSCREENC">      0.00000000</i>
   <i type="int" name="NBANDSGWLOW">     0</i>
  </separator>
  <separator name="vdW DFT" >
   <i type="logical" name="LUSE_VDW"> F  </i>
   <i name="Zab_VDW">     -0.84910000</i>
   <i name="PARAM1">      0.12340000</i>
   <i name="PARAM2">      1.00000000</i>
   <i name="PARAM3">      0.00000000</i>
  </separator>
  <separator name="model GW" >
   <i type="int" name="MODEL_GW">     0</i>
   <i name="MODEL_EPS0">     45.32797083</i>
   <i name="MODEL_ALPHA">      1.00000000</i>
  </separator>
  <separator name="linear response parameters" >
   <i type="logical" name="LEPSILON"> F  </i>
   <i type="logical" name="LRPA"> F  </i>
   <i type="logical" name="LNABLA"> F  </i>
   <i type="logical" name="LVEL"> F  </i>
   <i type="int" name="KINTER">     0</i>
   <i name="CSHIFT">      0.10000000</i>
   <i name="OMEGAMAX">     -1.00000000</i>
   <i name="DEG_THRESHOLD">      0.00200000</i>
  </separator>
  <separator name="orbital magnetization" >
   <i type="logical" name="NUCIND"> F  </i>
   <v name="MAGPOS">      0.00000000      0.00000000      0.00000000</v>
   <i type="logical" name="LNICSALL"> T  </i>
   <i type="logical" name="ORBITALMAG"> F  </i>
   <i type="logical" name="LMAGBLOCH"> F  </i>
   <i type="logical" name="LCHIMAG"> F  </i>
   <i type="logical" name="LGAUGE"> T  </i>
   <i type="int" name="MAGATOM">     0</i>
   <v name="MAGDIPOL">      0.00000000      0.00000000      0.00000000</v>
   <v name="AVECCONST">      0.00000000      0.00000000      0.00000000</v>
  </separator>
  <separator name="response functions" >
   <i type="logical" name="LADDER"> F  </i>
   <i type="logical" name="LFXC"> F  </i>
   <i type="logical" name="LHARTREE"> T  </i>
   <i type="int" name="IBSE">     0</i>
   <v type="int" name="KPOINT">    -1     0     0     0</v>
   <i type="logical" name="LTCTE"> F  </i>
   <i type="logical" name="LTETE"> F  </i>
   <i type="logical" name="LTRIPLET"> F  </i>
   <i type="logical" name="LFXCEPS"> F  </i>
   <i type="logical" name="LFXHEG"> F  </i>
   <i type="int" name="NATURALO">     0</i>
   <i type="logical" name="L2ORDER"> F  </i>
   <i type="logical" name="LUSEW"> F  </i>
   <i name="ENCUTGW">     -2.00000000</i>
   <i name="ENCUTGWSOFT">     -2.00000000</i>
   <i name="ENCUTLF">     -1.00000000</i>
   <i type="int" name="LMAXMP2">    -1</i>
   <i name="SCISSOR">      0.00000000</i>
   <i type="int" name="NOMEGA">     0</i>
   <i type="int" name="NOMEGAR">     0</i>
   <i type="int" name="NBANDSGW">    -1</i>
   <i type="int" name="NBANDSO">    -1</i>
   <i type="int" name="NBANDSV">    -1</i>
   <i type="int" name="NELM">   250</i>
   <i type="int" name="NELMHF">     1</i>
   <i type="int" name="DIM">     3</i>
   <i type="int" name="ANTIRES">     0</i>
   <i name="OMEGAMAX">    -30.00000000</i>
   <i name="OMEGAMIN">    -30.00000000</i>
   <i name="OMEGATL">   -200.00000000</i>
   <i type="int" name="OMEGAGRID">     0</i>
   <i name="CSHIFT">     -0.10000000</i>
   <i type="logical" name="SELFENERGY"> F  </i>
   <i type="logical" name="LSPECTRAL"> F  </i>
   <i type="logical" name="LSPECTRALGW"> F  </i>
   <i type="logical" name="LSINGLES"> F  </i>
   <i type="logical" name="LFERMIGW"> F  </i>
   <i type="logical" name="ODDONLYGW"> F  </i>
   <i type="logical" name="EVENONLYGW"> F  </i>
   <i type="int" name="NKREDLFX">     1</i>
   <i type="int" name="NKREDLFY">     1</i>
   <i type="int" name="NKREDLFZ">     1</i>
   <i type="int" name="MAXMEM">  1800</i>
   <i type="int" name="TELESCOPE">     0</i>
   <i type="int" name="TAUPAR">     1</i>
   <i type="int" name="OMEGAPAR">    -1</i>
   <i name="LAMBDA">      1.00000000</i>
  </separator>
  <separator name="External order field" >
   <i name="OFIELD_KAPPA">      0.00000000</i>
   <v name="OFIELD_K">      0.00000000      0.00000000      0.00000000</v>
   <i name="OFIELD_Q6_NEAR">      0.00000000</i>
   <i name="OFIELD_Q6_FAR">      0.00000000</i>
   <i name="OFIELD_A">      0.00000000</i>
  </separator>
 </parameters>
 <atominfo>
  <atoms>       4 </atoms>
  <types>       1 </types>
  <array name="atoms" >
   <dimension dim="1">ion</dimension>
   <field type="string">element</field>
   <field type="int">atomtype</field>
   <set>
    <rc><c>P </c><c>   1</c></rc>
    <rc><c>P </c><c>   1</c></rc>
    <rc><c>P </c><c>   1</c></rc>
    <rc><c>P </c><c>   1</c></rc>
   </set>
  </array>
  <array name="atomtypes" >
   <dimension dim="1">type</dimension>
   <field type="int">atomspertype</field>
   <field type="string">element</field>
   <field>mass</field>
   <field>valence</field>
   <field type="string">pseudopotential</field>
   <set>
    <rc><c>   4</c><c>P </c><c>     30.97400000</c><c>      5.00000000</c><c>  PAW_PBE P 06Sep2000                   </c></rc>
   </set>
  </array>
 </atominfo>
 <structure name="initialpos" >
  <crystal>
   <varray name="basis" >
    <v>       3.29720400       0.00000000       0.00000000 </v>
    <v>       0.00000000       4.57688400      -0.00005300 </v>
    <v>       0.00000000       0.00000000      20.02439000 </v>
   </varray>
   <i name="volume">    302.18647219 </i>
   <varray name="rec_basis" >
    <v>       0.30328727       0.00000000       0.00000000 </v>
    <v>       0.00000000       0.21848926       0.00000000 </v>
    <v>       0.00000000       0.00000058       0.04993910 </v>
   </varray>
  </crystal>
  <varray name="positions" >
   <v>       0.50000000       0.91077300       0.55252100 </v>
   <v>       0.50000000       0.08922700       0.44747900 </v>
   <v>       0.00000000       0.41076900       0.44747900 </v>
   <v>       0.00000000       0.58923100       0.55252100 </v>
  </varray>
 </structure>
 <calculation>
  <scstep>
   <time name="dav">    1.49    1.49</time>
   <time name="total">    1.52    1.52</time>
   <energy>
    <i name="alphaZ">      5.30851374 </i>
    <i name="ewald">   1886.68113429 </i>
    <i name="hartreedc">  -2480.30429527 </i>
    <i name="XCdc">     13.11631979 </i>
    <i name="pawpsdc">    559.04011960 </i>
    <i name="pawaedc">   -526.39432044 </i>
    <i name="eentropy">     -0.00053801 </i>
    <i name="bandstr">    -27.89502987 </i>
    <i name="atom">    704.16778566 </i>
    <i name="e_fr_energy">    133.71968949 </i>
    <i name="e_wo_entrp">    133.72022751 </i>
    <i name="e_0_energy">    133.71995850 </i>
   </energy>
  </scstep>
  <scstep>
   <time name="dav">    1.97    1.97</time>
   <time name="total">    1.97    1.97</time>
   <energy>
    <i name="e_fr_energy">     -6.33644489 </i>
    <i name="e_wo_entrp">     -6.33644489 </i>
    <i name="e_0_energy">     -6.33644489 </i>
   </energy>
  </scstep>
  <scstep>
   <time name="dav">    1.83    1.83</time>
   <time name="total">    1.83    1.83</time>
   <energy>
    <i name="e_fr_energy">    -21.35672427 </i>
    <i name="e_wo_entrp">    -21.35672427 </i>
    <i name="e_0_energy">    -21.35672427 </i>
   </energy>
  </scstep>
  <scstep>
   <time name="dav">    1.82    1.82</time>
   <time name="total">    1.82    1.83</time>
   <energy>
    <i name="e_fr_energy">    -21.66191621 </i>
    <i name="e_wo_entrp">    -21.66191621 </i>
    <i name="e_0_energy">    -21.66191621 </i>
   </energy>
  </scstep>
  <scstep>
   <time name="dav">    1.99    1.99</time>
   <time name="total">    2.08    2.08</time>
   <energy>
    <i name="e_fr_energy">    -21.67199143 </i>
    <i name="e_wo_entrp">    -21.67199143 </i>
    <i name="e_0_energy">    -21.67199143 </i>
   </energy>
  </scstep>
  <scstep>
   <time name="dav">    1.77    1.77</time>
   <time name="total">    1.89    1.89</time>
   <energy>
    <i name="e_fr_energy">    -21.52403162 </i>
    <i name="e_wo_entrp">    -21.52403162 </i>
    <i name="e_0_energy">    -21.52403162 </i>
   </energy>
  </scstep>
  <scstep>
   <time name="dav">    1.73    1.73</time>
   <time name="total">    1.84    1.84</time>
   <energy>
    <i name="e_fr_energy">    -21.45415357 </i>
    <i name="e_wo_entrp">    -21.45415357 </i>
    <i name="e_0_energy">    -21.45415357 </i>
   </energy>
  </scstep>
  <scstep>
   <time name="dav">    1.80    1.80</time>
   <time name="total">    1.91    1.92</time>
   <energy>
    <i name="e_fr_energy">    -21.45340108 </i>
    <i name="e_wo_entrp">    -21.45340108 </i>
    <i name="e_0_energy">    -21.45340108 </i>
   </energy>
  </scstep>
  <scstep>
   <time name="dav">    2.09    2.09</time>
   <time name="total">    2.20    2.20</time>
   <energy>
    <i name="e_fr_energy">    -21.45324885 </i>
    <i name="e_wo_entrp">    -21.45324885 </i>
    <i name="e_0_energy">    -21.45324885 </i>
   </energy>
  </scstep>
  <scstep>
   <time name="dav">    1.82    1.82</time>
   <time name="total">    1.93    1.93</time>
   <energy>
    <i name="e_fr_energy">    -21.45307145 </i>
    <i name="e_wo_entrp">    -21.45307145 </i>
    <i name="e_0_energy">    -21.45307145 </i>
   </energy>
  </scstep>
  <scstep>
   <time name="dav">    1.80    1.80</time>
   <time name="total">    1.91    1.91</time>
   <energy>
    <i name="e_fr_energy">    -21.45295631 </i>
    <i name="e_wo_entrp">    -21.45295631 </i>
    <i name="e_0_energy">    -21.45295631 </i>
   </energy>
  </scstep>
  <scstep>
   <time name="dav">    1.60    1.60</time>
   <time name="total">    1.71    1.71</time>
   <energy>
    <i name="e_fr_energy">    -21.45337311 </i>
    <i name="e_wo_entrp">    -21.45337311 </i>
    <i name="e_0_energy">    -21.45337311 </i>
   </energy>
  </scstep>
  <scstep>
   <time name="dav">    1.60    1.60</time>
   <time name="total">    1.72    1.72</time>
   <energy>
    <i name="e_fr_energy">    -21.45346409 </i>
    <i name="e_wo_entrp">    -21.45346409 </i>
    <i name="e_0_energy">    -21.45346409 </i>
   </energy>
  </scstep>
  <scstep>
   <time name="dav">    1.47    1.47</time>
   <time name="total">    1.59    1.59</time>
   <energy>
    <i name="e_fr_energy">    -21.45359032 </i>
    <i name="e_wo_entrp">    -21.45359032 </i>
    <i name="e_0_energy">    -21.45359032 </i>
   </energy>
  </scstep>
  <scstep>
   <time name="dav">    1.52    1.52</time>
   <time name="total">    1.63    1.63</time>
   <energy>
    <i name="e_fr_energy">    -21.45363778 </i>
    <i name="e_wo_entrp">    -21.45363778 </i>
    <i name="e_0_energy">    -21.45363778 </i>
   </energy>
  </scstep>
  <scstep>
   <time name="dav">    1.45    1.45</time>
   <time name="total">    1.56    1.57</time>
   <energy>
    <i name="e_fr_energy">    -21.45366863 </i>
    <i name="e_wo_entrp">    -21.45366863 </i>
    <i name="e_0_energy">    -21.45366863 </i>
   </energy>
  </scstep>
  <scstep>
   <time name="dav">    1.47    1.47</time>
   <time name="total">    1.49    1.49</time>
   <energy>
    <i name="alphaZ">      5.30851374 </i>
    <i name="ewald">   1886.68113429 </i>
    <i name="hartreedc">  -2496.04693258 </i>
    <i name="XCdc">     14.19746029 </i>
    <i name="pawpsdc">   2145.00033751 </i>
    <i name="pawaedc">  -2112.70822270 </i>
    <i name="eentropy">     -0.00000000 </i>
    <i name="bandstr">   -168.05374742 </i>
    <i name="atom">    704.16778566 </i>
    <i name="e_fr_energy">    -21.45367120 </i>
    <i name="e_wo_entrp">    -21.45367120 </i>
    <i name="e_0_energy">    -21.45367120 </i>
   </energy>
  </scstep>
  <structure>
   <crystal>
    <varray name="basis" >
     <v>       3.29720400       0.00000000       0.00000000 </v>
     <v>       0.00000000       4.57688400      -0.00005300 </v>
     <v>       0.00000000       0.00000000      20.02439000 </v>
    </varray>
    <i name="volume">    302.18647219 </i>
    <varray name="rec_basis" >
     <v>       0.30328727       0.00000000       0.00000000 </v>
     <v>       0.00000000       0.21848926       0.00000000 </v>
     <v>       0.00000000       0.00000058       0.04993910 </v>
    </varray>
   </crystal>
   <varray name="positions" >
    <v>       0.50000000       0.91077300       0.55252100 </v>
    <v>       0.50000000       0.08922700       0.44747900 </v>
    <v>       0.00000000       0.41076900       0.44747900 </v>
    <v>       0.00000000       0.58923100       0.55252100 </v>
   </varray>
  </structure>
  <varray name="forces" >
   <v>      -0.00000029       0.15196166       0.02238663 </v>
   <v>       0.00000029      -0.15196166      -0.02238663 </v>
   <v>       0.00000026       0.15192656      -0.02238702 </v>
   <v>      -0.00000026      -0.15192656       0.02238702 </v>
  </varray>
  <varray name="stress" >
   <v>       1.84919692      -0.00000135      -0.00000212 </v>
   <v>      -0.00000139       3.63319036       0.00035335 </v>
   <v>      -0.00000214       0.00035327       0.43317426 </v>
  </varray>
  <energy>
   <i name="e_fr_energy">    -21.45367120 </i>
   <i name="e_wo_entrp">    -21.45367120 </i>
   <i name="e_0_energy">     -0.00000000 </i>
  </energy>
  <time name="totalsc">   31.38   31.41</time>
 </calculation>
 <calculation>
  <scstep>
   <time name="dav">    1.59    1.60</time>
   <time name="total">    1.71    1.71</time>
   <energy>
    <i name="alphaZ">      5.30851374 </i>
    <i name="ewald">   1885.41486452 </i>
    <i name="hartreedc">  -2495.05198133 </i>
    <i name="XCdc">     14.17305016 </i>
    <i name="pawpsdc">   2144.72117899 </i>
    <i name="pawaedc">  -2112.42911643 </i>
    <i name="eentropy">     -0.00000000 </i>
    <i name="bandstr">   -167.75960406 </i>
    <i name="atom">    704.16778566 </i>
    <i name="e_fr_energy">    -21.45530874 </i>
    <i name="e_wo_entrp">    -21.45530874 </i>
    <i name="e_0_energy">    -21.45530874 </i>
   </energy>
  </scstep>
  <scstep>
   <time name="dav">    1.90    1.90</time>
   <time name="total">    2.01    2.01</time>
   <energy>
    <i name="e_fr_energy">    -21.45556873 </i>
    <i name="e_wo_entrp">    -21.45556873 </i>
    <i name="e_0_energy">    -21.45556873 </i>
   </energy>
  </scstep>
  <scstep>
   <time name="dav">    1.93    1.93</time>
   <time name="total">    2.04    2.04</time>
   <energy>
    <i name="e_fr_energy">    -21.45556474 </i>
    <i name="e_wo_entrp">    -21.45556474 </i>
    <i name="e_0_energy">    -21.45556474 </i>
   </energy>
  </scstep>
  <scstep>
   <time name="dav">    1.47    1.47</time>
   <time name="total">    1.58    1.58</time>
   <energy>
    <i name="e_fr_energy">    -21.45556453 </i>
    <i name="e_wo_entrp">    -21.45556453 </i>
    <i name="e_0_energy">    -21.45556453 </i>
   </energy>
  </scstep>
  <scstep>
   <time name="dav">    1.35    1.35</time>
   <time name="total">    1.46    1.46</time>
   <energy>
    <i name="e_fr_energy">    -21.45556496 </i>
    <i name="e_wo_entrp">    -21.45556496 </i>
    <i name="e_0_energy">    -21.45556496 </i>
   </energy>
  </scstep>
  <scstep>
   <time name="dav">    1.31    1.31</time>
   <time name="total">    1.33    1.33</time>
   <energy>
    <i name="alphaZ">      5.30851374 </i>
    <i name="ewald">   1885.41486452 </i>
    <i name="hartreedc">  -2495.04838565 </i>
    <i name="XCdc">     14.16999938 </i>
    <i name="pawpsdc">   2127.98270971 </i>
    <i name="pawaedc">  -2095.68440056 </i>
    <i name="eentropy">     -0.00000000 </i>
    <i name="bandstr">   -167.76665217 </i>
    <i name="atom">    704.16778566 </i>
    <i name="e_fr_energy">    -21.45556537 </i>
    <i name="e_wo_entrp">    -21.45556537 </i>
    <i name="e_0_energy">    -21.45556537 </i>
   </energy>
  </scstep>
  <structure>
   <crystal>
    <varray name="basis" >
     <v>       3.29720400       0.00000000       0.00000000 </v>
     <v>       0.00000000       4.57688400      -0.00005300 </v>
     <v>       0.00000000       0.00000000      20.02439000 </v>
    </varray>
    <i name="volume">    302.18647219 </i>
    <varray name="rec_basis" >
     <v>       0.30328727       0.00000000       0.00000000 </v>
     <v>       0.00000000       0.21848926       0.00000000 </v>
     <v>       0.00000000       0.00000058       0.04993910 </v>
    </varray>
   </crystal>
   <varray name="positions" >
    <v>       0.50000000       0.91173405       0.55255336 </v>
    <v>       0.50000000       0.08826595       0.44744664 </v>
    <v>       0.00000000       0.41172983       0.44744664 </v>
    <v>      -0.00000000       0.58827017       0.55255336 </v>
   </varray>
  </structure>
  <varray name="forces" >
   <v>       0.00000003       0.05494347       0.02702298 </v>
   <v>      -0.00000003      -0.05494347      -0.02702298 </v>
   <v>       0.00000000       0.05491402      -0.02702366 </v>
   <v>      -0.00000000      -0.05491402       0.02702366 </v>
  </varray>
  <varray name="stress" >
   <v>       1.37560040      -0.00000018       0.00000056 </v>
   <v>      -0.00000020       2.25040007       0.00030102 </v>
   <v>       0.00000051       0.00030109       0.55050552 </v>
  </varray>
  <energy>
   <i name="e_fr_energy">    -21.45556537 </i>
   <i name="e_wo_entrp">    -21.45556537 </i>
   <i name="e_0_energy">     -0.00000000 </i>
  </energy>
  <time name="totalsc">   10.90   10.92</time>
 </calculation>
 <calculation>
  <scstep>
   <time name="dav">    1.57    1.57</time>
   <time name="total">    1.68    1.68</time>
   <energy>
    <i name="alphaZ">      5.30851374 </i>
    <i name="ewald">   1884.64351197 </i>
    <i name="hartreedc">  -2494.43877125 </i>
    <i name="XCdc">     14.15513660 </i>
    <i name="pawpsdc">   2127.81468696 </i>
    <i name="pawaedc">  -2095.51640399 </i>
    <i name="eentropy">     -0.00000000 </i>
    <i name="bandstr">   -167.59025128 </i>
    <i name="atom">    704.16778566 </i>
    <i name="e_fr_energy">    -21.45579158 </i>
    <i name="e_wo_entrp">    -21.45579158 </i>
    <i name="e_0_energy">    -21.45579158 </i>
   </energy>
  </scstep>
  <scstep>
   <time name="dav">    1.90    1.90</time>
   <time name="total">    2.01    2.01</time>
   <energy>
    <i name="e_fr_energy">    -21.45588815 </i>
    <i name="e_wo_entrp">    -21.45588815 </i>
    <i name="e_0_energy">    -21.45588815 </i>
   </energy>
  </scstep>
  <scstep>
   <time name="dav">    1.65    1.65</time>
   <time name="total">    1.76    1.76</time>
   <energy>
    <i name="e_fr_energy">    -21.45588570 </i>
    <i name="e_wo_entrp">    -21.45588570 </i>
    <i name="e_0_energy">    -21.45588570 </i>
   </energy>
  </scstep>
  <scstep>
   <time name="dav">    1.28    1.28</time>
   <time name="total">    1.39    1.39</time>
   <energy>
    <i name="e_fr_energy">    -21.45588438 </i>
    <i name="e_wo_entrp">    -21.45588438 </i>
    <i name="e_0_energy">    -21.45588438 </i>
   </energy>
  </scstep>
  <scstep>
   <time name="dav">    1.20    1.20</time>
   <time name="total">    1.31    1.31</time>
   <energy>
    <i name="e_fr_energy">    -21.45588452 </i>
    <i name="e_wo_entrp">    -21.45588452 </i>
    <i name="e_0_energy">    -21.45588452 </i>
   </energy>
  </scstep>
  <scstep>
   <time name="dav">    1.13    1.13</time>
   <time name="total">    1.15    1.15</time>
   <energy>
    <i name="alphaZ">      5.30851374 </i>
    <i name="ewald">   1884.64351197 </i>
    <i name="hartreedc">  -2494.44359516 </i>
    <i name="XCdc">     14.15340676 </i>
    <i name="pawpsdc">   2117.74984504 </i>
    <i name="pawaedc">  -2085.44783628 </i>
    <i name="eentropy">     -0.00000000 </i>
    <i name="bandstr">   -167.58751625 </i>
    <i name="atom">    704.16778566 </i>
    <i name="e_fr_energy">    -21.45588452 </i>
    <i name="e_wo_entrp">    -21.45588452 </i>
    <i name="e_0_energy">    -21.45588452 </i>
   </energy>
  </scstep>
  <structure>
   <crystal>
    <varray name="basis" >
     <v>       3.29720400       0.00000000       0.00000000 </v>
     <v>       0.00000000       4.57688400      -0.00005300 </v>
     <v>       0.00000000       0.00000000      20.02439000 </v>
    </varray>
    <i name="volume">    302.18647219 </i>
    <varray name="rec_basis" >
     <v>       0.30328727       0.00000000       0.00000000 </v>
     <v>       0.00000000       0.21848926       0.00000000 </v>
     <v>       0.00000000       0.00000058       0.04993910 </v>
    </varray>
   </crystal>
   <varray name="positions" >
    <v>       0.50000000       0.91232176       0.55257315 </v>
    <v>       0.50000000       0.08767824       0.44742685 </v>
    <v>       0.00000000       0.41231741       0.44742685 </v>
    <v>      -0.00000000       0.58768259       0.55257315 </v>
   </varray>
  </structure>
  <varray name="forces" >
   <v>       0.00000005      -0.00347944       0.02963890 </v>
   <v>      -0.00000005       0.00347944      -0.02963890 </v>
   <v>      -0.00000006      -0.00350538      -0.02963952 </v>
   <v>       0.00000006       0.00350538       0.02963952 </v>
  </varray>
  <varray name="stress" >
   <v>       1.10800347       0.00000258       0.00000110 </v>
   <v>       0.00000262       1.40460570       0.00027402 </v>
   <v>       0.00000105       0.00027407       0.60247066 </v>
  </varray>
  <energy>
   <i name="e_fr_energy">    -21.45588452 </i>
   <i name="e_wo_entrp">    -21.45588452 </i>
   <i name="e_0_energy">     -0.00000000 </i>
  </energy>
  <time name="totalsc">   10.06   10.07</time>
 </calculation>
 <calculation>
  <scstep>
   <time name="dav">    1.46    1.46</time>
   <time name="total">    1.57    1.57</time>
   <energy>
    <i name="alphaZ">      5.30851374 </i>
    <i name="ewald">   1883.71626391 </i>
    <i name="hartreedc">  -2493.57242477 </i>
    <i name="XCdc">     14.14707466 </i>
    <i name="pawpsdc">   2117.63488789 </i>
    <i name="pawaedc">  -2085.33288737 </i>
    <i name="eentropy">     -0.00000000 </i>
    <i name="bandstr">   -167.52516944 </i>
    <i name="atom">    704.16778566 </i>
    <i name="e_fr_energy">    -21.45595572 </i>
    <i name="e_wo_entrp">    -21.45595572 </i>
    <i name="e_0_energy">    -21.45595572 </i>
   </energy>
  </scstep>
  <scstep>
   <time name="dav">    1.77    1.77</time>
   <time name="total">    1.89    1.89</time>
   <energy>
    <i name="e_fr_energy">    -21.45597196 </i>
    <i name="e_wo_entrp">    -21.45597196 </i>
    <i name="e_0_energy">    -21.45597196 </i>
   </energy>
  </scstep>
  <scstep>
   <time name="dav">    1.19    1.19</time>
   <time name="total">    1.30    1.30</time>
   <energy>
    <i name="e_fr_energy">    -21.45597108 </i>
    <i name="e_wo_entrp">    -21.45597108 </i>
    <i name="e_0_energy">    -21.45597108 </i>
   </energy>
  </scstep>
  <scstep>
   <time name="dav">    1.15    1.15</time>
   <time name="total">    1.26    1.26</time>
   <energy>
    <i name="e_fr_energy">    -21.45597088 </i>
    <i name="e_wo_entrp">    -21.45597088 </i>
    <i name="e_0_energy">    -21.45597088 </i>
   </energy>
  </scstep>
  <scstep>
   <time name="dav">    1.16    1.16</time>
   <time name="total">    1.27    1.27</time>
   <energy>
    <i name="e_fr_energy">    -21.45597095 </i>
    <i name="e_wo_entrp">    -21.45597095 </i>
    <i name="e_0_energy">    -21.45597095 </i>
   </energy>
  </scstep>
  <scstep>
   <time name="dav">    1.16    1.16</time>
   <time name="total">    1.18    1.18</time>
   <energy>
    <i name="alphaZ">      5.30851374 </i>
    <i name="ewald">   1883.71626391 </i>
    <i name="hartreedc">  -2493.57790516 </i>
    <i name="XCdc">     14.14666807 </i>
    <i name="pawpsdc">   2114.34183254 </i>
    <i name="pawaedc">  -2082.03874370 </i>
    <i name="eentropy">     -0.00000000 </i>
    <i name="bandstr">   -167.52038603 </i>
    <i name="atom">    704.16778566 </i>
    <i name="e_fr_energy">    -21.45597096 </i>
    <i name="e_wo_entrp">    -21.45597096 </i>
    <i name="e_0_energy">    -21.45597096 </i>
   </energy>
  </scstep>
  <structure>
   <crystal>
    <varray name="basis" >
     <v>       3.29720400       0.00000000       0.00000000 </v>
     <v>       0.00000000       4.57688400      -0.00005300 </v>
     <v>       0.00000000       0.00000000      20.02439000 </v>
    </varray>
    <i name="volume">    302.18647219 </i>
    <varray name="rec_basis" >
     <v>       0.30328727       0.00000000       0.00000000 </v>
     <v>       0.00000000       0.21848926       0.00000000 </v>
     <v>       0.00000000       0.00000058       0.04993910 </v>
    </varray>
   </crystal>
   <varray name="positions" >
    <v>       0.50000000       0.91233172       0.55262240 </v>
    <v>       0.50000000       0.08766828       0.44737760 </v>
    <v>       0.00000000       0.41232717       0.44737760 </v>
    <v>      -0.00000000       0.58767283       0.55262240 </v>
   </varray>
  </structure>
  <varray name="forces" >
   <v>       0.00000005      -0.00126678       0.01483843 </v>
   <v>      -0.00000005       0.00126678      -0.01483843 </v>
   <v>      -0.00000001      -0.00128729      -0.01483885 </v>
   <v>       0.00000001       0.00128729       0.01483885 </v>
  </varray>
  <varray name="stress" >
   <v>       1.08102818       0.00000019       0.00000100 </v>
   <v>       0.00000022       1.33775137       0.00021554 </v>
   <v>       0.00000095       0.00021562       0.26594481 </v>
  </varray>
  <energy>
   <i name="e_fr_energy">    -21.45597096 </i>
   <i name="e_wo_entrp">    -21.45597096 </i>
   <i name="e_0_energy">     -0.00000000 </i>
  </energy>
  <time name="totalsc">    9.24    9.25</time>
 </calculation>
 <calculation>
  <scstep>
   <time name="dav">    1.44    1.44</time>
   <time name="total">    1.55    1.55</time>
   <energy>
    <i name="alphaZ">      5.30851374 </i>
    <i name="ewald">   1882.78412312 </i>
    <i name="hartreedc">  -2492.70160468 </i>
    <i name="XCdc">     14.14033911 </i>
    <i name="pawpsdc">   2114.27609267 </i>
    <i name="pawaedc">  -2081.97302033 </i>
    <i name="eentropy">     -0.00000000 </i>
    <i name="bandstr">   -167.45821396 </i>
    <i name="atom">    704.16778566 </i>
    <i name="e_fr_energy">    -21.45598466 </i>
    <i name="e_wo_entrp">    -21.45598466 </i>
    <i name="e_0_energy">    -21.45598466 </i>
   </energy>
  </scstep>
  <scstep>
   <time name="dav">    1.80    1.80</time>
   <time name="total">    1.91    1.91</time>
   <energy>
    <i name="e_fr_energy">    -21.45600122 </i>
    <i name="e_wo_entrp">    -21.45600122 </i>
    <i name="e_0_energy">    -21.45600122 </i>
   </energy>
  </scstep>
  <scstep>
   <time name="dav">    1.25    1.25</time>
   <time name="total">    1.36    1.36</time>
   <energy>
    <i name="e_fr_energy">    -21.45600036 </i>
    <i name="e_wo_entrp">    -21.45600036 </i>
    <i name="e_0_energy">    -21.45600036 </i>
   </energy>
  </scstep>
  <scstep>
   <time name="dav">    1.14    1.14</time>
   <time name="total">    1.25    1.25</time>
   <energy>
    <i name="e_fr_energy">    -21.45600016 </i>
    <i name="e_wo_entrp">    -21.45600016 </i>
    <i name="e_0_energy">    -21.45600016 </i>
   </energy>
  </scstep>
  <scstep>
   <time name="dav">    1.16    1.16</time>
   <time name="total">    1.27    1.27</time>
   <energy>
    <i name="e_fr_energy">    -21.45600020 </i>
    <i name="e_wo_entrp">    -21.45600020 </i>
    <i name="e_0_energy">    -21.45600020 </i>
   </energy>
  </scstep>
  <scstep>
   <time name="dav">    1.08    1.08</time>
   <time name="total">    1.10    1.10</time>
   <energy>
    <i name="alphaZ">      5.30851374 </i>
    <i name="ewald">   1882.78412312 </i>
    <i name="hartreedc">  -2492.70328358 </i>
    <i name="XCdc">     14.13990596 </i>
    <i name="pawpsdc">   2111.13087625 </i>
    <i name="pawaedc">  -2078.82670766 </i>
    <i name="eentropy">     -0.00000000 </i>
    <i name="bandstr">   -167.45721370 </i>
    <i name="atom">    704.16778566 </i>
    <i name="e_fr_energy">    -21.45600020 </i>
    <i name="e_wo_entrp">    -21.45600020 </i>
    <i name="e_0_energy">    -21.45600020 </i>
   </energy>
  </scstep>
  <structure>
   <crystal>
    <varray name="basis" >
     <v>       3.29720400       0.00000000       0.00000000 </v>
     <v>       0.00000000       4.57688400      -0.00005300 </v>
     <v>       0.00000000       0.00000000      20.02439000 </v>
    </varray>
    <i name="volume">    302.18647219 </i>
    <varray name="rec_basis" >
     <v>       0.30328727       0.00000000       0.00000000 </v>
     <v>       0.00000000       0.21848926       0.00000000 </v>
     <v>       0.00000000       0.00000058       0.04993910 </v>
    </varray>
   </crystal>
   <varray name="positions" >
    <v>       0.50000000       0.91234173       0.55267193 </v>
    <v>       0.50000000       0.08765827       0.44732807 </v>
    <v>       0.00000000       0.41233699       0.44732808 </v>
    <v>      -0.00000000       0.58766301       0.55267192 </v>
   </varray>
  </structure>
  <varray name="forces" >
   <v>       0.00000004       0.00079987       0.00024600 </v>
   <v>      -0.00000004      -0.00079987      -0.00024600 </v>
   <v>      -0.00000001       0.00078469      -0.00024631 </v>
   <v>       0.00000001      -0.00078469       0.00024631 </v>
  </varray>
  <varray name="stress" >
   <v>       1.04891879       0.00000042       0.00000077 </v>
   <v>       0.00000038       1.27113869       0.00015697 </v>
   <v>       0.00000085       0.00015706      -0.06156356 </v>
  </varray>
  <energy>
   <i name="e_fr_energy">    -21.45600020 </i>
   <i name="e_wo_entrp">    -21.45600020 </i>
   <i name="e_0_energy">     -0.00000000 </i>
  </energy>
  <time name="totalsc">    9.14    9.16</time>
  <eigenvalues>
   <array>
    <dimension dim="1">band</dimension>
    <dimension dim="2">kpoint</dimension>
    <dimension dim="3">spin</dimension>
    <field>eigene</field>
    <field>occ</field>
    <set>
     <set comment="spin 1">
      <set comment="kpoint 1">
       <r>  -17.2263    1.0000 </r>
       <r>  -14.7359    1.0000 </r>
       <r>  -11.3559    1.0000 </r>
       <r>   -7.9163    1.0000 </r>
       <r>   -6.8961    1.0000 </r>
       <r>   -6.7625    1.0000 </r>
       <r>   -5.5739    1.0000 </r>
       <r>   -3.9734    1.0000 </r>
       <r>   -3.9311    1.0000 </r>
       <r>   -2.2290    1.0000 </r>
       <r>   -1.3694    0.0000 </r>
       <r>   -0.5947    0.0000 </r>
       <r>    0.4698    0.0000 </r>
       <r>    1.1284    0.0000 </r>
       <r>    2.1696    0.0000 </r>
       <r>    2.3081    0.0000 </r>
      </set>
      <set comment="kpoint 2">
       <r>  -17.1992    1.0000 </r>
       <r>  -14.7077    1.0000 </r>
       <r>  -11.3661    1.0000 </r>
       <r>   -7.8955    1.0000 </r>
       <r>   -6.9155    1.0000 </r>
       <r>   -6.7386    1.0000 </r>
       <r>   -5.7473    1.0000 </r>
       <r>   -4.1551    1.0000 </r>
       <r>   -3.9192    1.0000 </r>
       <r>   -2.2286    1.0000 </r>
       <r>   -1.3438    0.0000 </r>
       <r>   -0.3527    0.0000 </r>
       <r>    0.7103    0.0000 </r>
       <r>    0.9605    0.0000 </r>
       <r>    2.1979    0.0000 </r>
       <r>    2.3385    0.0000 </r>
      </set>
      <set comment="kpoint 3">
       <r>  -17.1181    1.0000 </r>
       <r>  -14.6230    1.0000 </r>
       <r>  -11.4023    1.0000 </r>
       <r>   -7.8338    1.0000 </r>
       <r>   -6.9942    1.0000 </r>
       <r>   -6.6671    1.0000 </r>
       <r>   -6.1698    1.0000 </r>
       <r>   -4.5728    1.0000 </r>
       <r>   -3.8869    1.0000 </r>
       <r>   -2.2481    1.0000 </r>
       <r>   -1.2675    0.0000 </r>
       <r>    0.2970    0.0000 </r>
       <r>    0.5437    0.0000 </r>
       <r>    1.2993    0.0000 </r>
       <r>    2.2791    0.0000 </r>
       <r>    2.4290    0.0000 </r>
      </set>
      <set comment="kpoint 4">
       <r>  -16.9833    1.0000 </r>
       <r>  -14.4821    1.0000 </r>
       <r>  -11.4813    1.0000 </r>
       <r>   -7.7335    1.0000 </r>
       <r>   -7.1953    1.0000 </r>
       <r>   -6.6711    1.0000 </r>
       <r>   -6.5494    1.0000 </r>
       <r>   -4.9946    1.0000 </r>
       <r>   -3.8453    1.0000 </r>
       <r>   -2.3099    1.0000 </r>
       <r>   -1.1414    0.0000 </r>
       <r>    0.0275    0.0000 </r>
       <r>    1.2063    0.0000 </r>
       <r>    1.9165    0.0000 </r>
       <r>    2.3679    0.0000 </r>
       <r>    2.5790    0.0000 </r>
      </set>
      <set comment="kpoint 5">
       <r>  -16.7956    1.0000 </r>
       <r>  -14.2853    1.0000 </r>
       <r>  -11.6288    1.0000 </r>
       <r>   -7.5992    1.0000 </r>
       <r>   -7.5867    1.0000 </r>
       <r>   -7.1260    1.0000 </r>
       <r>   -6.3878    1.0000 </r>
       <r>   -5.2515    1.0000 </r>
       <r>   -3.8162    1.0000 </r>
       <r>   -2.4251    1.0000 </r>
       <r>   -0.9681    0.0000 </r>
       <r>   -0.4735    0.0000 </r>
       <r>    1.8988    0.0000 </r>
       <r>    2.0338    0.0000 </r>
       <r>    2.2255    0.0000 </r>
       <r>    2.7247    0.0000 </r>
      </set>
      <set comment="kpoint 6">
       <r>  -16.5557    1.0000 </r>
       <r>  -14.0330    1.0000 </r>
       <r>  -11.8698    1.0000 </r>
       <r>   -8.1501    1.0000 </r>
       <r>   -7.4588    1.0000 </r>
       <r>   -7.4388    1.0000 </r>
       <r>   -6.1865    1.0000 </r>
       <r>   -5.3162    1.0000 </r>
       <r>   -3.8333    1.0000 </r>
       <r>   -2.6018    1.0000 </r>
       <r>   -0.8711    0.0000 </r>
       <r>   -0.7534    0.0000 </r>
       <r>    1.3124    0.0000 </r>
       <r>    1.4534    0.0000 </r>
       <r>    2.6149    0.0000 </r>
       <r>    2.9732    0.0000 </r>
      </set>
      <set comment="kpoint 7">
       <r>  -16.2651    1.0000 </r>
       <r>  -13.7257    1.0000 </r>
       <r>  -12.2134    1.0000 </r>
       <r>   -8.8037    1.0000 </r>
       <r>   -7.6367    1.0000 </r>
       <r>   -7.2658    1.0000 </r>
       <r>   -5.9519    1.0000 </r>
       <r>   -5.2544    1.0000 </r>
       <r>   -3.9282    1.0000 </r>
       <r>   -2.8425    1.0000 </r>
       <r>   -1.0957    0.0000 </r>
       <r>   -0.5150    0.0000 </r>
       <r>    0.6605    0.0000 </r>
       <r>    0.8972    0.0000 </r>
       <r>    2.1514    0.0000 </r>
       <r>    3.3014    0.0000 </r>
      </set>
      <set comment="kpoint 8">
       <r>  -15.9258    1.0000 </r>
       <r>  -13.3642    1.0000 </r>
       <r>  -12.6441    1.0000 </r>
       <r>   -9.4833    1.0000 </r>
       <r>   -7.6659    1.0000 </r>
       <r>   -7.1037    1.0000 </r>
       <r>   -5.6944    1.0000 </r>
       <r>   -5.1325    1.0000 </r>
       <r>   -4.0928    1.0000 </r>
       <r>   -3.1374    1.0000 </r>
       <r>   -1.1195    0.0000 </r>
       <r>   -0.3348    0.0000 </r>
       <r>    0.0610    0.0000 </r>
       <r>    0.4881    0.0000 </r>
       <r>    1.6373    0.0000 </r>
       <r>    3.0479    0.0000 </r>
      </set>
      <set comment="kpoint 9">
       <r>  -15.5403    1.0000 </r>
       <r>  -13.1310    1.0000 </r>
       <r>  -12.9497    1.0000 </r>
       <r>  -10.1540    1.0000 </r>
       <r>   -7.5777    1.0000 </r>
       <r>   -6.9890    1.0000 </r>
       <r>   -5.4308    1.0000 </r>
       <r>   -5.0018    1.0000 </r>
       <r>   -4.2597    1.0000 </r>
       <r>   -3.4647    1.0000 </r>
       <r>   -0.9673    0.0000 </r>
       <r>   -0.4548    0.0000 </r>
       <r>   -0.4376    0.0000 </r>
       <r>    0.4958    0.0000 </r>
       <r>    1.1218    0.0000 </r>
       <r>    2.6258    0.0000 </r>
      </set>
      <set comment="kpoint 10">
       <r>  -15.1124    1.0000 </r>
       <r>  -13.6424    1.0000 </r>
       <r>  -12.4835    1.0000 </r>
       <r>  -10.7976    1.0000 </r>
       <r>   -7.4134    1.0000 </r>
       <r>   -6.9650    1.0000 </r>
       <r>   -5.1871    1.0000 </r>
       <r>   -4.9105    1.0000 </r>
       <r>   -4.3391    1.0000 </r>
       <r>   -3.7918    1.0000 </r>
       <r>   -0.7925    0.0000 </r>
       <r>   -0.7396    0.0000 </r>
       <r>   -0.6844    0.0000 </r>
       <r>    0.6143    0.0000 </r>
       <r>    0.8152    0.0000 </r>
       <r>    2.1599    0.0000 </r>
      </set>
      <set comment="kpoint 11">
       <r>  -14.6476    1.0000 </r>
       <r>  -14.1537    1.0000 </r>
       <r>  -11.9674    1.0000 </r>
       <r>  -11.4041    1.0000 </r>
       <r>   -7.2199    1.0000 </r>
       <r>   -7.0516    1.0000 </r>
       <r>   -4.9989    1.0000 </r>
       <r>   -4.9022    1.0000 </r>
       <r>   -4.2759    1.0000 </r>
       <r>   -4.0783    1.0000 </r>
       <r>   -0.9644    0.0000 </r>
       <r>   -0.9377    0.0000 </r>
       <r>   -0.3092    0.0000 </r>
       <r>    0.1309    0.0000 </r>
       <r>    1.2299    0.0000 </r>
       <r>    1.6862    0.0000 </r>
      </set>
      <set comment="kpoint 12">
       <r>  -17.2042    1.0000 </r>
       <r>  -14.7648    1.0000 </r>
       <r>  -11.3701    1.0000 </r>
       <r>   -8.0653    1.0000 </r>
       <r>   -6.8150    1.0000 </r>
       <r>   -6.6647    1.0000 </r>
       <r>   -5.5569    1.0000 </r>
       <r>   -3.9881    1.0000 </r>
       <r>   -3.8265    1.0000 </r>
       <r>   -2.4366    1.0000 </r>
       <r>   -1.1782    0.0000 </r>
       <r>   -0.5776    0.0000 </r>
       <r>    0.4237    0.0000 </r>
       <r>    1.1099    0.0000 </r>
       <r>    2.2297    0.0000 </r>
       <r>    2.3392    0.0000 </r>
      </set>
      <set comment="kpoint 13">
       <r>  -17.1772    1.0000 </r>
       <r>  -14.7367    1.0000 </r>
       <r>  -11.3788    1.0000 </r>
       <r>   -8.0482    1.0000 </r>
       <r>   -6.8281    1.0000 </r>
       <r>   -6.6504    1.0000 </r>
       <r>   -5.7213    1.0000 </r>
       <r>   -4.1794    1.0000 </r>
       <r>   -3.8117    1.0000 </r>
       <r>   -2.4320    1.0000 </r>
       <r>   -1.1570    0.0000 </r>
       <r>   -0.3359    0.0000 </r>
       <r>    0.6551    0.0000 </r>
       <r>    0.9557    0.0000 </r>
       <r>    2.2566    0.0000 </r>
       <r>    2.3694    0.0000 </r>
      </set>
      <set comment="kpoint 14">
       <r>  -17.0961    1.0000 </r>
       <r>  -14.6526    1.0000 </r>
       <r>  -11.4103    1.0000 </r>
       <r>   -8.0005    1.0000 </r>
       <r>   -6.8851    1.0000 </r>
       <r>   -6.6339    1.0000 </r>
       <r>   -6.0921    1.0000 </r>
       <r>   -4.6092    1.0000 </r>
       <r>   -3.7860    1.0000 </r>
       <r>   -2.4347    1.0000 </r>
       <r>   -1.0976    0.0000 </r>
       <r>    0.3131    0.0000 </r>
       <r>    0.5209    0.0000 </r>
       <r>    1.2782    0.0000 </r>
       <r>    2.3337    0.0000 </r>
       <r>    2.4597    0.0000 </r>
      </set>
      <set comment="kpoint 15">
       <r>  -16.9615    1.0000 </r>
       <r>  -14.5128    1.0000 </r>
       <r>  -11.4815    1.0000 </r>
       <r>   -7.9403    1.0000 </r>
       <r>   -7.0357    1.0000 </r>
       <r>   -6.8180    1.0000 </r>
       <r>   -6.2990    1.0000 </r>
       <r>   -5.0430    1.0000 </r>
       <r>   -3.7611    1.0000 </r>
       <r>   -2.4675    1.0000 </r>
       <r>   -0.9991    0.0000 </r>
       <r>    0.0272    0.0000 </r>
       <r>    1.2171    0.0000 </r>
       <r>    1.9174    0.0000 </r>
       <r>    2.3890    0.0000 </r>
       <r>    2.6097    0.0000 </r>
      </set>
      <set comment="kpoint 16">
       <r>  -16.7739    1.0000 </r>
       <r>  -14.3177    1.0000 </r>
       <r>  -11.6183    1.0000 </r>
       <r>   -7.9513    1.0000 </r>
       <r>   -7.2761    1.0000 </r>
       <r>   -7.2129    1.0000 </r>
       <r>   -6.2090    1.0000 </r>
       <r>   -5.3054    1.0000 </r>
       <r>   -3.7592    1.0000 </r>
       <r>   -2.5475    1.0000 </r>
       <r>   -0.8579    0.0000 </r>
       <r>   -0.4434    0.0000 </r>
       <r>    1.8279    0.0000 </r>
       <r>    1.9767    0.0000 </r>
       <r>    2.3104    0.0000 </r>
       <r>    2.6851    0.0000 </r>
      </set>
      <set comment="kpoint 17">
       <r>  -16.5343    1.0000 </r>
       <r>  -14.0686    1.0000 </r>
       <r>  -11.8469    1.0000 </r>
       <r>   -8.2746    1.0000 </r>
       <r>   -7.5344    1.0000 </r>
       <r>   -7.3563    1.0000 </r>
       <r>   -6.0339    1.0000 </r>
       <r>   -5.3694    1.0000 </r>
       <r>   -3.8124    1.0000 </r>
       <r>   -2.6891    1.0000 </r>
       <r>   -0.8003    0.0000 </r>
       <r>   -0.6747    0.0000 </r>
       <r>    1.2582    0.0000 </r>
       <r>    1.4195    0.0000 </r>
       <r>    2.6749    0.0000 </r>
       <r>    3.0791    0.0000 </r>
      </set>
      <set comment="kpoint 18">
       <r>  -16.2441    1.0000 </r>
       <r>  -13.7681    1.0000 </r>
       <r>  -12.1760    1.0000 </r>
       <r>   -8.8606    1.0000 </r>
       <r>   -7.7086    1.0000 </r>
       <r>   -7.2508    1.0000 </r>
       <r>   -5.8206    1.0000 </r>
       <r>   -5.3119    1.0000 </r>
       <r>   -3.9392    1.0000 </r>
       <r>   -2.8977    1.0000 </r>
       <r>   -0.9828    0.0000 </r>
       <r>   -0.4642    0.0000 </r>
       <r>    0.7042    0.0000 </r>
       <r>    0.7722    0.0000 </r>
       <r>    2.3354    0.0000 </r>
       <r>    3.2881    0.0000 </r>
      </set>
      <set comment="kpoint 19">
       <r>  -15.9054    1.0000 </r>
       <r>  -13.4282    1.0000 </r>
       <r>  -12.5804    1.0000 </r>
       <r>   -9.5181    1.0000 </r>
       <r>   -7.7336    1.0000 </r>
       <r>   -7.1067    1.0000 </r>
       <r>   -5.5898    1.0000 </r>
       <r>   -5.2114    1.0000 </r>
       <r>   -4.1068    1.0000 </r>
       <r>   -3.1629    1.0000 </r>
       <r>   -0.9798    0.0000 </r>
       <r>   -0.3259    0.0000 </r>
       <r>    0.1707    0.0000 </r>
       <r>    0.3183    0.0000 </r>
       <r>    1.8723    0.0000 </r>
       <r>    2.9956    0.0000 </r>
      </set>
      <set comment="kpoint 20">
       <r>  -15.5208    1.0000 </r>
       <r>  -13.2374    1.0000 </r>
       <r>  -12.8410    1.0000 </r>
       <r>  -10.1789    1.0000 </r>
       <r>   -7.6384    1.0000 </r>
       <r>   -6.9958    1.0000 </r>
       <r>   -5.3665    1.0000 </r>
       <r>   -5.1322    1.0000 </r>
       <r>   -4.2259    1.0000 </r>
       <r>   -3.4575    1.0000 </r>
       <r>   -0.8416    0.0000 </r>
       <r>   -0.5250    0.0000 </r>
       <r>   -0.3152    0.0000 </r>
       <r>    0.3816    0.0000 </r>
       <r>    1.3975    0.0000 </r>
       <r>    2.5828    0.0000 </r>
      </set>
      <set comment="kpoint 21">
       <r>  -15.0945    1.0000 </r>
       <r>  -13.6476    1.0000 </r>
       <r>  -12.4753    1.0000 </r>
       <r>  -10.8166    1.0000 </r>
       <r>   -7.4638    1.0000 </r>
       <r>   -6.9757    1.0000 </r>
       <r>   -5.1866    1.0000 </r>
       <r>   -5.0973    1.0000 </r>
       <r>   -4.2278    1.0000 </r>
       <r>   -3.7418    1.0000 </r>
       <r>   -0.8387    0.0000 </r>
       <r>   -0.8223    0.0000 </r>
       <r>   -0.4149    0.0000 </r>
       <r>    0.5847    0.0000 </r>
       <r>    1.0350    0.0000 </r>
       <r>    2.1264    0.0000 </r>
      </set>
      <set comment="kpoint 22">
       <r>  -14.6324    1.0000 </r>
       <r>  -14.1440    1.0000 </r>
       <r>  -11.9745    1.0000 </r>
       <r>  -11.4180    1.0000 </r>
       <r>   -7.2566    1.0000 </r>
       <r>   -7.0732    1.0000 </r>
       <r>   -5.0893    1.0000 </r>
       <r>   -5.0769    1.0000 </r>
       <r>   -4.1344    1.0000 </r>
       <r>   -3.9738    1.0000 </r>
       <r>   -1.0023    0.0000 </r>
       <r>   -1.0022    0.0000 </r>
       <r>   -0.0910    0.0000 </r>
       <r>    0.3132    0.0000 </r>
       <r>    1.2424    0.0000 </r>
       <r>    1.6667    0.0000 </r>
      </set>
      <set comment="kpoint 23">
       <r>  -14.6324    1.0000 </r>
       <r>  -14.1440    1.0000 </r>
       <r>  -11.9745    1.0000 </r>
       <r>  -11.4180    1.0000 </r>
       <r>   -7.2566    1.0000 </r>
       <r>   -7.0732    1.0000 </r>
       <r>   -5.0893    1.0000 </r>
       <r>   -5.0769    1.0000 </r>
       <r>   -4.1344    1.0000 </r>
       <r>   -3.9738    1.0000 </r>
       <r>   -1.0023    0.0000 </r>
       <r>   -1.0022    0.0000 </r>
       <r>   -0.0910    0.0000 </r>
       <r>    0.3132    0.0000 </r>
       <r>    1.2424    0.0000 </r>
       <r>    1.6667    0.0000 </r>
      </set>
      <set comment="kpoint 24">
       <r>  -15.0945    1.0000 </r>
       <r>  -13.6476    1.0000 </r>
       <r>  -12.4753    1.0000 </r>
       <r>  -10.8166    1.0000 </r>
       <r>   -7.4638    1.0000 </r>
       <r>   -6.9757    1.0000 </r>
       <r>   -5.1866    1.0000 </r>
       <r>   -5.0973    1.0000 </r>
       <r>   -4.2278    1.0000 </r>
       <r>   -3.7418    1.0000 </r>
       <r>   -0.8387    0.0000 </r>
       <r>   -0.8223    0.0000 </r>
       <r>   -0.4149    0.0000 </r>
       <r>    0.5847    0.0000 </r>
       <r>    1.0350    0.0000 </r>
       <r>    2.1264    0.0000 </r>
      </set>
      <set comment="kpoint 25">
       <r>  -15.5208    1.0000 </r>
       <r>  -13.2374    1.0000 </r>
       <r>  -12.8410    1.0000 </r>
       <r>  -10.1789    1.0000 </r>
       <r>   -7.6384    1.0000 </r>
       <r>   -6.9958    1.0000 </r>
       <r>   -5.3665    1.0000 </r>
       <r>   -5.1322    1.0000 </r>
       <r>   -4.2259    1.0000 </r>
       <r>   -3.4575    1.0000 </r>
       <r>   -0.8416    0.0000 </r>
       <r>   -0.5250    0.0000 </r>
       <r>   -0.3152    0.0000 </r>
       <r>    0.3816    0.0000 </r>
       <r>    1.3975    0.0000 </r>
       <r>    2.5828    0.0000 </r>
      </set>
      <set comment="kpoint 26">
       <r>  -15.9054    1.0000 </r>
       <r>  -13.4282    1.0000 </r>
       <r>  -12.5804    1.0000 </r>
       <r>   -9.5181    1.0000 </r>
       <r>   -7.7336    1.0000 </r>
       <r>   -7.1067    1.0000 </r>
       <r>   -5.5898    1.0000 </r>
       <r>   -5.2114    1.0000 </r>
       <r>   -4.1068    1.0000 </r>
       <r>   -3.1629    1.0000 </r>
       <r>   -0.9798    0.0000 </r>
       <r>   -0.3259    0.0000 </r>
       <r>    0.1707    0.0000 </r>
       <r>    0.3183    0.0000 </r>
       <r>    1.8723    0.0000 </r>
       <r>    2.9956    0.0000 </r>
      </set>
      <set comment="kpoint 27">
       <r>  -16.2441    1.0000 </r>
       <r>  -13.7681    1.0000 </r>
       <r>  -12.1760    1.0000 </r>
       <r>   -8.8606    1.0000 </r>
       <r>   -7.7086    1.0000 </r>
       <r>   -7.2508    1.0000 </r>
       <r>   -5.8206    1.0000 </r>
       <r>   -5.3119    1.0000 </r>
       <r>   -3.9392    1.0000 </r>
       <r>   -2.8977    1.0000 </r>
       <r>   -0.9828    0.0000 </r>
       <r>   -0.4642    0.0000 </r>
       <r>    0.7042    0.0000 </r>
       <r>    0.7722    0.0000 </r>
       <r>    2.3354    0.0000 </r>
       <r>    3.2876    0.0000 </r>
      </set>
      <set comment="kpoint 28">
       <r>  -16.5343    1.0000 </r>
       <r>  -14.0686    1.0000 </r>
       <r>  -11.8469    1.0000 </r>
       <r>   -8.2746    1.0000 </r>
       <r>   -7.5344    1.0000 </r>
       <r>   -7.3563    1.0000 </r>
       <r>   -6.0339    1.0000 </r>
       <r>   -5.3694    1.0000 </r>
       <r>   -3.8124    1.0000 </r>
       <r>   -2.6891    1.0000 </r>
       <r>   -0.8003    0.0000 </r>
       <r>   -0.6747    0.0000 </r>
       <r>    1.2582    0.0000 </r>
       <r>    1.4195    0.0000 </r>
       <r>    2.6749    0.0000 </r>
       <r>    3.0791    0.0000 </r>
      </set>
      <set comment="kpoint 29">
       <r>  -16.7739    1.0000 </r>
       <r>  -14.3177    1.0000 </r>
       <r>  -11.6183    1.0000 </r>
       <r>   -7.9513    1.0000 </r>
       <r>   -7.2761    1.0000 </r>
       <r>   -7.2129    1.0000 </r>
       <r>   -6.2090    1.0000 </r>
       <r>   -5.3054    1.0000 </r>
       <r>   -3.7592    1.0000 </r>
       <r>   -2.5475    1.0000 </r>
       <r>   -0.8579    0.0000 </r>
       <r>   -0.4434    0.0000 </r>
       <r>    1.8279    0.0000 </r>
       <r>    1.9767    0.0000 </r>
       <r>    2.3104    0.0000 </r>
       <r>    2.6851    0.0000 </r>
      </set>
      <set comment="kpoint 30">
       <r>  -16.9615    1.0000 </r>
       <r>  -14.5128    1.0000 </r>
       <r>  -11.4815    1.0000 </r>
       <r>   -7.9403    1.0000 </r>
       <r>   -7.0357    1.0000 </r>
       <r>   -6.8180    1.0000 </r>
       <r>   -6.2990    1.0000 </r>
       <r>   -5.0430    1.0000 </r>
       <r>   -3.7611    1.0000 </r>
       <r>   -2.4675    1.0000 </r>
       <r>   -0.9991    0.0000 </r>
       <r>    0.0272    0.0000 </r>
       <r>    1.2171    0.0000 </r>
       <r>    1.9174    0.0000 </r>
       <r>    2.3890    0.0000 </r>
       <r>    2.6092    0.0000 </r>
      </set>
      <set comment="kpoint 31">
       <r>  -17.0961    1.0000 </r>
       <r>  -14.6526    1.0000 </r>
       <r>  -11.4103    1.0000 </r>
       <r>   -8.0005    1.0000 </r>
       <r>   -6.8851    1.0000 </r>
       <r>   -6.6339    1.0000 </r>
       <r>   -6.0921    1.0000 </r>
       <r>   -4.6092    1.0000 </r>
       <r>   -3.7860    1.0000 </r>
       <r>   -2.4347    1.0000 </r>
       <r>   -1.0976    0.0000 </r>
       <r>    0.3131    0.0000 </r>
       <r>    0.5209    0.0000 </r>
       <r>    1.2782    0.0000 </r>
       <r>    2.3337    0.0000 </r>
       <r>    2.4597    0.0000 </r>
      </set>
      <set comment="kpoint 32">
       <r>  -17.1772    1.0000 </r>
       <r>  -14.7367    1.0000 </r>
       <r>  -11.3788    1.0000 </r>
       <r>   -8.0482    1.0000 </r>
       <r>   -6.8281    1.0000 </r>
       <r>   -6.6504    1.0000 </r>
       <r>   -5.7213    1.0000 </r>
       <r>   -4.1794    1.0000 </r>
       <r>   -3.8117    1.0000 </r>
       <r>   -2.4320    1.0000 </r>
       <r>   -1.1570    0.0000 </r>
       <r>   -0.3359    0.0000 </r>
       <r>    0.6551    0.0000 </r>
       <r>    0.9557    0.0000 </r>
       <r>    2.2566    0.0000 </r>
       <r>    2.3694    0.0000 </r>
      </set>
      <set comment="kpoint 33">
       <r>  -17.1385    1.0000 </r>
       <r>  -14.8520    1.0000 </r>
       <r>  -11.3977    1.0000 </r>
       <r>   -8.4129    1.0000 </r>
       <r>   -6.6445    1.0000 </r>
       <r>   -6.3871    1.0000 </r>
       <r>   -5.5064    1.0000 </r>
       <r>   -4.0328    1.0000 </r>
       <r>   -3.5479    1.0000 </r>
       <r>   -2.8410    1.0000 </r>
       <r>   -0.8179    0.0000 </r>
       <r>   -0.5252    0.0000 </r>
       <r>    0.2887    0.0000 </r>
       <r>    1.0649    0.0000 </r>
       <r>    2.4013    0.0000 </r>
       <r>    2.4317    0.0000 </r>
      </set>
      <set comment="kpoint 34">
       <r>  -17.1115    1.0000 </r>
       <r>  -14.8244    1.0000 </r>
       <r>  -11.4025    1.0000 </r>
       <r>   -8.3994    1.0000 </r>
       <r>   -6.6482    1.0000 </r>
       <r>   -6.4082    1.0000 </r>
       <r>   -5.6370    1.0000 </r>
       <r>   -4.2354    1.0000 </r>
       <r>   -3.5403    1.0000 </r>
       <r>   -2.8325    1.0000 </r>
       <r>   -0.8029    0.0000 </r>
       <r>   -0.2832    0.0000 </r>
       <r>    0.5116    0.0000 </r>
       <r>    0.9363    0.0000 </r>
       <r>    2.4245    0.0000 </r>
       <r>    2.4616    0.0000 </r>
      </set>
      <set comment="kpoint 35">
       <r>  -17.0307    1.0000 </r>
       <r>  -14.7417    1.0000 </r>
       <r>  -11.4222    1.0000 </r>
       <r>   -8.3637    1.0000 </r>
       <r>   -6.6748    1.0000 </r>
       <r>   -6.5503    1.0000 </r>
       <r>   -5.8576    1.0000 </r>
       <r>   -4.6943    1.0000 </r>
       <r>   -3.5379    1.0000 </r>
       <r>   -2.8180    1.0000 </r>
       <r>   -0.7613    0.0000 </r>
       <r>    0.3625    0.0000 </r>
       <r>    0.4804    0.0000 </r>
       <r>    1.2073    0.0000 </r>
       <r>    2.4907    0.0000 </r>
       <r>    2.5510    0.0000 </r>
      </set>
      <set comment="kpoint 36">
       <r>  -16.8964    1.0000 </r>
       <r>  -14.6045    1.0000 </r>
       <r>  -11.4733    1.0000 </r>
       <r>   -8.3261    1.0000 </r>
       <r>   -6.9163    1.0000 </r>
       <r>   -6.7778    1.0000 </r>
       <r>   -5.9025    1.0000 </r>
       <r>   -5.1594    1.0000 </r>
       <r>   -3.5611    1.0000 </r>
       <r>   -2.8150    1.0000 </r>
       <r>   -0.6931    0.0000 </r>
       <r>    0.0581    0.0000 </r>
       <r>    1.2426    0.0000 </r>
       <r>    1.8927    0.0000 </r>
       <r>    2.1748    0.0000 </r>
       <r>    2.5977    0.0000 </r>
      </set>
      <set comment="kpoint 37">
       <r>  -16.7093    1.0000 </r>
       <r>  -14.4141    1.0000 </r>
       <r>  -11.5822    1.0000 </r>
       <r>   -8.3457    1.0000 </r>
       <r>   -7.3422    1.0000 </r>
       <r>   -7.0010    1.0000 </r>
       <r>   -5.8143    1.0000 </r>
       <r>   -5.4333    1.0000 </r>
       <r>   -3.6338    1.0000 </r>
       <r>   -2.8410    1.0000 </r>
       <r>   -0.5967    0.0000 </r>
       <r>   -0.3247    0.0000 </r>
       <r>    1.4443    0.0000 </r>
       <r>    2.1555    0.0000 </r>
       <r>    2.4065    0.0000 </r>
       <r>    2.7117    0.0000 </r>
      </set>
      <set comment="kpoint 38">
       <r>  -16.4705    1.0000 </r>
       <r>  -14.1729    1.0000 </r>
       <r>  -11.7776    1.0000 </r>
       <r>   -8.5553    1.0000 </r>
       <r>   -7.6774    1.0000 </r>
       <r>   -7.2035    1.0000 </r>
       <r>   -5.6698    1.0000 </r>
       <r>   -5.4926    1.0000 </r>
       <r>   -3.7758    1.0000 </r>
       <r>   -2.9145    1.0000 </r>
       <r>   -0.5769    0.0000 </r>
       <r>   -0.4700    0.0000 </r>
       <r>    0.8740    0.0000 </r>
       <r>    1.7044    0.0000 </r>
       <r>    2.7519    0.0000 </r>
       <r>    3.1347    0.0000 </r>
      </set>
      <set comment="kpoint 39">
       <r>  -16.1816    1.0000 </r>
       <r>  -13.8878    1.0000 </r>
       <r>  -12.0704    1.0000 </r>
       <r>   -9.0207    1.0000 </r>
       <r>   -7.8605    1.0000 </r>
       <r>   -7.2207    1.0000 </r>
       <r>   -5.5032    1.0000 </r>
       <r>   -5.4474    1.0000 </r>
       <r>   -3.9699    1.0000 </r>
       <r>   -3.0464    1.0000 </r>
       <r>   -0.6627    0.0000 </r>
       <r>   -0.3227    0.0000 </r>
       <r>    0.3429    0.0000 </r>
       <r>    1.0793    0.0000 </r>
       <r>    2.6188    0.0000 </r>
       <r>    3.1347    0.0000 </r>
      </set>
      <set comment="kpoint 40">
       <r>  -15.8446    1.0000 </r>
       <r>  -13.5835    1.0000 </r>
       <r>  -12.4255    1.0000 </r>
       <r>   -9.6212    1.0000 </r>
       <r>   -7.8855    1.0000 </r>
       <r>   -7.1215    1.0000 </r>
       <r>   -5.4040    1.0000 </r>
       <r>   -5.3455    1.0000 </r>
       <r>   -4.1362    1.0000 </r>
       <r>   -3.2274    1.0000 </r>
       <r>   -0.6008    0.0000 </r>
       <r>   -0.3398    0.0000 </r>
       <r>    0.0850    0.0000 </r>
       <r>    0.4773    0.0000 </r>
       <r>    2.3179    0.0000 </r>
       <r>    2.8522    0.0000 </r>
      </set>
      <set comment="kpoint 41">
       <r>  -15.4629    1.0000 </r>
       <r>  -13.4063    1.0000 </r>
       <r>  -12.6658    1.0000 </r>
       <r>  -10.2540    1.0000 </r>
       <r>   -7.7801    1.0000 </r>
       <r>   -7.0171    1.0000 </r>
       <r>   -5.4248    1.0000 </r>
       <r>   -5.2370    1.0000 </r>
       <r>   -4.1740    1.0000 </r>
       <r>   -3.4251    1.0000 </r>
       <r>   -0.6739    0.0000 </r>
       <r>   -0.4924    0.0000 </r>
       <r>    0.0220    0.0000 </r>
       <r>    0.2780    0.0000 </r>
       <r>    1.9257    0.0000 </r>
       <r>    2.4626    0.0000 </r>
      </set>
      <set comment="kpoint 42">
       <r>  -15.0413    1.0000 </r>
       <r>  -13.6663    1.0000 </r>
       <r>  -12.4485    1.0000 </r>
       <r>  -10.8741    1.0000 </r>
       <r>   -7.5852    1.0000 </r>
       <r>   -7.0022    1.0000 </r>
       <r>   -5.4556    1.0000 </r>
       <r>   -5.2191    1.0000 </r>
       <r>   -4.0756    1.0000 </r>
       <r>   -3.6029    1.0000 </r>
       <r>   -0.9415    0.0000 </r>
       <r>   -0.6779    0.0000 </r>
       <r>    0.0562    0.0000 </r>
       <r>    0.5427    0.0000 </r>
       <r>    1.5292    0.0000 </r>
       <r>    2.0355    0.0000 </r>
[...]
       <r>    3.4162    0.0000 </r>
       <r>    3.4308    0.0000 </r>
      </set>
      <set comment="kpoint 153">
       <r>  -15.3176    1.0000 </r>
       <r>  -15.0646    1.0000 </r>
       <r>  -10.8828    1.0000 </r>
       <r>  -10.5584    1.0000 </r>
       <r>   -7.9274    1.0000 </r>
       <r>   -7.7639    1.0000 </r>
       <r>   -5.2508    1.0000 </r>
       <r>   -5.0231    1.0000 </r>
       <r>   -3.8197    1.0000 </r>
       <r>   -3.7184    1.0000 </r>
       <r>    0.3756    0.0000 </r>
       <r>    0.7921    0.0000 </r>
       <r>    1.1616    0.0000 </r>
       <r>    1.4725    0.0000 </r>
       <r>    3.3886    0.0000 </r>
       <r>    3.3975    0.0000 </r>
      </set>
      <set comment="kpoint 154">
       <r>  -15.5885    1.0000 </r>
       <r>  -15.3303    1.0000 </r>
       <r>  -10.7369    1.0000 </r>
       <r>  -10.4059    1.0000 </r>
       <r>   -7.5967    1.0000 </r>
       <r>   -7.4281    1.0000 </r>
       <r>   -5.1348    1.0000 </r>
       <r>   -4.8525    1.0000 </r>
       <r>   -3.6796    1.0000 </r>
       <r>   -3.6662    1.0000 </r>
       <r>    0.3698    0.0000 </r>
       <r>    0.6995    0.0000 </r>
       <r>    1.2502    0.0000 </r>
       <r>    1.5996    0.0000 </r>
       <r>    3.1337    0.0000 </r>
       <r>    3.3512    0.0000 </r>
      </set>
      <set comment="kpoint 155">
       <r>  -15.8159    1.0000 </r>
       <r>  -15.5550    1.0000 </r>
       <r>  -10.7039    1.0000 </r>
       <r>  -10.3763    1.0000 </r>
       <r>   -7.0708    1.0000 </r>
       <r>   -6.8899    1.0000 </r>
       <r>   -5.1558    1.0000 </r>
       <r>   -4.8345    1.0000 </r>
       <r>   -3.5627    1.0000 </r>
       <r>   -3.4215    1.0000 </r>
       <r>    0.4536    0.0000 </r>
       <r>    0.6650    0.0000 </r>
       <r>    1.2437    0.0000 </r>
       <r>    1.6185    0.0000 </r>
       <r>    2.5280    0.0000 </r>
       <r>    2.7691    0.0000 </r>
      </set>
      <set comment="kpoint 156">
       <r>  -15.9958    1.0000 </r>
       <r>  -15.7333    1.0000 </r>
       <r>  -10.7297    1.0000 </r>
       <r>  -10.4079    1.0000 </r>
       <r>   -6.4261    1.0000 </r>
       <r>   -6.2333    1.0000 </r>
       <r>   -5.2252    1.0000 </r>
       <r>   -4.8859    1.0000 </r>
       <r>   -3.4714    1.0000 </r>
       <r>   -3.2074    1.0000 </r>
       <r>    0.5829    0.0000 </r>
       <r>    0.6637    0.0000 </r>
       <r>    1.1509    0.0000 </r>
       <r>    1.4810    0.0000 </r>
       <r>    1.8992    0.0000 </r>
       <r>    2.0167    0.0000 </r>
      </set>
      <set comment="kpoint 157">
       <r>  -16.1257    1.0000 </r>
       <r>  -15.8623    1.0000 </r>
       <r>  -10.7712    1.0000 </r>
       <r>  -10.4541    1.0000 </r>
       <r>   -5.7448    1.0000 </r>
       <r>   -5.5511    1.0000 </r>
       <r>   -5.2889    1.0000 </r>
       <r>   -4.9467    1.0000 </r>
       <r>   -3.4774    1.0000 </r>
       <r>   -3.1038    1.0000 </r>
       <r>    0.4581    0.0000 </r>
       <r>    0.4596    0.0000 </r>
       <r>    1.1135    0.0000 </r>
       <r>    1.2224    0.0000 </r>
       <r>    1.5872    0.0000 </r>
       <r>    1.6735    0.0000 </r>
      </set>
      <set comment="kpoint 158">
       <r>  -16.2041    1.0000 </r>
       <r>  -15.9403    1.0000 </r>
       <r>  -10.8039    1.0000 </r>
       <r>  -10.4895    1.0000 </r>
       <r>   -5.3491    1.0000 </r>
       <r>   -5.1378    1.0000 </r>
       <r>   -4.9902    1.0000 </r>
       <r>   -4.9409    1.0000 </r>
       <r>   -3.5976    1.0000 </r>
       <r>   -3.1348    1.0000 </r>
       <r>    0.0363    0.0000 </r>
       <r>    0.0672    0.0000 </r>
       <r>    1.2047    0.0000 </r>
       <r>    1.2505    0.0000 </r>
       <r>    1.5085    0.0000 </r>
       <r>    1.5942    0.0000 </r>
      </set>
     </set>
    </set>
   </array>
  </eigenvalues>
  <separator name="orbital magnetization" >
   <v name="MAGDIPOLOUT">      0.00000000      0.00000000      0.00000000</v>
  </separator>
  <dos>
   <i name="efermi">     -2.12470846 </i>
   <total>
    <array>
     <dimension dim="1">gridpoints</dimension>
     <dimension dim="2">spin</dimension>
     <field>energy</field>
     <field>total</field>
     <field>integrated</field>
     <set>
      <set comment="spin 1">
       <r>   -18.2690     0.0000     0.0000 </r>
       <r>   -18.1925     0.0000     0.0000 </r>
       <r>   -18.1161     0.0000     0.0000 </r>
       <r>   -18.0396     0.0000     0.0000 </r>
       <r>   -17.9631     0.0000     0.0000 </r>
       <r>   -17.8867     0.0000     0.0000 </r>
       <r>   -17.8102     0.0000     0.0000 </r>
       <r>   -17.7337     0.0000     0.0000 </r>
       <r>   -17.6573     0.0000     0.0000 </r>
       <r>   -17.5808     0.0000     0.0000 </r>
       <r>   -17.5043     0.0000     0.0000 </r>
       <r>   -17.4279     0.0000     0.0000 </r>
       <r>   -17.3514     0.0000     0.0000 </r>
       <r>   -17.2749     0.0000     0.0000 </r>
       <r>   -17.1985     0.2989     0.0229 </r>
       <r>   -17.1220     0.7469     0.0800 </r>
       <r>   -17.0455     0.7705     0.1389 </r>
       <r>   -16.9691     0.9941     0.2149 </r>
       <r>   -16.8926     0.8271     0.2781 </r>
       <r>   -16.8161     0.6186     0.3254 </r>
       <r>   -16.7396     1.1416     0.4127 </r>
       <r>   -16.6632     0.7333     0.4688 </r>
       <r>   -16.5867     0.9099     0.5384 </r>
       <r>   -16.5102     0.6683     0.5895 </r>
       <r>   -16.4338     1.4288     0.6988 </r>
       <r>   -16.3573     0.5927     0.7441 </r>
       <r>   -16.2808     0.2766     0.7652 </r>
       <r>   -16.2044     1.6682     0.8928 </r>
       <r>   -16.1279     0.6755     0.9444 </r>
       <r>   -16.0514     0.8100     1.0064 </r>
       <r>   -15.9750     0.7308     1.0623 </r>
       <r>   -15.8985     1.1947     1.1536 </r>
       <r>   -15.8220     1.0825     1.2364 </r>
       <r>   -15.7456     0.8588     1.3021 </r>
       <r>   -15.6691     0.8258     1.3652 </r>
       <r>   -15.5926     0.7385     1.4217 </r>
       <r>   -15.5162     1.4513     1.5327 </r>
       <r>   -15.4397     0.9601     1.6061 </r>
       <r>   -15.3632     0.8828     1.6736 </r>
       <r>   -15.2868     1.2647     1.7703 </r>
       <r>   -15.2103     0.9224     1.8408 </r>
       <r>   -15.1338     0.7626     1.8991 </r>
       <r>   -15.0574     1.6134     2.0225 </r>
       <r>   -14.9809     1.4410     2.1327 </r>
       <r>   -14.9044     1.0174     2.2105 </r>
       <r>   -14.8279     1.1262     2.2966 </r>
       <r>   -14.7515     2.0293     2.4518 </r>
       <r>   -14.6750     1.5334     2.5691 </r>
       <r>   -14.5985     1.4021     2.6763 </r>
       <r>   -14.5221     1.8789     2.8200 </r>
       <r>   -14.4456     1.2855     2.9183 </r>
       <r>   -14.3691     0.7817     2.9780 </r>
       <r>   -14.2927     1.4083     3.0857 </r>
       <r>   -14.2162     1.0479     3.1659 </r>
       <r>   -14.1397     1.3082     3.2659 </r>
       <r>   -14.0633     1.5222     3.3823 </r>
       <r>   -13.9868     2.6652     3.5861 </r>
       <r>   -13.9103     0.1291     3.5960 </r>
       <r>   -13.8339     0.6348     3.6445 </r>
       <r>   -13.7574     1.2225     3.7380 </r>
       <r>   -13.6809     0.6455     3.7873 </r>
       <r>   -13.6045     0.8738     3.8542 </r>
       <r>   -13.5280     0.5788     3.8984 </r>
       <r>   -13.4515     0.0167     3.8997 </r>
       <r>   -13.3751     0.6799     3.9517 </r>
       <r>   -13.2986     0.1337     3.9619 </r>
       <r>   -13.2221     0.2859     3.9838 </r>
       <r>   -13.1457     0.0711     3.9892 </r>
       <r>   -13.0692     0.1412     4.0000 </r>
       <r>   -12.9927     0.0002     4.0000 </r>
       <r>   -12.9162     0.1644     4.0126 </r>
       <r>   -12.8398     0.1789     4.0263 </r>
       <r>   -12.7633     0.1547     4.0381 </r>
       <r>   -12.6868     0.0230     4.0399 </r>
       <r>   -12.6104     0.4794     4.0765 </r>
       <r>   -12.5339     0.3278     4.1016 </r>
       <r>   -12.4574     0.8241     4.1646 </r>
       <r>   -12.3810     0.9597     4.2380 </r>
       <r>   -12.3045     0.2912     4.2602 </r>
       <r>   -12.2280     0.5564     4.3028 </r>
       <r>   -12.1516     1.0079     4.3799 </r>
       <r>   -12.0751     0.7517     4.4373 </r>
       <r>   -11.9986     2.1481     4.6016 </r>
       <r>   -11.9222     1.3265     4.7030 </r>
       <r>   -11.8457     1.1943     4.7944 </r>
       <r>   -11.7692     0.7515     4.8518 </r>
       <r>   -11.6928     1.0910     4.9353 </r>
       <r>   -11.6163     1.2983     5.0345 </r>
       <r>   -11.5398     0.7112     5.0889 </r>
       <r>   -11.4634     2.4675     5.2776 </r>
       <r>   -11.3869     3.9974     5.5833 </r>
       <r>   -11.3104     2.1446     5.7473 </r>
       <r>   -11.2340     1.4746     5.8600 </r>
       <r>   -11.1575     1.5334     5.9773 </r>
       <r>   -11.0810     0.4960     6.0152 </r>
       <r>   -11.0046     1.3966     6.1220 </r>
       <r>   -10.9281     1.0612     6.2032 </r>
       <r>   -10.8516     0.8896     6.2712 </r>
       <r>   -10.7751     1.2807     6.3691 </r>
       <r>   -10.6987     1.3587     6.4730 </r>
       <r>   -10.6222     0.1245     6.4825 </r>
       <r>   -10.5457     0.7628     6.5409 </r>
       <r>   -10.4693     0.7521     6.5984 </r>
       <r>   -10.3928     0.9649     6.6722 </r>
       <r>   -10.3163     0.6756     6.7238 </r>
       <r>   -10.2399     0.6359     6.7725 </r>
       <r>   -10.1634     0.6941     6.8255 </r>
       <r>   -10.0869     0.8254     6.8887 </r>
       <r>   -10.0105     1.1256     6.9747 </r>
       <r>    -9.9340     0.3721     7.0032 </r>
       <r>    -9.8575     0.3169     7.0274 </r>
       <r>    -9.7811     0.2415     7.0459 </r>
       <r>    -9.7046     0.5253     7.0860 </r>
       <r>    -9.6281     1.0973     7.1700 </r>
       <r>    -9.5517     0.8424     7.2344 </r>
       <r>    -9.4752     0.5823     7.2789 </r>
       <r>    -9.3987     0.0476     7.2825 </r>
       <r>    -9.3223     0.0023     7.2827 </r>
       <r>    -9.2458     1.2379     7.3774 </r>
       <r>    -9.1693     0.8937     7.4457 </r>
       <r>    -9.0929     0.0250     7.4476 </r>
       <r>    -9.0164     0.2062     7.4634 </r>
       <r>    -8.9399     0.1274     7.4731 </r>
       <r>    -8.8634     0.4800     7.5098 </r>
       <r>    -8.7870     1.0893     7.5931 </r>
       <r>    -8.7105     0.7541     7.6508 </r>
       <r>    -8.6340     0.0001     7.6508 </r>
       <r>    -8.5576     0.1447     7.6619 </r>
       <r>    -8.4811     0.1875     7.6762 </r>
       <r>    -8.4046     0.2378     7.6944 </r>
       <r>    -8.3282     1.0334     7.7734 </r>
       <r>    -8.2517     0.5380     7.8145 </r>
       <r>    -8.1752     0.2173     7.8312 </r>
       <r>    -8.0988     1.2318     7.9254 </r>
       <r>    -8.0223     2.6062     8.1246 </r>
       <r>    -7.9458     1.3637     8.2289 </r>
       <r>    -7.8694     1.9348     8.3769 </r>
       <r>    -7.7929     2.4011     8.5605 </r>
       <r>    -7.7164     2.3023     8.7365 </r>
       <r>    -7.6400     1.7969     8.8739 </r>
       <r>    -7.5635     1.7492     9.0077 </r>
       <r>    -7.4870     1.6773     9.1360 </r>
       <r>    -7.4106     2.6300     9.3371 </r>
       <r>    -7.3341     1.9992     9.4899 </r>
       <r>    -7.2576     2.2711     9.6636 </r>
       <r>    -7.1812     4.0038     9.9698 </r>
       <r>    -7.1047     2.6826    10.1749 </r>
       <r>    -7.0282     3.0607    10.4090 </r>
       <r>    -6.9517     2.3547    10.5890 </r>
       <r>    -6.8753     1.6243    10.7132 </r>
       <r>    -6.7988     1.3290    10.8149 </r>
       <r>    -6.7223     1.6248    10.9391 </r>
       <r>    -6.6459     2.0183    11.0934 </r>
       <r>    -6.5694     1.7642    11.2283 </r>
       <r>    -6.4929     1.0799    11.3109 </r>
       <r>    -6.4165     2.4605    11.4991 </r>
       <r>    -6.3400     1.0717    11.5810 </r>
       <r>    -6.2635     0.9471    11.6534 </r>
       <r>    -6.1871     2.1556    11.8183 </r>
       <r>    -6.1106     1.5313    11.9354 </r>
       <r>    -6.0341     2.0080    12.0889 </r>
       <r>    -5.9577     1.6826    12.2176 </r>
       <r>    -5.8812     1.3018    12.3171 </r>
       <r>    -5.8047     1.5831    12.4382 </r>
       <r>    -5.7283     2.9093    12.6606 </r>
       <r>    -5.6518     2.3818    12.8428 </r>
       <r>    -5.5753     3.4461    13.1063 </r>
       <r>    -5.4989     3.3256    13.3606 </r>
       <r>    -5.4224     3.8864    13.6578 </r>
       <r>    -5.3459     3.3370    13.9130 </r>
       <r>    -5.2695     3.6588    14.1928 </r>
       <r>    -5.1930     2.7322    14.4017 </r>
       <r>    -5.1165     3.7956    14.6919 </r>
       <r>    -5.0400     1.8332    14.8321 </r>
       <r>    -4.9636     2.5753    15.0290 </r>
       <r>    -4.8871     1.8249    15.1686 </r>
       <r>    -4.8106     2.2071    15.3374 </r>
       <r>    -4.7342     0.9896    15.4130 </r>
       <r>    -4.6577     1.0588    15.4940 </r>
       <r>    -4.5812     1.3860    15.6000 </r>
       <r>    -4.5048     1.6415    15.7255 </r>
       <r>    -4.4283     0.9938    15.8015 </r>
       <r>    -4.3518     0.6193    15.8488 </r>
       <r>    -4.2754     0.7641    15.9073 </r>
       <r>    -4.1989     1.4995    16.0219 </r>
       <r>    -4.1224     3.0917    16.2584 </r>
       <r>    -4.0460     2.4167    16.4432 </r>
       <r>    -3.9695     2.3352    16.6217 </r>
       <r>    -3.8930     3.0651    16.8561 </r>
       <r>    -3.8166     2.3145    17.0331 </r>
       <r>    -3.7401     4.8224    17.4018 </r>
       <r>    -3.6636     3.5514    17.6734 </r>
       <r>    -3.5872     2.7394    17.8829 </r>
       <r>    -3.5107     3.8221    18.1752 </r>
       <r>    -3.4342     2.8536    18.3934 </r>
       <r>    -3.3578     4.0907    18.7062 </r>
       <r>    -3.2813     2.9218    18.9296 </r>
       <r>    -3.2048     2.9787    19.1574 </r>
       <r>    -3.1284     1.9932    19.3098 </r>
       <r>    -3.0519     1.2206    19.4031 </r>
       <r>    -2.9754     0.4679    19.4389 </r>
       <r>    -2.8989     0.6310    19.4872 </r>
       <r>    -2.8225     2.5585    19.6828 </r>
       <r>    -2.7460     0.9325    19.7541 </r>
       <r>    -2.6695     0.7725    19.8132 </r>
       <r>    -2.5931     0.1569    19.8252 </r>
       <r>    -2.5166     0.3716    19.8536 </r>
       <r>    -2.4401     0.6287    19.9017 </r>
       <r>    -2.3637     0.7046    19.9556 </r>
       <r>    -2.2872     0.1576    19.9676 </r>
       <r>    -2.2107     0.3977    19.9980 </r>
       <r>    -2.1343     0.0260    20.0000 </r>
       <r>    -2.0578     0.0000    20.0000 </r>
       <r>    -1.9813     0.0000    20.0000 </r>
       <r>    -1.9049     0.0000    20.0000 </r>
       <r>    -1.8284     0.0000    20.0000 </r>
       <r>    -1.7519     0.0000    20.0000 </r>
       <r>    -1.6755     0.0000    20.0000 </r>
       <r>    -1.5990     0.0000    20.0000 </r>
       <r>    -1.5225     0.0000    20.0000 </r>
       <r>    -1.4461     0.0000    20.0000 </r>
       <r>    -1.3696     0.0468    20.0036 </r>
       <r>    -1.2931     0.2080    20.0195 </r>
       <r>    -1.2167     0.1608    20.0318 </r>
       <r>    -1.1402     0.5596    20.0746 </r>
       <r>    -1.0637     0.7801    20.1342 </r>
       <r>    -0.9872     1.4165    20.2425 </r>
       <r>    -0.9108     2.2267    20.4128 </r>
       <r>    -0.8343     1.3442    20.5156 </r>
       <r>    -0.7578     1.9878    20.6676 </r>
       <r>    -0.6814     1.8415    20.8084 </r>
       <r>    -0.6049     1.7210    20.9400 </r>
       <r>    -0.5284     1.5643    21.0596 </r>
       <r>    -0.4520     2.3872    21.2422 </r>
       <r>    -0.3755     2.1940    21.4100 </r>
       <r>    -0.2990     3.8061    21.7010 </r>
       <r>    -0.2226     1.6906    21.8303 </r>
       <r>    -0.1461     2.8529    22.0484 </r>
       <r>    -0.0696     1.5501    22.1670 </r>
       <r>     0.0068     2.8878    22.3878 </r>
       <r>     0.0833     5.0664    22.7752 </r>
       <r>     0.1598     2.7683    22.9869 </r>
       <r>     0.2362     2.5149    23.1792 </r>
       <r>     0.3127     3.0615    23.4133 </r>
       <r>     0.3892     3.9483    23.7152 </r>
       <r>     0.4656     4.4824    24.0580 </r>
       <r>     0.5421     5.5701    24.4839 </r>
       <r>     0.6186     3.5632    24.7564 </r>
       <r>     0.6950     3.1251    24.9954 </r>
       <r>     0.7715     3.2885    25.2468 </r>
       <r>     0.8480     3.5252    25.5164 </r>
       <r>     0.9245     4.1121    25.8308 </r>
       <r>     1.0009     2.6653    26.0346 </r>
       <r>     1.0774     3.8441    26.3286 </r>
       <r>     1.1539     2.7311    26.5374 </r>
       <r>     1.2303     2.5319    26.7310 </r>
       <r>     1.3068     3.8548    27.0258 </r>
       <r>     1.3833     1.3855    27.1318 </r>
       <r>     1.4597     2.1267    27.2944 </r>
       <r>     1.5362     2.8871    27.5152 </r>
       <r>     1.6127     2.5309    27.7087 </r>
       <r>     1.6891     2.8065    27.9233 </r>
       <r>     1.7656     1.6469    28.0492 </r>
       <r>     1.8421     1.4120    28.1572 </r>
       <r>     1.9185     3.6402    28.4356 </r>
       <r>     1.9950     2.9069    28.6578 </r>
       <r>     2.0715     1.6046    28.7805 </r>
       <r>     2.1479     1.4040    28.8879 </r>
       <r>     2.2244     2.6302    29.0890 </r>
       <r>     2.3009     2.4679    29.2777 </r>
       <r>     2.3773     3.7162    29.5619 </r>
       <r>     2.4538     2.7713    29.7738 </r>
       <r>     2.5303     2.4450    29.9608 </r>
       <r>     2.6067     2.6109    30.1604 </r>
       <r>     2.6832     3.5662    30.4331 </r>
       <r>     2.7597     2.8089    30.6479 </r>
       <r>     2.8362     2.9340    30.8723 </r>
       <r>     2.9126     2.2529    31.0446 </r>
       <r>     2.9891     1.3407    31.1471 </r>
       <r>     3.0656     1.9309    31.2947 </r>
       <r>     3.1420     2.2388    31.4659 </r>
       <r>     3.2185     1.3172    31.5667 </r>
       <r>     3.2950     1.0013    31.6432 </r>
       <r>     3.3714     1.6147    31.7667 </r>
       <r>     3.4479     2.0118    31.9205 </r>
       <r>     3.5244     0.2441    31.9392 </r>
       <r>     3.6008     0.4697    31.9751 </r>
       <r>     3.6773     0.3252    32.0000 </r>
       <r>     3.7538     0.0001    32.0000 </r>
       <r>     3.8302     0.0000    32.0000 </r>
       <r>     3.9067     0.0000    32.0000 </r>
       <r>     3.9832     0.0000    32.0000 </r>
       <r>     4.0596     0.0000    32.0000 </r>
       <r>     4.1361     0.0000    32.0000 </r>
       <r>     4.2126     0.0000    32.0000 </r>
       <r>     4.2890     0.0000    32.0000 </r>
       <r>     4.3655     0.0000    32.0000 </r>
       <r>     4.4420     0.0000    32.0000 </r>
       <r>     4.5184     0.0000    32.0000 </r>
       <r>     4.5949     0.0000    32.0000 </r>
       <r>     4.6714     0.0000    32.0000 </r>
      </set>
     </set>
    </array>
   </total>
  </dos>
 </calculation>
 <structure name="finalpos" >
  <crystal>
   <varray name="basis" >
    <v>       3.29720400       0.00000000       0.00000000 </v>
    <v>       0.00000000       4.57688400      -0.00005300 </v>
    <v>       0.00000000       0.00000000      20.02439000 </v>
   </varray>
   <i name="volume">    302.18647219 </i>
   <varray name="rec_basis" >
    <v>       0.30328727       0.00000000       0.00000000 </v>
    <v>       0.00000000       0.21848926       0.00000000 </v>
    <v>       0.00000000       0.00000058       0.04993910 </v>
   </varray>
  </crystal>
  <varray name="positions" >
   <v>       0.50000000       0.91234173       0.55267193 </v>
   <v>       0.50000000       0.08765827       0.44732807 </v>
   <v>       0.00000000       0.41233699       0.44732808 </v>
   <v>      -0.00000000       0.58766301       0.55267192 </v>
  </varray>
 </structure>
</modeling>
