<?xml version="1.0" encoding="ISO-8859-1"?>
<modeling>
 <generator>
  <i name="program" type="string">vasp </i>
  <i name="version" type="string">5.4.1  </i>
  <i name="subversion" type="string">24Jun15 (build Nov 20 2020 10:29:34) complex                          parallel </i>
  <i name="platform" type="string">IFC91_ompi </i>
  <i name="date" type="string">2021 09 09 </i>
  <i name="time" type="string">15:24:53 </i>
 </generator>
 <incar>
  <i type="string" name="PREC">a</i>
  <i type="string" name="ALGO"> Normal</i>
  <i type="int" name="ISPIN">     1</i>
  <i type="int" name="ICHARG">     2</i>
  <i type="int" name="NELM">   250</i>
  <i type="int" name="NELMDL">    -5</i>
  <i type="int" name="NELMIN">     6</i>
  <i type="int" name="IBRION">     2</i>
  <i name="EDIFF">      0.00001000</i>
  <i name="EDIFFG">     -0.01000000</i>
  <i type="int" name="NSW">   200</i>
  <i type="int" name="ISIF">     2</i>
  <i name="ENCUT">    520.00000000</i>
  <i name="POTIM">      0.30000000</i>
  <i type="logical" name="LREAL"> F  </i>
  <i type="int" name="ISMEAR">     0</i>
  <i name="SIGMA">      0.02000000</i>
  <i type="logical" name="LWAVE"> F  </i>
  <i type="logical" name="LCHARG"> F  </i>
  <i type="logical" name="LAECHG"> F  </i>
  <v type="int" name="KPOINT_BSE">    -1     0     0     0</v>
  <i type="int" name="NELM">   250</i>
 </incar>
 <kpoints>
  <generation param="Gamma">
   <v type="int" name="divisions">      22       15        1 </v>
   <v name="usershift">      0.00000000       0.00000000       0.00000000 </v>
   <v name="genvec1">      0.04545455       0.00000000       0.00000000 </v>
   <v name="genvec2">      0.00000000       0.06666667       0.00000000 </v>
   <v name="genvec3">      0.00000000       0.00000000       1.00000000 </v>
   <v name="shift">      0.00000000       0.00000000       0.00000000 </v>
  </generation>
  <varray name="kpointlist" >
   <v>       0.00000000       0.00000000       0.00000000 </v>
   <v>       0.04545455       0.00000000       0.00000000 </v>
   <v>       0.09090909       0.00000000       0.00000000 </v>
   <v>       0.13636364       0.00000000       0.00000000 </v>
   <v>       0.18181818       0.00000000       0.00000000 </v>
   <v>       0.22727273       0.00000000       0.00000000 </v>
   <v>       0.27272727       0.00000000       0.00000000 </v>
   <v>       0.31818182       0.00000000       0.00000000 </v>
   <v>       0.36363636       0.00000000       0.00000000 </v>
   <v>       0.40909091       0.00000000       0.00000000 </v>
   <v>       0.45454545       0.00000000       0.00000000 </v>
   <v>       0.50000000       0.00000000       0.00000000 </v>
   <v>       0.00000000       0.06666667       0.00000000 </v>
   <v>       0.04545455       0.06666667       0.00000000 </v>
   <v>       0.09090909       0.06666667       0.00000000 </v>
   <v>       0.13636364       0.06666667       0.00000000 </v>
   <v>       0.18181818       0.06666667       0.00000000 </v>
   <v>       0.22727273       0.06666667       0.00000000 </v>
   <v>       0.27272727       0.06666667       0.00000000 </v>
   <v>       0.31818182       0.06666667       0.00000000 </v>
   <v>       0.36363636       0.06666667       0.00000000 </v>
   <v>       0.40909091       0.06666667       0.00000000 </v>
   <v>       0.45454545       0.06666667       0.00000000 </v>
   <v>       0.50000000       0.06666667       0.00000000 </v>
   <v>      -0.45454545       0.06666667       0.00000000 </v>
   <v>      -0.40909091       0.06666667       0.00000000 </v>
   <v>      -0.36363636       0.06666667       0.00000000 </v>
   <v>      -0.31818182       0.06666667       0.00000000 </v>
   <v>      -0.27272727       0.06666667       0.00000000 </v>
   <v>      -0.22727273       0.06666667       0.00000000 </v>
   <v>      -0.18181818       0.06666667       0.00000000 </v>
   <v>      -0.13636364       0.06666667       0.00000000 </v>
   <v>      -0.09090909       0.06666667       0.00000000 </v>
   <v>      -0.04545455       0.06666667       0.00000000 </v>
   <v>       0.00000000       0.13333333       0.00000000 </v>
   <v>       0.04545455       0.13333333       0.00000000 </v>
   <v>       0.09090909       0.13333333       0.00000000 </v>
   <v>       0.13636364       0.13333333       0.00000000 </v>
   <v>       0.18181818       0.13333333       0.00000000 </v>
   <v>       0.22727273       0.13333333       0.00000000 </v>
   <v>       0.27272727       0.13333333       0.00000000 </v>
   <v>       0.31818182       0.13333333       0.00000000 </v>
   <v>       0.36363636       0.13333333       0.00000000 </v>
   <v>       0.40909091       0.13333333       0.00000000 </v>
   <v>       0.45454545       0.13333333       0.00000000 </v>
   <v>       0.50000000       0.13333333       0.00000000 </v>
   <v>      -0.45454545       0.13333333       0.00000000 </v>
   <v>      -0.40909091       0.13333333       0.00000000 </v>
   <v>      -0.36363636       0.13333333       0.00000000 </v>
   <v>      -0.31818182       0.13333333       0.00000000 </v>
   <v>      -0.27272727       0.13333333       0.00000000 </v>
   <v>      -0.22727273       0.13333333       0.00000000 </v>
   <v>      -0.18181818       0.13333333       0.00000000 </v>
   <v>      -0.13636364       0.13333333       0.00000000 </v>
   <v>      -0.09090909       0.13333333       0.00000000 </v>
   <v>      -0.04545455       0.13333333       0.00000000 </v>
   <v>       0.00000000       0.20000000       0.00000000 </v>
   <v>       0.04545455       0.20000000       0.00000000 </v>
   <v>       0.09090909       0.20000000       0.00000000 </v>
   <v>       0.13636364       0.20000000       0.00000000 </v>
   <v>       0.18181818       0.20000000       0.00000000 </v>
   <v>       0.22727273       0.20000000       0.00000000 </v>
   <v>       0.27272727       0.20000000       0.00000000 </v>
   <v>       0.31818182       0.20000000       0.00000000 </v>
   <v>       0.36363636       0.20000000       0.00000000 </v>
   <v>       0.40909091       0.20000000       0.00000000 </v>
   <v>       0.45454545       0.20000000       0.00000000 </v>
   <v>       0.50000000       0.20000000       0.00000000 </v>
   <v>      -0.45454545       0.20000000       0.00000000 </v>
   <v>      -0.40909091       0.20000000       0.00000000 </v>
   <v>      -0.36363636       0.20000000       0.00000000 </v>
   <v>      -0.31818182       0.20000000       0.00000000 </v>
   <v>      -0.27272727       0.20000000       0.00000000 </v>
   <v>      -0.22727273       0.20000000       0.00000000 </v>
   <v>      -0.18181818       0.20000000       0.00000000 </v>
   <v>      -0.13636364       0.20000000       0.00000000 </v>
   <v>      -0.09090909       0.20000000       0.00000000 </v>
   <v>      -0.04545455       0.20000000       0.00000000 </v>
   <v>       0.00000000       0.26666667       0.00000000 </v>
   <v>       0.04545455       0.26666667       0.00000000 </v>
   <v>       0.09090909       0.26666667       0.00000000 </v>
   <v>       0.13636364       0.26666667       0.00000000 </v>
   <v>       0.18181818       0.26666667       0.00000000 </v>
   <v>       0.22727273       0.26666667       0.00000000 </v>
   <v>       0.27272727       0.26666667       0.00000000 </v>
   <v>       0.31818182       0.26666667       0.00000000 </v>
   <v>       0.36363636       0.26666667       0.00000000 </v>
   <v>       0.40909091       0.26666667       0.00000000 </v>
   <v>       0.45454545       0.26666667       0.00000000 </v>
   <v>       0.50000000       0.26666667       0.00000000 </v>
   <v>      -0.45454545       0.26666667       0.00000000 </v>
   <v>      -0.40909091       0.26666667       0.00000000 </v>
   <v>      -0.36363636       0.26666667       0.00000000 </v>
   <v>      -0.31818182       0.26666667       0.00000000 </v>
   <v>      -0.27272727       0.26666667       0.00000000 </v>
   <v>      -0.22727273       0.26666667       0.00000000 </v>
   <v>      -0.18181818       0.26666667       0.00000000 </v>
   <v>      -0.13636364       0.26666667       0.00000000 </v>
   <v>      -0.09090909       0.26666667       0.00000000 </v>
   <v>      -0.04545455       0.26666667       0.00000000 </v>
   <v>       0.00000000       0.33333333       0.00000000 </v>
   <v>       0.04545455       0.33333333       0.00000000 </v>
   <v>       0.09090909       0.33333333       0.00000000 </v>
   <v>       0.13636364       0.33333333       0.00000000 </v>
   <v>       0.18181818       0.33333333       0.00000000 </v>
   <v>       0.22727273       0.33333333       0.00000000 </v>
   <v>       0.27272727       0.33333333       0.00000000 </v>
   <v>       0.31818182       0.33333333       0.00000000 </v>
   <v>       0.36363636       0.33333333       0.00000000 </v>
   <v>       0.40909091       0.33333333       0.00000000 </v>
   <v>       0.45454545       0.33333333       0.00000000 </v>
   <v>       0.50000000       0.33333333       0.00000000 </v>
   <v>      -0.45454545       0.33333333       0.00000000 </v>
   <v>      -0.40909091       0.33333333       0.00000000 </v>
   <v>      -0.36363636       0.33333333       0.00000000 </v>
   <v>      -0.31818182       0.33333333       0.00000000 </v>
   <v>      -0.27272727       0.33333333       0.00000000 </v>
   <v>      -0.22727273       0.33333333       0.00000000 </v>
   <v>      -0.18181818       0.33333333       0.00000000 </v>
   <v>      -0.13636364       0.33333333       0.00000000 </v>
   <v>      -0.09090909       0.33333333       0.00000000 </v>
   <v>      -0.04545455       0.33333333       0.00000000 </v>
   <v>       0.00000000       0.40000000       0.00000000 </v>
   <v>       0.04545455       0.40000000       0.00000000 </v>
   <v>       0.09090909       0.40000000       0.00000000 </v>
   <v>       0.13636364       0.40000000       0.00000000 </v>
   <v>       0.18181818       0.40000000       0.00000000 </v>
   <v>       0.22727273       0.40000000       0.00000000 </v>
   <v>       0.27272727       0.40000000       0.00000000 </v>
   <v>       0.31818182       0.40000000       0.00000000 </v>
   <v>       0.36363636       0.40000000       0.00000000 </v>
   <v>       0.40909091       0.40000000       0.00000000 </v>
   <v>       0.45454545       0.40000000       0.00000000 </v>
   <v>       0.50000000       0.40000000       0.00000000 </v>
   <v>      -0.45454545       0.40000000       0.00000000 </v>
   <v>      -0.40909091       0.40000000       0.00000000 </v>
   <v>      -0.36363636       0.40000000       0.00000000 </v>
   <v>      -0.31818182       0.40000000       0.00000000 </v>
   <v>      -0.27272727       0.40000000       0.00000000 </v>
   <v>      -0.22727273       0.40000000       0.00000000 </v>
   <v>      -0.18181818       0.40000000       0.00000000 </v>
   <v>      -0.13636364       0.40000000       0.00000000 </v>
   <v>      -0.09090909       0.40000000       0.00000000 </v>
   <v>      -0.04545455       0.40000000       0.00000000 </v>
   <v>       0.00000000       0.46666667       0.00000000 </v>
   <v>       0.04545455       0.46666667       0.00000000 </v>
   <v>       0.09090909       0.46666667       0.00000000 </v>
   <v>       0.13636364       0.46666667       0.00000000 </v>
   <v>       0.18181818       0.46666667       0.00000000 </v>
   <v>       0.22727273       0.46666667       0.00000000 </v>
   <v>       0.27272727       0.46666667       0.00000000 </v>
   <v>       0.31818182       0.46666667       0.00000000 </v>
   <v>       0.36363636       0.46666667       0.00000000 </v>
   <v>       0.40909091       0.46666667       0.00000000 </v>
   <v>       0.45454545       0.46666667       0.00000000 </v>
   <v>       0.50000000       0.46666667       0.00000000 </v>
   <v>      -0.45454545       0.46666667       0.00000000 </v>
   <v>      -0.40909091       0.46666667       0.00000000 </v>
   <v>      -0.36363636       0.46666667       0.00000000 </v>
   <v>      -0.31818182       0.46666667       0.00000000 </v>
   <v>      -0.27272727       0.46666667       0.00000000 </v>
   <v>      -0.22727273       0.46666667       0.00000000 </v>
   <v>      -0.18181818       0.46666667       0.00000000 </v>
   <v>      -0.13636364       0.46666667       0.00000000 </v>
   <v>      -0.09090909       0.46666667       0.00000000 </v>
   <v>      -0.04545455       0.46666667       0.00000000 </v>
  </varray>
  <varray name="weights" >
   <v>       0.00303030 </v>
   <v>       0.00606061 </v>
   <v>       0.00606061 </v>
   <v>       0.00606061 </v>
   <v>       0.00606061 </v>
   <v>       0.00606061 </v>
   <v>       0.00606061 </v>
   <v>       0.00606061 </v>
   <v>       0.00606061 </v>
   <v>       0.00606061 </v>
   <v>       0.00606061 </v>
   <v>       0.00303030 </v>
   <v>       0.00606061 </v>
   <v>       0.00606061 </v>
   <v>       0.00606061 </v>
   <v>       0.00606061 </v>
   <v>       0.00606061 </v>
   <v>       0.00606061 </v>
   <v>       0.00606061 </v>
   <v>       0.00606061 </v>
   <v>       0.00606061 </v>
   <v>       0.00606061 </v>
   <v>       0.00606061 </v>
   <v>       0.00606061 </v>
   <v>       0.00606061 </v>
   <v>       0.00606061 </v>
   <v>       0.00606061 </v>
   <v>       0.00606061 </v>
   <v>       0.00606061 </v>
   <v>       0.00606061 </v>
   <v>       0.00606061 </v>
   <v>       0.00606061 </v>
   <v>       0.00606061 </v>
   <v>       0.00606061 </v>
   <v>       0.00606061 </v>
   <v>       0.00606061 </v>
   <v>       0.00606061 </v>
   <v>       0.00606061 </v>
   <v>       0.00606061 </v>
   <v>       0.00606061 </v>
   <v>       0.00606061 </v>
   <v>       0.00606061 </v>
   <v>       0.00606061 </v>
   <v>       0.00606061 </v>
   <v>       0.00606061 </v>
   <v>       0.00606061 </v>
   <v>       0.00606061 </v>
   <v>       0.00606061 </v>
   <v>       0.00606061 </v>
   <v>       0.00606061 </v>
   <v>       0.00606061 </v>
   <v>       0.00606061 </v>
   <v>       0.00606061 </v>
   <v>       0.00606061 </v>
   <v>       0.00606061 </v>
   <v>       0.00606061 </v>
   <v>       0.00606061 </v>
   <v>       0.00606061 </v>
   <v>       0.00606061 </v>
   <v>       0.00606061 </v>
   <v>       0.00606061 </v>
   <v>       0.00606061 </v>
   <v>       0.00606061 </v>
   <v>       0.00606061 </v>
   <v>       0.00606061 </v>
   <v>       0.00606061 </v>
   <v>       0.00606061 </v>
   <v>       0.00606061 </v>
   <v>       0.00606061 </v>
   <v>       0.00606061 </v>
   <v>       0.00606061 </v>
   <v>       0.00606061 </v>
   <v>       0.00606061 </v>
   <v>       0.00606061 </v>
   <v>       0.00606061 </v>
   <v>       0.00606061 </v>
   <v>       0.00606061 </v>
   <v>       0.00606061 </v>
   <v>       0.00606061 </v>
   <v>       0.00606061 </v>
   <v>       0.00606061 </v>
   <v>       0.00606061 </v>
   <v>       0.00606061 </v>
   <v>       0.00606061 </v>
   <v>       0.00606061 </v>
   <v>       0.00606061 </v>
   <v>       0.00606061 </v>
   <v>       0.00606061 </v>
   <v>       0.00606061 </v>
   <v>       0.00606061 </v>
   <v>       0.00606061 </v>
   <v>       0.00606061 </v>
   <v>       0.00606061 </v>
   <v>       0.00606061 </v>
   <v>       0.00606061 </v>
   <v>       0.00606061 </v>
   <v>       0.00606061 </v>
   <v>       0.00606061 </v>
   <v>       0.00606061 </v>
   <v>       0.00606061 </v>
   <v>       0.00606061 </v>
   <v>       0.00606061 </v>
   <v>       0.00606061 </v>
   <v>       0.00606061 </v>
   <v>       0.00606061 </v>
   <v>       0.00606061 </v>
   <v>       0.00606061 </v>
   <v>       0.00606061 </v>
   <v>       0.00606061 </v>
   <v>       0.00606061 </v>
   <v>       0.00606061 </v>
   <v>       0.00606061 </v>
   <v>       0.00606061 </v>
   <v>       0.00606061 </v>
   <v>       0.00606061 </v>
   <v>       0.00606061 </v>
   <v>       0.00606061 </v>
   <v>       0.00606061 </v>
   <v>       0.00606061 </v>
   <v>       0.00606061 </v>
   <v>       0.00606061 </v>
   <v>       0.00606061 </v>
   <v>       0.00606061 </v>
   <v>       0.00606061 </v>
   <v>       0.00606061 </v>
   <v>       0.00606061 </v>
   <v>       0.00606061 </v>
   <v>       0.00606061 </v>
   <v>       0.00606061 </v>
   <v>       0.00606061 </v>
   <v>       0.00606061 </v>
   <v>       0.00606061 </v>
   <v>       0.00606061 </v>
   <v>       0.00606061 </v>
   <v>       0.00606061 </v>
   <v>       0.00606061 </v>
   <v>       0.00606061 </v>
   <v>       0.00606061 </v>
   <v>       0.00606061 </v>
   <v>       0.00606061 </v>
   <v>       0.00606061 </v>
   <v>       0.00606061 </v>
   <v>       0.00606061 </v>
   <v>       0.00606061 </v>
   <v>       0.00606061 </v>
   <v>       0.00606061 </v>
   <v>       0.00606061 </v>
   <v>       0.00606061 </v>
   <v>       0.00606061 </v>
   <v>       0.00606061 </v>
   <v>       0.00606061 </v>
   <v>       0.00606061 </v>
   <v>       0.00606061 </v>
   <v>       0.00606061 </v>
   <v>       0.00606061 </v>
   <v>       0.00606061 </v>
   <v>       0.00606061 </v>
   <v>       0.00606061 </v>
   <v>       0.00606061 </v>
   <v>       0.00606061 </v>
   <v>       0.00606061 </v>
   <v>       0.00606061 </v>
   <v>       0.00606061 </v>
   <v>       0.00606061 </v>
   <v>       0.00606061 </v>
   <v>       0.00606061 </v>
  </varray>
 </kpoints>
 <parameters>
  <separator name="general" >
   <i type="string" name="SYSTEM">unknown system</i>
   <i type="logical" name="LCOMPAT"> F  </i>
  </separator>
  <separator name="electronic" >
   <i type="string" name="PREC">a</i>
   <i name="ENMAX">    520.00000000</i>
   <i name="ENAUG">    342.92400000</i>
   <i name="EDIFF">      0.00001000</i>
   <i type="int" name="IALGO">    38</i>
   <i type="int" name="IWAVPR">    11</i>
   <i type="int" name="NBANDS">    16</i>
   <i name="NELECT">     20.00000000</i>
   <i type="int" name="TURBO">     0</i>
   <i type="int" name="IRESTART">     0</i>
   <i type="int" name="NREBOOT">     0</i>
   <i type="int" name="NMIN">     0</i>
   <i name="EREF">      0.00000000</i>
   <separator name="electronic smearing" >
    <i type="int" name="ISMEAR">     0</i>
    <i name="SIGMA">      0.02000000</i>
    <i name="KSPACING">      0.50000000</i>
    <i type="logical" name="KGAMMA"> T  </i>
   </separator>
   <separator name="electronic projectors" >
    <i type="logical" name="LREAL"> F  </i>
    <v name="ROPT">      0.00000000</v>
    <i type="int" name="LMAXPAW">  -100</i>
    <i type="int" name="LMAXMIX">     2</i>
    <i type="logical" name="NLSPLINE"> F  </i>
   </separator>
   <separator name="electronic startup" >
    <i type="int" name="ISTART">     0</i>
    <i type="int" name="ICHARG">     2</i>
    <i type="int" name="INIWAV">     1</i>
   </separator>
   <separator name="electronic spin" >
    <i type="int" name="ISPIN">     1</i>
    <i type="logical" name="LNONCOLLINEAR"> F  </i>
    <v name="MAGMOM">      1.00000000      1.00000000      1.00000000      1.00000000</v>
    <i name="NUPDOWN">     -1.00000000</i>
    <i type="logical" name="LSORBIT"> F  </i>
    <v name="SAXIS">      0.00000000      0.00000000      1.00000000</v>
    <i type="logical" name="LSPIRAL"> F  </i>
    <v name="QSPIRAL">      0.00000000      0.00000000      0.00000000</v>
    <i type="logical" name="LZEROZ"> F  </i>
   </separator>
   <separator name="electronic exchange-correlation" >
    <i type="logical" name="LASPH"> F  </i>
    <i type="logical" name="LMETAGGA"> F  </i>
   </separator>
   <separator name="electronic convergence" >
    <i type="int" name="NELM">   250</i>
    <i type="int" name="NELMDL">    -5</i>
    <i type="int" name="NELMIN">     6</i>
    <i name="ENINI">    520.00000000</i>
    <separator name="electronic convergence detail" >
     <i type="logical" name="LDIAG"> T  </i>
     <i type="logical" name="LSUBROT"> F  </i>
     <i name="WEIMIN">      0.00100000</i>
     <i name="EBREAK">      0.00000016</i>
     <i name="DEPER">      0.30000000</i>
     <i type="int" name="NRMM">     4</i>
     <i name="TIME">      0.40000000</i>
    </separator>
   </separator>
   <separator name="electronic mixer" >
    <i name="AMIX">      0.40000000</i>
    <i name="BMIX">      1.00000000</i>
    <i name="AMIN">      0.10000000</i>
    <i name="AMIX_MAG">      1.60000000</i>
    <i name="BMIX_MAG">      1.00000000</i>
    <separator name="electronic mixer details" >
     <i type="int" name="IMIX">     4</i>
     <i type="logical" name="MIXFIRST"> F  </i>
     <i type="int" name="MAXMIX">   -45</i>
     <i name="WC">    100.00000000</i>
     <i type="int" name="INIMIX">     1</i>
     <i type="int" name="MIXPRE">     1</i>
     <i type="int" name="MREMOVE">     5</i>
    </separator>
   </separator>
   <separator name="electronic dipolcorrection" >
    <i type="logical" name="LDIPOL"> F  </i>
    <i type="logical" name="LMONO"> F  </i>
    <i type="int" name="IDIPOL">     0</i>
    <i name="EPSILON">      1.00000000</i>
    <v name="DIPOL">   -100.00000000   -100.00000000   -100.00000000</v>
    <i name="EFIELD">      0.00000000</i>
   </separator>
  </separator>
  <separator name="grids" >
   <i type="int" name="NGX">    28</i>
   <i type="int" name="NGY">    36</i>
   <i type="int" name="NGZ">   150</i>
   <i type="int" name="NGXF">    56</i>
   <i type="int" name="NGYF">    72</i>
   <i type="int" name="NGZF">   300</i>
   <i type="logical" name="ADDGRID"> F  </i>
  </separator>
  <separator name="ionic" >
   <i type="int" name="NSW">   200</i>
   <i type="int" name="IBRION">     2</i>
   <i type="int" name="ISIF">     2</i>
   <i name="PSTRESS">      0.00000000</i>
   <i name="EDIFFG">     -0.01000000</i>
   <i type="int" name="NFREE">     1</i>
   <i name="POTIM">      0.30000000</i>
   <i name="SMASS">     -3.00000000</i>
   <i name="SCALEE">      1.00000000</i>
  </separator>
  <separator name="ionic md" >
   <i name="TEBEG">      0.00010000</i>
   <i name="TEEND">      0.00010000</i>
   <i type="int" name="NBLOCK">     1</i>
   <i type="int" name="KBLOCK">   200</i>
   <i type="int" name="NPACO">   256</i>
   <i name="APACO">     16.00000000</i>
  </separator>
  <separator name="symmetry" >
   <i type="int" name="ISYM">     2</i>
   <i name="SYMPREC">      0.00001000</i>
  </separator>
  <separator name="dos" >
   <i type="logical" name="LORBIT"> F  </i>
   <v name="RWIGS">     -1.00000000</v>
   <i type="int" name="NEDOS">   301</i>
   <i name="EMIN">     10.00000000</i>
   <i name="EMAX">    -10.00000000</i>
   <i name="EFERMI">      0.00000000</i>
  </separator>
  <separator name="writing" >
   <i type="int" name="NWRITE">     2</i>
   <i type="logical" name="LWAVE"> F  </i>
   <i type="logical" name="LCHARG"> F  </i>
   <i type="logical" name="LPARD"> F  </i>
   <i type="logical" name="LVTOT"> F  </i>
   <i type="logical" name="LVHAR"> F  </i>
   <i type="logical" name="LELF"> F  </i>
   <i type="logical" name="LOPTICS"> F  </i>
   <v name="STM">      0.00000000      0.00000000      0.00000000      0.00000000      0.00000000      0.00000000      0.00000000</v>
  </separator>
  <separator name="performance" >
   <i type="int" name="NPAR">     4</i>
   <i type="int" name="NSIM">     4</i>
   <i type="int" name="NBLK">    -1</i>
   <i type="logical" name="LPLANE"> T  </i>
   <i type="logical" name="LSCALAPACK"> T  </i>
   <i type="logical" name="LSCAAWARE"> F  </i>
   <i type="logical" name="LSCALU"> F  </i>
   <i type="logical" name="LASYNC"> F  </i>
   <i type="logical" name="LORBITALREAL"> F  </i>
  </separator>
  <separator name="miscellaneous" >
   <i type="int" name="IDIOT">     3</i>
   <i type="logical" name="LMUSIC"> F  </i>
   <v name="POMASS">     30.97400000</v>
   <v name="DARWINR">      0.00000000</v>
   <v name="DARWINV">      1.00000000</v>
   <i type="logical" name="LCORR"> T  </i>
  </separator>
  <i type="logical" name="GGA_COMPAT"> T  </i>
  <i type="logical" name="LBERRY"> F  </i>
  <i type="int" name="ICORELEVEL">     0</i>
  <i type="logical" name="LDAU"> F  </i>
  <i type="int" name="I_CONSTRAINED_M">     0</i>
  <separator name="electronic exchange-correlation" >
   <i type="string" name="GGA">--</i>
   <i type="int" name="VOSKOWN">     0</i>
   <i type="logical" name="LHFCALC"> F  </i>
   <i type="string" name="PRECFOCK"></i>
   <i type="logical" name="LSYMGRAD"> F  </i>
   <i type="logical" name="LHFONE"> F  </i>
   <i type="logical" name="LRHFCALC"> F  </i>
   <i type="logical" name="LTHOMAS"> F  </i>
   <i type="logical" name="LMODELHF"> F  </i>
   <i name="ENCUT4O">     -1.00000000</i>
   <i type="int" name="EXXOEP">     0</i>
   <i type="int" name="FOURORBIT">     0</i>
   <i name="AEXX">      0.00000000</i>
   <i name="HFALPHA">      0.00000000</i>
   <i name="MCALPHA">      0.00000000</i>
   <i name="ALDAX">      1.00000000</i>
   <i name="AGGAX">      1.00000000</i>
   <i name="ALDAC">      1.00000000</i>
   <i name="AGGAC">      1.00000000</i>
   <i type="int" name="NKREDX">     1</i>
   <i type="int" name="NKREDY">     1</i>
   <i type="int" name="NKREDZ">     1</i>
   <i type="logical" name="SHIFTRED"> F  </i>
   <i type="logical" name="ODDONLY"> F  </i>
   <i type="logical" name="EVENONLY"> F  </i>
   <i type="int" name="LMAXFOCK">     0</i>
   <i type="int" name="NMAXFOCKAE">     0</i>
   <i type="logical" name="LFOCKAEDFT"> F  </i>
   <i name="HFSCREEN">      0.00000000</i>
   <i name="HFSCREENC">      0.00000000</i>
   <i type="int" name="NBANDSGWLOW">     0</i>
  </separator>
  <separator name="vdW DFT" >
   <i type="logical" name="LUSE_VDW"> F  </i>
   <i name="Zab_VDW">     -0.84910000</i>
   <i name="PARAM1">      0.12340000</i>
   <i name="PARAM2">      1.00000000</i>
   <i name="PARAM3">      0.00000000</i>
  </separator>
  <separator name="model GW" >
   <i type="int" name="MODEL_GW">     0</i>
   <i name="MODEL_EPS0">     47.58445381</i>
   <i name="MODEL_ALPHA">      1.00000000</i>
  </separator>
  <separator name="linear response parameters" >
   <i type="logical" name="LEPSILON"> F  </i>
   <i type="logical" name="LRPA"> F  </i>
   <i type="logical" name="LNABLA"> F  </i>
   <i type="logical" name="LVEL"> F  </i>
   <i type="int" name="KINTER">     0</i>
   <i name="CSHIFT">      0.10000000</i>
   <i name="OMEGAMAX">     -1.00000000</i>
   <i name="DEG_THRESHOLD">      0.00200000</i>
  </separator>
  <separator name="orbital magnetization" >
   <i type="logical" name="NUCIND"> F  </i>
   <v name="MAGPOS">      0.00000000      0.00000000      0.00000000</v>
   <i type="logical" name="LNICSALL"> T  </i>
   <i type="logical" name="ORBITALMAG"> F  </i>
   <i type="logical" name="LMAGBLOCH"> F  </i>
   <i type="logical" name="LCHIMAG"> F  </i>
   <i type="logical" name="LGAUGE"> T  </i>
   <i type="int" name="MAGATOM">     0</i>
   <v name="MAGDIPOL">      0.00000000      0.00000000      0.00000000</v>
   <v name="AVECCONST">      0.00000000      0.00000000      0.00000000</v>
  </separator>
  <separator name="response functions" >
   <i type="logical" name="LADDER"> F  </i>
   <i type="logical" name="LFXC"> F  </i>
   <i type="logical" name="LHARTREE"> T  </i>
   <i type="int" name="IBSE">     0</i>
   <v type="int" name="KPOINT">    -1     0     0     0</v>
   <i type="logical" name="LTCTE"> F  </i>
   <i type="logical" name="LTETE"> F  </i>
   <i type="logical" name="LTRIPLET"> F  </i>
   <i type="logical" name="LFXCEPS"> F  </i>
   <i type="logical" name="LFXHEG"> F  </i>
   <i type="int" name="NATURALO">     0</i>
   <i type="logical" name="L2ORDER"> F  </i>
   <i type="logical" name="LUSEW"> F  </i>
   <i name="ENCUTGW">     -2.00000000</i>
   <i name="ENCUTGWSOFT">     -2.00000000</i>
   <i name="ENCUTLF">     -1.00000000</i>
   <i type="int" name="LMAXMP2">    -1</i>
   <i name="SCISSOR">      0.00000000</i>
   <i type="int" name="NOMEGA">     0</i>
   <i type="int" name="NOMEGAR">     0</i>
   <i type="int" name="NBANDSGW">    -1</i>
   <i type="int" name="NBANDSO">    -1</i>
   <i type="int" name="NBANDSV">    -1</i>
   <i type="int" name="NELM">   250</i>
   <i type="int" name="NELMHF">     1</i>
   <i type="int" name="DIM">     3</i>
   <i type="int" name="ANTIRES">     0</i>
   <i name="OMEGAMAX">    -30.00000000</i>
   <i name="OMEGAMIN">    -30.00000000</i>
   <i name="OMEGATL">   -200.00000000</i>
   <i type="int" name="OMEGAGRID">     0</i>
   <i name="CSHIFT">     -0.10000000</i>
   <i type="logical" name="SELFENERGY"> F  </i>
   <i type="logical" name="LSPECTRAL"> F  </i>
   <i type="logical" name="LSPECTRALGW"> F  </i>
   <i type="logical" name="LSINGLES"> F  </i>
   <i type="logical" name="LFERMIGW"> F  </i>
   <i type="logical" name="ODDONLYGW"> F  </i>
   <i type="logical" name="EVENONLYGW"> F  </i>
   <i type="int" name="NKREDLFX">     1</i>
   <i type="int" name="NKREDLFY">     1</i>
   <i type="int" name="NKREDLFZ">     1</i>
   <i type="int" name="MAXMEM">  1800</i>
   <i type="int" name="TELESCOPE">     0</i>
   <i type="int" name="TAUPAR">     1</i>
   <i type="int" name="OMEGAPAR">    -1</i>
   <i name="LAMBDA">      1.00000000</i>
  </separator>
  <separator name="External order field" >
   <i name="OFIELD_KAPPA">      0.00000000</i>
   <v name="OFIELD_K">      0.00000000      0.00000000      0.00000000</v>
   <i name="OFIELD_Q6_NEAR">      0.00000000</i>
   <i name="OFIELD_Q6_FAR">      0.00000000</i>
   <i name="OFIELD_A">      0.00000000</i>
  </separator>
 </parameters>
 <atominfo>
  <atoms>       4 </atoms>
  <types>       1 </types>
  <array name="atoms" >
   <dimension dim="1">ion</dimension>
   <field type="string">element</field>
   <field type="int">atomtype</field>
   <set>
    <rc><c>P </c><c>   1</c></rc>
    <rc><c>P </c><c>   1</c></rc>
    <rc><c>P </c><c>   1</c></rc>
    <rc><c>P </c><c>   1</c></rc>
   </set>
  </array>
  <array name="atomtypes" >
   <dimension dim="1">type</dimension>
   <field type="int">atomspertype</field>
   <field type="string">element</field>
   <field>mass</field>
   <field>valence</field>
   <field type="string">pseudopotential</field>
   <set>
    <rc><c>   4</c><c>P </c><c>     30.97400000</c><c>      5.00000000</c><c>  PAW_PBE P 06Sep2000                   </c></rc>
   </set>
  </array>
 </atominfo>
 <structure name="initialpos" >
  <crystal>
   <varray name="basis" >
    <v>       3.29720400       0.00000000       0.00000000 </v>
    <v>       0.00000000       4.80472700      -0.00005300 </v>
    <v>       0.00000000       0.00000000      20.02439000 </v>
   </varray>
   <i name="volume">    317.22969207 </i>
   <varray name="rec_basis" >
    <v>       0.30328727       0.00000000       0.00000000 </v>
    <v>       0.00000000       0.20812837       0.00000000 </v>
    <v>       0.00000000       0.00000055       0.04993910 </v>
   </varray>
  </crystal>
  <varray name="positions" >
   <v>       0.50000000       0.91077300       0.55252100 </v>
   <v>       0.50000000       0.08922700       0.44747900 </v>
   <v>       0.00000000       0.41076900       0.44747900 </v>
   <v>       0.00000000       0.58923100       0.55252100 </v>
  </varray>
 </structure>
 <calculation>
  <scstep>
   <time name="dav">    1.58    1.58</time>
   <time name="total">    1.61    1.61</time>
   <energy>
    <i name="alphaZ">      5.05678088 </i>
    <i name="ewald">   1775.38800695 </i>
    <i name="hartreedc">  -2369.58460218 </i>
    <i name="XCdc">     12.70329842 </i>
    <i name="pawpsdc">    559.04011960 </i>
    <i name="pawaedc">   -526.39432044 </i>
    <i name="eentropy">     -0.00049843 </i>
    <i name="bandstr">    -28.32985631 </i>
    <i name="atom">    704.16778566 </i>
    <i name="e_fr_energy">    132.04671415 </i>
    <i name="e_wo_entrp">    132.04721258 </i>
    <i name="e_0_energy">    132.04696337 </i>
   </energy>
  </scstep>
  <scstep>
   <time name="dav">    2.08    2.08</time>
   <time name="total">    2.08    2.08</time>
   <energy>
    <i name="e_fr_energy">     -5.95828481 </i>
    <i name="e_wo_entrp">     -5.95828481 </i>
    <i name="e_0_energy">     -5.95828481 </i>
   </energy>
  </scstep>
  <scstep>
   <time name="dav">    1.94    1.94</time>
   <time name="total">    1.94    1.94</time>
   <energy>
    <i name="e_fr_energy">    -21.26889073 </i>
    <i name="e_wo_entrp">    -21.26889073 </i>
    <i name="e_0_energy">    -21.26889073 </i>
   </energy>
  </scstep>
  <scstep>
   <time name="dav">    2.00    2.00</time>
   <time name="total">    2.00    2.00</time>
   <energy>
    <i name="e_fr_energy">    -21.58989972 </i>
    <i name="e_wo_entrp">    -21.58989972 </i>
    <i name="e_0_energy">    -21.58989972 </i>
   </energy>
  </scstep>
  <scstep>
   <time name="dav">    2.07    2.07</time>
   <time name="total">    2.17    2.17</time>
   <energy>
    <i name="e_fr_energy">    -21.60012543 </i>
    <i name="e_wo_entrp">    -21.60012543 </i>
    <i name="e_0_energy">    -21.60012543 </i>
   </energy>
  </scstep>
  <scstep>
   <time name="dav">    1.93    1.93</time>
   <time name="total">    2.05    2.05</time>
   <energy>
    <i name="e_fr_energy">    -21.47016584 </i>
    <i name="e_wo_entrp">    -21.47016584 </i>
    <i name="e_0_energy">    -21.47016584 </i>
   </energy>
  </scstep>
  <scstep>
   <time name="dav">    1.82    1.82</time>
   <time name="total">    1.93    1.94</time>
   <energy>
    <i name="e_fr_energy">    -21.40862472 </i>
    <i name="e_wo_entrp">    -21.40862472 </i>
    <i name="e_0_energy">    -21.40862472 </i>
   </energy>
  </scstep>
  <scstep>
   <time name="dav">    1.93    1.93</time>
   <time name="total">    2.04    2.05</time>
   <energy>
    <i name="e_fr_energy">    -21.40821168 </i>
    <i name="e_wo_entrp">    -21.40821168 </i>
    <i name="e_0_energy">    -21.40821168 </i>
   </energy>
  </scstep>
  <scstep>
   <time name="dav">    2.23    2.23</time>
   <time name="total">    2.34    2.35</time>
   <energy>
    <i name="e_fr_energy">    -21.40809898 </i>
    <i name="e_wo_entrp">    -21.40809898 </i>
    <i name="e_0_energy">    -21.40809898 </i>
   </energy>
  </scstep>
  <scstep>
   <time name="dav">    1.91    1.92</time>
   <time name="total">    2.03    2.03</time>
   <energy>
    <i name="e_fr_energy">    -21.40795102 </i>
    <i name="e_wo_entrp">    -21.40795102 </i>
    <i name="e_0_energy">    -21.40795102 </i>
   </energy>
  </scstep>
  <scstep>
   <time name="dav">    1.91    1.91</time>
   <time name="total">    2.03    2.03</time>
   <energy>
    <i name="e_fr_energy">    -21.40789437 </i>
    <i name="e_wo_entrp">    -21.40789437 </i>
    <i name="e_0_energy">    -21.40789437 </i>
   </energy>
  </scstep>
  <scstep>
   <time name="dav">    1.66    1.66</time>
   <time name="total">    1.77    1.78</time>
   <energy>
    <i name="e_fr_energy">    -21.40820095 </i>
    <i name="e_wo_entrp">    -21.40820095 </i>
    <i name="e_0_energy">    -21.40820095 </i>
   </energy>
  </scstep>
  <scstep>
   <time name="dav">    1.71    1.71</time>
   <time name="total">    1.83    1.83</time>
   <energy>
    <i name="e_fr_energy">    -21.40830016 </i>
    <i name="e_wo_entrp">    -21.40830016 </i>
    <i name="e_0_energy">    -21.40830016 </i>
   </energy>
  </scstep>
  <scstep>
   <time name="dav">    1.59    1.59</time>
   <time name="total">    1.71    1.71</time>
   <energy>
    <i name="e_fr_energy">    -21.40845038 </i>
    <i name="e_wo_entrp">    -21.40845038 </i>
    <i name="e_0_energy">    -21.40845038 </i>
   </energy>
  </scstep>
  <scstep>
   <time name="dav">    1.63    1.63</time>
   <time name="total">    1.74    1.75</time>
   <energy>
    <i name="e_fr_energy">    -21.40846950 </i>
    <i name="e_wo_entrp">    -21.40846950 </i>
    <i name="e_0_energy">    -21.40846950 </i>
   </energy>
  </scstep>
  <scstep>
   <time name="dav">    1.54    1.54</time>
   <time name="total">    1.65    1.66</time>
   <energy>
    <i name="e_fr_energy">    -21.40850297 </i>
    <i name="e_wo_entrp">    -21.40850297 </i>
    <i name="e_0_energy">    -21.40850297 </i>
   </energy>
  </scstep>
  <scstep>
   <time name="dav">    1.59    1.59</time>
   <time name="total">    1.61    1.61</time>
   <energy>
    <i name="alphaZ">      5.05678088 </i>
    <i name="ewald">   1775.38800695 </i>
    <i name="hartreedc">  -2383.70174273 </i>
    <i name="XCdc">     13.71584443 </i>
    <i name="pawpsdc">   1946.84039672 </i>
    <i name="pawaedc">  -1914.47780100 </i>
    <i name="eentropy">     -0.00000000 </i>
    <i name="bandstr">   -168.39777717 </i>
    <i name="atom">    704.16778566 </i>
    <i name="e_fr_energy">    -21.40850627 </i>
    <i name="e_wo_entrp">    -21.40850627 </i>
    <i name="e_0_energy">    -21.40850627 </i>
   </energy>
  </scstep>
  <structure>
   <crystal>
    <varray name="basis" >
     <v>       3.29720400       0.00000000       0.00000000 </v>
     <v>       0.00000000       4.80472700      -0.00005300 </v>
     <v>       0.00000000       0.00000000      20.02439000 </v>
    </varray>
    <i name="volume">    317.22969207 </i>
    <varray name="rec_basis" >
     <v>       0.30328727       0.00000000       0.00000000 </v>
     <v>       0.00000000       0.20812837       0.00000000 </v>
     <v>       0.00000000       0.00000055       0.04993910 </v>
    </varray>
   </crystal>
   <varray name="positions" >
    <v>       0.50000000       0.91077300       0.55252100 </v>
    <v>       0.50000000       0.08922700       0.44747900 </v>
    <v>       0.00000000       0.41076900       0.44747900 </v>
    <v>       0.00000000       0.58923100       0.55252100 </v>
   </varray>
  </structure>
  <varray name="forces" >
   <v>      -0.00000019      -0.53000990      -0.10281728 </v>
   <v>       0.00000019       0.53000990       0.10281728 </v>
   <v>       0.00000008      -0.53002952       0.10283160 </v>
   <v>      -0.00000008       0.53002952      -0.10283160 </v>
  </varray>
  <varray name="stress" >
   <v>      -4.82761958       0.00000135      -0.00000160 </v>
   <v>       0.00000135     -13.00021957       0.00034752 </v>
   <v>      -0.00000162       0.00034750      -2.24826176 </v>
  </varray>
  <energy>
   <i name="e_fr_energy">    -21.40850627 </i>
   <i name="e_wo_entrp">    -21.40850627 </i>
   <i name="e_0_energy">     -0.00000000 </i>
  </energy>
  <time name="totalsc">   33.38   33.42</time>
 </calculation>
 <calculation>
  <scstep>
   <time name="dav">    1.66    1.66</time>
   <time name="total">    1.78    1.78</time>
   <energy>
    <i name="alphaZ">      5.05678088 </i>
    <i name="ewald">   1780.33324958 </i>
    <i name="hartreedc">  -2387.80396053 </i>
    <i name="XCdc">     13.80564350 </i>
    <i name="pawpsdc">   1946.48086511 </i>
    <i name="pawaedc">  -1914.11830191 </i>
    <i name="eentropy">     -0.00000000 </i>
    <i name="bandstr">   -169.35206930 </i>
    <i name="atom">    704.16778566 </i>
    <i name="e_fr_energy">    -21.43000702 </i>
    <i name="e_wo_entrp">    -21.43000702 </i>
    <i name="e_0_energy">    -21.43000702 </i>
   </energy>
  </scstep>
  <scstep>
   <time name="dav">    1.95    1.95</time>
   <time name="total">    2.07    2.07</time>
   <energy>
    <i name="e_fr_energy">    -21.43319093 </i>
    <i name="e_wo_entrp">    -21.43319093 </i>
    <i name="e_0_energy">    -21.43319093 </i>
   </energy>
  </scstep>
  <scstep>
   <time name="dav">    2.12    2.12</time>
   <time name="total">    2.24    2.24</time>
   <energy>
    <i name="e_fr_energy">    -21.43317239 </i>
    <i name="e_wo_entrp">    -21.43317239 </i>
    <i name="e_0_energy">    -21.43317239 </i>
   </energy>
  </scstep>
  <scstep>
   <time name="dav">    1.99    1.99</time>
   <time name="total">    2.10    2.11</time>
   <energy>
    <i name="e_fr_energy">    -21.43316403 </i>
    <i name="e_wo_entrp">    -21.43316403 </i>
    <i name="e_0_energy">    -21.43316403 </i>
   </energy>
  </scstep>
  <scstep>
   <time name="dav">    1.66    1.66</time>
   <time name="total">    1.77    1.77</time>
   <energy>
    <i name="e_fr_energy">    -21.43316702 </i>
    <i name="e_wo_entrp">    -21.43316702 </i>
    <i name="e_0_energy">    -21.43316702 </i>
   </energy>
  </scstep>
  <scstep>
   <time name="dav">    1.36    1.36</time>
   <time name="total">    1.38    1.39</time>
   <energy>
    <i name="alphaZ">      5.05678088 </i>
    <i name="ewald">   1780.33324958 </i>
    <i name="hartreedc">  -2387.82789431 </i>
    <i name="XCdc">     13.81549863 </i>
    <i name="pawpsdc">   2000.96931843 </i>
    <i name="pawaedc">  -1968.62678513 </i>
    <i name="eentropy">     -0.00000000 </i>
    <i name="bandstr">   -169.32112144 </i>
    <i name="atom">    704.16778566 </i>
    <i name="e_fr_energy">    -21.43316770 </i>
    <i name="e_wo_entrp">    -21.43316770 </i>
    <i name="e_0_energy">    -21.43316770 </i>
   </energy>
  </scstep>
  <structure>
   <crystal>
    <varray name="basis" >
     <v>       3.29720400       0.00000000       0.00000000 </v>
     <v>       0.00000000       4.80472700      -0.00005300 </v>
     <v>       0.00000000       0.00000000      20.02439000 </v>
    </varray>
    <i name="volume">    317.22969207 </i>
    <varray name="rec_basis" >
     <v>       0.30328727       0.00000000       0.00000000 </v>
     <v>       0.00000000       0.20812837       0.00000000 </v>
     <v>       0.00000000       0.00000055       0.04993910 </v>
    </varray>
   </crystal>
   <varray name="positions" >
    <v>       0.50000000       0.90758001       0.55237237 </v>
    <v>       0.50000000       0.09241999       0.44762763 </v>
    <v>       0.00000000       0.40757589       0.44762764 </v>
    <v>      -0.00000000       0.59242411       0.55237236 </v>
   </varray>
  </structure>
  <varray name="forces" >
   <v>       0.00000008      -0.22873104      -0.10497103 </v>
   <v>      -0.00000008       0.22873104       0.10497103 </v>
   <v>       0.00000008      -0.22874730       0.10497552 </v>
   <v>      -0.00000008       0.22874730      -0.10497552 </v>
  </varray>
  <varray name="stress" >
   <v>      -3.84615316      -0.00000073       0.00000121 </v>
   <v>      -0.00000072      -8.51327540       0.00026792 </v>
   <v>       0.00000126       0.00026796      -2.35639004 </v>
  </varray>
  <energy>
   <i name="e_fr_energy">    -21.43316770 </i>
   <i name="e_wo_entrp">    -21.43316770 </i>
   <i name="e_0_energy">     -0.00000000 </i>
  </energy>
  <time name="totalsc">   12.17   12.20</time>
 </calculation>
 <calculation>
  <scstep>
   <time name="dav">    1.67    1.67</time>
   <time name="total">    1.78    1.79</time>
   <energy>
    <i name="alphaZ">      5.05678088 </i>
    <i name="ewald">   1784.16312524 </i>
    <i name="hartreedc">  -2390.95497220 </i>
    <i name="XCdc">     13.88450193 </i>
    <i name="pawpsdc">   2001.20225949 </i>
    <i name="pawaedc">  -1968.85949957 </i>
    <i name="eentropy">     -0.00000000 </i>
    <i name="bandstr">   -170.09731630 </i>
    <i name="atom">    704.16778566 </i>
    <i name="e_fr_energy">    -21.43733488 </i>
    <i name="e_wo_entrp">    -21.43733488 </i>
    <i name="e_0_energy">    -21.43733488 </i>
   </energy>
  </scstep>
  <scstep>
   <time name="dav">    1.99    1.99</time>
   <time name="total">    2.10    2.10</time>
   <energy>
    <i name="e_fr_energy">    -21.43923517 </i>
    <i name="e_wo_entrp">    -21.43923517 </i>
    <i name="e_0_energy">    -21.43923517 </i>
   </energy>
  </scstep>
  <scstep>
   <time name="dav">    2.14    2.14</time>
   <time name="total">    2.25    2.26</time>
   <energy>
    <i name="e_fr_energy">    -21.43922118 </i>
    <i name="e_wo_entrp">    -21.43922118 </i>
    <i name="e_0_energy">    -21.43922118 </i>
   </energy>
  </scstep>
  <scstep>
   <time name="dav">    1.94    1.94</time>
   <time name="total">    2.05    2.05</time>
   <energy>
    <i name="e_fr_energy">    -21.43921818 </i>
    <i name="e_wo_entrp">    -21.43921818 </i>
    <i name="e_0_energy">    -21.43921818 </i>
   </energy>
  </scstep>
  <scstep>
   <time name="dav">    1.55    1.55</time>
   <time name="total">    1.66    1.66</time>
   <energy>
    <i name="e_fr_energy">    -21.43921984 </i>
    <i name="e_wo_entrp">    -21.43921984 </i>
    <i name="e_0_energy">    -21.43921984 </i>
   </energy>
  </scstep>
  <scstep>
   <time name="dav">    1.33    1.33</time>
   <time name="total">    1.35    1.35</time>
   <energy>
    <i name="alphaZ">      5.05678088 </i>
    <i name="ewald">   1784.16312524 </i>
    <i name="hartreedc">  -2390.96910675 </i>
    <i name="XCdc">     13.89225052 </i>
    <i name="pawpsdc">   2044.71933096 </i>
    <i name="pawaedc">  -2012.39269909 </i>
    <i name="eentropy">     -0.00000000 </i>
    <i name="bandstr">   -170.07668814 </i>
    <i name="atom">    704.16778566 </i>
    <i name="e_fr_energy">    -21.43922073 </i>
    <i name="e_wo_entrp">    -21.43922073 </i>
    <i name="e_0_energy">    -21.43922073 </i>
   </energy>
  </scstep>
  <structure>
   <crystal>
    <varray name="basis" >
     <v>       3.29720400       0.00000000       0.00000000 </v>
     <v>       0.00000000       4.80472700      -0.00005300 </v>
     <v>       0.00000000       0.00000000      20.02439000 </v>
    </varray>
    <i name="volume">    317.22969207 </i>
    <varray name="rec_basis" >
     <v>       0.30328727       0.00000000       0.00000000 </v>
     <v>       0.00000000       0.20812837       0.00000000 </v>
     <v>       0.00000000       0.00000055       0.04993910 </v>
    </varray>
   </crystal>
   <varray name="positions" >
    <v>       0.50000000       0.90513691       0.55225864 </v>
    <v>       0.50000000       0.09486309       0.44774136 </v>
    <v>       0.00000000       0.40513270       0.44774136 </v>
    <v>      -0.00000000       0.59486730       0.55225864 </v>
   </varray>
  </structure>
  <varray name="forces" >
   <v>       0.00000004       0.01591417      -0.10874532 </v>
   <v>      -0.00000004      -0.01591417       0.10874532 </v>
   <v>      -0.00000009       0.01590075       0.10874310 </v>
   <v>       0.00000009      -0.01590075      -0.10874310 </v>
  </varray>
  <varray name="stress" >
   <v>      -2.87058971       0.00000049       0.00000191 </v>
   <v>       0.00000060      -4.98204662       0.00019687 </v>
   <v>       0.00000188       0.00019688      -2.42058075 </v>
  </varray>
  <energy>
   <i name="e_fr_energy">    -21.43922073 </i>
   <i name="e_wo_entrp">    -21.43922073 </i>
   <i name="e_0_energy">     -0.00000000 </i>
  </energy>
  <time name="totalsc">   12.03   12.05</time>
 </calculation>
 <calculation>
  <scstep>
   <time name="dav">    1.72    1.72</time>
   <time name="total">    1.83    1.83</time>
   <energy>
    <i name="alphaZ">      5.05678088 </i>
    <i name="ewald">   1784.24503129 </i>
    <i name="hartreedc">  -2391.02007120 </i>
    <i name="XCdc">     13.89352884 </i>
    <i name="pawpsdc">   2044.95715713 </i>
    <i name="pawaedc">  -2012.63037412 </i>
    <i name="eentropy">     -0.00000000 </i>
    <i name="bandstr">   -170.10906297 </i>
    <i name="atom">    704.16778566 </i>
    <i name="e_fr_energy">    -21.43922450 </i>
    <i name="e_wo_entrp">    -21.43922450 </i>
    <i name="e_0_energy">    -21.43922450 </i>
   </energy>
  </scstep>
  <scstep>
   <time name="dav">    1.46    1.46</time>
   <time name="total">    1.57    1.57</time>
   <energy>
    <i name="e_fr_energy">    -21.43922648 </i>
    <i name="e_wo_entrp">    -21.43922648 </i>
    <i name="e_0_energy">    -21.43922648 </i>
   </energy>
  </scstep>
  <scstep>
   <time name="dav">    1.28    1.28</time>
   <time name="total">    1.40    1.40</time>
   <energy>
    <i name="e_fr_energy">    -21.43922771 </i>
    <i name="e_wo_entrp">    -21.43922771 </i>
    <i name="e_0_energy">    -21.43922771 </i>
   </energy>
  </scstep>
  <scstep>
   <time name="dav">    1.40    1.40</time>
   <time name="total">    1.51    1.51</time>
   <energy>
    <i name="e_fr_energy">    -21.43922908 </i>
    <i name="e_wo_entrp">    -21.43922908 </i>
    <i name="e_0_energy">    -21.43922908 </i>
   </energy>
  </scstep>
  <scstep>
   <time name="dav">    1.39    1.39</time>
   <time name="total">    1.51    1.51</time>
   <energy>
    <i name="e_fr_energy">    -21.43923042 </i>
    <i name="e_wo_entrp">    -21.43923042 </i>
    <i name="e_0_energy">    -21.43923042 </i>
   </energy>
  </scstep>
  <scstep>
   <time name="dav">    1.39    1.39</time>
   <time name="total">    1.41    1.41</time>
   <energy>
    <i name="alphaZ">      5.05678088 </i>
    <i name="ewald">   1784.24503129 </i>
    <i name="hartreedc">  -2390.99727435 </i>
    <i name="XCdc">     13.89345088 </i>
    <i name="pawpsdc">   2045.89550831 </i>
    <i name="pawaedc">  -2013.56907426 </i>
    <i name="eentropy">     -0.00000000 </i>
    <i name="bandstr">   -170.13143958 </i>
    <i name="atom">    704.16778566 </i>
    <i name="e_fr_energy">    -21.43923117 </i>
    <i name="e_wo_entrp">    -21.43923117 </i>
    <i name="e_0_energy">    -21.43923117 </i>
   </energy>
  </scstep>
  <structure>
   <crystal>
    <varray name="basis" >
     <v>       3.29720400       0.00000000       0.00000000 </v>
     <v>       0.00000000       4.80472700      -0.00005300 </v>
     <v>       0.00000000       0.00000000      20.02439000 </v>
    </varray>
    <i name="volume">    317.22969207 </i>
    <varray name="rec_basis" >
     <v>       0.30328727       0.00000000       0.00000000 </v>
     <v>       0.00000000       0.20812837       0.00000000 </v>
     <v>       0.00000000       0.00000055       0.04993910 </v>
    </varray>
   </crystal>
   <varray name="positions" >
    <v>       0.50000000       0.90508494       0.55225622 </v>
    <v>       0.50000000       0.09491506       0.44774378 </v>
    <v>       0.00000000       0.40508073       0.44774378 </v>
    <v>      -0.00000000       0.59491927       0.55225622 </v>
   </varray>
  </structure>
  <varray name="forces" >
   <v>       0.00000010       0.02102894      -0.10877172 </v>
   <v>      -0.00000010      -0.02102894       0.10877172 </v>
   <v>       0.00000004       0.02101545       0.10876943 </v>
   <v>      -0.00000004      -0.02101545      -0.10876943 </v>
  </varray>
  <varray name="stress" >
   <v>      -2.85601809       0.00000075       0.00000056 </v>
   <v>       0.00000080      -4.89305510       0.00019574 </v>
   <v>       0.00000056       0.00019566      -2.37266683 </v>
  </varray>
  <energy>
   <i name="e_fr_energy">    -21.43923117 </i>
   <i name="e_wo_entrp">    -21.43923117 </i>
   <i name="e_0_energy">     -0.00000000 </i>
  </energy>
  <time name="totalsc">   10.05   10.07</time>
 </calculation>
 <calculation>
  <scstep>
   <time name="dav">    1.55    1.55</time>
   <time name="total">    1.67    1.67</time>
   <energy>
    <i name="alphaZ">      5.05678088 </i>
    <i name="ewald">   1787.57707480 </i>
    <i name="hartreedc">  -2394.14149413 </i>
    <i name="XCdc">     13.91608936 </i>
    <i name="pawpsdc">   2045.95065766 </i>
    <i name="pawaedc">  -2013.62422439 </i>
    <i name="eentropy">     -0.00000000 </i>
    <i name="bandstr">   -170.34293835 </i>
    <i name="atom">    704.16778566 </i>
    <i name="e_fr_energy">    -21.44026852 </i>
    <i name="e_wo_entrp">    -21.44026852 </i>
    <i name="e_0_energy">    -21.44026852 </i>
   </energy>
  </scstep>
  <scstep>
   <time name="dav">    1.93    1.93</time>
   <time name="total">    2.04    2.05</time>
   <energy>
    <i name="e_fr_energy">    -21.44051783 </i>
    <i name="e_wo_entrp">    -21.44051783 </i>
    <i name="e_0_energy">    -21.44051783 </i>
   </energy>
  </scstep>
  <scstep>
   <time name="dav">    2.07    2.07</time>
   <time name="total">    2.18    2.18</time>
   <energy>
    <i name="e_fr_energy">    -21.44051258 </i>
    <i name="e_wo_entrp">    -21.44051258 </i>
    <i name="e_0_energy">    -21.44051258 </i>
   </energy>
  </scstep>
  <scstep>
   <time name="dav">    1.50    1.51</time>
   <time name="total">    1.62    1.62</time>
   <energy>
    <i name="e_fr_energy">    -21.44051232 </i>
    <i name="e_wo_entrp">    -21.44051232 </i>
    <i name="e_0_energy">    -21.44051232 </i>
   </energy>
  </scstep>
  <scstep>
   <time name="dav">    1.34    1.34</time>
   <time name="total">    1.45    1.45</time>
   <energy>
    <i name="e_fr_energy">    -21.44051224 </i>
    <i name="e_wo_entrp">    -21.44051224 </i>
    <i name="e_0_energy">    -21.44051224 </i>
   </energy>
  </scstep>
  <scstep>
   <time name="dav">    1.25    1.25</time>
   <time name="total">    1.27    1.27</time>
   <energy>
    <i name="alphaZ">      5.05678088 </i>
    <i name="ewald">   1787.57707480 </i>
    <i name="hartreedc">  -2394.14651468 </i>
    <i name="XCdc">     13.91750349 </i>
    <i name="pawpsdc">   2056.73593462 </i>
    <i name="pawaedc">  -2024.41313573 </i>
    <i name="eentropy">     -0.00000000 </i>
    <i name="bandstr">   -170.33594122 </i>
    <i name="atom">    704.16778566 </i>
    <i name="e_fr_energy">    -21.44051218 </i>
    <i name="e_wo_entrp">    -21.44051218 </i>
    <i name="e_0_energy">    -21.44051218 </i>
   </energy>
  </scstep>
  <structure>
   <crystal>
    <varray name="basis" >
     <v>       3.29720400       0.00000000       0.00000000 </v>
     <v>       0.00000000       4.80472700      -0.00005300 </v>
     <v>       0.00000000       0.00000000      20.02439000 </v>
    </varray>
    <i name="volume">    317.22969207 </i>
    <varray name="rec_basis" >
     <v>       0.30328727       0.00000000       0.00000000 </v>
     <v>       0.00000000       0.20812837       0.00000000 </v>
     <v>       0.00000000       0.00000055       0.04993910 </v>
    </varray>
   </crystal>
   <varray name="positions" >
    <v>       0.50000000       0.90507651       0.55206721 </v>
    <v>       0.50000000       0.09492349       0.44793279 </v>
    <v>       0.00000000       0.40507220       0.44793280 </v>
    <v>      -0.00000000       0.59492780       0.55206720 </v>
   </varray>
  </structure>
  <varray name="forces" >
   <v>       0.00000011       0.01050718      -0.05969837 </v>
   <v>      -0.00000011      -0.01050718       0.05969837 </v>
   <v>      -0.00000006       0.01049559       0.05969669 </v>
   <v>       0.00000006      -0.01049559      -0.05969669 </v>
  </varray>
  <varray name="stress" >
   <v>      -2.76114387      -0.00000074       0.00000084 </v>
   <v>      -0.00000073      -4.69161154       0.00017298 </v>
   <v>       0.00000080       0.00017299      -1.34362466 </v>
  </varray>
  <energy>
   <i name="e_fr_energy">    -21.44051218 </i>
   <i name="e_wo_entrp">    -21.44051218 </i>
   <i name="e_0_energy">     -0.00000000 </i>
  </energy>
  <time name="totalsc">   11.07   11.09</time>
 </calculation>
 <calculation>
  <scstep>
   <time name="dav">    1.53    1.53</time>
   <time name="total">    1.65    1.65</time>
   <energy>
    <i name="alphaZ">      5.05678088 </i>
    <i name="ewald">   1791.63591283 </i>
    <i name="hartreedc">  -2397.97369759 </i>
    <i name="XCdc">     13.94519164 </i>
    <i name="pawpsdc">   2056.71532549 </i>
    <i name="pawaedc">  -2024.39243627 </i>
    <i name="eentropy">     -0.00000000 </i>
    <i name="bandstr">   -170.59555445 </i>
    <i name="atom">    704.16778566 </i>
    <i name="e_fr_energy">    -21.44069181 </i>
    <i name="e_wo_entrp">    -21.44069181 </i>
    <i name="e_0_energy">    -21.44069181 </i>
   </energy>
  </scstep>
  <scstep>
   <time name="dav">    1.95    1.95</time>
   <time name="total">    2.06    2.06</time>
   <energy>
    <i name="e_fr_energy">    -21.44106442 </i>
    <i name="e_wo_entrp">    -21.44106442 </i>
    <i name="e_0_energy">    -21.44106442 </i>
   </energy>
  </scstep>
  <scstep>
   <time name="dav">    2.08    2.08</time>
   <time name="total">    2.19    2.19</time>
   <energy>
    <i name="e_fr_energy">    -21.44105604 </i>
    <i name="e_wo_entrp">    -21.44105604 </i>
    <i name="e_0_energy">    -21.44105604 </i>
   </energy>
  </scstep>
  <scstep>
   <time name="dav">    1.73    1.73</time>
   <time name="total">    1.85    1.85</time>
   <energy>
    <i name="e_fr_energy">    -21.44105550 </i>
    <i name="e_wo_entrp">    -21.44105550 </i>
    <i name="e_0_energy">    -21.44105550 </i>
   </energy>
  </scstep>
  <scstep>
   <time name="dav">    1.34    1.34</time>
   <time name="total">    1.46    1.46</time>
   <energy>
    <i name="e_fr_energy">    -21.44105508 </i>
    <i name="e_wo_entrp">    -21.44105508 </i>
    <i name="e_0_energy">    -21.44105508 </i>
   </energy>
  </scstep>
  <scstep>
   <time name="dav">    1.23    1.23</time>
   <time name="total">    1.25    1.25</time>
   <energy>
    <i name="alphaZ">      5.05678088 </i>
    <i name="ewald">   1791.63591283 </i>
    <i name="hartreedc">  -2397.97569177 </i>
    <i name="XCdc">     13.94692091 </i>
    <i name="pawpsdc">   2070.09690102 </i>
    <i name="pawaedc">  -2037.77853170 </i>
    <i name="eentropy">     -0.00000000 </i>
    <i name="bandstr">   -170.59113291 </i>
    <i name="atom">    704.16778566 </i>
    <i name="e_fr_energy">    -21.44105508 </i>
    <i name="e_wo_entrp">    -21.44105508 </i>
    <i name="e_0_energy">    -21.44105508 </i>
   </energy>
  </scstep>
  <structure>
   <crystal>
    <varray name="basis" >
     <v>       3.29720400       0.00000000       0.00000000 </v>
     <v>       0.00000000       4.80472700      -0.00005300 </v>
     <v>       0.00000000       0.00000000      20.02439000 </v>
    </varray>
    <i name="volume">    317.22969207 </i>
    <varray name="rec_basis" >
     <v>       0.30328727       0.00000000       0.00000000 </v>
     <v>       0.00000000       0.20812837       0.00000000 </v>
     <v>       0.00000000       0.00000055       0.04993910 </v>
    </varray>
   </crystal>
   <varray name="positions" >
    <v>       0.50000000       0.90506625       0.55183718 </v>
    <v>       0.50000000       0.09493375       0.44816282 </v>
    <v>       0.00000000       0.40506182       0.44816283 </v>
    <v>      -0.00000000       0.59493818       0.55183717 </v>
   </varray>
  </structure>
  <varray name="forces" >
   <v>       0.00000004      -0.00329961       0.00213489 </v>
   <v>      -0.00000004       0.00329961      -0.00213489 </v>
   <v>      -0.00000006      -0.00330890      -0.00213542 </v>
   <v>       0.00000006       0.00330890       0.00213542 </v>
  </varray>
  <varray name="stress" >
   <v>      -2.63791780      -0.00000063       0.00000067 </v>
   <v>      -0.00000073      -4.43145903       0.00014524 </v>
   <v>       0.00000060       0.00014524      -0.04989118 </v>
  </varray>
  <energy>
   <i name="e_fr_energy">    -21.44105508 </i>
   <i name="e_wo_entrp">    -21.44105508 </i>
   <i name="e_0_energy">     -0.00000000 </i>
  </energy>
  <time name="totalsc">   11.22   11.24</time>
  <eigenvalues>
   <array>
    <dimension dim="1">band</dimension>
    <dimension dim="2">kpoint</dimension>
    <dimension dim="3">spin</dimension>
    <field>eigene</field>
    <field>occ</field>
    <set>
     <set comment="spin 1">
      <set comment="kpoint 1">
       <r>  -17.2542    1.0000 </r>
       <r>  -14.9189    1.0000 </r>
       <r>  -11.7650    1.0000 </r>
       <r>   -8.0151    1.0000 </r>
       <r>   -7.2697    1.0000 </r>
       <r>   -6.7922    1.0000 </r>
       <r>   -5.6384    1.0000 </r>
       <r>   -4.1533    1.0000 </r>
       <r>   -3.9341    1.0000 </r>
       <r>   -2.4500    1.0000 </r>
       <r>   -1.3946    0.0000 </r>
       <r>   -0.7240    0.0000 </r>
       <r>    0.2019    0.0000 </r>
       <r>    0.7403    0.0000 </r>
       <r>    2.0064    0.0000 </r>
       <r>    2.2625    0.0000 </r>
      </set>
      <set comment="kpoint 2">
       <r>  -17.2297    1.0000 </r>
       <r>  -14.8932    1.0000 </r>
       <r>  -11.7696    1.0000 </r>
       <r>   -7.9971    1.0000 </r>
       <r>   -7.2818    1.0000 </r>
       <r>   -6.7707    1.0000 </r>
       <r>   -5.8058    1.0000 </r>
       <r>   -4.3295    1.0000 </r>
       <r>   -3.9265    1.0000 </r>
       <r>   -2.4500    1.0000 </r>
       <r>   -1.3724    0.0000 </r>
       <r>   -0.4960    0.0000 </r>
       <r>    0.4265    0.0000 </r>
       <r>    0.5916    0.0000 </r>
       <r>    2.0315    0.0000 </r>
       <r>    2.2900    0.0000 </r>
      </set>
      <set comment="kpoint 3">
       <r>  -17.1562    1.0000 </r>
       <r>  -14.8161    1.0000 </r>
       <r>  -11.7872    1.0000 </r>
       <r>   -7.9438    1.0000 </r>
       <r>   -7.3329    1.0000 </r>
       <r>   -6.7067    1.0000 </r>
       <r>   -6.2215    1.0000 </r>
       <r>   -4.7465    1.0000 </r>
       <r>   -3.9072    1.0000 </r>
       <r>   -2.4633    1.0000 </r>
       <r>   -1.3063    0.0000 </r>
       <r>    0.1151    0.0000 </r>
       <r>    0.2203    0.0000 </r>
       <r>    0.9831    0.0000 </r>
       <r>    2.1017    0.0000 </r>
       <r>    2.3723    0.0000 </r>
      </set>
      <set comment="kpoint 4">
       <r>  -17.0341    1.0000 </r>
       <r>  -14.6878    1.0000 </r>
       <r>  -11.8302    1.0000 </r>
       <r>   -7.8576    1.0000 </r>
       <r>   -7.4711    1.0000 </r>
       <r>   -6.7328    1.0000 </r>
       <r>   -6.6013    1.0000 </r>
       <r>   -5.2005    1.0000 </r>
       <r>   -3.8879    1.0000 </r>
       <r>   -2.5067    1.0000 </r>
       <r>   -1.1981    0.0000 </r>
       <r>   -0.2401    0.0000 </r>
       <r>    0.9711    0.0000 </r>
       <r>    1.6051    0.0000 </r>
       <r>    2.1591    0.0000 </r>
       <r>    2.5087    0.0000 </r>
      </set>
      <set comment="kpoint 5">
       <r>  -16.8639    1.0000 </r>
       <r>  -14.5084    1.0000 </r>
       <r>  -11.9189    1.0000 </r>
       <r>   -7.7664    1.0000 </r>
       <r>   -7.7430    1.0000 </r>
       <r>   -7.2252    1.0000 </r>
       <r>   -6.4568    1.0000 </r>
       <r>   -5.5249    1.0000 </r>
       <r>   -3.8898    1.0000 </r>
       <r>   -2.5906    1.0000 </r>
       <r>   -1.0518    0.0000 </r>
       <r>   -0.6819    0.0000 </r>
       <r>    1.7471    0.0000 </r>
       <r>    1.8133    0.0000 </r>
       <r>    1.9446    0.0000 </r>
       <r>    2.5248    0.0000 </r>
      </set>
      <set comment="kpoint 6">
       <r>  -16.6465    1.0000 </r>
       <r>  -14.2784    1.0000 </r>
       <r>  -12.0780    1.0000 </r>
       <r>   -8.2389    1.0000 </r>
       <r>   -7.6250    1.0000 </r>
       <r>   -7.6078    1.0000 </r>
       <r>   -6.2769    1.0000 </r>
       <r>   -5.6543    1.0000 </r>
       <r>   -3.9425    1.0000 </r>
       <r>   -2.7249    1.0000 </r>
       <r>   -1.0237    0.0000 </r>
       <r>   -0.8775    0.0000 </r>
       <r>    1.2715    0.0000 </r>
       <r>    1.2758    0.0000 </r>
       <r>    2.5491    0.0000 </r>
       <r>    2.7486    0.0000 </r>
      </set>
      <set comment="kpoint 7">
       <r>  -16.3831    1.0000 </r>
       <r>  -13.9983    1.0000 </r>
       <r>  -12.3263    1.0000 </r>
       <r>   -8.8276    1.0000 </r>
       <r>   -7.8894    1.0000 </r>
       <r>   -7.4650    1.0000 </r>
       <r>   -6.0676    1.0000 </r>
       <r>   -5.6313    1.0000 </r>
       <r>   -4.0669    1.0000 </r>
       <r>   -2.9161    1.0000 </r>
       <r>   -1.2076    0.0000 </r>
       <r>   -0.7036    0.0000 </r>
       <r>    0.6666    0.0000 </r>
       <r>    0.7798    0.0000 </r>
       <r>    2.1846    0.0000 </r>
       <r>    3.0464    0.0000 </r>
      </set>
      <set comment="kpoint 8">
       <r>  -16.0755    1.0000 </r>
       <r>  -13.6687    1.0000 </r>
       <r>  -12.6648    1.0000 </r>
       <r>   -9.4631    1.0000 </r>
       <r>   -8.0063    1.0000 </r>
       <r>   -7.3360    1.0000 </r>
       <r>   -5.8383    1.0000 </r>
       <r>   -5.5218    1.0000 </r>
       <r>   -4.2456    1.0000 </r>
       <r>   -3.1625    1.0000 </r>
       <r>   -1.2168    0.0000 </r>
       <r>   -0.6214    0.0000 </r>
       <r>    0.0774    0.0000 </r>
       <r>    0.4546    0.0000 </r>
       <r>    1.7244    0.0000 </r>
       <r>    3.0977    0.0000 </r>
      </set>
      <set comment="kpoint 9">
       <r>  -15.7259    1.0000 </r>
       <r>  -13.2904    1.0000 </r>
       <r>  -13.0749    1.0000 </r>
       <r>  -10.1035    1.0000 </r>
       <r>   -7.9919    1.0000 </r>
       <r>   -7.2524    1.0000 </r>
       <r>   -5.6039    1.0000 </r>
       <r>   -5.3762    1.0000 </r>
       <r>   -4.4164    1.0000 </r>
       <r>   -3.4510    1.0000 </r>
       <r>   -1.0755    0.0000 </r>
       <r>   -0.7649    0.0000 </r>
       <r>   -0.4476    0.0000 </r>
       <r>    0.4598    0.0000 </r>
       <r>    1.2635    0.0000 </r>
       <r>    2.7516    0.0000 </r>
      </set>
      <set comment="kpoint 10">
       <r>  -15.3377    1.0000 </r>
       <r>  -13.5284    1.0000 </r>
       <r>  -12.8645    1.0000 </r>
       <r>  -10.7264    1.0000 </r>
       <r>   -7.8781    1.0000 </r>
       <r>   -7.2493    1.0000 </r>
       <r>   -5.3871    1.0000 </r>
       <r>   -5.2362    1.0000 </r>
       <r>   -4.5052    1.0000 </r>
       <r>   -3.7587    1.0000 </r>
       <r>   -1.0229    0.0000 </r>
       <r>   -0.8721    0.0000 </r>
       <r>   -0.8207    0.0000 </r>
       <r>    0.7116    0.0000 </r>
       <r>    0.8014    0.0000 </r>
       <r>    2.3405    0.0000 </r>
      </set>
      <set comment="kpoint 11">
       <r>  -14.9154    1.0000 </r>
       <r>  -13.9988    1.0000 </r>
       <r>  -12.3926    1.0000 </r>
       <r>  -11.3199    1.0000 </r>
       <r>   -7.7031    1.0000 </r>
       <r>   -7.3421    1.0000 </r>
       <r>   -5.2192    1.0000 </r>
       <r>   -5.1429    1.0000 </r>
       <r>   -4.4667    1.0000 </r>
       <r>   -4.0553    1.0000 </r>
       <r>   -1.2217    0.0000 </r>
       <r>   -1.1595    0.0000 </r>
       <r>   -0.4840    0.0000 </r>
       <r>    0.3455    0.0000 </r>
       <r>    1.0676    0.0000 </r>
       <r>    1.9054    0.0000 </r>
      </set>
      <set comment="kpoint 12">
       <r>  -14.4659    1.0000 </r>
       <r>  -14.4659    1.0000 </r>
       <r>  -11.8768    1.0000 </r>
       <r>  -11.8768    1.0000 </r>
       <r>   -7.5087    1.0000 </r>
       <r>   -7.5087    1.0000 </r>
       <r>   -5.1325    1.0000 </r>
       <r>   -5.1325    1.0000 </r>
       <r>   -4.3050    1.0000 </r>
       <r>   -4.3050    1.0000 </r>
       <r>   -1.2783    0.0000 </r>
       <r>   -1.2782    0.0000 </r>
       <r>   -0.0889    0.0000 </r>
       <r>   -0.0889    0.0000 </r>
       <r>    1.4739    0.0000 </r>
       <r>    1.4739    0.0000 </r>
      </set>
      <set comment="kpoint 13">
       <r>  -17.2349    1.0000 </r>
       <r>  -14.9532    1.0000 </r>
       <r>  -11.7535    1.0000 </r>
       <r>   -8.2025    1.0000 </r>
       <r>   -7.1193    1.0000 </r>
       <r>   -6.7176    1.0000 </r>
       <r>   -5.6238    1.0000 </r>
       <r>   -4.1700    1.0000 </r>
       <r>   -3.8691    1.0000 </r>
       <r>   -2.6292    1.0000 </r>
       <r>   -1.2235    0.0000 </r>
       <r>   -0.7090    0.0000 </r>
       <r>    0.1570    0.0000 </r>
       <r>    0.7410    0.0000 </r>
       <r>    2.0579    0.0000 </r>
       <r>    2.2895    0.0000 </r>
      </set>
      <set comment="kpoint 14">
       <r>  -17.2103    1.0000 </r>
       <r>  -14.9276    1.0000 </r>
       <r>  -11.7573    1.0000 </r>
       <r>   -8.1889    1.0000 </r>
       <r>   -7.1260    1.0000 </r>
       <r>   -6.7015    1.0000 </r>
       <r>   -5.7860    1.0000 </r>
       <r>   -4.3491    1.0000 </r>
       <r>   -3.8627    1.0000 </r>
       <r>   -2.6260    1.0000 </r>
       <r>   -1.2043    0.0000 </r>
       <r>   -0.4817    0.0000 </r>
       <r>    0.3749    0.0000 </r>
       <r>    0.6028    0.0000 </r>
       <r>    2.0820    0.0000 </r>
       <r>    2.3171    0.0000 </r>
      </set>
      <set comment="kpoint 15">
       <r>  -17.1369    1.0000 </r>
       <r>  -14.8510    1.0000 </r>
       <r>  -11.7725    1.0000 </r>
       <r>   -8.1518    1.0000 </r>
       <r>   -7.1580    1.0000 </r>
       <r>   -6.6694    1.0000 </r>
       <r>   -6.1712    1.0000 </r>
       <r>   -4.7717    1.0000 </r>
       <r>   -3.8491    1.0000 </r>
       <r>   -2.6279    1.0000 </r>
       <r>   -1.1499    0.0000 </r>
       <r>    0.1283    0.0000 </r>
       <r>    0.2226    0.0000 </r>
       <r>    0.9527    0.0000 </r>
       <r>    2.1495    0.0000 </r>
       <r>    2.3993    0.0000 </r>
      </set>
      <set comment="kpoint 16">
       <r>  -17.0149    1.0000 </r>
       <r>  -14.7237    1.0000 </r>
       <r>  -11.8113    1.0000 </r>
       <r>   -8.1091    1.0000 </r>
       <r>   -7.2497    1.0000 </r>
       <r>   -6.8282    1.0000 </r>
       <r>   -6.4221    1.0000 </r>
       <r>   -5.2305    1.0000 </r>
       <r>   -3.8407    1.0000 </r>
       <r>   -2.6512    1.0000 </r>
       <r>   -1.0614    0.0000 </r>
       <r>   -0.2212    0.0000 </r>
       <r>    0.9800    0.0000 </r>
       <r>    1.5855    0.0000 </r>
       <r>    2.1698    0.0000 </r>
       <r>    2.4419    0.0000 </r>
      </set>
      <set comment="kpoint 17">
       <r>  -16.8448    1.0000 </r>
       <r>  -14.5460    1.0000 </r>
       <r>  -11.8941    1.0000 </r>
       <r>   -8.1288    1.0000 </r>
       <r>   -7.4123    1.0000 </r>
       <r>   -7.2701    1.0000 </r>
       <r>   -6.3343    1.0000 </r>
       <r>   -5.5547    1.0000 </r>
       <r>   -3.8592    1.0000 </r>
       <r>   -2.7096    1.0000 </r>
       <r>   -0.9397    0.0000 </r>
       <r>   -0.6421    0.0000 </r>
       <r>    1.6493    0.0000 </r>
       <r>    1.7788    0.0000 </r>
       <r>    2.0185    0.0000 </r>
       <r>    2.5019    0.0000 </r>
      </set>
      <set comment="kpoint 18">
       <r>  -16.6277    1.0000 </r>
       <r>  -14.3189    1.0000 </r>
       <r>  -12.0456    1.0000 </r>
       <r>   -8.3870    1.0000 </r>
       <r>   -7.6615    1.0000 </r>
       <r>   -7.4978    1.0000 </r>
       <r>   -6.1715    1.0000 </r>
       <r>   -5.6801    1.0000 </r>
       <r>   -3.9315    1.0000 </r>
       <r>   -2.8168    1.0000 </r>
       <r>   -0.9586    0.0000 </r>
       <r>   -0.7913    0.0000 </r>
       <r>    1.1303    0.0000 </r>
       <r>    1.3371    0.0000 </r>
       <r>    2.5581    0.0000 </r>
       <r>    2.8659    0.0000 </r>
      </set>
      <set comment="kpoint 19">
       <r>  -16.3646    1.0000 </r>
       <r>  -14.0443    1.0000 </r>
       <r>  -12.2843    1.0000 </r>
       <r>   -8.8975    1.0000 </r>
       <r>   -7.9234    1.0000 </r>
       <r>   -7.4368    1.0000 </r>
       <r>   -5.9755    1.0000 </r>
       <r>   -5.6591    1.0000 </r>
       <r>   -4.0701    1.0000 </r>
       <r>   -2.9819    1.0000 </r>
       <r>   -1.1189    0.0000 </r>
       <r>   -0.6428    0.0000 </r>
       <r>    0.6355    0.0000 </r>
       <r>    0.7424    0.0000 </r>
       <r>    2.3124    0.0000 </r>
       <r>    3.1088    0.0000 </r>
      </set>
      <set comment="kpoint 20">
       <r>  -16.0574    1.0000 </r>
       <r>  -13.7282    1.0000 </r>
       <r>  -12.6067    1.0000 </r>
       <r>   -9.5061    1.0000 </r>
       <r>   -8.0382    1.0000 </r>
       <r>   -7.3319    1.0000 </r>
       <r>   -5.7625    1.0000 </r>
       <r>   -5.5668    1.0000 </r>
       <r>   -4.2452    1.0000 </r>
       <r>   -3.2035    1.0000 </r>
       <r>   -1.1140    0.0000 </r>
       <r>   -0.5946    0.0000 </r>
       <r>    0.1561    0.0000 </r>
       <r>    0.3228    0.0000 </r>
       <r>    1.9009    0.0000 </r>
       <r>    3.0388    0.0000 </r>
      </set>
      <set comment="kpoint 21">
       <r>  -15.7085    1.0000 </r>
       <r>  -13.4183    1.0000 </r>
       <r>  -12.9473    1.0000 </r>
       <r>  -10.1347    1.0000 </r>
       <r>   -8.0203    1.0000 </r>
       <r>   -7.2525    1.0000 </r>
       <r>   -5.5523    1.0000 </r>
       <r>   -5.4598    1.0000 </r>
       <r>   -4.3844    1.0000 </r>
       <r>   -3.4660    1.0000 </r>
       <r>   -0.9777    0.0000 </r>
       <r>   -0.7809    0.0000 </r>
       <r>   -0.3621    0.0000 </r>
       <r>    0.3431    0.0000 </r>
       <r>    1.4772    0.0000 </r>
       <r>    2.7012    0.0000 </r>
      </set>
      <set comment="kpoint 22">
       <r>  -15.3214    1.0000 </r>
       <r>  -13.5592    1.0000 </r>
       <r>  -12.8341    1.0000 </r>
       <r>  -10.7509    1.0000 </r>
       <r>   -7.9016    1.0000 </r>
       <r>   -7.2489    1.0000 </r>
       <r>   -5.3737    1.0000 </r>
       <r>   -5.3688    1.0000 </r>
       <r>   -4.4204    1.0000 </r>
       <r>   -3.7413    1.0000 </r>
       <r>   -1.0530    0.0000 </r>
       <r>   -0.9041    0.0000 </r>
       <r>   -0.6168    0.0000 </r>
       <r>    0.5236    0.0000 </r>
       <r>    1.1054    0.0000 </r>
       <r>    2.2984    0.0000 </r>
      </set>
      <set comment="kpoint 23">
       <r>  -14.9012    1.0000 </r>
       <r>  -13.9971    1.0000 </r>
       <r>  -12.3956    1.0000 </r>
       <r>  -11.3391    1.0000 </r>
       <r>   -7.7200    1.0000 </r>
       <r>   -7.3446    1.0000 </r>
       <r>   -5.2929    1.0000 </r>
       <r>   -5.2629    1.0000 </r>
       <r>   -4.3477    1.0000 </r>
       <r>   -3.9953    1.0000 </r>
       <r>   -1.2461    0.0000 </r>
       <r>   -1.1552    0.0000 </r>
       <r>   -0.3392    0.0000 </r>
       <r>    0.4101    0.0000 </r>
       <r>    1.1199    0.0000 </r>
       <r>    1.8749    0.0000 </r>
      </set>
      <set comment="kpoint 24">
       <r>  -14.4554    1.0000 </r>
       <r>  -14.4554    1.0000 </r>
       <r>  -11.8901    1.0000 </r>
       <r>  -11.8901    1.0000 </r>
       <r>   -7.5179    1.0000 </r>
       <r>   -7.5179    1.0000 </r>
       <r>   -5.2430    1.0000 </r>
       <r>   -5.2430    1.0000 </r>
       <r>   -4.2008    1.0000 </r>
       <r>   -4.2008    1.0000 </r>
       <r>   -1.2878    0.0000 </r>
       <r>   -1.2878    0.0000 </r>
       <r>    0.0342    0.0000 </r>
       <r>    0.0342    0.0000 </r>
       <r>    1.4645    0.0000 </r>
       <r>    1.4645    0.0000 </r>
      </set>
      <set comment="kpoint 25">
       <r>  -14.9012    1.0000 </r>
       <r>  -13.9971    1.0000 </r>
       <r>  -12.3956    1.0000 </r>
       <r>  -11.3391    1.0000 </r>
       <r>   -7.7200    1.0000 </r>
       <r>   -7.3446    1.0000 </r>
       <r>   -5.2929    1.0000 </r>
       <r>   -5.2629    1.0000 </r>
       <r>   -4.3477    1.0000 </r>
       <r>   -3.9953    1.0000 </r>
       <r>   -1.2461    0.0000 </r>
       <r>   -1.1552    0.0000 </r>
       <r>   -0.3392    0.0000 </r>
       <r>    0.4101    0.0000 </r>
       <r>    1.1199    0.0000 </r>
       <r>    1.8749    0.0000 </r>
      </set>
      <set comment="kpoint 26">
       <r>  -15.3214    1.0000 </r>
       <r>  -13.5592    1.0000 </r>
       <r>  -12.8341    1.0000 </r>
       <r>  -10.7509    1.0000 </r>
       <r>   -7.9016    1.0000 </r>
       <r>   -7.2489    1.0000 </r>
       <r>   -5.3737    1.0000 </r>
       <r>   -5.3688    1.0000 </r>
       <r>   -4.4204    1.0000 </r>
       <r>   -3.7413    1.0000 </r>
       <r>   -1.0530    0.0000 </r>
       <r>   -0.9041    0.0000 </r>
       <r>   -0.6168    0.0000 </r>
       <r>    0.5236    0.0000 </r>
       <r>    1.1054    0.0000 </r>
       <r>    2.2984    0.0000 </r>
      </set>
      <set comment="kpoint 27">
       <r>  -15.7085    1.0000 </r>
       <r>  -13.4183    1.0000 </r>
       <r>  -12.9473    1.0000 </r>
       <r>  -10.1347    1.0000 </r>
       <r>   -8.0203    1.0000 </r>
       <r>   -7.2525    1.0000 </r>
       <r>   -5.5523    1.0000 </r>
       <r>   -5.4598    1.0000 </r>
       <r>   -4.3844    1.0000 </r>
       <r>   -3.4660    1.0000 </r>
       <r>   -0.9777    0.0000 </r>
       <r>   -0.7809    0.0000 </r>
       <r>   -0.3621    0.0000 </r>
       <r>    0.3431    0.0000 </r>
       <r>    1.4772    0.0000 </r>
       <r>    2.7012    0.0000 </r>
      </set>
      <set comment="kpoint 28">
       <r>  -16.0574    1.0000 </r>
       <r>  -13.7282    1.0000 </r>
       <r>  -12.6067    1.0000 </r>
       <r>   -9.5061    1.0000 </r>
       <r>   -8.0382    1.0000 </r>
       <r>   -7.3319    1.0000 </r>
       <r>   -5.7625    1.0000 </r>
       <r>   -5.5668    1.0000 </r>
       <r>   -4.2452    1.0000 </r>
       <r>   -3.2035    1.0000 </r>
       <r>   -1.1140    0.0000 </r>
       <r>   -0.5946    0.0000 </r>
       <r>    0.1561    0.0000 </r>
       <r>    0.3228    0.0000 </r>
       <r>    1.9009    0.0000 </r>
       <r>    3.0388    0.0000 </r>
      </set>
      <set comment="kpoint 29">
       <r>  -16.3646    1.0000 </r>
       <r>  -14.0443    1.0000 </r>
       <r>  -12.2843    1.0000 </r>
       <r>   -8.8975    1.0000 </r>
       <r>   -7.9234    1.0000 </r>
       <r>   -7.4368    1.0000 </r>
       <r>   -5.9755    1.0000 </r>
       <r>   -5.6591    1.0000 </r>
       <r>   -4.0701    1.0000 </r>
       <r>   -2.9819    1.0000 </r>
       <r>   -1.1189    0.0000 </r>
       <r>   -0.6428    0.0000 </r>
       <r>    0.6355    0.0000 </r>
       <r>    0.7424    0.0000 </r>
       <r>    2.3124    0.0000 </r>
       <r>    3.1088    0.0000 </r>
      </set>
      <set comment="kpoint 30">
       <r>  -16.6277    1.0000 </r>
       <r>  -14.3189    1.0000 </r>
       <r>  -12.0456    1.0000 </r>
       <r>   -8.3870    1.0000 </r>
       <r>   -7.6615    1.0000 </r>
       <r>   -7.4978    1.0000 </r>
       <r>   -6.1715    1.0000 </r>
       <r>   -5.6801    1.0000 </r>
       <r>   -3.9315    1.0000 </r>
       <r>   -2.8168    1.0000 </r>
       <r>   -0.9586    0.0000 </r>
       <r>   -0.7913    0.0000 </r>
       <r>    1.1303    0.0000 </r>
       <r>    1.3371    0.0000 </r>
       <r>    2.5581    0.0000 </r>
       <r>    2.8659    0.0000 </r>
      </set>
      <set comment="kpoint 31">
       <r>  -16.8448    1.0000 </r>
       <r>  -14.5460    1.0000 </r>
       <r>  -11.8941    1.0000 </r>
       <r>   -8.1288    1.0000 </r>
       <r>   -7.4123    1.0000 </r>
       <r>   -7.2701    1.0000 </r>
       <r>   -6.3343    1.0000 </r>
       <r>   -5.5547    1.0000 </r>
       <r>   -3.8592    1.0000 </r>
       <r>   -2.7096    1.0000 </r>
       <r>   -0.9397    0.0000 </r>
       <r>   -0.6421    0.0000 </r>
       <r>    1.6493    0.0000 </r>
       <r>    1.7788    0.0000 </r>
       <r>    2.0185    0.0000 </r>
       <r>    2.5019    0.0000 </r>
      </set>
      <set comment="kpoint 32">
       <r>  -17.0149    1.0000 </r>
       <r>  -14.7237    1.0000 </r>
       <r>  -11.8113    1.0000 </r>
       <r>   -8.1091    1.0000 </r>
       <r>   -7.2497    1.0000 </r>
       <r>   -6.8282    1.0000 </r>
       <r>   -6.4221    1.0000 </r>
       <r>   -5.2305    1.0000 </r>
       <r>   -3.8407    1.0000 </r>
       <r>   -2.6512    1.0000 </r>
       <r>   -1.0614    0.0000 </r>
       <r>   -0.2212    0.0000 </r>
       <r>    0.9800    0.0000 </r>
       <r>    1.5855    0.0000 </r>
       <r>    2.1698    0.0000 </r>
       <r>    2.4419    0.0000 </r>
      </set>
      <set comment="kpoint 33">
       <r>  -17.1369    1.0000 </r>
       <r>  -14.8510    1.0000 </r>
       <r>  -11.7725    1.0000 </r>
       <r>   -8.1518    1.0000 </r>
       <r>   -7.1580    1.0000 </r>
       <r>   -6.6694    1.0000 </r>
       <r>   -6.1712    1.0000 </r>
       <r>   -4.7717    1.0000 </r>
       <r>   -3.8491    1.0000 </r>
       <r>   -2.6279    1.0000 </r>
       <r>   -1.1499    0.0000 </r>
       <r>    0.1283    0.0000 </r>
       <r>    0.2226    0.0000 </r>
       <r>    0.9527    0.0000 </r>
       <r>    2.1495    0.0000 </r>
       <r>    2.3993    0.0000 </r>
      </set>
      <set comment="kpoint 34">
       <r>  -17.2103    1.0000 </r>
       <r>  -14.9276    1.0000 </r>
       <r>  -11.7573    1.0000 </r>
       <r>   -8.1889    1.0000 </r>
       <r>   -7.1260    1.0000 </r>
       <r>   -6.7015    1.0000 </r>
       <r>   -5.7860    1.0000 </r>
       <r>   -4.3491    1.0000 </r>
       <r>   -3.8627    1.0000 </r>
       <r>   -2.6260    1.0000 </r>
       <r>   -1.2043    0.0000 </r>
       <r>   -0.4817    0.0000 </r>
       <r>    0.3749    0.0000 </r>
       <r>    0.6028    0.0000 </r>
       <r>    2.0820    0.0000 </r>
       <r>    2.3171    0.0000 </r>
      </set>
      <set comment="kpoint 35">
       <r>  -17.1772    1.0000 </r>
       <r>  -15.0531    1.0000 </r>
[...]
       <r>    3.1142    0.0000 </r>
       <r>    3.2784    0.0000 </r>
      </set>
      <set comment="kpoint 161">
       <r>  -15.5380    1.0000 </r>
       <r>  -15.3079    1.0000 </r>
       <r>  -10.9616    1.0000 </r>
       <r>  -10.6458    1.0000 </r>
       <r>   -7.9178    1.0000 </r>
       <r>   -7.7771    1.0000 </r>
       <r>   -5.2647    1.0000 </r>
       <r>   -5.0459    1.0000 </r>
       <r>   -3.9648    1.0000 </r>
       <r>   -3.9474    1.0000 </r>
       <r>   -0.0332    0.0000 </r>
       <r>    0.2471    0.0000 </r>
       <r>    1.0053    0.0000 </r>
       <r>    1.2768    0.0000 </r>
       <r>    3.0348    0.0000 </r>
       <r>    3.2283    0.0000 </r>
      </set>
      <set comment="kpoint 162">
       <r>  -15.7873    1.0000 </r>
       <r>  -15.5539    1.0000 </r>
       <r>  -10.8284    1.0000 </r>
       <r>  -10.5052    1.0000 </r>
       <r>   -7.5720    1.0000 </r>
       <r>   -7.4285    1.0000 </r>
       <r>   -5.1725    1.0000 </r>
       <r>   -4.8967    1.0000 </r>
       <r>   -3.9962    1.0000 </r>
       <r>   -3.8912    1.0000 </r>
       <r>    0.0707    0.0000 </r>
       <r>    0.2613    0.0000 </r>
       <r>    1.1088    0.0000 </r>
       <r>    1.4132    0.0000 </r>
       <r>    2.6909    0.0000 </r>
       <r>    2.9909    0.0000 </r>
      </set>
      <set comment="kpoint 163">
       <r>  -15.9958    1.0000 </r>
       <r>  -15.7605    1.0000 </r>
       <r>  -10.7918    1.0000 </r>
       <r>  -10.4701    1.0000 </r>
       <r>   -7.0625    1.0000 </r>
       <r>   -6.9092    1.0000 </r>
       <r>   -5.1925    1.0000 </r>
       <r>   -4.8783    1.0000 </r>
       <r>   -3.9796    1.0000 </r>
       <r>   -3.7601    1.0000 </r>
       <r>    0.2640    0.0000 </r>
       <r>    0.3542    0.0000 </r>
       <r>    1.1286    0.0000 </r>
       <r>    1.4589    0.0000 </r>
       <r>    2.0991    0.0000 </r>
       <r>    2.3342    0.0000 </r>
      </set>
      <set comment="kpoint 164">
       <r>  -16.1603    1.0000 </r>
       <r>  -15.9240    1.0000 </r>
       <r>  -10.8065    1.0000 </r>
       <r>  -10.4891    1.0000 </r>
       <r>   -6.4563    1.0000 </r>
       <r>   -6.2930    1.0000 </r>
       <r>   -5.2531    1.0000 </r>
       <r>   -4.9250    1.0000 </r>
       <r>   -3.9629    1.0000 </r>
       <r>   -3.6552    1.0000 </r>
       <r>    0.4624    0.0000 </r>
       <r>    0.4640    0.0000 </r>
       <r>    1.0750    0.0000 </r>
       <r>    1.3722    0.0000 </r>
       <r>    1.5059    0.0000 </r>
       <r>    1.6279    0.0000 </r>
      </set>
      <set comment="kpoint 165">
       <r>  -16.2789    1.0000 </r>
       <r>  -16.0421    1.0000 </r>
       <r>  -10.8370    1.0000 </r>
       <r>  -10.5234    1.0000 </r>
       <r>   -5.8275    1.0000 </r>
       <r>   -5.6664    1.0000 </r>
       <r>   -5.3044    1.0000 </r>
       <r>   -4.9817    1.0000 </r>
       <r>   -3.9986    1.0000 </r>
       <r>   -3.6240    1.0000 </r>
       <r>    0.2728    0.0000 </r>
       <r>    0.3017    0.0000 </r>
       <r>    1.0540    0.0000 </r>
       <r>    1.0989    0.0000 </r>
       <r>    1.3336    0.0000 </r>
       <r>    1.4381    0.0000 </r>
      </set>
      <set comment="kpoint 166">
       <r>  -16.3505    1.0000 </r>
       <r>  -16.1134    1.0000 </r>
       <r>  -10.8621    1.0000 </r>
       <r>  -10.5509    1.0000 </r>
       <r>   -5.3836    1.0000 </r>
       <r>   -5.2761    1.0000 </r>
       <r>   -5.0833    1.0000 </r>
       <r>   -5.0219    1.0000 </r>
       <r>   -4.1066    1.0000 </r>
       <r>   -3.6774    1.0000 </r>
       <r>   -0.1620    0.0000 </r>
       <r>   -0.1289    0.0000 </r>
       <r>    1.0886    0.0000 </r>
       <r>    1.1858    0.0000 </r>
       <r>    1.4066    0.0000 </r>
       <r>    1.4134    0.0000 </r>
      </set>
     </set>
    </set>
   </array>
  </eigenvalues>
  <separator name="orbital magnetization" >
   <v name="MAGDIPOLOUT">      0.00000000      0.00000000      0.00000000</v>
  </separator>
  <dos>
   <i name="efermi">     -2.31463051 </i>
   <total>
    <array>
     <dimension dim="1">gridpoints</dimension>
     <dimension dim="2">spin</dimension>
     <field>energy</field>
     <field>total</field>
     <field>integrated</field>
     <set>
      <set comment="spin 1">
       <r>   -18.2857     0.0000     0.0000 </r>
       <r>   -18.2101     0.0000     0.0000 </r>
       <r>   -18.1344     0.0000     0.0000 </r>
       <r>   -18.0588     0.0000     0.0000 </r>
       <r>   -17.9832     0.0000     0.0000 </r>
       <r>   -17.9075     0.0000     0.0000 </r>
       <r>   -17.8319     0.0000     0.0000 </r>
       <r>   -17.7562     0.0000     0.0000 </r>
       <r>   -17.6806     0.0000     0.0000 </r>
       <r>   -17.6049     0.0000     0.0000 </r>
       <r>   -17.5293     0.0000     0.0000 </r>
       <r>   -17.4536     0.0000     0.0000 </r>
       <r>   -17.3780     0.0000     0.0000 </r>
       <r>   -17.3023     0.0000     0.0000 </r>
       <r>   -17.2267     0.3264     0.0247 </r>
       <r>   -17.1510     0.8786     0.0912 </r>
       <r>   -17.0754     0.8166     0.1529 </r>
       <r>   -16.9997     0.9420     0.2242 </r>
       <r>   -16.9241     0.9800     0.2983 </r>
       <r>   -16.8484     0.8923     0.3658 </r>
       <r>   -16.7728     0.8603     0.4309 </r>
       <r>   -16.6971     0.8684     0.4966 </r>
       <r>   -16.6215     0.7775     0.5554 </r>
       <r>   -16.5458     1.4834     0.6676 </r>
       <r>   -16.4702     0.6117     0.7139 </r>
       <r>   -16.3946     0.4227     0.7459 </r>
       <r>   -16.3189     1.6690     0.8721 </r>
       <r>   -16.2433     0.5833     0.9163 </r>
       <r>   -16.1676     1.0303     0.9942 </r>
       <r>   -16.0920     0.8848     1.0611 </r>
       <r>   -16.0163     1.0726     1.1423 </r>
       <r>   -15.9407     1.0037     1.2182 </r>
       <r>   -15.8650     1.1266     1.3034 </r>
       <r>   -15.7894     0.7016     1.3565 </r>
       <r>   -15.7137     1.2985     1.4547 </r>
       <r>   -15.6381     1.1575     1.5423 </r>
       <r>   -15.5624     0.9127     1.6113 </r>
       <r>   -15.4868     1.2141     1.7032 </r>
       <r>   -15.4111     1.0337     1.7814 </r>
       <r>   -15.3355     0.6005     1.8268 </r>
       <r>   -15.2598     2.1550     1.9898 </r>
       <r>   -15.1842     1.2032     2.0808 </r>
       <r>   -15.1085     0.8163     2.1426 </r>
       <r>   -15.0329     1.6025     2.2638 </r>
       <r>   -14.9572     1.2695     2.3599 </r>
       <r>   -14.8816     1.7734     2.4940 </r>
       <r>   -14.8060     2.1068     2.6534 </r>
       <r>   -14.7303     1.2606     2.7487 </r>
       <r>   -14.6547     0.9987     2.8243 </r>
       <r>   -14.5790     1.2019     2.9152 </r>
       <r>   -14.5034     1.2068     3.0065 </r>
       <r>   -14.4277     1.5789     3.1259 </r>
       <r>   -14.3521     0.9530     3.1980 </r>
       <r>   -14.2764     1.7012     3.3267 </r>
       <r>   -14.2008     1.3375     3.4279 </r>
       <r>   -14.1251     0.8760     3.4942 </r>
       <r>   -14.0495     1.3188     3.5939 </r>
       <r>   -13.9738     1.9355     3.7404 </r>
       <r>   -13.8982     0.3690     3.7683 </r>
       <r>   -13.8225     0.5899     3.8129 </r>
       <r>   -13.7469     0.3853     3.8420 </r>
       <r>   -13.6712     0.4015     3.8724 </r>
       <r>   -13.5956     0.7111     3.9262 </r>
       <r>   -13.5199     0.4498     3.9602 </r>
       <r>   -13.4443     0.0557     3.9644 </r>
       <r>   -13.3686     0.3098     3.9879 </r>
       <r>   -13.2930     0.0684     3.9930 </r>
       <r>   -13.2174     0.0919     4.0000 </r>
       <r>   -13.1417     0.0000     4.0000 </r>
       <r>   -13.0661     0.1176     4.0089 </r>
       <r>   -12.9904     0.0430     4.0121 </r>
       <r>   -12.9148     0.3167     4.0361 </r>
       <r>   -12.8391     0.2735     4.0568 </r>
       <r>   -12.7635     0.3141     4.0806 </r>
       <r>   -12.6878     0.5457     4.1218 </r>
       <r>   -12.6122     0.5564     4.1639 </r>
       <r>   -12.5365     0.3545     4.1907 </r>
       <r>   -12.4609     0.6416     4.2393 </r>
       <r>   -12.3852     1.3915     4.3445 </r>
       <r>   -12.3096     1.0386     4.4231 </r>
       <r>   -12.2339     1.5354     4.5393 </r>
       <r>   -12.1583     0.9895     4.6141 </r>
       <r>   -12.0826     0.8259     4.6766 </r>
       <r>   -12.0070     1.6983     4.8051 </r>
       <r>   -11.9313     1.0885     4.8874 </r>
       <r>   -11.8557     1.7232     5.0178 </r>
       <r>   -11.7800     1.9804     5.1676 </r>
       <r>   -11.7044     2.8826     5.3856 </r>
       <r>   -11.6287     1.5368     5.5019 </r>
       <r>   -11.5531     0.9972     5.5773 </r>
       <r>   -11.4775     2.6042     5.7743 </r>
       <r>   -11.4018     0.3368     5.7998 </r>
       <r>   -11.3262     1.7450     5.9318 </r>
       <r>   -11.2505     1.5301     6.0476 </r>
       <r>   -11.1749     0.4130     6.0788 </r>
       <r>   -11.0992     1.2162     6.1708 </r>
       <r>   -11.0236     1.1298     6.2563 </r>
       <r>   -10.9479     0.4284     6.2887 </r>
       <r>   -10.8723     0.7454     6.3451 </r>
       <r>   -10.7966     1.7283     6.4758 </r>
       <r>   -10.7210     0.9393     6.5469 </r>
       <r>   -10.6453     0.2440     6.5653 </r>
       <r>   -10.5697     0.6409     6.6138 </r>
       <r>   -10.4940     1.3164     6.7134 </r>
       <r>   -10.4184     0.5843     6.7576 </r>
       <r>   -10.3427     0.3984     6.7877 </r>
       <r>   -10.2671     0.5635     6.8303 </r>
       <r>   -10.1914     0.7263     6.8853 </r>
       <r>   -10.1158     1.5082     6.9994 </r>
       <r>   -10.0401     0.6224     7.0465 </r>
       <r>    -9.9645     0.3176     7.0705 </r>
       <r>    -9.8889     0.0296     7.0727 </r>
       <r>    -9.8132     0.5721     7.1160 </r>
       <r>    -9.7376     1.3179     7.2157 </r>
       <r>    -9.6619     0.2991     7.2383 </r>
       <r>    -9.5863     0.5345     7.2788 </r>
       <r>    -9.5106     0.1209     7.2879 </r>
       <r>    -9.4350     0.4223     7.3199 </r>
       <r>    -9.3593     1.1936     7.4102 </r>
       <r>    -9.2837     0.8272     7.4727 </r>
       <r>    -9.2080     0.0000     7.4727 </r>
       <r>    -9.1324     0.0001     7.4727 </r>
       <r>    -9.0567     0.3903     7.5023 </r>
       <r>    -8.9811     0.5613     7.5447 </r>
       <r>    -8.9054     1.1951     7.6351 </r>
       <r>    -8.8298     0.3268     7.6599 </r>
       <r>    -8.7541     0.0900     7.6667 </r>
       <r>    -8.6785     0.2643     7.6867 </r>
       <r>    -8.6028     0.0606     7.6912 </r>
       <r>    -8.5272     0.8708     7.7571 </r>
       <r>    -8.4515     0.5668     7.8000 </r>
       <r>    -8.3759     0.2509     7.8190 </r>
       <r>    -8.3003     0.0696     7.8242 </r>
       <r>    -8.2246     0.5453     7.8655 </r>
       <r>    -8.1490     2.4715     8.0525 </r>
       <r>    -8.0733     2.5325     8.2440 </r>
       <r>    -7.9977     3.1833     8.4848 </r>
       <r>    -7.9220     1.6770     8.6117 </r>
       <r>    -7.8464     1.6673     8.7378 </r>
       <r>    -7.7707     2.3669     8.9169 </r>
       <r>    -7.6951     2.2918     9.0903 </r>
       <r>    -7.6194     1.6053     9.2117 </r>
       <r>    -7.5438     1.7918     9.3472 </r>
       <r>    -7.4681     2.5940     9.5435 </r>
       <r>    -7.3925     2.3336     9.7200 </r>
       <r>    -7.3168     5.6299    10.1459 </r>
       <r>    -7.2412     4.3311    10.4735 </r>
       <r>    -7.1655     1.3967    10.5792 </r>
       <r>    -7.0899     1.6732    10.7058 </r>
       <r>    -7.0142     0.3644    10.7333 </r>
       <r>    -6.9386     0.1424    10.7441 </r>
       <r>    -6.8629     1.5564    10.8618 </r>
       <r>    -6.7873     1.4336    10.9703 </r>
       <r>    -6.7117     1.5480    11.0874 </r>
       <r>    -6.6360     1.8107    11.2244 </r>
       <r>    -6.5604     2.1388    11.3862 </r>
       <r>    -6.4847     1.0762    11.4676 </r>
       <r>    -6.4091     1.3736    11.5715 </r>
       <r>    -6.3334     1.4074    11.6779 </r>
       <r>    -6.2578     2.2547    11.8485 </r>
       <r>    -6.1821     1.6320    11.9720 </r>
       <r>    -6.1065     1.7387    12.1035 </r>
       <r>    -6.0308     1.6564    12.2288 </r>
       <r>    -5.9552     2.6807    12.4316 </r>
       <r>    -5.8795     1.4947    12.5447 </r>
       <r>    -5.8039     1.7246    12.6751 </r>
       <r>    -5.7282     4.7433    13.0339 </r>
       <r>    -5.6526     5.0744    13.4178 </r>
       <r>    -5.5769     3.6277    13.6922 </r>
       <r>    -5.5013     3.5991    13.9645 </r>
       <r>    -5.4256     2.5370    14.1564 </r>
       <r>    -5.3500     4.1801    14.4726 </r>
       <r>    -5.2743     3.1605    14.7117 </r>
       <r>    -5.1987     2.9542    14.9352 </r>
       <r>    -5.1231     2.0421    15.0897 </r>
       <r>    -5.0474     1.7139    15.2193 </r>
       <r>    -4.9718     1.2004    15.3101 </r>
       <r>    -4.8961     1.6961    15.4384 </r>
       <r>    -4.8205     1.5860    15.5584 </r>
       <r>    -4.7448     1.5621    15.6766 </r>
       <r>    -4.6692     0.8320    15.7395 </r>
       <r>    -4.5935     0.9992    15.8151 </r>
       <r>    -4.5179     1.1188    15.8997 </r>
       <r>    -4.4422     0.7919    15.9596 </r>
       <r>    -4.3666     1.5308    16.0754 </r>
       <r>    -4.2909     1.5977    16.1963 </r>
       <r>    -4.2153     2.8692    16.4134 </r>
       <r>    -4.1396     2.0785    16.5706 </r>
       <r>    -4.0640     2.8795    16.7884 </r>
       <r>    -3.9883     3.1562    17.0272 </r>
       <r>    -3.9127     3.7552    17.3112 </r>
       <r>    -3.8370     4.5799    17.6577 </r>
       <r>    -3.7614     3.2795    17.9058 </r>
       <r>    -3.6857     3.5094    18.1713 </r>
       <r>    -3.6101     4.0604    18.4784 </r>
       <r>    -3.5344     2.1687    18.6425 </r>
       <r>    -3.4588     4.0896    18.9519 </r>
       <r>    -3.3832     4.3926    19.2841 </r>
       <r>    -3.3075     2.3967    19.4655 </r>
       <r>    -3.2319     1.0036    19.5414 </r>
       <r>    -3.1562     0.9744    19.6151 </r>
       <r>    -3.0806     0.2076    19.6308 </r>
       <r>    -3.0049     0.5674    19.6737 </r>
       <r>    -2.9293     1.5372    19.7900 </r>
       <r>    -2.8536     0.1337    19.8001 </r>
       <r>    -2.7780     0.3180    19.8242 </r>
       <r>    -2.7023     0.3759    19.8526 </r>
       <r>    -2.6267     0.8309    19.9155 </r>
       <r>    -2.5510     0.5564    19.9576 </r>
       <r>    -2.4754     0.1987    19.9726 </r>
       <r>    -2.3997     0.3623    20.0000 </r>
       <r>    -2.3241     0.0000    20.0000 </r>
       <r>    -2.2484     0.0000    20.0000 </r>
       <r>    -2.1728     0.0000    20.0000 </r>
       <r>    -2.0971     0.0000    20.0000 </r>
       <r>    -2.0215     0.0000    20.0000 </r>
       <r>    -1.9458     0.0000    20.0000 </r>
       <r>    -1.8702     0.0000    20.0000 </r>
       <r>    -1.7946     0.0000    20.0000 </r>
       <r>    -1.7189     0.0000    20.0000 </r>
       <r>    -1.6433     0.0000    20.0000 </r>
       <r>    -1.5676     0.0000    20.0000 </r>
       <r>    -1.4920     0.0000    20.0000 </r>
       <r>    -1.4163     0.0052    20.0004 </r>
       <r>    -1.3407     0.2344    20.0181 </r>
       <r>    -1.2650     0.8891    20.0854 </r>
       <r>    -1.1894     1.9649    20.2340 </r>
       <r>    -1.1137     1.6592    20.3595 </r>
       <r>    -1.0381     2.1731    20.5239 </r>
       <r>    -0.9624     1.4198    20.6313 </r>
       <r>    -0.8868     0.9841    20.7058 </r>
       <r>    -0.8111     3.1797    20.9463 </r>
       <r>    -0.7355     2.2609    21.1173 </r>
       <r>    -0.6598     1.9882    21.2677 </r>
       <r>    -0.5842     1.7396    21.3993 </r>
       <r>    -0.5085     2.2426    21.5690 </r>
       <r>    -0.4329     3.6542    21.8454 </r>
       <r>    -0.3572     2.7449    22.0531 </r>
       <r>    -0.2816     2.8327    22.2674 </r>
       <r>    -0.2060     3.0630    22.4991 </r>
       <r>    -0.1303     2.6326    22.6982 </r>
       <r>    -0.0547     2.7035    22.9027 </r>
       <r>     0.0210     3.9789    23.2037 </r>
       <r>     0.0966     3.2199    23.4473 </r>
       <r>     0.1723     2.6548    23.6481 </r>
       <r>     0.2479     4.0409    23.9538 </r>
       <r>     0.3236     6.2526    24.4268 </r>
       <r>     0.3992     5.6889    24.8571 </r>
       <r>     0.4749     4.5449    25.2010 </r>
       <r>     0.5505     3.4365    25.4609 </r>
       <r>     0.6262     2.6624    25.6623 </r>
       <r>     0.7018     3.4186    25.9209 </r>
       <r>     0.7775     3.8511    26.2123 </r>
       <r>     0.8531     2.6836    26.4153 </r>
       <r>     0.9288     2.1474    26.5777 </r>
       <r>     1.0044     3.7910    26.8645 </r>
       <r>     1.0801     2.9369    27.0867 </r>
       <r>     1.1557     2.4548    27.2724 </r>
       <r>     1.2314     1.5591    27.3903 </r>
       <r>     1.3070     1.3445    27.4920 </r>
       <r>     1.3826     1.7004    27.6206 </r>
       <r>     1.4583     2.4774    27.8081 </r>
       <r>     1.5339     2.7694    28.0176 </r>
       <r>     1.6096     2.6611    28.2189 </r>
       <r>     1.6852     2.5408    28.4111 </r>
       <r>     1.7609     2.5012    28.6003 </r>
       <r>     1.8365     1.9898    28.7508 </r>
       <r>     1.9122     1.9092    28.8952 </r>
       <r>     1.9878     2.1545    29.0582 </r>
       <r>     2.0635     1.9210    29.2035 </r>
       <r>     2.1391     2.2088    29.3706 </r>
       <r>     2.2148     2.4466    29.5557 </r>
       <r>     2.2904     3.1423    29.7934 </r>
       <r>     2.3661     3.1724    30.0334 </r>
       <r>     2.4417     2.8919    30.2521 </r>
       <r>     2.5174     3.4870    30.5159 </r>
       <r>     2.5930     3.4912    30.7800 </r>
       <r>     2.6687     1.8238    30.9180 </r>
       <r>     2.7443     2.6902    31.1215 </r>
       <r>     2.8200     1.3668    31.2249 </r>
       <r>     2.8956     2.3742    31.4045 </r>
       <r>     2.9713     0.5208    31.4439 </r>
       <r>     3.0469     2.4330    31.6279 </r>
       <r>     3.1225     1.7041    31.7569 </r>
       <r>     3.1982     1.4981    31.8702 </r>
       <r>     3.2738     0.5771    31.9138 </r>
       <r>     3.3495     0.8237    31.9761 </r>
       <r>     3.4251     0.3152    32.0000 </r>
       <r>     3.5008     0.0001    32.0000 </r>
       <r>     3.5764     0.0000    32.0000 </r>
       <r>     3.6521     0.0000    32.0000 </r>
       <r>     3.7277     0.0000    32.0000 </r>
       <r>     3.8034     0.0000    32.0000 </r>
       <r>     3.8790     0.0000    32.0000 </r>
       <r>     3.9547     0.0000    32.0000 </r>
       <r>     4.0303     0.0000    32.0000 </r>
       <r>     4.1060     0.0000    32.0000 </r>
       <r>     4.1816     0.0000    32.0000 </r>
       <r>     4.2573     0.0000    32.0000 </r>
       <r>     4.3329     0.0000    32.0000 </r>
       <r>     4.4086     0.0000    32.0000 </r>
      </set>
     </set>
    </array>
   </total>
  </dos>
 </calculation>
 <structure name="finalpos" >
  <crystal>
   <varray name="basis" >
    <v>       3.29720400       0.00000000       0.00000000 </v>
    <v>       0.00000000       4.80472700      -0.00005300 </v>
    <v>       0.00000000       0.00000000      20.02439000 </v>
   </varray>
   <i name="volume">    317.22969207 </i>
   <varray name="rec_basis" >
    <v>       0.30328727       0.00000000       0.00000000 </v>
    <v>       0.00000000       0.20812837       0.00000000 </v>
    <v>       0.00000000       0.00000055       0.04993910 </v>
   </varray>
  </crystal>
  <varray name="positions" >
   <v>       0.50000000       0.90506625       0.55183718 </v>
   <v>       0.50000000       0.09493375       0.44816282 </v>
   <v>       0.00000000       0.40506182       0.44816283 </v>
   <v>      -0.00000000       0.59493818       0.55183717 </v>
  </varray>
 </structure>
</modeling>
