<?xml version="1.0" encoding="ISO-8859-1"?>
<modeling>
 <generator>
  <i name="program" type="string">vasp </i>
  <i name="version" type="string">5.4.1  </i>
  <i name="subversion" type="string">24Jun15 (build Nov 20 2020 10:29:34) complex                          parallel </i>
  <i name="platform" type="string">IFC91_ompi </i>
  <i name="date" type="string">2021 09 09 </i>
  <i name="time" type="string">14:55:29 </i>
 </generator>
 <incar>
  <i type="string" name="PREC">a</i>
  <i type="string" name="ALGO"> Normal</i>
  <i type="int" name="ISPIN">     1</i>
  <i type="int" name="ICHARG">     2</i>
  <i type="int" name="NELM">   250</i>
  <i type="int" name="NELMDL">    -5</i>
  <i type="int" name="NELMIN">     6</i>
  <i type="int" name="IBRION">     2</i>
  <i name="EDIFF">      0.00001000</i>
  <i name="EDIFFG">     -0.01000000</i>
  <i type="int" name="NSW">   200</i>
  <i type="int" name="ISIF">     2</i>
  <i name="ENCUT">    520.00000000</i>
  <i name="POTIM">      0.30000000</i>
  <i type="logical" name="LREAL"> F  </i>
  <i type="int" name="ISMEAR">     0</i>
  <i name="SIGMA">      0.02000000</i>
  <i type="logical" name="LWAVE"> F  </i>
  <i type="logical" name="LCHARG"> F  </i>
  <i type="logical" name="LAECHG"> F  </i>
  <v type="int" name="KPOINT_BSE">    -1     0     0     0</v>
  <i type="int" name="NELM">   250</i>
 </incar>
 <kpoints>
  <generation param="Gamma">
   <v type="int" name="divisions">      15       13        1 </v>
   <v name="usershift">      0.00000000       0.00000000       0.00000000 </v>
   <v name="genvec1">      0.06666667       0.00000000       0.00000000 </v>
   <v name="genvec2">      0.00000000       0.07692308       0.00000000 </v>
   <v name="genvec3">      0.00000000       0.00000000       1.00000000 </v>
   <v name="shift">      0.00000000       0.00000000       0.00000000 </v>
  </generation>
  <varray name="kpointlist" >
   <v>       0.00000000       0.00000000       0.00000000 </v>
   <v>       0.06666667      -0.00000000       0.00000000 </v>
   <v>       0.13333333      -0.00000000       0.00000000 </v>
   <v>       0.20000000      -0.00000000       0.00000000 </v>
   <v>       0.26666667      -0.00000000       0.00000000 </v>
   <v>       0.33333333      -0.00000000       0.00000000 </v>
   <v>       0.40000000      -0.00000000       0.00000000 </v>
   <v>       0.46666667      -0.00000000       0.00000000 </v>
   <v>       0.00000000       0.07692308       0.00000000 </v>
   <v>       0.06666667       0.07692308       0.00000000 </v>
   <v>       0.13333333       0.07692308       0.00000000 </v>
   <v>       0.20000000       0.07692308       0.00000000 </v>
   <v>       0.26666667       0.07692308       0.00000000 </v>
   <v>       0.33333333       0.07692308       0.00000000 </v>
   <v>       0.40000000       0.07692308       0.00000000 </v>
   <v>       0.46666667       0.07692308       0.00000000 </v>
   <v>      -0.46666667       0.07692308       0.00000000 </v>
   <v>      -0.40000000       0.07692308       0.00000000 </v>
   <v>      -0.33333333       0.07692308       0.00000000 </v>
   <v>      -0.26666667       0.07692308       0.00000000 </v>
   <v>      -0.20000000       0.07692308       0.00000000 </v>
   <v>      -0.13333333       0.07692308       0.00000000 </v>
   <v>      -0.06666667       0.07692308       0.00000000 </v>
   <v>      -0.00000000       0.15384615       0.00000000 </v>
   <v>       0.06666667       0.15384615       0.00000000 </v>
   <v>       0.13333333       0.15384615       0.00000000 </v>
   <v>       0.20000000       0.15384615       0.00000000 </v>
   <v>       0.26666667       0.15384615       0.00000000 </v>
   <v>       0.33333333       0.15384615       0.00000000 </v>
   <v>       0.40000000       0.15384615       0.00000000 </v>
   <v>       0.46666667       0.15384615       0.00000000 </v>
   <v>      -0.46666667       0.15384615       0.00000000 </v>
   <v>      -0.40000000       0.15384615       0.00000000 </v>
   <v>      -0.33333333       0.15384615       0.00000000 </v>
   <v>      -0.26666667       0.15384615       0.00000000 </v>
   <v>      -0.20000000       0.15384615       0.00000000 </v>
   <v>      -0.13333333       0.15384615       0.00000000 </v>
   <v>      -0.06666667       0.15384615       0.00000000 </v>
   <v>      -0.00000000       0.23076923       0.00000000 </v>
   <v>       0.06666667       0.23076923       0.00000000 </v>
   <v>       0.13333333       0.23076923       0.00000000 </v>
   <v>       0.20000000       0.23076923       0.00000000 </v>
   <v>       0.26666667       0.23076923       0.00000000 </v>
   <v>       0.33333333       0.23076923       0.00000000 </v>
   <v>       0.40000000       0.23076923       0.00000000 </v>
   <v>       0.46666667       0.23076923       0.00000000 </v>
   <v>      -0.46666667       0.23076923       0.00000000 </v>
   <v>      -0.40000000       0.23076923       0.00000000 </v>
   <v>      -0.33333333       0.23076923       0.00000000 </v>
   <v>      -0.26666667       0.23076923       0.00000000 </v>
   <v>      -0.20000000       0.23076923       0.00000000 </v>
   <v>      -0.13333333       0.23076923       0.00000000 </v>
   <v>      -0.06666667       0.23076923       0.00000000 </v>
   <v>      -0.00000000       0.30769231       0.00000000 </v>
   <v>       0.06666667       0.30769231       0.00000000 </v>
   <v>       0.13333333       0.30769231       0.00000000 </v>
   <v>       0.20000000       0.30769231       0.00000000 </v>
   <v>       0.26666667       0.30769231       0.00000000 </v>
   <v>       0.33333333       0.30769231       0.00000000 </v>
   <v>       0.40000000       0.30769231       0.00000000 </v>
   <v>       0.46666667       0.30769231       0.00000000 </v>
   <v>      -0.46666667       0.30769231       0.00000000 </v>
   <v>      -0.40000000       0.30769231       0.00000000 </v>
   <v>      -0.33333333       0.30769231       0.00000000 </v>
   <v>      -0.26666667       0.30769231       0.00000000 </v>
   <v>      -0.20000000       0.30769231       0.00000000 </v>
   <v>      -0.13333333       0.30769231       0.00000000 </v>
   <v>      -0.06666667       0.30769231       0.00000000 </v>
   <v>      -0.00000000       0.38461538       0.00000000 </v>
   <v>       0.06666667       0.38461538       0.00000000 </v>
   <v>       0.13333333       0.38461538       0.00000000 </v>
   <v>       0.20000000       0.38461538       0.00000000 </v>
   <v>       0.26666667       0.38461538       0.00000000 </v>
   <v>       0.33333333       0.38461538       0.00000000 </v>
   <v>       0.40000000       0.38461538       0.00000000 </v>
   <v>       0.46666667       0.38461538       0.00000000 </v>
   <v>      -0.46666667       0.38461538       0.00000000 </v>
   <v>      -0.40000000       0.38461538       0.00000000 </v>
   <v>      -0.33333333       0.38461538       0.00000000 </v>
   <v>      -0.26666667       0.38461538       0.00000000 </v>
   <v>      -0.20000000       0.38461538       0.00000000 </v>
   <v>      -0.13333333       0.38461538       0.00000000 </v>
   <v>      -0.06666667       0.38461538       0.00000000 </v>
   <v>      -0.00000000       0.46153846       0.00000000 </v>
   <v>       0.06666667       0.46153846       0.00000000 </v>
   <v>       0.13333333       0.46153846       0.00000000 </v>
   <v>       0.20000000       0.46153846       0.00000000 </v>
   <v>       0.26666667       0.46153846       0.00000000 </v>
   <v>       0.33333333       0.46153846       0.00000000 </v>
   <v>       0.40000000       0.46153846       0.00000000 </v>
   <v>       0.46666667       0.46153846       0.00000000 </v>
   <v>      -0.46666667       0.46153846       0.00000000 </v>
   <v>      -0.40000000       0.46153846       0.00000000 </v>
   <v>      -0.33333333       0.46153846       0.00000000 </v>
   <v>      -0.26666667       0.46153846       0.00000000 </v>
   <v>      -0.20000000       0.46153846       0.00000000 </v>
   <v>      -0.13333333       0.46153846       0.00000000 </v>
   <v>      -0.06666667       0.46153846       0.00000000 </v>
  </varray>
  <varray name="weights" >
   <v>       0.00512821 </v>
   <v>       0.01025641 </v>
   <v>       0.01025641 </v>
   <v>       0.01025641 </v>
   <v>       0.01025641 </v>
   <v>       0.01025641 </v>
   <v>       0.01025641 </v>
   <v>       0.01025641 </v>
   <v>       0.01025641 </v>
   <v>       0.01025641 </v>
   <v>       0.01025641 </v>
   <v>       0.01025641 </v>
   <v>       0.01025641 </v>
   <v>       0.01025641 </v>
   <v>       0.01025641 </v>
   <v>       0.01025641 </v>
   <v>       0.01025641 </v>
   <v>       0.01025641 </v>
   <v>       0.01025641 </v>
   <v>       0.01025641 </v>
   <v>       0.01025641 </v>
   <v>       0.01025641 </v>
   <v>       0.01025641 </v>
   <v>       0.01025641 </v>
   <v>       0.01025641 </v>
   <v>       0.01025641 </v>
   <v>       0.01025641 </v>
   <v>       0.01025641 </v>
   <v>       0.01025641 </v>
   <v>       0.01025641 </v>
   <v>       0.01025641 </v>
   <v>       0.01025641 </v>
   <v>       0.01025641 </v>
   <v>       0.01025641 </v>
   <v>       0.01025641 </v>
   <v>       0.01025641 </v>
   <v>       0.01025641 </v>
   <v>       0.01025641 </v>
   <v>       0.01025641 </v>
   <v>       0.01025641 </v>
   <v>       0.01025641 </v>
   <v>       0.01025641 </v>
   <v>       0.01025641 </v>
   <v>       0.01025641 </v>
   <v>       0.01025641 </v>
   <v>       0.01025641 </v>
   <v>       0.01025641 </v>
   <v>       0.01025641 </v>
   <v>       0.01025641 </v>
   <v>       0.01025641 </v>
   <v>       0.01025641 </v>
   <v>       0.01025641 </v>
   <v>       0.01025641 </v>
   <v>       0.01025641 </v>
   <v>       0.01025641 </v>
   <v>       0.01025641 </v>
   <v>       0.01025641 </v>
   <v>       0.01025641 </v>
   <v>       0.01025641 </v>
   <v>       0.01025641 </v>
   <v>       0.01025641 </v>
   <v>       0.01025641 </v>
   <v>       0.01025641 </v>
   <v>       0.01025641 </v>
   <v>       0.01025641 </v>
   <v>       0.01025641 </v>
   <v>       0.01025641 </v>
   <v>       0.01025641 </v>
   <v>       0.01025641 </v>
   <v>       0.01025641 </v>
   <v>       0.01025641 </v>
   <v>       0.01025641 </v>
   <v>       0.01025641 </v>
   <v>       0.01025641 </v>
   <v>       0.01025641 </v>
   <v>       0.01025641 </v>
   <v>       0.01025641 </v>
   <v>       0.01025641 </v>
   <v>       0.01025641 </v>
   <v>       0.01025641 </v>
   <v>       0.01025641 </v>
   <v>       0.01025641 </v>
   <v>       0.01025641 </v>
   <v>       0.01025641 </v>
   <v>       0.01025641 </v>
   <v>       0.01025641 </v>
   <v>       0.01025641 </v>
   <v>       0.01025641 </v>
   <v>       0.01025641 </v>
   <v>       0.01025641 </v>
   <v>       0.01025641 </v>
   <v>       0.01025641 </v>
   <v>       0.01025641 </v>
   <v>       0.01025641 </v>
   <v>       0.01025641 </v>
   <v>       0.01025641 </v>
   <v>       0.01025641 </v>
   <v>       0.01025641 </v>
  </varray>
 </kpoints>
 <parameters>
  <separator name="general" >
   <i type="string" name="SYSTEM">unknown system</i>
   <i type="logical" name="LCOMPAT"> F  </i>
  </separator>
  <separator name="electronic" >
   <i type="string" name="PREC">a</i>
   <i name="ENMAX">    520.00000000</i>
   <i name="ENAUG">    531.35600000</i>
   <i name="EDIFF">      0.00001000</i>
   <i type="int" name="IALGO">    38</i>
   <i type="int" name="IWAVPR">    11</i>
   <i type="int" name="NBANDS">    32</i>
   <i name="NELECT">     52.00000000</i>
   <i type="int" name="TURBO">     0</i>
   <i type="int" name="IRESTART">     0</i>
   <i type="int" name="NREBOOT">     0</i>
   <i type="int" name="NMIN">     0</i>
   <i name="EREF">      0.00000000</i>
   <separator name="electronic smearing" >
    <i type="int" name="ISMEAR">     0</i>
    <i name="SIGMA">      0.02000000</i>
    <i name="KSPACING">      0.50000000</i>
    <i type="logical" name="KGAMMA"> T  </i>
   </separator>
   <separator name="electronic projectors" >
    <i type="logical" name="LREAL"> F  </i>
    <v name="ROPT">      0.00000000      0.00000000</v>
    <i type="int" name="LMAXPAW">  -100</i>
    <i type="int" name="LMAXMIX">     2</i>
    <i type="logical" name="NLSPLINE"> F  </i>
   </separator>
   <separator name="electronic startup" >
    <i type="int" name="ISTART">     0</i>
    <i type="int" name="ICHARG">     2</i>
    <i type="int" name="INIWAV">     1</i>
   </separator>
   <separator name="electronic spin" >
    <i type="int" name="ISPIN">     1</i>
    <i type="logical" name="LNONCOLLINEAR"> F  </i>
    <v name="MAGMOM">      1.00000000      1.00000000      1.00000000      1.00000000      1.00000000      1.00000000</v>
    <i name="NUPDOWN">     -1.00000000</i>
    <i type="logical" name="LSORBIT"> F  </i>
    <v name="SAXIS">      0.00000000      0.00000000      1.00000000</v>
    <i type="logical" name="LSPIRAL"> F  </i>
    <v name="QSPIRAL">      0.00000000      0.00000000      0.00000000</v>
    <i type="logical" name="LZEROZ"> F  </i>
   </separator>
   <separator name="electronic exchange-correlation" >
    <i type="logical" name="LASPH"> F  </i>
    <i type="logical" name="LMETAGGA"> F  </i>
   </separator>
   <separator name="electronic convergence" >
    <i type="int" name="NELM">   250</i>
    <i type="int" name="NELMDL">    -5</i>
    <i type="int" name="NELMIN">     6</i>
    <i name="ENINI">    520.00000000</i>
    <separator name="electronic convergence detail" >
     <i type="logical" name="LDIAG"> T  </i>
     <i type="logical" name="LSUBROT"> F  </i>
     <i name="WEIMIN">      0.00100000</i>
     <i name="EBREAK">      0.00000008</i>
     <i name="DEPER">      0.30000000</i>
     <i type="int" name="NRMM">     4</i>
     <i name="TIME">      0.40000000</i>
    </separator>
   </separator>
   <separator name="electronic mixer" >
    <i name="AMIX">      0.40000000</i>
    <i name="BMIX">      1.00000000</i>
    <i name="AMIN">      0.10000000</i>
    <i name="AMIX_MAG">      1.60000000</i>
    <i name="BMIX_MAG">      1.00000000</i>
    <separator name="electronic mixer details" >
     <i type="int" name="IMIX">     4</i>
     <i type="logical" name="MIXFIRST"> F  </i>
     <i type="int" name="MAXMIX">   -45</i>
     <i name="WC">    100.00000000</i>
     <i type="int" name="INIMIX">     1</i>
     <i type="int" name="MIXPRE">     1</i>
     <i type="int" name="MREMOVE">     5</i>
    </separator>
   </separator>
   <separator name="electronic dipolcorrection" >
    <i type="logical" name="LDIPOL"> F  </i>
    <i type="logical" name="LMONO"> F  </i>
    <i type="int" name="IDIPOL">     0</i>
    <i name="EPSILON">      1.00000000</i>
    <v name="DIPOL">   -100.00000000   -100.00000000   -100.00000000</v>
    <i name="EFIELD">      0.00000000</i>
   </separator>
  </separator>
  <separator name="grids" >
   <i type="int" name="NGX">    36</i>
   <i type="int" name="NGY">    42</i>
   <i type="int" name="NGZ">   140</i>
   <i type="int" name="NGXF">    72</i>
   <i type="int" name="NGYF">    84</i>
   <i type="int" name="NGZF">   280</i>
   <i type="logical" name="ADDGRID"> F  </i>
  </separator>
  <separator name="ionic" >
   <i type="int" name="NSW">   200</i>
   <i type="int" name="IBRION">     2</i>
   <i type="int" name="ISIF">     2</i>
   <i name="PSTRESS">      0.00000000</i>
   <i name="EDIFFG">     -0.01000000</i>
   <i type="int" name="NFREE">     1</i>
   <i name="POTIM">      0.30000000</i>
   <i name="SMASS">     -3.00000000</i>
   <i name="SCALEE">      1.00000000</i>
  </separator>
  <separator name="ionic md" >
   <i name="TEBEG">      0.00010000</i>
   <i name="TEEND">      0.00010000</i>
   <i type="int" name="NBLOCK">     1</i>
   <i type="int" name="KBLOCK">   200</i>
   <i type="int" name="NPACO">   256</i>
   <i name="APACO">     16.00000000</i>
  </separator>
  <separator name="symmetry" >
   <i type="int" name="ISYM">     2</i>
   <i name="SYMPREC">      0.00001000</i>
  </separator>
  <separator name="dos" >
   <i type="logical" name="LORBIT"> F  </i>
   <v name="RWIGS">     -1.00000000     -1.00000000</v>
   <i type="int" name="NEDOS">   301</i>
   <i name="EMIN">     10.00000000</i>
   <i name="EMAX">    -10.00000000</i>
   <i name="EFERMI">      0.00000000</i>
  </separator>
  <separator name="writing" >
   <i type="int" name="NWRITE">     2</i>
   <i type="logical" name="LWAVE"> F  </i>
   <i type="logical" name="LCHARG"> F  </i>
   <i type="logical" name="LPARD"> F  </i>
   <i type="logical" name="LVTOT"> F  </i>
   <i type="logical" name="LVHAR"> F  </i>
   <i type="logical" name="LELF"> F  </i>
   <i type="logical" name="LOPTICS"> F  </i>
   <v name="STM">      0.00000000      0.00000000      0.00000000      0.00000000      0.00000000      0.00000000      0.00000000</v>
  </separator>
  <separator name="performance" >
   <i type="int" name="NPAR">     4</i>
   <i type="int" name="NSIM">     4</i>
   <i type="int" name="NBLK">    -1</i>
   <i type="logical" name="LPLANE"> T  </i>
   <i type="logical" name="LSCALAPACK"> T  </i>
   <i type="logical" name="LSCAAWARE"> F  </i>
   <i type="logical" name="LSCALU"> F  </i>
   <i type="logical" name="LASYNC"> F  </i>
   <i type="logical" name="LORBITALREAL"> F  </i>
  </separator>
  <separator name="miscellaneous" >
   <i type="int" name="IDIOT">     3</i>
   <i type="logical" name="LMUSIC"> F  </i>
   <v name="POMASS">     72.61000000     78.96000000</v>
   <v name="DARWINR">      0.00000000      0.00000000</v>
   <v name="DARWINV">      1.00000000      1.00000000</v>
   <i type="logical" name="LCORR"> T  </i>
  </separator>
  <i type="logical" name="GGA_COMPAT"> T  </i>
  <i type="logical" name="LBERRY"> F  </i>
  <i type="int" name="ICORELEVEL">     0</i>
  <i type="logical" name="LDAU"> F  </i>
  <i type="int" name="I_CONSTRAINED_M">     0</i>
  <separator name="electronic exchange-correlation" >
   <i type="string" name="GGA">--</i>
   <i type="int" name="VOSKOWN">     0</i>
   <i type="logical" name="LHFCALC"> F  </i>
   <i type="string" name="PRECFOCK"></i>
   <i type="logical" name="LSYMGRAD"> F  </i>
   <i type="logical" name="LHFONE"> F  </i>
   <i type="logical" name="LRHFCALC"> F  </i>
   <i type="logical" name="LTHOMAS"> F  </i>
   <i type="logical" name="LMODELHF"> F  </i>
   <i name="ENCUT4O">     -1.00000000</i>
   <i type="int" name="EXXOEP">     0</i>
   <i type="int" name="FOURORBIT">     0</i>
   <i name="AEXX">      0.00000000</i>
   <i name="HFALPHA">      0.00000000</i>
   <i name="MCALPHA">      0.00000000</i>
   <i name="ALDAX">      1.00000000</i>
   <i name="AGGAX">      1.00000000</i>
   <i name="ALDAC">      1.00000000</i>
   <i name="AGGAC">      1.00000000</i>
   <i type="int" name="NKREDX">     1</i>
   <i type="int" name="NKREDY">     1</i>
   <i type="int" name="NKREDZ">     1</i>
   <i type="logical" name="SHIFTRED"> F  </i>
   <i type="logical" name="ODDONLY"> F  </i>
   <i type="logical" name="EVENONLY"> F  </i>
   <i type="int" name="LMAXFOCK">     0</i>
   <i type="int" name="NMAXFOCKAE">     0</i>
   <i type="logical" name="LFOCKAEDFT"> F  </i>
   <i name="HFSCREEN">      0.00000000</i>
   <i name="HFSCREENC">      0.00000000</i>
   <i type="int" name="NBANDSGWLOW">     0</i>
  </separator>
  <separator name="vdW DFT" >
   <i type="logical" name="LUSE_VDW"> F  </i>
   <i name="Zab_VDW">     -0.84910000</i>
   <i name="PARAM1">      0.12340000</i>
   <i name="PARAM2">      1.00000000</i>
   <i name="PARAM3">      0.00000000</i>
  </separator>
  <separator name="model GW" >
   <i type="int" name="MODEL_GW">     0</i>
   <i name="MODEL_EPS0">     49.39342527</i>
   <i name="MODEL_ALPHA">      1.00000000</i>
  </separator>
  <separator name="linear response parameters" >
   <i type="logical" name="LEPSILON"> F  </i>
   <i type="logical" name="LRPA"> F  </i>
   <i type="logical" name="LNABLA"> F  </i>
   <i type="logical" name="LVEL"> F  </i>
   <i type="int" name="KINTER">     0</i>
   <i name="CSHIFT">      0.10000000</i>
   <i name="OMEGAMAX">     -1.00000000</i>
   <i name="DEG_THRESHOLD">      0.00200000</i>
  </separator>
  <separator name="orbital magnetization" >
   <i type="logical" name="NUCIND"> F  </i>
   <v name="MAGPOS">      0.00000000      0.00000000      0.00000000</v>
   <i type="logical" name="LNICSALL"> T  </i>
   <i type="logical" name="ORBITALMAG"> F  </i>
   <i type="logical" name="LMAGBLOCH"> F  </i>
   <i type="logical" name="LCHIMAG"> F  </i>
   <i type="logical" name="LGAUGE"> T  </i>
   <i type="int" name="MAGATOM">     0</i>
   <v name="MAGDIPOL">      0.00000000      0.00000000      0.00000000</v>
   <v name="AVECCONST">      0.00000000      0.00000000      0.00000000</v>
  </separator>
  <separator name="response functions" >
   <i type="logical" name="LADDER"> F  </i>
   <i type="logical" name="LFXC"> F  </i>
   <i type="logical" name="LHARTREE"> T  </i>
   <i type="int" name="IBSE">     0</i>
   <v type="int" name="KPOINT">    -1     0     0     0</v>
   <i type="logical" name="LTCTE"> F  </i>
   <i type="logical" name="LTETE"> F  </i>
   <i type="logical" name="LTRIPLET"> F  </i>
   <i type="logical" name="LFXCEPS"> F  </i>
   <i type="logical" name="LFXHEG"> F  </i>
   <i type="int" name="NATURALO">     0</i>
   <i type="logical" name="L2ORDER"> F  </i>
   <i type="logical" name="LUSEW"> F  </i>
   <i name="ENCUTGW">     -2.00000000</i>
   <i name="ENCUTGWSOFT">     -2.00000000</i>
   <i name="ENCUTLF">     -1.00000000</i>
   <i type="int" name="LMAXMP2">    -1</i>
   <i name="SCISSOR">      0.00000000</i>
   <i type="int" name="NOMEGA">     0</i>
   <i type="int" name="NOMEGAR">     0</i>
   <i type="int" name="NBANDSGW">    -1</i>
   <i type="int" name="NBANDSO">    -1</i>
   <i type="int" name="NBANDSV">    -1</i>
   <i type="int" name="NELM">   250</i>
   <i type="int" name="NELMHF">     1</i>
   <i type="int" name="DIM">     3</i>
   <i type="int" name="ANTIRES">     0</i>
   <i name="OMEGAMAX">    -30.00000000</i>
   <i name="OMEGAMIN">    -30.00000000</i>
   <i name="OMEGATL">   -200.00000000</i>
   <i type="int" name="OMEGAGRID">     0</i>
   <i name="CSHIFT">     -0.10000000</i>
   <i type="logical" name="SELFENERGY"> F  </i>
   <i type="logical" name="LSPECTRAL"> F  </i>
   <i type="logical" name="LSPECTRALGW"> F  </i>
   <i type="logical" name="LSINGLES"> F  </i>
   <i type="logical" name="LFERMIGW"> F  </i>
   <i type="logical" name="ODDONLYGW"> F  </i>
   <i type="logical" name="EVENONLYGW"> F  </i>
   <i type="int" name="NKREDLFX">     1</i>
   <i type="int" name="NKREDLFY">     1</i>
   <i type="int" name="NKREDLFZ">     1</i>
   <i type="int" name="MAXMEM">  1800</i>
   <i type="int" name="TELESCOPE">     0</i>
   <i type="int" name="TAUPAR">     1</i>
   <i type="int" name="OMEGAPAR">    -1</i>
   <i name="LAMBDA">      1.00000000</i>
  </separator>
  <separator name="External order field" >
   <i name="OFIELD_KAPPA">      0.00000000</i>
   <v name="OFIELD_K">      0.00000000      0.00000000      0.00000000</v>
   <i name="OFIELD_Q6_NEAR">      0.00000000</i>
   <i name="OFIELD_Q6_FAR">      0.00000000</i>
   <i name="OFIELD_A">      0.00000000</i>
  </separator>
 </parameters>
 <atominfo>
  <atoms>       6 </atoms>
  <types>       2 </types>
  <array name="atoms" >
   <dimension dim="1">ion</dimension>
   <field type="string">element</field>
   <field type="int">atomtype</field>
   <set>
    <rc><c>Ge</c><c>   1</c></rc>
    <rc><c>Ge</c><c>   1</c></rc>
    <rc><c>Se</c><c>   2</c></rc>
    <rc><c>Se</c><c>   2</c></rc>
    <rc><c>Se</c><c>   2</c></rc>
    <rc><c>Se</c><c>   2</c></rc>
   </set>
  </array>
  <array name="atomtypes" >
   <dimension dim="1">type</dimension>
   <field type="int">atomspertype</field>
   <field type="string">element</field>
   <field>mass</field>
   <field>valence</field>
   <field type="string">pseudopotential</field>
   <set>
    <rc><c>   2</c><c>Ge</c><c>     72.61000000</c><c>     14.00000000</c><c>  PAW_PBE Ge_d 03Jul2007                </c></rc>
    <rc><c>   4</c><c>Se</c><c>     78.96000000</c><c>      6.00000000</c><c>  PAW_PBE Se 06Sep2000                  </c></rc>
   </set>
  </array>
 </atominfo>
 <structure name="initialpos" >
  <crystal>
   <varray name="basis" >
    <v>       4.90552500      -0.07359900       0.00000000 </v>
    <v>      -0.08357700       5.57057500       0.00000000 </v>
    <v>       0.00000000       0.00000000      18.07929100 </v>
   </varray>
   <i name="volume">    493.93425268 </i>
   <varray name="rec_basis" >
    <v>       0.20389768       0.00305914       0.00000000 </v>
    <v>       0.00269392       0.17955510       0.00000000 </v>
    <v>       0.00000000       0.00000000       0.05531190 </v>
   </varray>
  </crystal>
  <varray name="positions" >
   <v>       0.50000000       0.50000000       0.50000000 </v>
   <v>       0.00000000       0.00000000       0.50000000 </v>
   <v>       0.25000000       0.25000000       0.41502600 </v>
   <v>       0.75000000       0.75000000       0.41502600 </v>
   <v>       0.75000000       0.25000000       0.58497400 </v>
   <v>       0.25000000       0.75000000       0.58497400 </v>
  </varray>
 </structure>
 <calculation>
  <scstep>
   <time name="dav">    2.83    2.84</time>
   <time name="total">    2.87    2.88</time>
   <energy>
    <i name="alphaZ">     46.50626539 </i>
    <i name="ewald">   4985.89295265 </i>
    <i name="hartreedc">  -9773.14894224 </i>
    <i name="XCdc">    142.45766814 </i>
    <i name="pawpsdc">   4514.43351212 </i>
    <i name="pawaedc">  -5329.26418529 </i>
    <i name="eentropy">     -0.00046765 </i>
    <i name="bandstr">   -368.73685451 </i>
    <i name="atom">   6220.98622430 </i>
    <i name="e_fr_energy">    439.12617291 </i>
    <i name="e_wo_entrp">    439.12664056 </i>
    <i name="e_0_energy">    439.12640673 </i>
   </energy>
  </scstep>
  <scstep>
   <time name="dav">    3.04    3.04</time>
   <time name="total">    3.05    3.05</time>
   <energy>
    <i name="e_fr_energy">     45.10185303 </i>
    <i name="e_wo_entrp">     45.10236236 </i>
    <i name="e_0_energy">     45.10210770 </i>
   </energy>
  </scstep>
  <scstep>
   <time name="dav">    3.26    3.26</time>
   <time name="total">    3.26    3.27</time>
   <energy>
    <i name="e_fr_energy">    -21.53768556 </i>
    <i name="e_wo_entrp">    -21.53768556 </i>
    <i name="e_0_energy">    -21.53768556 </i>
   </energy>
  </scstep>
  <scstep>
   <time name="dav">    2.91    2.91</time>
   <time name="total">    2.91    2.92</time>
   <energy>
    <i name="e_fr_energy">    -24.73142022 </i>
    <i name="e_wo_entrp">    -24.73142022 </i>
    <i name="e_0_energy">    -24.73142022 </i>
   </energy>
  </scstep>
  <scstep>
   <time name="dav">    3.49    3.49</time>
   <time name="total">    3.64    3.64</time>
   <energy>
    <i name="e_fr_energy">    -24.83921728 </i>
    <i name="e_wo_entrp">    -24.83921728 </i>
    <i name="e_0_energy">    -24.83921728 </i>
   </energy>
  </scstep>
  <scstep>
   <time name="dav">    3.35    3.35</time>
   <time name="total">    3.52    3.53</time>
   <energy>
    <i name="e_fr_energy">    -24.33727209 </i>
    <i name="e_wo_entrp">    -24.33727209 </i>
    <i name="e_0_energy">    -24.33727209 </i>
   </energy>
  </scstep>
  <scstep>
   <time name="dav">    3.04    3.04</time>
   <time name="total">    3.21    3.21</time>
   <energy>
    <i name="e_fr_energy">    -24.24115859 </i>
    <i name="e_wo_entrp">    -24.24115859 </i>
    <i name="e_0_energy">    -24.24115859 </i>
   </energy>
  </scstep>
  <scstep>
   <time name="dav">    3.20    3.20</time>
   <time name="total">    3.37    3.37</time>
   <energy>
    <i name="e_fr_energy">    -24.23547103 </i>
    <i name="e_wo_entrp">    -24.23547103 </i>
    <i name="e_0_energy">    -24.23547103 </i>
   </energy>
  </scstep>
  <scstep>
   <time name="dav">    3.27    3.27</time>
   <time name="total">    3.44    3.44</time>
   <energy>
    <i name="e_fr_energy">    -24.23493141 </i>
    <i name="e_wo_entrp">    -24.23493141 </i>
    <i name="e_0_energy">    -24.23493141 </i>
   </energy>
  </scstep>
  <scstep>
   <time name="dav">    3.38    3.38</time>
   <time name="total">    3.55    3.55</time>
   <energy>
    <i name="e_fr_energy">    -24.23469678 </i>
    <i name="e_wo_entrp">    -24.23469678 </i>
    <i name="e_0_energy">    -24.23469678 </i>
   </energy>
  </scstep>
  <scstep>
   <time name="dav">    2.78    2.78</time>
   <time name="total">    2.95    2.95</time>
   <energy>
    <i name="e_fr_energy">    -24.23449432 </i>
    <i name="e_wo_entrp">    -24.23449432 </i>
    <i name="e_0_energy">    -24.23449432 </i>
   </energy>
  </scstep>
  <scstep>
   <time name="dav">    2.71    2.71</time>
   <time name="total">    2.88    2.88</time>
   <energy>
    <i name="e_fr_energy">    -24.23459885 </i>
    <i name="e_wo_entrp">    -24.23459885 </i>
    <i name="e_0_energy">    -24.23459885 </i>
   </energy>
  </scstep>
  <scstep>
   <time name="dav">    2.67    2.68</time>
   <time name="total">    2.85    2.85</time>
   <energy>
    <i name="e_fr_energy">    -24.23485909 </i>
    <i name="e_wo_entrp">    -24.23485909 </i>
    <i name="e_0_energy">    -24.23485909 </i>
   </energy>
  </scstep>
  <scstep>
   <time name="dav">    2.52    2.52</time>
   <time name="total">    2.70    2.70</time>
   <energy>
    <i name="e_fr_energy">    -24.23497863 </i>
    <i name="e_wo_entrp">    -24.23497863 </i>
    <i name="e_0_energy">    -24.23497863 </i>
   </energy>
  </scstep>
  <scstep>
   <time name="dav">    2.49    2.49</time>
   <time name="total">    2.66    2.66</time>
   <energy>
    <i name="e_fr_energy">    -24.23503552 </i>
    <i name="e_wo_entrp">    -24.23503552 </i>
    <i name="e_0_energy">    -24.23503552 </i>
   </energy>
  </scstep>
  <scstep>
   <time name="dav">    2.40    2.40</time>
   <time name="total">    2.57    2.57</time>
   <energy>
    <i name="e_fr_energy">    -24.23508395 </i>
    <i name="e_wo_entrp">    -24.23508395 </i>
    <i name="e_0_energy">    -24.23508395 </i>
   </energy>
  </scstep>
  <scstep>
   <time name="dav">    2.27    2.27</time>
   <time name="total">    2.44    2.45</time>
   <energy>
    <i name="e_fr_energy">    -24.23513608 </i>
    <i name="e_wo_entrp">    -24.23513608 </i>
    <i name="e_0_energy">    -24.23513608 </i>
   </energy>
  </scstep>
  <scstep>
   <time name="dav">    2.28    2.28</time>
   <time name="total">    2.45    2.45</time>
   <energy>
    <i name="e_fr_energy">    -24.23517893 </i>
    <i name="e_wo_entrp">    -24.23517893 </i>
    <i name="e_0_energy">    -24.23517893 </i>
   </energy>
  </scstep>
  <scstep>
   <time name="dav">    2.33    2.33</time>
   <time name="total">    2.50    2.50</time>
   <energy>
    <i name="e_fr_energy">    -24.23519136 </i>
    <i name="e_wo_entrp">    -24.23519136 </i>
    <i name="e_0_energy">    -24.23519136 </i>
   </energy>
  </scstep>
  <scstep>
   <time name="dav">    2.31    2.31</time>
   <time name="total">    2.34    2.34</time>
   <energy>
    <i name="alphaZ">     46.50626539 </i>
    <i name="ewald">   4985.89295265 </i>
    <i name="hartreedc">  -9777.74591357 </i>
    <i name="XCdc">    142.99589869 </i>
    <i name="pawpsdc">   5764.29010628 </i>
    <i name="pawaedc">  -6584.42930491 </i>
    <i name="eentropy">     -0.00000000 </i>
    <i name="bandstr">   -822.73142333 </i>
    <i name="atom">   6220.98622430 </i>
    <i name="e_fr_energy">    -24.23519450 </i>
    <i name="e_wo_entrp">    -24.23519450 </i>
    <i name="e_0_energy">    -24.23519450 </i>
   </energy>
  </scstep>
  <structure>
   <crystal>
    <varray name="basis" >
     <v>       4.90552500      -0.07359900       0.00000000 </v>
     <v>      -0.08357700       5.57057500       0.00000000 </v>
     <v>       0.00000000       0.00000000      18.07929100 </v>
    </varray>
    <i name="volume">    493.93425268 </i>
    <varray name="rec_basis" >
     <v>       0.20389768       0.00305914       0.00000000 </v>
     <v>       0.00269392       0.17955510       0.00000000 </v>
     <v>       0.00000000       0.00000000       0.05531190 </v>
    </varray>
   </crystal>
   <varray name="positions" >
    <v>       0.50000000       0.50000000       0.50000000 </v>
    <v>       0.00000000       0.00000000       0.50000000 </v>
    <v>       0.25000000       0.25000000       0.41502600 </v>
    <v>       0.75000000       0.75000000       0.41502600 </v>
    <v>       0.75000000       0.25000000       0.58497400 </v>
    <v>       0.25000000       0.75000000       0.58497400 </v>
   </varray>
  </structure>
  <varray name="forces" >
   <v>      -0.00000000      -0.00000000       0.29576738 </v>
   <v>      -0.00000000      -0.00000000       0.29576738 </v>
   <v>      -0.00000000      -0.00000000      -0.15729384 </v>
   <v>      -0.00000000      -0.00000000      -0.15729384 </v>
   <v>      -0.00000000       0.00000000      -0.13847354 </v>
   <v>       0.00000000       0.00000000      -0.13847354 </v>
  </varray>
  <varray name="stress" >
   <v>       0.42214564       6.16170373       0.00000000 </v>
   <v>       6.16170364       0.44516565       0.00000000 </v>
   <v>       0.00000000       0.00000000       0.13340351 </v>
  </varray>
  <energy>
   <i name="e_fr_energy">    -24.23519450 </i>
   <i name="e_wo_entrp">    -24.23519450 </i>
   <i name="e_0_energy">     -0.00000000 </i>
  </energy>
  <time name="totalsc">   61.14   61.19</time>
 </calculation>
 <calculation>
  <scstep>
   <time name="dav">    3.04    3.04</time>
   <time name="total">    3.21    3.22</time>
   <energy>
    <i name="alphaZ">     46.50626539 </i>
    <i name="ewald">   4984.96785337 </i>
    <i name="hartreedc">  -9776.88640709 </i>
    <i name="XCdc">    142.99027972 </i>
    <i name="pawpsdc">   5764.27742460 </i>
    <i name="pawaedc">  -6584.41640584 </i>
    <i name="eentropy">     -0.00000000 </i>
    <i name="bandstr">   -822.66339882 </i>
    <i name="atom">   6220.98622430 </i>
    <i name="e_fr_energy">    -24.23816438 </i>
    <i name="e_wo_entrp">    -24.23816438 </i>
    <i name="e_0_energy">    -24.23816438 </i>
   </energy>
  </scstep>
  <scstep>
   <time name="dav">    3.17    3.17</time>
   <time name="total">    3.34    3.34</time>
   <energy>
    <i name="e_fr_energy">    -24.23943308 </i>
    <i name="e_wo_entrp">    -24.23943308 </i>
    <i name="e_0_energy">    -24.23943308 </i>
   </energy>
  </scstep>
  <scstep>
   <time name="dav">    3.41    3.41</time>
   <time name="total">    3.58    3.59</time>
   <energy>
    <i name="e_fr_energy">    -24.23944694 </i>
    <i name="e_wo_entrp">    -24.23944694 </i>
    <i name="e_0_energy">    -24.23944694 </i>
   </energy>
  </scstep>
  <scstep>
   <time name="dav">    2.78    2.78</time>
   <time name="total">    2.95    2.95</time>
   <energy>
    <i name="e_fr_energy">    -24.23943191 </i>
    <i name="e_wo_entrp">    -24.23943191 </i>
    <i name="e_0_energy">    -24.23943191 </i>
   </energy>
  </scstep>
  <scstep>
   <time name="dav">    2.77    2.77</time>
   <time name="total">    2.94    2.94</time>
   <energy>
    <i name="e_fr_energy">    -24.23942592 </i>
    <i name="e_wo_entrp">    -24.23942592 </i>
    <i name="e_0_energy">    -24.23942592 </i>
   </energy>
  </scstep>
  <scstep>
   <time name="dav">    2.35    2.35</time>
   <time name="total">    2.38    2.38</time>
   <energy>
    <i name="alphaZ">     46.50626539 </i>
    <i name="ewald">   4984.96785337 </i>
    <i name="hartreedc">  -9776.88028672 </i>
    <i name="XCdc">    142.99058941 </i>
    <i name="pawpsdc">   5761.81298664 </i>
    <i name="pawaedc">  -6581.93581905 </i>
    <i name="eentropy">     -0.00000000 </i>
    <i name="bandstr">   -822.68724157 </i>
    <i name="atom">   6220.98622430 </i>
    <i name="e_fr_energy">    -24.23942823 </i>
    <i name="e_wo_entrp">    -24.23942823 </i>
    <i name="e_0_energy">    -24.23942823 </i>
   </energy>
  </scstep>
  <structure>
   <crystal>
    <varray name="basis" >
     <v>       4.90552500      -0.07359900       0.00000000 </v>
     <v>      -0.08357700       5.57057500       0.00000000 </v>
     <v>       0.00000000       0.00000000      18.07929100 </v>
    </varray>
    <i name="volume">    493.93425268 </i>
    <varray name="rec_basis" >
     <v>       0.20389768       0.00305914       0.00000000 </v>
     <v>       0.00269392       0.17955510       0.00000000 </v>
     <v>       0.00000000       0.00000000       0.05531190 </v>
    </varray>
   </crystal>
   <varray name="positions" >
    <v>       0.50000000       0.50000000       0.50047353 </v>
    <v>      -0.00000000      -0.00000000       0.50047353 </v>
    <v>       0.25000000       0.25000000       0.41477417 </v>
    <v>       0.75000000       0.75000000       0.41477417 </v>
    <v>       0.75000000       0.25000000       0.58475230 </v>
    <v>       0.25000000       0.75000000       0.58475230 </v>
   </varray>
  </structure>
  <varray name="forces" >
   <v>       0.00000000      -0.00000000       0.03175185 </v>
   <v>      -0.00000000       0.00000000       0.03175185 </v>
   <v>       0.00000000      -0.00000000      -0.01528598 </v>
   <v>       0.00000000       0.00000000      -0.01528598 </v>
   <v>      -0.00000000       0.00000000      -0.01646587 </v>
   <v>      -0.00000000       0.00000000      -0.01646587 </v>
  </varray>
  <varray name="stress" >
   <v>       0.33569171       5.32729824       0.00000000 </v>
   <v>       5.32729821       0.33881829       0.00000000 </v>
   <v>       0.00000000       0.00000000      -0.07748334 </v>
  </varray>
  <energy>
   <i name="e_fr_energy">    -24.23942823 </i>
   <i name="e_wo_entrp">    -24.23942823 </i>
   <i name="e_0_energy">     -0.00000000 </i>
  </energy>
  <time name="totalsc">   20.37   20.38</time>
 </calculation>
 <calculation>
  <scstep>
   <time name="dav">    3.08    3.08</time>
   <time name="total">    3.25    3.25</time>
   <energy>
    <i name="alphaZ">     46.50626539 </i>
    <i name="ewald">   4984.85549449 </i>
    <i name="hartreedc">  -9776.77384039 </i>
    <i name="XCdc">    142.98991335 </i>
    <i name="pawpsdc">   5761.82183221 </i>
    <i name="pawaedc">  -6581.94359001 </i>
    <i name="eentropy">     -0.00000000 </i>
    <i name="bandstr">   -822.68176915 </i>
    <i name="atom">   6220.98622430 </i>
    <i name="e_fr_energy">    -24.23946981 </i>
    <i name="e_wo_entrp">    -24.23946981 </i>
    <i name="e_0_energy">    -24.23946981 </i>
   </energy>
  </scstep>
  <scstep>
   <time name="dav">    3.21    3.21</time>
   <time name="total">    3.38    3.38</time>
   <energy>
    <i name="e_fr_energy">    -24.23948942 </i>
    <i name="e_wo_entrp">    -24.23948942 </i>
    <i name="e_0_energy">    -24.23948942 </i>
   </energy>
  </scstep>
  <scstep>
   <time name="dav">    2.27    2.27</time>
   <time name="total">    2.44    2.44</time>
   <energy>
    <i name="e_fr_energy">    -24.23949007 </i>
    <i name="e_wo_entrp">    -24.23949007 </i>
    <i name="e_0_energy">    -24.23949007 </i>
   </energy>
  </scstep>
  <scstep>
   <time name="dav">    2.20    2.20</time>
   <time name="total">    2.38    2.38</time>
   <energy>
    <i name="e_fr_energy">    -24.23949105 </i>
    <i name="e_wo_entrp">    -24.23949105 </i>
    <i name="e_0_energy">    -24.23949105 </i>
   </energy>
  </scstep>
  <scstep>
   <time name="dav">    2.26    2.26</time>
   <time name="total">    2.42    2.43</time>
   <energy>
    <i name="e_fr_energy">    -24.23949210 </i>
    <i name="e_wo_entrp">    -24.23949210 </i>
    <i name="e_0_energy">    -24.23949210 </i>
   </energy>
  </scstep>
  <scstep>
   <time name="dav">    2.03    2.03</time>
   <time name="total">    2.06    2.07</time>
   <energy>
    <i name="alphaZ">     46.50626539 </i>
    <i name="ewald">   4984.85549449 </i>
    <i name="hartreedc">  -9776.77432329 </i>
    <i name="XCdc">    142.98995964 </i>
    <i name="pawpsdc">   5761.56132103 </i>
    <i name="pawaedc">  -6581.68130817 </i>
    <i name="eentropy">     -0.00000000 </i>
    <i name="bandstr">   -822.68312602 </i>
    <i name="atom">   6220.98622430 </i>
    <i name="e_fr_energy">    -24.23949264 </i>
    <i name="e_wo_entrp">    -24.23949264 </i>
    <i name="e_0_energy">    -24.23949264 </i>
   </energy>
  </scstep>
  <structure>
   <crystal>
    <varray name="basis" >
     <v>       4.90552500      -0.07359900       0.00000000 </v>
     <v>      -0.08357700       5.57057500       0.00000000 </v>
     <v>       0.00000000       0.00000000      18.07929100 </v>
    </varray>
    <i name="volume">    493.93425268 </i>
    <varray name="rec_basis" >
     <v>       0.20389768       0.00305914       0.00000000 </v>
     <v>       0.00269392       0.17955510       0.00000000 </v>
     <v>       0.00000000       0.00000000       0.05531190 </v>
    </varray>
   </crystal>
   <varray name="positions" >
    <v>       0.50000000       0.50000000       0.50053035 </v>
    <v>      -0.00000000      -0.00000000       0.50053035 </v>
    <v>       0.25000000       0.25000000       0.41474395 </v>
    <v>       0.75000000       0.75000000       0.41474395 </v>
    <v>       0.75000000       0.25000000       0.58472570 </v>
    <v>       0.25000000       0.75000000       0.58472570 </v>
   </varray>
  </structure>
  <varray name="forces" >
   <v>      -0.00000000       0.00000000       0.00082138 </v>
   <v>       0.00000000       0.00000000       0.00082138 </v>
   <v>      -0.00000000      -0.00000000       0.00122736 </v>
   <v>      -0.00000000       0.00000000       0.00122736 </v>
   <v>      -0.00000000       0.00000000      -0.00204874 </v>
   <v>      -0.00000000       0.00000000      -0.00204874 </v>
  </varray>
  <varray name="stress" >
   <v>       0.34434974       5.24052209       0.00000000 </v>
   <v>       5.24052194       0.34637675       0.00000000 </v>
   <v>       0.00000000       0.00000000      -0.08721476 </v>
  </varray>
  <energy>
   <i name="e_fr_energy">    -24.23949264 </i>
   <i name="e_wo_entrp">    -24.23949264 </i>
   <i name="e_0_energy">     -0.00000000 </i>
  </energy>
  <time name="totalsc">   17.80   17.81</time>
  <eigenvalues>
   <array>
    <dimension dim="1">band</dimension>
    <dimension dim="2">kpoint</dimension>
    <dimension dim="3">spin</dimension>
    <field>eigene</field>
    <field>occ</field>
    <set>
     <set comment="spin 1">
      <set comment="kpoint 1">
       <r>  -27.7938    1.0000 </r>
       <r>  -27.7864    1.0000 </r>
       <r>  -27.7861    1.0000 </r>
       <r>  -27.7809    1.0000 </r>
       <r>  -27.7773    1.0000 </r>
       <r>  -27.7657    1.0000 </r>
       <r>  -27.7611    1.0000 </r>
       <r>  -27.7588    1.0000 </r>
       <r>  -27.7464    1.0000 </r>
       <r>  -27.7408    1.0000 </r>
       <r>  -16.9069    1.0000 </r>
       <r>  -15.3935    1.0000 </r>
       <r>  -14.9687    1.0000 </r>
       <r>  -14.7545    1.0000 </r>
       <r>  -11.7877    1.0000 </r>
       <r>   -9.2200    1.0000 </r>
       <r>   -7.4569    1.0000 </r>
       <r>   -5.9089    1.0000 </r>
       <r>   -5.5140    1.0000 </r>
       <r>   -5.4809    1.0000 </r>
       <r>   -5.1387    1.0000 </r>
       <r>   -5.1318    1.0000 </r>
       <r>   -4.6519    1.0000 </r>
       <r>   -4.1492    1.0000 </r>
       <r>   -2.9524    1.0000 </r>
       <r>   -2.6676    1.0000 </r>
       <r>   -1.8837    0.0000 </r>
       <r>   -1.3779    0.0000 </r>
       <r>   -0.8476    0.0000 </r>
       <r>    0.1284    0.0000 </r>
       <r>    0.6788    0.0000 </r>
       <r>    1.9486    0.0000 </r>
      </set>
      <set comment="kpoint 2">
       <r>  -27.7937    1.0000 </r>
       <r>  -27.7862    1.0000 </r>
       <r>  -27.7861    1.0000 </r>
       <r>  -27.7809    1.0000 </r>
       <r>  -27.7774    1.0000 </r>
       <r>  -27.7656    1.0000 </r>
       <r>  -27.7612    1.0000 </r>
       <r>  -27.7590    1.0000 </r>
       <r>  -27.7464    1.0000 </r>
       <r>  -27.7409    1.0000 </r>
       <r>  -16.8902    1.0000 </r>
       <r>  -15.3871    1.0000 </r>
       <r>  -14.9721    1.0000 </r>
       <r>  -14.7929    1.0000 </r>
       <r>  -11.7448    1.0000 </r>
       <r>   -9.2353    1.0000 </r>
       <r>   -7.4555    1.0000 </r>
       <r>   -5.9052    1.0000 </r>
       <r>   -5.5829    1.0000 </r>
       <r>   -5.5713    1.0000 </r>
       <r>   -5.2027    1.0000 </r>
       <r>   -5.0375    1.0000 </r>
       <r>   -4.6479    1.0000 </r>
       <r>   -4.1344    1.0000 </r>
       <r>   -2.9965    1.0000 </r>
       <r>   -2.7139    1.0000 </r>
       <r>   -1.7844    0.0000 </r>
       <r>   -1.3737    0.0000 </r>
       <r>   -0.7365    0.0000 </r>
       <r>    0.1771    0.0000 </r>
       <r>    0.7260    0.0000 </r>
       <r>    1.9777    0.0000 </r>
      </set>
      <set comment="kpoint 3">
       <r>  -27.7933    1.0000 </r>
       <r>  -27.7859    1.0000 </r>
       <r>  -27.7859    1.0000 </r>
       <r>  -27.7811    1.0000 </r>
       <r>  -27.7774    1.0000 </r>
       <r>  -27.7654    1.0000 </r>
       <r>  -27.7614    1.0000 </r>
       <r>  -27.7597    1.0000 </r>
       <r>  -27.7462    1.0000 </r>
       <r>  -27.7411    1.0000 </r>
       <r>  -16.8405    1.0000 </r>
       <r>  -15.3686    1.0000 </r>
       <r>  -14.9859    1.0000 </r>
       <r>  -14.8975    1.0000 </r>
       <r>  -11.6227    1.0000 </r>
       <r>   -9.2830    1.0000 </r>
       <r>   -7.4503    1.0000 </r>
       <r>   -5.8966    1.0000 </r>
       <r>   -5.7639    1.0000 </r>
       <r>   -5.7139    1.0000 </r>
       <r>   -5.3809    1.0000 </r>
       <r>   -4.8610    1.0000 </r>
       <r>   -4.6541    1.0000 </r>
       <r>   -4.0920    1.0000 </r>
       <r>   -3.1180    1.0000 </r>
       <r>   -2.8302    1.0000 </r>
       <r>   -1.5272    0.0000 </r>
       <r>   -1.3495    0.0000 </r>
       <r>   -0.4255    0.0000 </r>
       <r>    0.3130    0.0000 </r>
       <r>    0.8567    0.0000 </r>
       <r>    1.9913    0.0000 </r>
      </set>
      <set comment="kpoint 4">
       <r>  -27.7927    1.0000 </r>
       <r>  -27.7856    1.0000 </r>
       <r>  -27.7855    1.0000 </r>
       <r>  -27.7813    1.0000 </r>
       <r>  -27.7774    1.0000 </r>
       <r>  -27.7651    1.0000 </r>
       <r>  -27.7621    1.0000 </r>
       <r>  -27.7606    1.0000 </r>
       <r>  -27.7459    1.0000 </r>
       <r>  -27.7413    1.0000 </r>
       <r>  -16.7586    1.0000 </r>
       <r>  -15.3390    1.0000 </r>
       <r>  -15.0822    1.0000 </r>
       <r>  -14.9800    1.0000 </r>
       <r>  -11.4374    1.0000 </r>
       <r>   -9.3676    1.0000 </r>
       <r>   -7.4373    1.0000 </r>
       <r>   -6.0087    1.0000 </r>
       <r>   -5.9248    1.0000 </r>
       <r>   -5.7859    1.0000 </r>
       <r>   -5.6021    1.0000 </r>
       <r>   -4.6931    1.0000 </r>
       <r>   -4.6919    1.0000 </r>
       <r>   -4.0266    1.0000 </r>
       <r>   -3.2952    1.0000 </r>
       <r>   -2.9780    1.0000 </r>
       <r>   -1.2818    0.0000 </r>
       <r>   -1.1867    0.0000 </r>
       <r>    0.0361    0.0000 </r>
       <r>    0.5116    0.0000 </r>
       <r>    1.0374    0.0000 </r>
       <r>    1.8336    0.0000 </r>
      </set>
      <set comment="kpoint 5">
       <r>  -27.7919    1.0000 </r>
       <r>  -27.7855    1.0000 </r>
       <r>  -27.7852    1.0000 </r>
       <r>  -27.7815    1.0000 </r>
       <r>  -27.7770    1.0000 </r>
       <r>  -27.7647    1.0000 </r>
       <r>  -27.7634    1.0000 </r>
       <r>  -27.7612    1.0000 </r>
       <r>  -27.7455    1.0000 </r>
       <r>  -27.7417    1.0000 </r>
       <r>  -16.6458    1.0000 </r>
       <r>  -15.3005    1.0000 </r>
       <r>  -15.2767    1.0000 </r>
       <r>  -15.0063    1.0000 </r>
       <r>  -11.2070    1.0000 </r>
       <r>   -9.4943    1.0000 </r>
       <r>   -7.4101    1.0000 </r>
       <r>   -6.2776    1.0000 </r>
       <r>   -6.0159    1.0000 </r>
       <r>   -5.8124    1.0000 </r>
       <r>   -5.7397    1.0000 </r>
       <r>   -4.7724    1.0000 </r>
       <r>   -4.5507    1.0000 </r>
       <r>   -3.9436    1.0000 </r>
       <r>   -3.5033    1.0000 </r>
       <r>   -3.1296    1.0000 </r>
       <r>   -1.1544    0.0000 </r>
       <r>   -0.8358    0.0000 </r>
       <r>    0.5982    0.0000 </r>
       <r>    0.7423    0.0000 </r>
       <r>    1.2148    0.0000 </r>
       <r>    1.6763    0.0000 </r>
      </set>
      <set comment="kpoint 6">
       <r>  -27.7909    1.0000 </r>
       <r>  -27.7858    1.0000 </r>
       <r>  -27.7847    1.0000 </r>
       <r>  -27.7818    1.0000 </r>
       <r>  -27.7760    1.0000 </r>
       <r>  -27.7653    1.0000 </r>
       <r>  -27.7642    1.0000 </r>
       <r>  -27.7616    1.0000 </r>
       <r>  -27.7450    1.0000 </r>
       <r>  -27.7422    1.0000 </r>
       <r>  -16.5041    1.0000 </r>
       <r>  -15.4943    1.0000 </r>
       <r>  -15.2555    1.0000 </r>
       <r>  -15.0351    1.0000 </r>
       <r>  -10.9474    1.0000 </r>
       <r>   -9.6655    1.0000 </r>
       <r>   -7.3599    1.0000 </r>
       <r>   -6.5431    1.0000 </r>
       <r>   -6.0961    1.0000 </r>
       <r>   -5.9798    1.0000 </r>
       <r>   -5.6430    1.0000 </r>
       <r>   -4.8896    1.0000 </r>
       <r>   -4.4359    1.0000 </r>
       <r>   -3.8481    1.0000 </r>
       <r>   -3.7166    1.0000 </r>
       <r>   -3.2716    1.0000 </r>
       <r>   -0.9703    0.0000 </r>
       <r>   -0.5472    0.0000 </r>
       <r>    0.9703    0.0000 </r>
       <r>    1.2019    0.0000 </r>
       <r>    1.3361    0.0000 </r>
       <r>    1.5604    0.0000 </r>
      </set>
      <set comment="kpoint 7">
       <r>  -27.7898    1.0000 </r>
       <r>  -27.7866    1.0000 </r>
       <r>  -27.7841    1.0000 </r>
       <r>  -27.7822    1.0000 </r>
       <r>  -27.7743    1.0000 </r>
       <r>  -27.7675    1.0000 </r>
       <r>  -27.7637    1.0000 </r>
       <r>  -27.7621    1.0000 </r>
       <r>  -27.7445    1.0000 </r>
       <r>  -27.7427    1.0000 </r>
       <r>  -16.3364    1.0000 </r>
       <r>  -15.7183    1.0000 </r>
       <r>  -15.2071    1.0000 </r>
       <r>  -15.0705    1.0000 </r>
       <r>  -10.6722    1.0000 </r>
       <r>   -9.8786    1.0000 </r>
       <r>   -7.2778    1.0000 </r>
       <r>   -6.7855    1.0000 </r>
       <r>   -6.1489    1.0000 </r>
       <r>   -6.0930    1.0000 </r>
       <r>   -5.5140    1.0000 </r>
       <r>   -5.0359    1.0000 </r>
       <r>   -4.3322    1.0000 </r>
       <r>   -3.9139    1.0000 </r>
       <r>   -3.7442    1.0000 </r>
       <r>   -3.4011    1.0000 </r>
       <r>   -0.7533    0.0000 </r>
       <r>   -0.3911    0.0000 </r>
       <r>    1.1586    0.0000 </r>
       <r>    1.3882    0.0000 </r>
       <r>    1.4254    0.0000 </r>
       <r>    1.4559    0.0000 </r>
      </set>
      <set comment="kpoint 8">
       <r>  -27.7887    1.0000 </r>
       <r>  -27.7876    1.0000 </r>
       <r>  -27.7835    1.0000 </r>
       <r>  -27.7828    1.0000 </r>
       <r>  -27.7722    1.0000 </r>
       <r>  -27.7699    1.0000 </r>
       <r>  -27.7632    1.0000 </r>
       <r>  -27.7626    1.0000 </r>
       <r>  -27.7439    1.0000 </r>
       <r>  -27.7433    1.0000 </r>
       <r>  -16.1462    1.0000 </r>
       <r>  -15.9382    1.0000 </r>
       <r>  -15.1583    1.0000 </r>
       <r>  -15.1120    1.0000 </r>
       <r>  -10.3940    1.0000 </r>
       <r>  -10.1253    1.0000 </r>
       <r>   -7.1564    1.0000 </r>
       <r>   -6.9921    1.0000 </r>
       <r>   -6.1699    1.0000 </r>
       <r>   -6.1539    1.0000 </r>
       <r>   -5.3619    1.0000 </r>
       <r>   -5.1981    1.0000 </r>
       <r>   -4.2197    1.0000 </r>
       <r>   -4.0826    1.0000 </r>
       <r>   -3.6348    1.0000 </r>
       <r>   -3.5210    1.0000 </r>
       <r>   -0.5443    0.0000 </r>
       <r>   -0.4014    0.0000 </r>
       <r>    1.2837    0.0000 </r>
       <r>    1.3623    0.0000 </r>
       <r>    1.4017    0.0000 </r>
       <r>    1.4113    0.0000 </r>
      </set>
      <set comment="kpoint 9">
       <r>  -27.7937    1.0000 </r>
       <r>  -27.7863    1.0000 </r>
       <r>  -27.7860    1.0000 </r>
       <r>  -27.7808    1.0000 </r>
       <r>  -27.7774    1.0000 </r>
       <r>  -27.7656    1.0000 </r>
       <r>  -27.7612    1.0000 </r>
       <r>  -27.7591    1.0000 </r>
       <r>  -27.7464    1.0000 </r>
       <r>  -27.7409    1.0000 </r>
       <r>  -16.8881    1.0000 </r>
       <r>  -15.3846    1.0000 </r>
       <r>  -15.0190    1.0000 </r>
       <r>  -14.7642    1.0000 </r>
       <r>  -11.7246    1.0000 </r>
       <r>   -9.2379    1.0000 </r>
       <r>   -7.4434    1.0000 </r>
       <r>   -5.9305    1.0000 </r>
       <r>   -5.5715    1.0000 </r>
       <r>   -5.4749    1.0000 </r>
       <r>   -5.2197    1.0000 </r>
       <r>   -5.1033    1.0000 </r>
       <r>   -4.6470    1.0000 </r>
       <r>   -4.1190    1.0000 </r>
       <r>   -2.9954    1.0000 </r>
       <r>   -2.7256    1.0000 </r>
       <r>   -1.7674    0.0000 </r>
       <r>   -1.3546    0.0000 </r>
       <r>   -0.7164    0.0000 </r>
       <r>    0.1473    0.0000 </r>
       <r>    0.7122    0.0000 </r>
       <r>    1.9758    0.0000 </r>
      </set>
      <set comment="kpoint 10">
       <r>  -27.7933    1.0000 </r>
       <r>  -27.7863    1.0000 </r>
       <r>  -27.7861    1.0000 </r>
       <r>  -27.7809    1.0000 </r>
       <r>  -27.7773    1.0000 </r>
       <r>  -27.7656    1.0000 </r>
       <r>  -27.7612    1.0000 </r>
       <r>  -27.7596    1.0000 </r>
       <r>  -27.7463    1.0000 </r>
       <r>  -27.7410    1.0000 </r>
       <r>  -16.8692    1.0000 </r>
       <r>  -15.3769    1.0000 </r>
       <r>  -15.0367    1.0000 </r>
       <r>  -14.7937    1.0000 </r>
       <r>  -11.6801    1.0000 </r>
       <r>   -9.2485    1.0000 </r>
       <r>   -7.4421    1.0000 </r>
       <r>   -5.9103    1.0000 </r>
       <r>   -5.5780    1.0000 </r>
       <r>   -5.5727    1.0000 </r>
       <r>   -5.3536    1.0000 </r>
       <r>   -5.0003    1.0000 </r>
       <r>   -4.6439    1.0000 </r>
       <r>   -4.1058    1.0000 </r>
       <r>   -2.9398    1.0000 </r>
       <r>   -2.8701    1.0000 </r>
       <r>   -1.7877    0.0000 </r>
       <r>   -1.3495    0.0000 </r>
       <r>   -0.5039    0.0000 </r>
       <r>    0.1964    0.0000 </r>
       <r>    0.7678    0.0000 </r>
       <r>    1.9681    0.0000 </r>
      </set>
      <set comment="kpoint 11">
       <r>  -27.7927    1.0000 </r>
       <r>  -27.7862    1.0000 </r>
       <r>  -27.7861    1.0000 </r>
       <r>  -27.7809    1.0000 </r>
       <r>  -27.7773    1.0000 </r>
       <r>  -27.7653    1.0000 </r>
       <r>  -27.7612    1.0000 </r>
       <r>  -27.7604    1.0000 </r>
       <r>  -27.7461    1.0000 </r>
       <r>  -27.7412    1.0000 </r>
       <r>  -16.8176    1.0000 </r>
       <r>  -15.3576    1.0000 </r>
       <r>  -15.0787    1.0000 </r>
       <r>  -14.8696    1.0000 </r>
       <r>  -11.5650    1.0000 </r>
       <r>   -9.2947    1.0000 </r>
       <r>   -7.4296    1.0000 </r>
       <r>   -5.9041    1.0000 </r>
       <r>   -5.8036    1.0000 </r>
       <r>   -5.7160    1.0000 </r>
       <r>   -5.4387    1.0000 </r>
       <r>   -4.8235    1.0000 </r>
       <r>   -4.6573    1.0000 </r>
       <r>   -4.0673    1.0000 </r>
       <r>   -3.0956    1.0000 </r>
       <r>   -2.9320    1.0000 </r>
       <r>   -1.6653    0.0000 </r>
       <r>   -1.3210    0.0000 </r>
       <r>   -0.1202    0.0000 </r>
       <r>    0.3269    0.0000 </r>
       <r>    0.9054    0.0000 </r>
       <r>    1.8662    0.0000 </r>
      </set>
      <set comment="kpoint 12">
       <r>  -27.7919    1.0000 </r>
       <r>  -27.7862    1.0000 </r>
       <r>  -27.7860    1.0000 </r>
       <r>  -27.7807    1.0000 </r>
       <r>  -27.7772    1.0000 </r>
       <r>  -27.7650    1.0000 </r>
       <r>  -27.7620    1.0000 </r>
       <r>  -27.7612    1.0000 </r>
       <r>  -27.7458    1.0000 </r>
       <r>  -27.7415    1.0000 </r>
       <r>  -16.7341    1.0000 </r>
       <r>  -15.3277    1.0000 </r>
       <r>  -15.1756    1.0000 </r>
       <r>  -14.9463    1.0000 </r>
       <r>  -11.3939    1.0000 </r>
       <r>   -9.3810    1.0000 </r>
       <r>   -7.4025    1.0000 </r>
       <r>   -6.0899    1.0000 </r>
       <r>   -5.9625    1.0000 </r>
       <r>   -5.7619    1.0000 </r>
       <r>   -5.5733    1.0000 </r>
       <r>   -4.7012    1.0000 </r>
       <r>   -4.6525    1.0000 </r>
       <r>   -4.0050    1.0000 </r>
       <r>   -3.3278    1.0000 </r>
       <r>   -3.0020    1.0000 </r>
       <r>   -1.4133    0.0000 </r>
       <r>   -1.2476    0.0000 </r>
       <r>    0.3585    0.0000 </r>
       <r>    0.5132    0.0000 </r>
       <r>    1.0940    0.0000 </r>
       <r>    1.7046    0.0000 </r>
      </set>
      <set comment="kpoint 13">
       <r>  -27.7909    1.0000 </r>
       <r>  -27.7865    1.0000 </r>
       <r>  -27.7858    1.0000 </r>
       <r>  -27.7806    1.0000 </r>
       <r>  -27.7768    1.0000 </r>
       <r>  -27.7646    1.0000 </r>
       <r>  -27.7637    1.0000 </r>
       <r>  -27.7615    1.0000 </r>
       <r>  -27.7454    1.0000 </r>
       <r>  -27.7419    1.0000 </r>
       <r>  -16.6202    1.0000 </r>
       <r>  -15.3379    1.0000 </r>
       <r>  -15.2895    1.0000 </r>
       <r>  -14.9971    1.0000 </r>
       <r>  -11.1823    1.0000 </r>
       <r>   -9.5118    1.0000 </r>
       <r>   -7.3566    1.0000 </r>
       <r>   -6.3656    1.0000 </r>
       <r>   -6.0617    1.0000 </r>
       <r>   -5.7407    1.0000 </r>
       <r>   -5.7161    1.0000 </r>
       <r>   -4.7864    1.0000 </r>
       <r>   -4.5114    1.0000 </r>
       <r>   -3.9200    1.0000 </r>
       <r>   -3.5605    1.0000 </r>
       <r>   -3.1049    1.0000 </r>
       <r>   -1.1162    0.0000 </r>
       <r>   -1.0931    0.0000 </r>
       <r>    0.7254    0.0000 </r>
       <r>    0.8677    0.0000 </r>
       <r>    1.2831    0.0000 </r>
       <r>    1.5563    0.0000 </r>
      </set>
      <set comment="kpoint 14">
       <r>  -27.7897    1.0000 </r>
       <r>  -27.7872    1.0000 </r>
       <r>  -27.7854    1.0000 </r>
       <r>  -27.7806    1.0000 </r>
       <r>  -27.7757    1.0000 </r>
       <r>  -27.7658    1.0000 </r>
       <r>  -27.7640    1.0000 </r>
       <r>  -27.7618    1.0000 </r>
       <r>  -27.7449    1.0000 </r>
       <r>  -27.7423    1.0000 </r>
       <r>  -16.4780    1.0000 </r>
       <r>  -15.5360    1.0000 </r>
       <r>  -15.2456    1.0000 </r>
       <r>  -15.0367    1.0000 </r>
       <r>  -10.9442    1.0000 </r>
       <r>   -9.6884    1.0000 </r>
       <r>   -7.2878    1.0000 </r>
       <r>   -6.6111    1.0000 </r>
       <r>   -6.1377    1.0000 </r>
       <r>   -5.9021    1.0000 </r>
       <r>   -5.6332    1.0000 </r>
       <r>   -4.9107    1.0000 </r>
       <r>   -4.3993    1.0000 </r>
       <r>   -3.8153    1.0000 </r>
       <r>   -3.7743    1.0000 </r>
       <r>   -3.2221    1.0000 </r>
       <r>   -0.9339    0.0000 </r>
       <r>   -0.7848    0.0000 </r>
       <r>    0.9327    0.0000 </r>
       <r>    1.2476    0.0000 </r>
       <r>    1.4201    0.0000 </r>
       <r>    1.5319    0.0000 </r>
      </set>
      <set comment="kpoint 15">
       <r>  -27.7885    1.0000 </r>
       <r>  -27.7880    1.0000 </r>
       <r>  -27.7850    1.0000 </r>
       <r>  -27.7810    1.0000 </r>
       <r>  -27.7741    1.0000 </r>
       <r>  -27.7681    1.0000 </r>
       <r>  -27.7635    1.0000 </r>
       <r>  -27.7622    1.0000 </r>
       <r>  -27.7444    1.0000 </r>
       <r>  -27.7429    1.0000 </r>
       <r>  -16.3104    1.0000 </r>
       <r>  -15.7468    1.0000 </r>
       <r>  -15.1990    1.0000 </r>
       <r>  -15.0761    1.0000 </r>
       <r>  -10.6910    1.0000 </r>
       <r>   -9.9060    1.0000 </r>
       <r>   -7.1936    1.0000 </r>
       <r>   -6.8205    1.0000 </r>
       <r>   -6.1747    1.0000 </r>
       <r>   -6.0325    1.0000 </r>
       <r>   -5.5257    1.0000 </r>
       <r>   -5.0606    1.0000 </r>
       <r>   -4.3007    1.0000 </r>
       <r>   -3.9603    1.0000 </r>
       <r>   -3.6951    1.0000 </r>
       <r>   -3.3425    1.0000 </r>
       <r>   -0.7275    0.0000 </r>
       <r>   -0.5738    0.0000 </r>
       <r>    1.1108    0.0000 </r>
       <r>    1.2732    0.0000 </r>
       <r>    1.4839    0.0000 </r>
       <r>    1.5098    0.0000 </r>
      </set>
      <set comment="kpoint 16">
       <r>  -27.7890    1.0000 </r>
       <r>  -27.7872    1.0000 </r>
       <r>  -27.7845    1.0000 </r>
       <r>  -27.7816    1.0000 </r>
       <r>  -27.7721    1.0000 </r>
       <r>  -27.7704    1.0000 </r>
       <r>  -27.7629    1.0000 </r>
       <r>  -27.7627    1.0000 </r>
       <r>  -27.7438    1.0000 </r>
       <r>  -27.7434    1.0000 </r>
       <r>  -16.1211    1.0000 </r>
       <r>  -15.9568    1.0000 </r>
       <r>  -15.1528    1.0000 </r>
       <r>  -15.1185    1.0000 </r>
       <r>  -10.4329    1.0000 </r>
       <r>  -10.1544    1.0000 </r>
       <r>   -7.0751    1.0000 </r>
       <r>   -6.9935    1.0000 </r>
       <r>   -6.1653    1.0000 </r>
       <r>   -6.1230    1.0000 </r>
       <r>   -5.3987    1.0000 </r>
       <r>   -5.2171    1.0000 </r>
       <r>   -4.1983    1.0000 </r>
       <r>   -4.1163    1.0000 </r>
       <r>   -3.5625    1.0000 </r>
       <r>   -3.4616    1.0000 </r>
       <r>   -0.5398    0.0000 </r>
       <r>   -0.5191    0.0000 </r>
       <r>    1.2571    0.0000 </r>
       <r>    1.2597    0.0000 </r>
       <r>    1.4374    0.0000 </r>
       <r>    1.4873    0.0000 </r>
      </set>
      <set comment="kpoint 17">
       <r>  -27.7901    1.0000 </r>
       <r>  -27.7861    1.0000 </r>
       <r>  -27.7840    1.0000 </r>
       <r>  -27.7823    1.0000 </r>
       <r>  -27.7727    1.0000 </r>
       <r>  -27.7699    1.0000 </r>
       <r>  -27.7632    1.0000 </r>
       <r>  -27.7623    1.0000 </r>
       <r>  -27.7440    1.0000 </r>
       <r>  -27.7432    1.0000 </r>
       <r>  -16.1570    1.0000 </r>
       <r>  -15.9150    1.0000 </r>
       <r>  -15.1640    1.0000 </r>
       <r>  -15.1099    1.0000 </r>
       <r>  -10.4209    1.0000 </r>
       <r>  -10.1796    1.0000 </r>
       <r>   -7.1308    1.0000 </r>
       <r>   -6.9372    1.0000 </r>
       <r>   -6.1755    1.0000 </r>
       <r>   -6.1012    1.0000 </r>
       <r>   -5.3627    1.0000 </r>
       <r>   -5.2565    1.0000 </r>
       <r>   -4.2447    1.0000 </r>
       <r>   -4.0818    1.0000 </r>
       <r>   -3.5783    1.0000 </r>
       <r>   -3.4182    1.0000 </r>
       <r>   -0.6086    0.0000 </r>
       <r>   -0.4236    0.0000 </r>
       <r>    1.2148    0.0000 </r>
       <r>    1.3910    0.0000 </r>
       <r>    1.4181    0.0000 </r>
       <r>    1.4603    0.0000 </r>
      </set>
      <set comment="kpoint 18">
       <r>  -27.7911    1.0000 </r>
       <r>  -27.7851    1.0000 </r>
       <r>  -27.7834    1.0000 </r>
       <r>  -27.7830    1.0000 </r>
       <r>  -27.7747    1.0000 </r>
       <r>  -27.7677    1.0000 </r>
       <r>  -27.7637    1.0000 </r>
       <r>  -27.7617    1.0000 </r>
       <r>  -27.7445    1.0000 </r>
       <r>  -27.7426    1.0000 </r>
       <r>  -16.3407    1.0000 </r>
       <r>  -15.6985    1.0000 </r>
       <r>  -15.2110    1.0000 </r>
       <r>  -15.0724    1.0000 </r>
       <r>  -10.6925    1.0000 </r>
       <r>   -9.9415    1.0000 </r>
       <r>   -7.2346    1.0000 </r>
       <r>   -6.7854    1.0000 </r>
       <r>   -6.1948    1.0000 </r>
       <r>   -5.9754    1.0000 </r>
       <r>   -5.4847    1.0000 </r>
       <r>   -5.1059    1.0000 </r>
       <r>   -4.3521    1.0000 </r>
       <r>   -3.9491    1.0000 </r>
       <r>   -3.6921    1.0000 </r>
       <r>   -3.2617    1.0000 </r>
       <r>   -0.7801    0.0000 </r>
       <r>   -0.4312    0.0000 </r>
       <r>    1.1085    0.0000 </r>
       <r>    1.4063    0.0000 </r>
       <r>    1.4108    0.0000 </r>
       <r>    1.5683    0.0000 </r>
      </set>
      <set comment="kpoint 19">
       <r>  -27.7920    1.0000 </r>
       <r>  -27.7847    1.0000 </r>
       <r>  -27.7837    1.0000 </r>
       <r>  -27.7826    1.0000 </r>
       <r>  -27.7764    1.0000 </r>
       <r>  -27.7657    1.0000 </r>
       <r>  -27.7642    1.0000 </r>
       <r>  -27.7612    1.0000 </r>
       <r>  -27.7451    1.0000 </r>
       <r>  -27.7421    1.0000 </r>
       <r>  -16.5030    1.0000 </r>
       <r>  -15.4799    1.0000 </r>
       <r>  -15.2573    1.0000 </r>
       <r>  -15.0414    1.0000 </r>
       <r>  -10.9570    1.0000 </r>
       <r>   -9.7292    1.0000 </r>
       <r>   -7.3091    1.0000 </r>
       <r>   -6.6187    1.0000 </r>
       <r>   -6.1839    1.0000 </r>
       <r>   -5.7917    1.0000 </r>
       <r>   -5.5756    1.0000 </r>
       <r>   -4.9582    1.0000 </r>
       <r>   -4.4512    1.0000 </r>
       <r>   -3.8017    1.0000 </r>
       <r>   -3.8017    1.0000 </r>
       <r>   -3.0956    1.0000 </r>
       <r>   -0.9722    0.0000 </r>
       <r>   -0.5849    0.0000 </r>
       <r>    0.9408    0.0000 </r>
       <r>    1.2221    0.0000 </r>
       <r>    1.3470    0.0000 </r>
       <r>    1.4276    0.0000 </r>
      </set>
      <set comment="kpoint 20">
       <r>  -27.7927    1.0000 </r>
       <r>  -27.7847    1.0000 </r>
       <r>  -27.7844    1.0000 </r>
       <r>  -27.7819    1.0000 </r>
       <r>  -27.7774    1.0000 </r>
       <r>  -27.7647    1.0000 </r>
       <r>  -27.7640    1.0000 </r>
       <r>  -27.7606    1.0000 </r>
       <r>  -27.7455    1.0000 </r>
       <r>  -27.7417    1.0000 </r>
       <r>  -16.6400    1.0000 </r>
       <r>  -15.2998    1.0000 </r>
       <r>  -15.2710    1.0000 </r>
       <r>  -15.0160    1.0000 </r>
       <r>  -11.2025    1.0000 </r>
       <r>   -9.5518    1.0000 </r>
       <r>   -7.3606    1.0000 </r>
       <r>   -6.4289    1.0000 </r>
       <r>   -6.1443    1.0000 </r>
       <r>   -5.6308    1.0000 </r>
       <r>   -5.5713    1.0000 </r>
       <r>   -4.8291    1.0000 </r>
       <r>   -4.5587    1.0000 </r>
       <r>   -3.9041    1.0000 </r>
       <r>   -3.6399    1.0000 </r>
       <r>   -2.9294    1.0000 </r>
       <r>   -1.1405    0.0000 </r>
       <r>   -0.8518    0.0000 </r>
       <r>    0.6088    0.0000 </r>
       <r>    0.7306    0.0000 </r>
       <r>    1.2180    0.0000 </r>
       <r>    1.5075    0.0000 </r>
      </set>
      <set comment="kpoint 21">
       <r>  -27.7933    1.0000 </r>
       <r>  -27.7851    1.0000 </r>
       <r>  -27.7849    1.0000 </r>
       <r>  -27.7813    1.0000 </r>
       <r>  -27.7778    1.0000 </r>
       <r>  -27.7651    1.0000 </r>
       <r>  -27.7627    1.0000 </r>
       <r>  -27.7600    1.0000 </r>
       <r>  -27.7459    1.0000 </r>
       <r>  -27.7413    1.0000 </r>
       <r>  -16.7489    1.0000 </r>
       <r>  -15.3360    1.0000 </r>
       <r>  -15.0951    1.0000 </r>
       <r>  -14.9854    1.0000 </r>
       <r>  -11.4165    1.0000 </r>
       <r>   -9.4147    1.0000 </r>
       <r>   -7.3959    1.0000 </r>
       <r>   -6.2109    1.0000 </r>
       <r>   -6.0817    1.0000 </r>
       <r>   -5.6447    1.0000 </r>
       <r>   -5.3515    1.0000 </r>
       <r>   -4.7344    1.0000 </r>
       <r>   -4.6899    1.0000 </r>
       <r>   -3.9936    1.0000 </r>
       <r>   -3.4650    1.0000 </r>
       <r>   -2.7821    1.0000 </r>
       <r>   -1.2593    0.0000 </r>
       <r>   -1.1611    0.0000 </r>
       <r>    0.0538    0.0000 </r>
       <r>    0.5123    0.0000 </r>
       <r>    1.0409    0.0000 </r>
       <r>    1.6402    0.0000 </r>
      </set>
      <set comment="kpoint 22">
       <r>  -27.7937    1.0000 </r>
       <r>  -27.7856    1.0000 </r>
       <r>  -27.7854    1.0000 </r>
       <r>  -27.7810    1.0000 </r>
       <r>  -27.7778    1.0000 </r>
       <r>  -27.7654    1.0000 </r>
       <r>  -27.7619    1.0000 </r>
       <r>  -27.7595    1.0000 </r>
       <r>  -27.7461    1.0000 </r>
       <r>  -27.7411    1.0000 </r>
       <r>  -16.8274    1.0000 </r>
       <r>  -15.3633    1.0000 </r>
       <r>  -15.0232    1.0000 </r>
       <r>  -14.8942    1.0000 </r>
       <r>  -11.5846    1.0000 </r>
       <r>   -9.3187    1.0000 </r>
       <r>   -7.4200    1.0000 </r>
       <r>   -6.0136    1.0000 </r>
       <r>   -5.9729    1.0000 </r>
       <r>   -5.6082    1.0000 </r>
       <r>   -5.1843    1.0000 </r>
       <r>   -4.8491    1.0000 </r>
       <r>   -4.6819    1.0000 </r>
       <r>   -4.0625    1.0000 </r>
       <r>   -3.2859    1.0000 </r>
       <r>   -2.6811    1.0000 </r>
       <r>   -1.4403    0.0000 </r>
       <r>   -1.3239    0.0000 </r>
       <r>   -0.3994    0.0000 </r>
       <r>    0.3219    0.0000 </r>
       <r>    0.8682    0.0000 </r>
       <r>    1.7969    0.0000 </r>
      </set>
      <set comment="kpoint 23">
       <r>  -27.7938    1.0000 </r>
       <r>  -27.7861    1.0000 </r>
       <r>  -27.7858    1.0000 </r>
       <r>  -27.7808    1.0000 </r>
       <r>  -27.7776    1.0000 </r>
       <r>  -27.7656    1.0000 </r>
       <r>  -27.7614    1.0000 </r>
       <r>  -27.7591    1.0000 </r>
       <r>  -27.7463    1.0000 </r>
       <r>  -27.7410    1.0000 </r>
       <r>  -16.8741    1.0000 </r>
       <r>  -15.3799    1.0000 </r>
       <r>  -15.0140    1.0000 </r>
       <r>  -14.7998    1.0000 </r>
       <r>  -11.6914    1.0000 </r>
       <r>   -9.2608    1.0000 </r>
       <r>   -7.4357    1.0000 </r>
       <r>   -5.9618    1.0000 </r>
       <r>   -5.7423    1.0000 </r>
       <r>   -5.5241    1.0000 </r>
       <r>   -5.1314    1.0000 </r>
       <r>   -5.0162    1.0000 </r>
       <r>   -4.6595    1.0000 </r>
       <r>   -4.1049    1.0000 </r>
       <r>   -3.1211    1.0000 </r>
       <r>   -2.6566    1.0000 </r>
       <r>   -1.6442    0.0000 </r>
       <r>   -1.3488    0.0000 </r>
       <r>   -0.6817    0.0000 </r>
       <r>    0.1919    0.0000 </r>
       <r>    0.7488    0.0000 </r>
       <r>    1.9332    0.0000 </r>
      </set>
      <set comment="kpoint 24">
       <r>  -27.7933    1.0000 </r>
       <r>  -27.7861    1.0000 </r>
       <r>  -27.7857    1.0000 </r>
       <r>  -27.7806    1.0000 </r>
       <r>  -27.7776    1.0000 </r>
       <r>  -27.7654    1.0000 </r>
       <r>  -27.7616    1.0000 </r>
       <r>  -27.7599    1.0000 </r>
       <r>  -27.7461    1.0000 </r>
       <r>  -27.7412    1.0000 </r>
       <r>  -16.8321    1.0000 </r>
       <r>  -15.3583    1.0000 </r>
       <r>  -15.1575    1.0000 </r>
       <r>  -14.7926    1.0000 </r>
       <r>  -11.5487    1.0000 </r>
       <r>   -9.2942    1.0000 </r>
       <r>   -7.4017    1.0000 </r>
       <r>   -5.9869    1.0000 </r>
       <r>   -5.7195    1.0000 </r>
       <r>   -5.4523    1.0000 </r>
       <r>   -5.4397    1.0000 </r>
       <r>   -5.0074    1.0000 </r>
       <r>   -4.6552    1.0000 </r>
       <r>   -4.0348    1.0000 </r>
       <r>   -3.1134    1.0000 </r>
       <r>   -2.8570    1.0000 </r>
       <r>   -1.4753    0.0000 </r>
       <r>   -1.2820    0.0000 </r>
       <r>   -0.3557    0.0000 </r>
       <r>    0.2020    0.0000 </r>
       <r>    0.8044    0.0000 </r>
       <r>    1.8899    0.0000 </r>
      </set>
      <set comment="kpoint 25">
       <r>  -27.7927    1.0000 </r>
       <r>  -27.7863    1.0000 </r>
       <r>  -27.7860    1.0000 </r>
       <r>  -27.7805    1.0000 </r>
       <r>  -27.7774    1.0000 </r>
       <r>  -27.7653    1.0000 </r>
       <r>  -27.7614    1.0000 </r>
       <r>  -27.7606    1.0000 </r>
       <r>  -27.7461    1.0000 </r>
       <r>  -27.7413    1.0000 </r>
       <r>  -16.8113    1.0000 </r>
       <r>  -15.3498    1.0000 </r>
       <r>  -15.1825    1.0000 </r>
       <r>  -14.8141    1.0000 </r>
       <r>  -11.5113    1.0000 </r>
       <r>   -9.3036    1.0000 </r>
       <r>   -7.3930    1.0000 </r>
       <r>   -5.9781    1.0000 </r>
       <r>   -5.7739    1.0000 </r>
       <r>   -5.5369    1.0000 </r>
       <r>   -5.4774    1.0000 </r>
       <r>   -4.9095    1.0000 </r>
       <r>   -4.6586    1.0000 </r>
       <r>   -4.0249    1.0000 </r>
       <r>   -3.0873    1.0000 </r>
       <r>   -2.9576    1.0000 </r>
       <r>   -1.6196    0.0000 </r>
       <r>   -1.2729    0.0000 </r>
       <r>   -0.0763    0.0000 </r>
       <r>    0.2463    0.0000 </r>
       <r>    0.8666    0.0000 </r>
       <r>    1.8016    0.0000 </r>
      </set>
      <set comment="kpoint 26">
       <r>  -27.7919    1.0000 </r>
       <r>  -27.7866    1.0000 </r>
       <r>  -27.7861    1.0000 </r>
       <r>  -27.7803    1.0000 </r>
       <r>  -27.7772    1.0000 </r>
       <r>  -27.7651    1.0000 </r>
       <r>  -27.7618    1.0000 </r>
       <r>  -27.7612    1.0000 </r>
       <r>  -27.7459    1.0000 </r>
       <r>  -27.7415    1.0000 </r>
       <r>  -16.7589    1.0000 </r>
       <r>  -15.3309    1.0000 </r>
       <r>  -15.2299    1.0000 </r>
       <r>  -14.8705    1.0000 </r>
       <r>  -11.4233    1.0000 </r>
       <r>   -9.3570    1.0000 </r>
       <r>   -7.3564    1.0000 </r>
       <r>   -6.0645    1.0000 </r>
       <r>   -6.0240    1.0000 </r>
       <r>   -5.6237    1.0000 </r>
       <r>   -5.3812    1.0000 </r>
       <r>   -4.7405    1.0000 </r>
       <r>   -4.6911    1.0000 </r>
       <r>   -3.9898    1.0000 </r>
       <r>   -3.3110    1.0000 </r>
       <r>   -2.8904    1.0000 </r>
       <r>   -1.6874    0.0000 </r>
       <r>   -1.2364    0.0000 </r>
       <r>    0.3365    0.0000 </r>
       <r>    0.3598    0.0000 </r>
       <r>    1.0076    0.0000 </r>
       <r>    1.6391    0.0000 </r>
      </set>
      <set comment="kpoint 27">
       <r>  -27.7909    1.0000 </r>
       <r>  -27.7870    1.0000 </r>
       <r>  -27.7862    1.0000 </r>
       <r>  -27.7798    1.0000 </r>
       <r>  -27.7771    1.0000 </r>
       <r>  -27.7647    1.0000 </r>
       <r>  -27.7632    1.0000 </r>
       <r>  -27.7613    1.0000 </r>
       <r>  -27.7455    1.0000 </r>
       <r>  -27.7417    1.0000 </r>
       <r>  -16.6759    1.0000 </r>
       <r>  -15.3126    1.0000 </r>
       <r>  -15.3029    1.0000 </r>
       <r>  -14.9388    1.0000 </r>
       <r>  -11.2935    1.0000 </r>
       <r>   -9.4572    1.0000 </r>
       <r>   -7.2918    1.0000 </r>
       <r>   -6.3351    1.0000 </r>
       <r>   -6.1185    1.0000 </r>
       <r>   -5.6466    1.0000 </r>
       <r>   -5.3948    1.0000 </r>
       <r>   -4.7586    1.0000 </r>
       <r>   -4.5803    1.0000 </r>
       <r>   -3.9227    1.0000 </r>
       <r>   -3.5361    1.0000 </r>
       <r>   -2.8850    1.0000 </r>
       <r>   -1.6098    0.0000 </r>
       <r>   -1.1574    0.0000 </r>
       <r>    0.5178    0.0000 </r>
       <r>    0.7751    0.0000 </r>
       <r>    1.2016    0.0000 </r>
       <r>    1.4993    0.0000 </r>
      </set>
      <set comment="kpoint 28">
       <r>  -27.7898    1.0000 </r>
       <r>  -27.7877    1.0000 </r>
       <r>  -27.7861    1.0000 </r>
       <r>  -27.7794    1.0000 </r>
       <r>  -27.7767    1.0000 </r>
       <r>  -27.7650    1.0000 </r>
       <r>  -27.7642    1.0000 </r>
       <r>  -27.7614    1.0000 </r>
       <r>  -27.7451    1.0000 </r>
       <r>  -27.7421    1.0000 </r>
       <r>  -16.5639    1.0000 </r>
       <r>  -15.4391    1.0000 </r>
       <r>  -15.2678    1.0000 </r>
       <r>  -14.9987    1.0000 </r>
       <r>  -11.1311    1.0000 </r>
       <r>   -9.6048    1.0000 </r>
       <r>   -7.2032    1.0000 </r>
       <r>   -6.5594    1.0000 </r>
       <r>   -6.2142    1.0000 </r>
       <r>   -5.6230    1.0000 </r>
       <r>   -5.5023    1.0000 </r>
       <r>   -4.8696    1.0000 </r>
       <r>   -4.4574    1.0000 </r>
       <r>   -3.8192    1.0000 </r>
       <r>   -3.7344    1.0000 </r>
       <r>   -2.9398    1.0000 </r>
       <r>   -1.4037    0.0000 </r>
       <r>   -1.0307    0.0000 </r>
       <r>    0.6958    0.0000 </r>
       <r>    1.0830    0.0000 </r>
       <r>    1.4013    0.0000 </r>
       <r>    1.5129    0.0000 </r>
      </set>
      <set comment="kpoint 29">
       <r>  -27.7886    1.0000 </r>
       <r>  -27.7885    1.0000 </r>
       <r>  -27.7858    1.0000 </r>
       <r>  -27.7794    1.0000 </r>
       <r>  -27.7757    1.0000 </r>
       <r>  -27.7670    1.0000 </r>
       <r>  -27.7636    1.0000 </r>
       <r>  -27.7617    1.0000 </r>
       <r>  -27.7446    1.0000 </r>
       <r>  -27.7425    1.0000 </r>
       <r>  -16.4253    1.0000 </r>
       <r>  -15.6014    1.0000 </r>
       <r>  -15.2285    1.0000 </r>
       <r>  -15.0466    1.0000 </r>
       <r>  -10.9442    1.0000 </r>
       <r>   -9.7949    1.0000 </r>
       <r>   -7.1009    1.0000 </r>
       <r>   -6.7316    1.0000 </r>
       <r>   -6.2680    1.0000 </r>
       <r>   -5.6631    1.0000 </r>
       <r>   -5.5762    1.0000 </r>
       <r>   -5.0130    1.0000 </r>
       <r>   -4.3671    1.0000 </r>
       <r>   -3.9006    1.0000 </r>
       <r>   -3.6850    1.0000 </r>
       <r>   -3.0353    1.0000 </r>
       <r>   -1.1379    0.0000 </r>
       <r>   -0.8713    0.0000 </r>
       <r>    0.8761    0.0000 </r>
       <r>    1.1123    0.0000 </r>
       <r>    1.5484    0.0000 </r>
       <r>    1.7566    0.0000 </r>
      </set>
      <set comment="kpoint 30">
       <r>  -27.7894    1.0000 </r>
       <r>  -27.7874    1.0000 </r>
       <r>  -27.7855    1.0000 </r>
       <r>  -27.7798    1.0000 </r>
       <r>  -27.7741    1.0000 </r>
       <r>  -27.7692    1.0000 </r>
       <r>  -27.7630    1.0000 </r>
       <r>  -27.7620    1.0000 </r>
       <r>  -27.7441    1.0000 </r>
       <r>  -27.7430    1.0000 </r>
       <r>  -16.2634    1.0000 </r>
       <r>  -15.7835    1.0000 </r>
       <r>  -15.1877    1.0000 </r>
       <r>  -15.0882    1.0000 </r>
       <r>  -10.7392    1.0000 </r>
       <r>  -10.0169    1.0000 </r>
       <r>   -7.0036    1.0000 </r>
       <r>   -6.8577    1.0000 </r>
       <r>   -6.2496    1.0000 </r>
       <r>   -5.8441    1.0000 </r>
       <r>   -5.5152    1.0000 </r>
       <r>   -5.1599    1.0000 </r>
       <r>   -4.2896    1.0000 </r>
       <r>   -4.0419    1.0000 </r>
       <r>   -3.5308    1.0000 </r>
       <r>   -3.1538    1.0000 </r>
       <r>   -0.8967    0.0000 </r>
       <r>   -0.7130    0.0000 </r>
       <r>    1.0516    0.0000 </r>
       <r>    1.1067    0.0000 </r>
       <r>    1.6060    0.0000 </r>
       <r>    1.6363    0.0000 </r>
      </set>
      <set comment="kpoint 31">
       <r>  -27.7904    1.0000 </r>
       <r>  -27.7862    1.0000 </r>
       <r>  -27.7851    1.0000 </r>
       <r>  -27.7804    1.0000 </r>
       <r>  -27.7723    1.0000 </r>
       <r>  -27.7714    1.0000 </r>
       <r>  -27.7625    1.0000 </r>
       <r>  -27.7624    1.0000 </r>
       <r>  -27.7436    1.0000 </r>
       <r>  -27.7435    1.0000 </r>
       <r>  -16.0827    1.0000 </r>
       <r>  -15.9712    1.0000 </r>
       <r>  -15.1484    1.0000 </r>
       <r>  -15.1284    1.0000 </r>
       <r>  -10.5217    1.0000 </r>
       <r>  -10.2573    1.0000 </r>
       <r>   -6.9490    1.0000 </r>
       <r>   -6.9278    1.0000 </r>
       <r>   -6.1426    1.0000 </r>
       <r>   -6.0221    1.0000 </r>
       <r>   -5.4400    1.0000 </r>
       <r>   -5.2853    1.0000 </r>
       <r>   -4.2091    1.0000 </r>
       <r>   -4.1653    1.0000 </r>
       <r>   -3.3639    1.0000 </r>
       <r>   -3.2832    1.0000 </r>
       <r>   -0.7529    0.0000 </r>
       <r>   -0.6000    0.0000 </r>
       <r>    1.1252    0.0000 </r>
       <r>    1.2226    0.0000 </r>
       <r>    1.5218    0.0000 </r>
       <r>    1.5799    0.0000 </r>
      </set>
      <set comment="kpoint 32">
       <r>  -27.7913    1.0000 </r>
       <r>  -27.7851    1.0000 </r>
       <r>  -27.7845    1.0000 </r>
       <r>  -27.7811    1.0000 </r>
       <r>  -27.7735    1.0000 </r>
       <r>  -27.7703    1.0000 </r>
       <r>  -27.7630    1.0000 </r>
       <r>  -27.7618    1.0000 </r>
       <r>  -27.7440    1.0000 </r>
       <r>  -27.7430    1.0000 </r>
       <r>  -16.1538    1.0000 </r>
       <r>  -15.8890    1.0000 </r>
       <r>  -15.1693    1.0000 </r>
       <r>  -15.1126    1.0000 </r>
       <r>  -10.5029    1.0000 </r>
       <r>  -10.2978    1.0000 </r>
[...]
       <r>    1.2587    0.0000 </r>
       <r>    1.3497    0.0000 </r>
      </set>
      <set comment="kpoint 96">
       <r>  -27.7923    1.0000 </r>
       <r>  -27.7868    1.0000 </r>
       <r>  -27.7823    1.0000 </r>
       <r>  -27.7802    1.0000 </r>
       <r>  -27.7742    1.0000 </r>
       <r>  -27.7705    1.0000 </r>
       <r>  -27.7629    1.0000 </r>
       <r>  -27.7614    1.0000 </r>
       <r>  -27.7441    1.0000 </r>
       <r>  -27.7430    1.0000 </r>
       <r>  -16.2279    1.0000 </r>
       <r>  -15.9543    1.0000 </r>
       <r>  -15.1439    1.0000 </r>
       <r>  -15.0598    1.0000 </r>
       <r>  -10.5294    1.0000 </r>
       <r>  -10.3142    1.0000 </r>
       <r>   -6.7955    1.0000 </r>
       <r>   -6.7396    1.0000 </r>
       <r>   -6.0756    1.0000 </r>
       <r>   -5.6835    1.0000 </r>
       <r>   -5.3455    1.0000 </r>
       <r>   -5.3213    1.0000 </r>
       <r>   -4.2925    1.0000 </r>
       <r>   -4.1249    1.0000 </r>
       <r>   -3.1639    1.0000 </r>
       <r>   -2.8718    1.0000 </r>
       <r>   -0.8658    0.0000 </r>
       <r>   -0.7512    0.0000 </r>
       <r>    0.8234    0.0000 </r>
       <r>    1.1021    0.0000 </r>
       <r>    1.2048    0.0000 </r>
       <r>    1.3293    0.0000 </r>
      </set>
      <set comment="kpoint 97">
       <r>  -27.7914    1.0000 </r>
       <r>  -27.7870    1.0000 </r>
       <r>  -27.7826    1.0000 </r>
       <r>  -27.7810    1.0000 </r>
       <r>  -27.7733    1.0000 </r>
       <r>  -27.7698    1.0000 </r>
       <r>  -27.7632    1.0000 </r>
       <r>  -27.7620    1.0000 </r>
       <r>  -27.7441    1.0000 </r>
       <r>  -27.7431    1.0000 </r>
       <r>  -16.2561    1.0000 </r>
       <r>  -15.9955    1.0000 </r>
       <r>  -15.1341    1.0000 </r>
       <r>  -15.0454    1.0000 </r>
       <r>  -10.4271    1.0000 </r>
       <r>  -10.1748    1.0000 </r>
       <r>   -6.8374    1.0000 </r>
       <r>   -6.7019    1.0000 </r>
       <r>   -6.1600    1.0000 </r>
       <r>   -5.9153    1.0000 </r>
       <r>   -5.2532    1.0000 </r>
       <r>   -5.1996    1.0000 </r>
       <r>   -4.2829    1.0000 </r>
       <r>   -4.0729    1.0000 </r>
       <r>   -3.3281    1.0000 </r>
       <r>   -3.0855    1.0000 </r>
       <r>   -0.6991    0.0000 </r>
       <r>   -0.5340    0.0000 </r>
       <r>    0.7568    0.0000 </r>
       <r>    0.9924    0.0000 </r>
       <r>    1.1539    0.0000 </r>
       <r>    1.3185    0.0000 </r>
      </set>
      <set comment="kpoint 98">
       <r>  -27.7905    1.0000 </r>
       <r>  -27.7875    1.0000 </r>
       <r>  -27.7823    1.0000 </r>
       <r>  -27.7819    1.0000 </r>
       <r>  -27.7726    1.0000 </r>
       <r>  -27.7695    1.0000 </r>
       <r>  -27.7634    1.0000 </r>
       <r>  -27.7624    1.0000 </r>
       <r>  -27.7441    1.0000 </r>
       <r>  -27.7433    1.0000 </r>
       <r>  -16.2688    1.0000 </r>
       <r>  -16.0287    1.0000 </r>
       <r>  -15.1256    1.0000 </r>
       <r>  -15.0394    1.0000 </r>
       <r>  -10.3537    1.0000 </r>
       <r>  -10.0709    1.0000 </r>
       <r>   -6.8759    1.0000 </r>
       <r>   -6.6601    1.0000 </r>
       <r>   -6.2119    1.0000 </r>
       <r>   -6.1214    1.0000 </r>
       <r>   -5.1539    1.0000 </r>
       <r>   -5.0693    1.0000 </r>
       <r>   -4.2886    1.0000 </r>
       <r>   -4.0374    1.0000 </r>
       <r>   -3.4461    1.0000 </r>
       <r>   -3.2711    1.0000 </r>
       <r>   -0.5855    0.0000 </r>
       <r>   -0.3997    0.0000 </r>
       <r>    0.7180    0.0000 </r>
       <r>    0.9138    0.0000 </r>
       <r>    1.1374    0.0000 </r>
       <r>    1.2661    0.0000 </r>
      </set>
     </set>
    </set>
   </array>
  </eigenvalues>
  <separator name="orbital magnetization" >
   <v name="MAGDIPOLOUT">      0.00000000      0.00000000      0.00000000</v>
  </separator>
  <dos>
   <i name="efermi">     -2.29408497 </i>
   <total>
    <array>
     <dimension dim="1">gridpoints</dimension>
     <dimension dim="2">spin</dimension>
     <field>energy</field>
     <field>total</field>
     <field>integrated</field>
     <set>
      <set comment="spin 1">
       <r>   -29.2831     0.0000     0.0000 </r>
       <r>   -29.1739     0.0000     0.0000 </r>
       <r>   -29.0647     0.0000     0.0000 </r>
       <r>   -28.9555     0.0000     0.0000 </r>
       <r>   -28.8463     0.0000     0.0000 </r>
       <r>   -28.7371     0.0000     0.0000 </r>
       <r>   -28.6279     0.0000     0.0000 </r>
       <r>   -28.5187     0.0000     0.0000 </r>
       <r>   -28.4094     0.0000     0.0000 </r>
       <r>   -28.3002     0.0000     0.0000 </r>
       <r>   -28.1910     0.0000     0.0000 </r>
       <r>   -28.0818     0.0000     0.0000 </r>
       <r>   -27.9726     0.0000     0.0000 </r>
       <r>   -27.8634     0.0000     0.0000 </r>
       <r>   -27.7542   138.6853    15.1461 </r>
       <r>   -27.6450    44.4444    20.0000 </r>
       <r>   -27.5358     0.0000    20.0000 </r>
       <r>   -27.4265     0.0000    20.0000 </r>
       <r>   -27.3173     0.0000    20.0000 </r>
       <r>   -27.2081     0.0000    20.0000 </r>
       <r>   -27.0989     0.0000    20.0000 </r>
       <r>   -26.9897     0.0000    20.0000 </r>
       <r>   -26.8805     0.0000    20.0000 </r>
       <r>   -26.7713     0.0000    20.0000 </r>
       <r>   -26.6621     0.0000    20.0000 </r>
       <r>   -26.5528     0.0000    20.0000 </r>
       <r>   -26.4436     0.0000    20.0000 </r>
       <r>   -26.3344     0.0000    20.0000 </r>
       <r>   -26.2252     0.0000    20.0000 </r>
       <r>   -26.1160     0.0000    20.0000 </r>
       <r>   -26.0068     0.0000    20.0000 </r>
       <r>   -25.8976     0.0000    20.0000 </r>
       <r>   -25.7884     0.0000    20.0000 </r>
       <r>   -25.6791     0.0000    20.0000 </r>
       <r>   -25.5699     0.0000    20.0000 </r>
       <r>   -25.4607     0.0000    20.0000 </r>
       <r>   -25.3515     0.0000    20.0000 </r>
       <r>   -25.2423     0.0000    20.0000 </r>
       <r>   -25.1331     0.0000    20.0000 </r>
       <r>   -25.0239     0.0000    20.0000 </r>
       <r>   -24.9147     0.0000    20.0000 </r>
       <r>   -24.8054     0.0000    20.0000 </r>
       <r>   -24.6962     0.0000    20.0000 </r>
       <r>   -24.5870     0.0000    20.0000 </r>
       <r>   -24.4778     0.0000    20.0000 </r>
       <r>   -24.3686     0.0000    20.0000 </r>
       <r>   -24.2594     0.0000    20.0000 </r>
       <r>   -24.1502     0.0000    20.0000 </r>
       <r>   -24.0410     0.0000    20.0000 </r>
       <r>   -23.9318     0.0000    20.0000 </r>
       <r>   -23.8225     0.0000    20.0000 </r>
       <r>   -23.7133     0.0000    20.0000 </r>
       <r>   -23.6041     0.0000    20.0000 </r>
       <r>   -23.4949     0.0000    20.0000 </r>
       <r>   -23.3857     0.0000    20.0000 </r>
       <r>   -23.2765     0.0000    20.0000 </r>
       <r>   -23.1673     0.0000    20.0000 </r>
       <r>   -23.0581     0.0000    20.0000 </r>
       <r>   -22.9488     0.0000    20.0000 </r>
       <r>   -22.8396     0.0000    20.0000 </r>
       <r>   -22.7304     0.0000    20.0000 </r>
       <r>   -22.6212     0.0000    20.0000 </r>
       <r>   -22.5120     0.0000    20.0000 </r>
       <r>   -22.4028     0.0000    20.0000 </r>
       <r>   -22.2936     0.0000    20.0000 </r>
       <r>   -22.1844     0.0000    20.0000 </r>
       <r>   -22.0751     0.0000    20.0000 </r>
       <r>   -21.9659     0.0000    20.0000 </r>
       <r>   -21.8567     0.0000    20.0000 </r>
       <r>   -21.7475     0.0000    20.0000 </r>
       <r>   -21.6383     0.0000    20.0000 </r>
       <r>   -21.5291     0.0000    20.0000 </r>
       <r>   -21.4199     0.0000    20.0000 </r>
       <r>   -21.3107     0.0000    20.0000 </r>
       <r>   -21.2014     0.0000    20.0000 </r>
       <r>   -21.0922     0.0000    20.0000 </r>
       <r>   -20.9830     0.0000    20.0000 </r>
       <r>   -20.8738     0.0000    20.0000 </r>
       <r>   -20.7646     0.0000    20.0000 </r>
       <r>   -20.6554     0.0000    20.0000 </r>
       <r>   -20.5462     0.0000    20.0000 </r>
       <r>   -20.4370     0.0000    20.0000 </r>
       <r>   -20.3277     0.0000    20.0000 </r>
       <r>   -20.2185     0.0000    20.0000 </r>
       <r>   -20.1093     0.0000    20.0000 </r>
       <r>   -20.0001     0.0000    20.0000 </r>
       <r>   -19.8909     0.0000    20.0000 </r>
       <r>   -19.7817     0.0000    20.0000 </r>
       <r>   -19.6725     0.0000    20.0000 </r>
       <r>   -19.5633     0.0000    20.0000 </r>
       <r>   -19.4541     0.0000    20.0000 </r>
       <r>   -19.3448     0.0000    20.0000 </r>
       <r>   -19.2356     0.0000    20.0000 </r>
       <r>   -19.1264     0.0000    20.0000 </r>
       <r>   -19.0172     0.0000    20.0000 </r>
       <r>   -18.9080     0.0000    20.0000 </r>
       <r>   -18.7988     0.0000    20.0000 </r>
       <r>   -18.6896     0.0000    20.0000 </r>
       <r>   -18.5804     0.0000    20.0000 </r>
       <r>   -18.4711     0.0000    20.0000 </r>
       <r>   -18.3619     0.0000    20.0000 </r>
       <r>   -18.2527     0.0000    20.0000 </r>
       <r>   -18.1435     0.0000    20.0000 </r>
       <r>   -18.0343     0.0000    20.0000 </r>
       <r>   -17.9251     0.0000    20.0000 </r>
       <r>   -17.8159     0.0000    20.0000 </r>
       <r>   -17.7067     0.0000    20.0000 </r>
       <r>   -17.5974     0.0000    20.0000 </r>
       <r>   -17.4882     0.0000    20.0000 </r>
       <r>   -17.3790     0.0000    20.0000 </r>
       <r>   -17.2698     0.0000    20.0000 </r>
       <r>   -17.1606     0.0000    20.0000 </r>
       <r>   -17.0514     0.0000    20.0000 </r>
       <r>   -16.9422     0.0006    20.0001 </r>
       <r>   -16.8330     1.2047    20.1316 </r>
       <r>   -16.7237     2.0349    20.3539 </r>
       <r>   -16.6145     1.8327    20.5540 </r>
       <r>   -16.5053     1.9400    20.7659 </r>
       <r>   -16.3961     2.3551    21.0231 </r>
       <r>   -16.2869     2.1189    21.2545 </r>
       <r>   -16.1777     2.5133    21.5290 </r>
       <r>   -16.0685     2.8876    21.8444 </r>
       <r>   -15.9593     3.6476    22.2427 </r>
       <r>   -15.8500     3.2037    22.5926 </r>
       <r>   -15.7408     2.6435    22.8813 </r>
       <r>   -15.6316     1.9073    23.0896 </r>
       <r>   -15.5224     2.0168    23.3099 </r>
       <r>   -15.4132     1.2887    23.4506 </r>
       <r>   -15.3040     5.4195    24.0425 </r>
       <r>   -15.1948     7.6913    24.8825 </r>
       <r>   -15.0856    14.0780    26.4200 </r>
       <r>   -14.9764     8.4523    27.3431 </r>
       <r>   -14.8671     3.9106    27.7702 </r>
       <r>   -14.7579     1.9827    27.9867 </r>
       <r>   -14.6487     0.1217    28.0000 </r>
       <r>   -14.5395     0.0000    28.0000 </r>
       <r>   -14.4303     0.0000    28.0000 </r>
       <r>   -14.3211     0.0000    28.0000 </r>
       <r>   -14.2119     0.0000    28.0000 </r>
       <r>   -14.1027     0.0000    28.0000 </r>
       <r>   -13.9934     0.0000    28.0000 </r>
       <r>   -13.8842     0.0000    28.0000 </r>
       <r>   -13.7750     0.0000    28.0000 </r>
       <r>   -13.6658     0.0000    28.0000 </r>
       <r>   -13.5566     0.0000    28.0000 </r>
       <r>   -13.4474     0.0000    28.0000 </r>
       <r>   -13.3382     0.0000    28.0000 </r>
       <r>   -13.2290     0.0000    28.0000 </r>
       <r>   -13.1197     0.0000    28.0000 </r>
       <r>   -13.0105     0.0000    28.0000 </r>
       <r>   -12.9013     0.0000    28.0000 </r>
       <r>   -12.7921     0.0000    28.0000 </r>
       <r>   -12.6829     0.0000    28.0000 </r>
       <r>   -12.5737     0.0000    28.0000 </r>
       <r>   -12.4645     0.0000    28.0000 </r>
       <r>   -12.3553     0.0000    28.0000 </r>
       <r>   -12.2460     0.0000    28.0000 </r>
       <r>   -12.1368     0.0000    28.0000 </r>
       <r>   -12.0276     0.0000    28.0000 </r>
       <r>   -11.9184     0.0000    28.0000 </r>
       <r>   -11.8092     0.0060    28.0007 </r>
       <r>   -11.7000     0.5217    28.0576 </r>
       <r>   -11.5908     0.5718    28.1201 </r>
       <r>   -11.4816     0.8757    28.2157 </r>
       <r>   -11.3723     0.9242    28.3166 </r>
       <r>   -11.2631     0.9114    28.4162 </r>
       <r>   -11.1539     1.3797    28.5669 </r>
       <r>   -11.0447     0.6760    28.6407 </r>
       <r>   -10.9355     2.7964    28.9461 </r>
       <r>   -10.8263     1.6712    29.1286 </r>
       <r>   -10.7171     3.9160    29.5563 </r>
       <r>   -10.6079     2.9377    29.8771 </r>
       <r>   -10.4987     1.7930    30.0729 </r>
       <r>   -10.3894     2.0787    30.3000 </r>
       <r>   -10.2802     1.4441    30.4577 </r>
       <r>   -10.1710     1.5532    30.6273 </r>
       <r>   -10.0618     1.3919    30.7793 </r>
       <r>    -9.9526     1.4857    30.9416 </r>
       <r>    -9.8434     1.4201    31.0966 </r>
       <r>    -9.7342     1.2964    31.2382 </r>
       <r>    -9.6250     1.2636    31.3762 </r>
       <r>    -9.5157     1.4677    31.5365 </r>
       <r>    -9.4065     1.3053    31.6791 </r>
       <r>    -9.2973     1.6398    31.8582 </r>
       <r>    -9.1881     1.2974    31.9999 </r>
       <r>    -9.0789     0.0012    32.0000 </r>
       <r>    -8.9697     0.0000    32.0000 </r>
       <r>    -8.8605     0.0000    32.0000 </r>
       <r>    -8.7513     0.0000    32.0000 </r>
       <r>    -8.6420     0.0000    32.0000 </r>
       <r>    -8.5328     0.0000    32.0000 </r>
       <r>    -8.4236     0.0000    32.0000 </r>
       <r>    -8.3144     0.0000    32.0000 </r>
       <r>    -8.2052     0.0000    32.0000 </r>
       <r>    -8.0960     0.0000    32.0000 </r>
       <r>    -7.9868     0.0000    32.0000 </r>
       <r>    -7.8776     0.0000    32.0000 </r>
       <r>    -7.7683     0.0000    32.0000 </r>
       <r>    -7.6591     0.0000    32.0000 </r>
       <r>    -7.5499     0.0000    32.0000 </r>
       <r>    -7.4407     0.7943    32.0867 </r>
       <r>    -7.3315     2.9066    32.4042 </r>
       <r>    -7.2223     2.0459    32.6276 </r>
       <r>    -7.1131     1.9310    32.8385 </r>
       <r>    -7.0039     1.9534    33.0519 </r>
       <r>    -6.8946     2.4543    33.3199 </r>
       <r>    -6.7854     9.3294    34.3388 </r>
       <r>    -6.6762     6.0305    34.9974 </r>
       <r>    -6.5670     2.3769    35.2570 </r>
       <r>    -6.4578     2.0400    35.4798 </r>
       <r>    -6.3486     2.2069    35.7208 </r>
       <r>    -6.2394     3.7961    36.1354 </r>
       <r>    -6.1302     6.9809    36.8978 </r>
       <r>    -6.0210     4.6303    37.4035 </r>
       <r>    -5.9117     4.8056    37.9283 </r>
       <r>    -5.8025     3.0636    38.2629 </r>
       <r>    -5.6933     4.9676    38.8054 </r>
       <r>    -5.5841     4.6115    39.3090 </r>
       <r>    -5.4749     6.7413    40.0453 </r>
       <r>    -5.3657     8.7843    41.0046 </r>
       <r>    -5.2565     6.5827    41.7236 </r>
       <r>    -5.1473     5.5988    42.3350 </r>
       <r>    -5.0380     5.1047    42.8925 </r>
       <r>    -4.9288     3.9415    43.3230 </r>
       <r>    -4.8196     3.5116    43.7065 </r>
       <r>    -4.7104     2.9585    44.0296 </r>
       <r>    -4.6012     4.3432    44.5039 </r>
       <r>    -4.4920     2.0343    44.7261 </r>
       <r>    -4.3828     4.3971    45.2063 </r>
       <r>    -4.2736     6.8113    45.9502 </r>
       <r>    -4.1643     4.2612    46.4156 </r>
       <r>    -4.0551     4.3294    46.8884 </r>
       <r>    -3.9459     3.8968    47.3140 </r>
       <r>    -3.8367     3.7672    47.7254 </r>
       <r>    -3.7275     3.6789    48.1272 </r>
       <r>    -3.6183     2.7643    48.4291 </r>
       <r>    -3.5091     2.8963    48.7454 </r>
       <r>    -3.3999     2.7884    49.0499 </r>
       <r>    -3.2906     2.9337    49.3703 </r>
       <r>    -3.1814     2.7028    49.6655 </r>
       <r>    -3.0722     3.6086    50.0596 </r>
       <r>    -2.9630     3.0386    50.3915 </r>
       <r>    -2.8538     3.9026    50.8177 </r>
       <r>    -2.7446     3.2544    51.1731 </r>
       <r>    -2.6354     4.1179    51.6228 </r>
       <r>    -2.5262     1.9583    51.8367 </r>
       <r>    -2.4169     1.4712    51.9974 </r>
       <r>    -2.3077     0.0239    52.0000 </r>
       <r>    -2.1985     0.0000    52.0000 </r>
       <r>    -2.0893     0.0000    52.0000 </r>
       <r>    -1.9801     0.0000    52.0000 </r>
       <r>    -1.8709     0.0768    52.0084 </r>
       <r>    -1.7617     0.4998    52.0630 </r>
       <r>    -1.6525     0.9835    52.1704 </r>
       <r>    -1.5433     2.0105    52.3900 </r>
       <r>    -1.4340     1.8262    52.5894 </r>
       <r>    -1.3248     3.5012    52.9718 </r>
       <r>    -1.2156     4.2547    53.4364 </r>
       <r>    -1.1064     3.6882    53.8392 </r>
       <r>    -0.9972     3.2122    54.1900 </r>
       <r>    -0.8880     4.6629    54.6993 </r>
       <r>    -0.7788     3.4835    55.0797 </r>
       <r>    -0.6696     4.2200    55.5406 </r>
       <r>    -0.5603     1.7948    55.7366 </r>
       <r>    -0.4511     2.0383    55.9592 </r>
       <r>    -0.3419     1.8876    56.1654 </r>
       <r>    -0.2327     0.0822    56.1744 </r>
       <r>    -0.1235     0.0766    56.1827 </r>
       <r>    -0.0143     0.4860    56.2358 </r>
       <r>     0.0949     0.3770    56.2770 </r>
       <r>     0.2041     1.2288    56.4112 </r>
       <r>     0.3134     1.0510    56.5260 </r>
       <r>     0.4226     2.3235    56.7797 </r>
       <r>     0.5318     2.1791    57.0177 </r>
       <r>     0.6410     1.9150    57.2269 </r>
       <r>     0.7502     3.3536    57.5931 </r>
       <r>     0.8594     3.6792    57.9949 </r>
       <r>     0.9686     5.1208    58.5542 </r>
       <r>     1.0778     7.8815    59.4149 </r>
       <r>     1.1871     7.5656    60.2412 </r>
       <r>     1.2963     6.4941    60.9505 </r>
       <r>     1.4055     5.9393    61.5991 </r>
       <r>     1.5147     7.0194    62.3657 </r>
       <r>     1.6239     5.3968    62.9551 </r>
       <r>     1.7331     4.8085    63.4802 </r>
       <r>     1.8423     3.0592    63.8144 </r>
       <r>     1.9515     0.9284    63.9157 </r>
       <r>     2.0608     0.7715    64.0000 </r>
       <r>     2.1700     0.0000    64.0000 </r>
       <r>     2.2792     0.0000    64.0000 </r>
       <r>     2.3884     0.0000    64.0000 </r>
       <r>     2.4976     0.0000    64.0000 </r>
       <r>     2.6068     0.0000    64.0000 </r>
       <r>     2.7160     0.0000    64.0000 </r>
       <r>     2.8252     0.0000    64.0000 </r>
       <r>     2.9344     0.0000    64.0000 </r>
       <r>     3.0437     0.0000    64.0000 </r>
       <r>     3.1529     0.0000    64.0000 </r>
       <r>     3.2621     0.0000    64.0000 </r>
       <r>     3.3713     0.0000    64.0000 </r>
       <r>     3.4805     0.0000    64.0000 </r>
      </set>
     </set>
    </array>
   </total>
  </dos>
 </calculation>
 <structure name="finalpos" >
  <crystal>
   <varray name="basis" >
    <v>       4.90552500      -0.07359900       0.00000000 </v>
    <v>      -0.08357700       5.57057500       0.00000000 </v>
    <v>       0.00000000       0.00000000      18.07929100 </v>
   </varray>
   <i name="volume">    493.93425268 </i>
   <varray name="rec_basis" >
    <v>       0.20389768       0.00305914       0.00000000 </v>
    <v>       0.00269392       0.17955510       0.00000000 </v>
    <v>       0.00000000       0.00000000       0.05531190 </v>
   </varray>
  </crystal>
  <varray name="positions" >
   <v>       0.50000000       0.50000000       0.50053035 </v>
   <v>      -0.00000000      -0.00000000       0.50053035 </v>
   <v>       0.25000000       0.25000000       0.41474395 </v>
   <v>       0.75000000       0.75000000       0.41474395 </v>
   <v>       0.75000000       0.25000000       0.58472570 </v>
   <v>       0.25000000       0.75000000       0.58472570 </v>
  </varray>
 </structure>
</modeling>
