<?xml version="1.0" encoding="ISO-8859-1"?>
<modeling>
 <generator>
  <i name="program" type="string">vasp </i>
  <i name="version" type="string">5.4.1  </i>
  <i name="subversion" type="string">24Jun15 (build Nov 20 2020 10:29:34) complex                          parallel </i>
  <i name="platform" type="string">IFC91_ompi </i>
  <i name="date" type="string">2021 09 09 </i>
  <i name="time" type="string">14:58:24 </i>
 </generator>
 <incar>
  <i type="string" name="PREC">a</i>
  <i type="string" name="ALGO"> Normal</i>
  <i type="int" name="ISPIN">     1</i>
  <i type="int" name="ICHARG">     2</i>
  <i type="int" name="NELM">   250</i>
  <i type="int" name="NELMDL">    -5</i>
  <i type="int" name="NELMIN">     6</i>
  <i type="int" name="IBRION">     2</i>
  <i name="EDIFF">      0.00001000</i>
  <i name="EDIFFG">     -0.01000000</i>
  <i type="int" name="NSW">   200</i>
  <i type="int" name="ISIF">     2</i>
  <i name="ENCUT">    520.00000000</i>
  <i name="POTIM">      0.30000000</i>
  <i type="logical" name="LREAL"> F  </i>
  <i type="int" name="ISMEAR">     0</i>
  <i name="SIGMA">      0.02000000</i>
  <i type="logical" name="LWAVE"> F  </i>
  <i type="logical" name="LCHARG"> F  </i>
  <i type="logical" name="LAECHG"> F  </i>
  <v type="int" name="KPOINT_BSE">    -1     0     0     0</v>
  <i type="int" name="NELM">   250</i>
 </incar>
 <kpoints>
  <generation param="Gamma">
   <v type="int" name="divisions">      15       13        1 </v>
   <v name="usershift">      0.00000000       0.00000000       0.00000000 </v>
   <v name="genvec1">      0.06666667       0.00000000       0.00000000 </v>
   <v name="genvec2">      0.00000000       0.07692308       0.00000000 </v>
   <v name="genvec3">      0.00000000       0.00000000       1.00000000 </v>
   <v name="shift">      0.00000000       0.00000000       0.00000000 </v>
  </generation>
  <varray name="kpointlist" >
   <v>       0.00000000       0.00000000       0.00000000 </v>
   <v>       0.06666667       0.00000000       0.00000000 </v>
   <v>       0.13333333       0.00000000       0.00000000 </v>
   <v>       0.20000000       0.00000000       0.00000000 </v>
   <v>       0.26666667       0.00000000       0.00000000 </v>
   <v>       0.33333333       0.00000000       0.00000000 </v>
   <v>       0.40000000       0.00000000       0.00000000 </v>
   <v>       0.46666667       0.00000000       0.00000000 </v>
   <v>       0.00000000       0.07692308       0.00000000 </v>
   <v>       0.06666667       0.07692308       0.00000000 </v>
   <v>       0.13333333       0.07692308       0.00000000 </v>
   <v>       0.20000000       0.07692308       0.00000000 </v>
   <v>       0.26666667       0.07692308       0.00000000 </v>
   <v>       0.33333333       0.07692308       0.00000000 </v>
   <v>       0.40000000       0.07692308       0.00000000 </v>
   <v>       0.46666667       0.07692308       0.00000000 </v>
   <v>       0.00000000       0.15384615       0.00000000 </v>
   <v>       0.06666667       0.15384615       0.00000000 </v>
   <v>       0.13333333       0.15384615       0.00000000 </v>
   <v>       0.20000000       0.15384615       0.00000000 </v>
   <v>       0.26666667       0.15384615       0.00000000 </v>
   <v>       0.33333333       0.15384615       0.00000000 </v>
   <v>       0.40000000       0.15384615       0.00000000 </v>
   <v>       0.46666667       0.15384615       0.00000000 </v>
   <v>       0.00000000       0.23076923       0.00000000 </v>
   <v>       0.06666667       0.23076923       0.00000000 </v>
   <v>       0.13333333       0.23076923       0.00000000 </v>
   <v>       0.20000000       0.23076923       0.00000000 </v>
   <v>       0.26666667       0.23076923       0.00000000 </v>
   <v>       0.33333333       0.23076923       0.00000000 </v>
   <v>       0.40000000       0.23076923       0.00000000 </v>
   <v>       0.46666667       0.23076923       0.00000000 </v>
   <v>       0.00000000       0.30769231       0.00000000 </v>
   <v>       0.06666667       0.30769231       0.00000000 </v>
   <v>       0.13333333       0.30769231       0.00000000 </v>
   <v>       0.20000000       0.30769231       0.00000000 </v>
   <v>       0.26666667       0.30769231       0.00000000 </v>
   <v>       0.33333333       0.30769231       0.00000000 </v>
   <v>       0.40000000       0.30769231       0.00000000 </v>
   <v>       0.46666667       0.30769231       0.00000000 </v>
   <v>       0.00000000       0.38461538       0.00000000 </v>
   <v>       0.06666667       0.38461538       0.00000000 </v>
   <v>       0.13333333       0.38461538       0.00000000 </v>
   <v>       0.20000000       0.38461538       0.00000000 </v>
   <v>       0.26666667       0.38461538       0.00000000 </v>
   <v>       0.33333333       0.38461538       0.00000000 </v>
   <v>       0.40000000       0.38461538       0.00000000 </v>
   <v>       0.46666667       0.38461538       0.00000000 </v>
   <v>       0.00000000       0.46153846       0.00000000 </v>
   <v>       0.06666667       0.46153846       0.00000000 </v>
   <v>       0.13333333       0.46153846       0.00000000 </v>
   <v>       0.20000000       0.46153846       0.00000000 </v>
   <v>       0.26666667       0.46153846       0.00000000 </v>
   <v>       0.33333333       0.46153846       0.00000000 </v>
   <v>       0.40000000       0.46153846       0.00000000 </v>
   <v>       0.46666667       0.46153846       0.00000000 </v>
  </varray>
  <varray name="weights" >
   <v>       0.00512821 </v>
   <v>       0.01025641 </v>
   <v>       0.01025641 </v>
   <v>       0.01025641 </v>
   <v>       0.01025641 </v>
   <v>       0.01025641 </v>
   <v>       0.01025641 </v>
   <v>       0.01025641 </v>
   <v>       0.01025641 </v>
   <v>       0.02051282 </v>
   <v>       0.02051282 </v>
   <v>       0.02051282 </v>
   <v>       0.02051282 </v>
   <v>       0.02051282 </v>
   <v>       0.02051282 </v>
   <v>       0.02051282 </v>
   <v>       0.01025641 </v>
   <v>       0.02051282 </v>
   <v>       0.02051282 </v>
   <v>       0.02051282 </v>
   <v>       0.02051282 </v>
   <v>       0.02051282 </v>
   <v>       0.02051282 </v>
   <v>       0.02051282 </v>
   <v>       0.01025641 </v>
   <v>       0.02051282 </v>
   <v>       0.02051282 </v>
   <v>       0.02051282 </v>
   <v>       0.02051282 </v>
   <v>       0.02051282 </v>
   <v>       0.02051282 </v>
   <v>       0.02051282 </v>
   <v>       0.01025641 </v>
   <v>       0.02051282 </v>
   <v>       0.02051282 </v>
   <v>       0.02051282 </v>
   <v>       0.02051282 </v>
   <v>       0.02051282 </v>
   <v>       0.02051282 </v>
   <v>       0.02051282 </v>
   <v>       0.01025641 </v>
   <v>       0.02051282 </v>
   <v>       0.02051282 </v>
   <v>       0.02051282 </v>
   <v>       0.02051282 </v>
   <v>       0.02051282 </v>
   <v>       0.02051282 </v>
   <v>       0.02051282 </v>
   <v>       0.01025641 </v>
   <v>       0.02051282 </v>
   <v>       0.02051282 </v>
   <v>       0.02051282 </v>
   <v>       0.02051282 </v>
   <v>       0.02051282 </v>
   <v>       0.02051282 </v>
   <v>       0.02051282 </v>
  </varray>
 </kpoints>
 <parameters>
  <separator name="general" >
   <i type="string" name="SYSTEM">unknown system</i>
   <i type="logical" name="LCOMPAT"> F  </i>
  </separator>
  <separator name="electronic" >
   <i type="string" name="PREC">a</i>
   <i name="ENMAX">    520.00000000</i>
   <i name="ENAUG">    531.35600000</i>
   <i name="EDIFF">      0.00001000</i>
   <i type="int" name="IALGO">    38</i>
   <i type="int" name="IWAVPR">    11</i>
   <i type="int" name="NBANDS">    32</i>
   <i name="NELECT">     52.00000000</i>
   <i type="int" name="TURBO">     0</i>
   <i type="int" name="IRESTART">     0</i>
   <i type="int" name="NREBOOT">     0</i>
   <i type="int" name="NMIN">     0</i>
   <i name="EREF">      0.00000000</i>
   <separator name="electronic smearing" >
    <i type="int" name="ISMEAR">     0</i>
    <i name="SIGMA">      0.02000000</i>
    <i name="KSPACING">      0.50000000</i>
    <i type="logical" name="KGAMMA"> T  </i>
   </separator>
   <separator name="electronic projectors" >
    <i type="logical" name="LREAL"> F  </i>
    <v name="ROPT">      0.00000000      0.00000000</v>
    <i type="int" name="LMAXPAW">  -100</i>
    <i type="int" name="LMAXMIX">     2</i>
    <i type="logical" name="NLSPLINE"> F  </i>
   </separator>
   <separator name="electronic startup" >
    <i type="int" name="ISTART">     0</i>
    <i type="int" name="ICHARG">     2</i>
    <i type="int" name="INIWAV">     1</i>
   </separator>
   <separator name="electronic spin" >
    <i type="int" name="ISPIN">     1</i>
    <i type="logical" name="LNONCOLLINEAR"> F  </i>
    <v name="MAGMOM">      1.00000000      1.00000000      1.00000000      1.00000000      1.00000000      1.00000000</v>
    <i name="NUPDOWN">     -1.00000000</i>
    <i type="logical" name="LSORBIT"> F  </i>
    <v name="SAXIS">      0.00000000      0.00000000      1.00000000</v>
    <i type="logical" name="LSPIRAL"> F  </i>
    <v name="QSPIRAL">      0.00000000      0.00000000      0.00000000</v>
    <i type="logical" name="LZEROZ"> F  </i>
   </separator>
   <separator name="electronic exchange-correlation" >
    <i type="logical" name="LASPH"> F  </i>
    <i type="logical" name="LMETAGGA"> F  </i>
   </separator>
   <separator name="electronic convergence" >
    <i type="int" name="NELM">   250</i>
    <i type="int" name="NELMDL">    -5</i>
    <i type="int" name="NELMIN">     6</i>
    <i name="ENINI">    520.00000000</i>
    <separator name="electronic convergence detail" >
     <i type="logical" name="LDIAG"> T  </i>
     <i type="logical" name="LSUBROT"> F  </i>
     <i name="WEIMIN">      0.00100000</i>
     <i name="EBREAK">      0.00000008</i>
     <i name="DEPER">      0.30000000</i>
     <i type="int" name="NRMM">     4</i>
     <i name="TIME">      0.40000000</i>
    </separator>
   </separator>
   <separator name="electronic mixer" >
    <i name="AMIX">      0.40000000</i>
    <i name="BMIX">      1.00000000</i>
    <i name="AMIN">      0.10000000</i>
    <i name="AMIX_MAG">      1.60000000</i>
    <i name="BMIX_MAG">      1.00000000</i>
    <separator name="electronic mixer details" >
     <i type="int" name="IMIX">     4</i>
     <i type="logical" name="MIXFIRST"> F  </i>
     <i type="int" name="MAXMIX">   -45</i>
     <i name="WC">    100.00000000</i>
     <i type="int" name="INIMIX">     1</i>
     <i type="int" name="MIXPRE">     1</i>
     <i type="int" name="MREMOVE">     5</i>
    </separator>
   </separator>
   <separator name="electronic dipolcorrection" >
    <i type="logical" name="LDIPOL"> F  </i>
    <i type="logical" name="LMONO"> F  </i>
    <i type="int" name="IDIPOL">     0</i>
    <i name="EPSILON">      1.00000000</i>
    <v name="DIPOL">   -100.00000000   -100.00000000   -100.00000000</v>
    <i name="EFIELD">      0.00000000</i>
   </separator>
  </separator>
  <separator name="grids" >
   <i type="int" name="NGX">    40</i>
   <i type="int" name="NGY">    42</i>
   <i type="int" name="NGZ">   140</i>
   <i type="int" name="NGXF">    80</i>
   <i type="int" name="NGYF">    84</i>
   <i type="int" name="NGZF">   280</i>
   <i type="logical" name="ADDGRID"> F  </i>
  </separator>
  <separator name="ionic" >
   <i type="int" name="NSW">   200</i>
   <i type="int" name="IBRION">     2</i>
   <i type="int" name="ISIF">     2</i>
   <i name="PSTRESS">      0.00000000</i>
   <i name="EDIFFG">     -0.01000000</i>
   <i type="int" name="NFREE">     1</i>
   <i name="POTIM">      0.30000000</i>
   <i name="SMASS">     -3.00000000</i>
   <i name="SCALEE">      1.00000000</i>
  </separator>
  <separator name="ionic md" >
   <i name="TEBEG">      0.00010000</i>
   <i name="TEEND">      0.00010000</i>
   <i type="int" name="NBLOCK">     1</i>
   <i type="int" name="KBLOCK">   200</i>
   <i type="int" name="NPACO">   256</i>
   <i name="APACO">     16.00000000</i>
  </separator>
  <separator name="symmetry" >
   <i type="int" name="ISYM">     2</i>
   <i name="SYMPREC">      0.00001000</i>
  </separator>
  <separator name="dos" >
   <i type="logical" name="LORBIT"> F  </i>
   <v name="RWIGS">     -1.00000000     -1.00000000</v>
   <i type="int" name="NEDOS">   301</i>
   <i name="EMIN">     10.00000000</i>
   <i name="EMAX">    -10.00000000</i>
   <i name="EFERMI">      0.00000000</i>
  </separator>
  <separator name="writing" >
   <i type="int" name="NWRITE">     2</i>
   <i type="logical" name="LWAVE"> F  </i>
   <i type="logical" name="LCHARG"> F  </i>
   <i type="logical" name="LPARD"> F  </i>
   <i type="logical" name="LVTOT"> F  </i>
   <i type="logical" name="LVHAR"> F  </i>
   <i type="logical" name="LELF"> F  </i>
   <i type="logical" name="LOPTICS"> F  </i>
   <v name="STM">      0.00000000      0.00000000      0.00000000      0.00000000      0.00000000      0.00000000      0.00000000</v>
  </separator>
  <separator name="performance" >
   <i type="int" name="NPAR">     4</i>
   <i type="int" name="NSIM">     4</i>
   <i type="int" name="NBLK">    -1</i>
   <i type="logical" name="LPLANE"> T  </i>
   <i type="logical" name="LSCALAPACK"> T  </i>
   <i type="logical" name="LSCAAWARE"> F  </i>
   <i type="logical" name="LSCALU"> F  </i>
   <i type="logical" name="LASYNC"> F  </i>
   <i type="logical" name="LORBITALREAL"> F  </i>
  </separator>
  <separator name="miscellaneous" >
   <i type="int" name="IDIOT">     3</i>
   <i type="logical" name="LMUSIC"> F  </i>
   <v name="POMASS">     72.61000000     78.96000000</v>
   <v name="DARWINR">      0.00000000      0.00000000</v>
   <v name="DARWINV">      1.00000000      1.00000000</v>
   <i type="logical" name="LCORR"> T  </i>
  </separator>
  <i type="logical" name="GGA_COMPAT"> T  </i>
  <i type="logical" name="LBERRY"> F  </i>
  <i type="int" name="ICORELEVEL">     0</i>
  <i type="logical" name="LDAU"> F  </i>
  <i type="int" name="I_CONSTRAINED_M">     0</i>
  <separator name="electronic exchange-correlation" >
   <i type="string" name="GGA">--</i>
   <i type="int" name="VOSKOWN">     0</i>
   <i type="logical" name="LHFCALC"> F  </i>
   <i type="string" name="PRECFOCK"></i>
   <i type="logical" name="LSYMGRAD"> F  </i>
   <i type="logical" name="LHFONE"> F  </i>
   <i type="logical" name="LRHFCALC"> F  </i>
   <i type="logical" name="LTHOMAS"> F  </i>
   <i type="logical" name="LMODELHF"> F  </i>
   <i name="ENCUT4O">     -1.00000000</i>
   <i type="int" name="EXXOEP">     0</i>
   <i type="int" name="FOURORBIT">     0</i>
   <i name="AEXX">      0.00000000</i>
   <i name="HFALPHA">      0.00000000</i>
   <i name="MCALPHA">      0.00000000</i>
   <i name="ALDAX">      1.00000000</i>
   <i name="AGGAX">      1.00000000</i>
   <i name="ALDAC">      1.00000000</i>
   <i name="AGGAC">      1.00000000</i>
   <i type="int" name="NKREDX">     1</i>
   <i type="int" name="NKREDY">     1</i>
   <i type="int" name="NKREDZ">     1</i>
   <i type="logical" name="SHIFTRED"> F  </i>
   <i type="logical" name="ODDONLY"> F  </i>
   <i type="logical" name="EVENONLY"> F  </i>
   <i type="int" name="LMAXFOCK">     0</i>
   <i type="int" name="NMAXFOCKAE">     0</i>
   <i type="logical" name="LFOCKAEDFT"> F  </i>
   <i name="HFSCREEN">      0.00000000</i>
   <i name="HFSCREENC">      0.00000000</i>
   <i type="int" name="NBANDSGWLOW">     0</i>
  </separator>
  <separator name="vdW DFT" >
   <i type="logical" name="LUSE_VDW"> F  </i>
   <i name="Zab_VDW">     -0.84910000</i>
   <i name="PARAM1">      0.12340000</i>
   <i name="PARAM2">      1.00000000</i>
   <i name="PARAM3">      0.00000000</i>
  </separator>
  <separator name="model GW" >
   <i type="int" name="MODEL_GW">     0</i>
   <i name="MODEL_EPS0">     50.15142096</i>
   <i name="MODEL_ALPHA">      1.00000000</i>
  </separator>
  <separator name="linear response parameters" >
   <i type="logical" name="LEPSILON"> F  </i>
   <i type="logical" name="LRPA"> F  </i>
   <i type="logical" name="LNABLA"> F  </i>
   <i type="logical" name="LVEL"> F  </i>
   <i type="int" name="KINTER">     0</i>
   <i name="CSHIFT">      0.10000000</i>
   <i name="OMEGAMAX">     -1.00000000</i>
   <i name="DEG_THRESHOLD">      0.00200000</i>
  </separator>
  <separator name="orbital magnetization" >
   <i type="logical" name="NUCIND"> F  </i>
   <v name="MAGPOS">      0.00000000      0.00000000      0.00000000</v>
   <i type="logical" name="LNICSALL"> T  </i>
   <i type="logical" name="ORBITALMAG"> F  </i>
   <i type="logical" name="LMAGBLOCH"> F  </i>
   <i type="logical" name="LCHIMAG"> F  </i>
   <i type="logical" name="LGAUGE"> T  </i>
   <i type="int" name="MAGATOM">     0</i>
   <v name="MAGDIPOL">      0.00000000      0.00000000      0.00000000</v>
   <v name="AVECCONST">      0.00000000      0.00000000      0.00000000</v>
  </separator>
  <separator name="response functions" >
   <i type="logical" name="LADDER"> F  </i>
   <i type="logical" name="LFXC"> F  </i>
   <i type="logical" name="LHARTREE"> T  </i>
   <i type="int" name="IBSE">     0</i>
   <v type="int" name="KPOINT">    -1     0     0     0</v>
   <i type="logical" name="LTCTE"> F  </i>
   <i type="logical" name="LTETE"> F  </i>
   <i type="logical" name="LTRIPLET"> F  </i>
   <i type="logical" name="LFXCEPS"> F  </i>
   <i type="logical" name="LFXHEG"> F  </i>
   <i type="int" name="NATURALO">     0</i>
   <i type="logical" name="L2ORDER"> F  </i>
   <i type="logical" name="LUSEW"> F  </i>
   <i name="ENCUTGW">     -2.00000000</i>
   <i name="ENCUTGWSOFT">     -2.00000000</i>
   <i name="ENCUTLF">     -1.00000000</i>
   <i type="int" name="LMAXMP2">    -1</i>
   <i name="SCISSOR">      0.00000000</i>
   <i type="int" name="NOMEGA">     0</i>
   <i type="int" name="NOMEGAR">     0</i>
   <i type="int" name="NBANDSGW">    -1</i>
   <i type="int" name="NBANDSO">    -1</i>
   <i type="int" name="NBANDSV">    -1</i>
   <i type="int" name="NELM">   250</i>
   <i type="int" name="NELMHF">     1</i>
   <i type="int" name="DIM">     3</i>
   <i type="int" name="ANTIRES">     0</i>
   <i name="OMEGAMAX">    -30.00000000</i>
   <i name="OMEGAMIN">    -30.00000000</i>
   <i name="OMEGATL">   -200.00000000</i>
   <i type="int" name="OMEGAGRID">     0</i>
   <i name="CSHIFT">     -0.10000000</i>
   <i type="logical" name="SELFENERGY"> F  </i>
   <i type="logical" name="LSPECTRAL"> F  </i>
   <i type="logical" name="LSPECTRALGW"> F  </i>
   <i type="logical" name="LSINGLES"> F  </i>
   <i type="logical" name="LFERMIGW"> F  </i>
   <i type="logical" name="ODDONLYGW"> F  </i>
   <i type="logical" name="EVENONLYGW"> F  </i>
   <i type="int" name="NKREDLFX">     1</i>
   <i type="int" name="NKREDLFY">     1</i>
   <i type="int" name="NKREDLFZ">     1</i>
   <i type="int" name="MAXMEM">  1800</i>
   <i type="int" name="TELESCOPE">     0</i>
   <i type="int" name="TAUPAR">     1</i>
   <i type="int" name="OMEGAPAR">    -1</i>
   <i name="LAMBDA">      1.00000000</i>
  </separator>
  <separator name="External order field" >
   <i name="OFIELD_KAPPA">      0.00000000</i>
   <v name="OFIELD_K">      0.00000000      0.00000000      0.00000000</v>
   <i name="OFIELD_Q6_NEAR">      0.00000000</i>
   <i name="OFIELD_Q6_FAR">      0.00000000</i>
   <i name="OFIELD_A">      0.00000000</i>
  </separator>
 </parameters>
 <atominfo>
  <atoms>       6 </atoms>
  <types>       2 </types>
  <array name="atoms" >
   <dimension dim="1">ion</dimension>
   <field type="string">element</field>
   <field type="int">atomtype</field>
   <set>
    <rc><c>Ge</c><c>   1</c></rc>
    <rc><c>Ge</c><c>   1</c></rc>
    <rc><c>Se</c><c>   2</c></rc>
    <rc><c>Se</c><c>   2</c></rc>
    <rc><c>Se</c><c>   2</c></rc>
    <rc><c>Se</c><c>   2</c></rc>
   </set>
  </array>
  <array name="atomtypes" >
   <dimension dim="1">type</dimension>
   <field type="int">atomspertype</field>
   <field type="string">element</field>
   <field>mass</field>
   <field>valence</field>
   <field type="string">pseudopotential</field>
   <set>
    <rc><c>   2</c><c>Ge</c><c>     72.61000000</c><c>     14.00000000</c><c>  PAW_PBE Ge_d 03Jul2007                </c></rc>
    <rc><c>   4</c><c>Se</c><c>     78.96000000</c><c>      6.00000000</c><c>  PAW_PBE Se 06Sep2000                  </c></rc>
   </set>
  </array>
 </atominfo>
 <structure name="initialpos" >
  <crystal>
   <varray name="basis" >
    <v>       4.97912400       0.00000000       0.00000000 </v>
    <v>       0.00000000       5.57120200       0.00000000 </v>
    <v>       0.00000000       0.00000000      18.07929100 </v>
   </varray>
   <i name="volume">    501.51420956 </i>
   <varray name="rec_basis" >
    <v>       0.20083854       0.00000000       0.00000000 </v>
    <v>       0.00000000       0.17949448       0.00000000 </v>
    <v>       0.00000000       0.00000000       0.05531190 </v>
   </varray>
  </crystal>
  <varray name="positions" >
   <v>       0.50000000       0.50000000       0.50000000 </v>
   <v>       0.00000000       0.00000000       0.50000000 </v>
   <v>       0.25000000       0.25000000       0.41502600 </v>
   <v>       0.75000000       0.75000000       0.41502600 </v>
   <v>       0.75000000       0.25000000       0.58497400 </v>
   <v>       0.25000000       0.75000000       0.58497400 </v>
  </varray>
 </structure>
 <calculation>
  <scstep>
   <time name="dav">    1.99    1.99</time>
   <time name="total">    2.02    2.03</time>
   <energy>
    <i name="alphaZ">     45.80336310 </i>
    <i name="ewald">   4877.50616630 </i>
    <i name="hartreedc">  -9663.39732740 </i>
    <i name="XCdc">    142.29522440 </i>
    <i name="pawpsdc">   4514.43351212 </i>
    <i name="pawaedc">  -5329.26418529 </i>
    <i name="eentropy">     -0.00093637 </i>
    <i name="bandstr">   -370.99304438 </i>
    <i name="atom">   6220.98622430 </i>
    <i name="e_fr_energy">    437.36899679 </i>
    <i name="e_wo_entrp">    437.36993316 </i>
    <i name="e_0_energy">    437.36946497 </i>
   </energy>
  </scstep>
  <scstep>
   <time name="dav">    2.11    2.11</time>
   <time name="total">    2.11    2.11</time>
   <energy>
    <i name="e_fr_energy">     46.78840637 </i>
    <i name="e_wo_entrp">     46.78843552 </i>
    <i name="e_0_energy">     46.78842095 </i>
   </energy>
  </scstep>
  <scstep>
   <time name="dav">    2.25    2.25</time>
   <time name="total">    2.25    2.25</time>
   <energy>
    <i name="e_fr_energy">    -21.38122311 </i>
    <i name="e_wo_entrp">    -21.38122311 </i>
    <i name="e_0_energy">    -21.38122311 </i>
   </energy>
  </scstep>
  <scstep>
   <time name="dav">    2.02    2.03</time>
   <time name="total">    2.03    2.03</time>
   <energy>
    <i name="e_fr_energy">    -24.75396378 </i>
    <i name="e_wo_entrp">    -24.75396378 </i>
    <i name="e_0_energy">    -24.75396378 </i>
   </energy>
  </scstep>
  <scstep>
   <time name="dav">    2.41    2.41</time>
   <time name="total">    2.53    2.53</time>
   <energy>
    <i name="e_fr_energy">    -24.86921675 </i>
    <i name="e_wo_entrp">    -24.86921675 </i>
    <i name="e_0_energy">    -24.86921675 </i>
   </energy>
  </scstep>
  <scstep>
   <time name="dav">    2.33    2.33</time>
   <time name="total">    2.48    2.48</time>
   <energy>
    <i name="e_fr_energy">    -24.35995577 </i>
    <i name="e_wo_entrp">    -24.35995577 </i>
    <i name="e_0_energy">    -24.35995577 </i>
   </energy>
  </scstep>
  <scstep>
   <time name="dav">    2.15    2.15</time>
   <time name="total">    2.29    2.29</time>
   <energy>
    <i name="e_fr_energy">    -24.26541996 </i>
    <i name="e_wo_entrp">    -24.26541996 </i>
    <i name="e_0_energy">    -24.26541996 </i>
   </energy>
  </scstep>
  <scstep>
   <time name="dav">    2.22    2.22</time>
   <time name="total">    2.37    2.37</time>
   <energy>
    <i name="e_fr_energy">    -24.25960606 </i>
    <i name="e_wo_entrp">    -24.25960606 </i>
    <i name="e_0_energy">    -24.25960606 </i>
   </energy>
  </scstep>
  <scstep>
   <time name="dav">    2.24    2.24</time>
   <time name="total">    2.39    2.39</time>
   <energy>
    <i name="e_fr_energy">    -24.25915707 </i>
    <i name="e_wo_entrp">    -24.25915707 </i>
    <i name="e_0_energy">    -24.25915707 </i>
   </energy>
  </scstep>
  <scstep>
   <time name="dav">    2.35    2.35</time>
   <time name="total">    2.49    2.50</time>
   <energy>
    <i name="e_fr_energy">    -24.25895007 </i>
    <i name="e_wo_entrp">    -24.25895007 </i>
    <i name="e_0_energy">    -24.25895007 </i>
   </energy>
  </scstep>
  <scstep>
   <time name="dav">    1.95    1.95</time>
   <time name="total">    2.09    2.10</time>
   <energy>
    <i name="e_fr_energy">    -24.25876978 </i>
    <i name="e_wo_entrp">    -24.25876978 </i>
    <i name="e_0_energy">    -24.25876978 </i>
   </energy>
  </scstep>
  <scstep>
   <time name="dav">    1.90    1.90</time>
   <time name="total">    2.04    2.05</time>
   <energy>
    <i name="e_fr_energy">    -24.25890303 </i>
    <i name="e_wo_entrp">    -24.25890303 </i>
    <i name="e_0_energy">    -24.25890303 </i>
   </energy>
  </scstep>
  <scstep>
   <time name="dav">    1.87    1.87</time>
   <time name="total">    2.02    2.02</time>
   <energy>
    <i name="e_fr_energy">    -24.25916713 </i>
    <i name="e_wo_entrp">    -24.25916713 </i>
    <i name="e_0_energy">    -24.25916713 </i>
   </energy>
  </scstep>
  <scstep>
   <time name="dav">    1.75    1.75</time>
   <time name="total">    1.89    1.90</time>
   <energy>
    <i name="e_fr_energy">    -24.25926492 </i>
    <i name="e_wo_entrp">    -24.25926492 </i>
    <i name="e_0_energy">    -24.25926492 </i>
   </energy>
  </scstep>
  <scstep>
   <time name="dav">    1.71    1.71</time>
   <time name="total">    1.85    1.85</time>
   <energy>
    <i name="e_fr_energy">    -24.25932100 </i>
    <i name="e_wo_entrp">    -24.25932100 </i>
    <i name="e_0_energy">    -24.25932100 </i>
   </energy>
  </scstep>
  <scstep>
   <time name="dav">    1.68    1.68</time>
   <time name="total">    1.82    1.82</time>
   <energy>
    <i name="e_fr_energy">    -24.25938036 </i>
    <i name="e_wo_entrp">    -24.25938036 </i>
    <i name="e_0_energy">    -24.25938036 </i>
   </energy>
  </scstep>
  <scstep>
   <time name="dav">    1.55    1.55</time>
   <time name="total">    1.69    1.69</time>
   <energy>
    <i name="e_fr_energy">    -24.25942841 </i>
    <i name="e_wo_entrp">    -24.25942841 </i>
    <i name="e_0_energy">    -24.25942841 </i>
   </energy>
  </scstep>
  <scstep>
   <time name="dav">    1.62    1.62</time>
   <time name="total">    1.76    1.76</time>
   <energy>
    <i name="e_fr_energy">    -24.25945835 </i>
    <i name="e_wo_entrp">    -24.25945835 </i>
    <i name="e_0_energy">    -24.25945835 </i>
   </energy>
  </scstep>
  <scstep>
   <time name="dav">    1.64    1.64</time>
   <time name="total">    1.67    1.67</time>
   <energy>
    <i name="alphaZ">     45.80336310 </i>
    <i name="ewald">   4877.50616630 </i>
    <i name="hartreedc">  -9667.01045851 </i>
    <i name="XCdc">    142.83132093 </i>
    <i name="pawpsdc">   5724.45366136 </i>
    <i name="pawaedc">  -6544.32406590 </i>
    <i name="eentropy">     -0.00000000 </i>
    <i name="bandstr">   -824.50567493 </i>
    <i name="atom">   6220.98622430 </i>
    <i name="e_fr_energy">    -24.25946336 </i>
    <i name="e_wo_entrp">    -24.25946336 </i>
    <i name="e_0_energy">    -24.25946336 </i>
   </energy>
  </scstep>
  <structure>
   <crystal>
    <varray name="basis" >
     <v>       4.97912400       0.00000000       0.00000000 </v>
     <v>       0.00000000       5.57120200       0.00000000 </v>
     <v>       0.00000000       0.00000000      18.07929100 </v>
    </varray>
    <i name="volume">    501.51420956 </i>
    <varray name="rec_basis" >
     <v>       0.20083854       0.00000000       0.00000000 </v>
     <v>       0.00000000       0.17949448       0.00000000 </v>
     <v>       0.00000000       0.00000000       0.05531190 </v>
    </varray>
   </crystal>
   <varray name="positions" >
    <v>       0.50000000       0.50000000       0.50000000 </v>
    <v>       0.00000000       0.00000000       0.50000000 </v>
    <v>       0.25000000       0.25000000       0.41502600 </v>
    <v>       0.75000000       0.75000000       0.41502600 </v>
    <v>       0.75000000       0.25000000       0.58497400 </v>
    <v>       0.25000000       0.75000000       0.58497400 </v>
   </varray>
  </structure>
  <varray name="forces" >
   <v>      -0.00000000       0.00000000      -0.00000000 </v>
   <v>       0.00000000      -0.00000000      -0.00000000 </v>
   <v>       0.00000000      -0.00000000       0.07093370 </v>
   <v>       0.00000000      -0.00000000       0.07093370 </v>
   <v>       0.00000000      -0.00000000      -0.07093370 </v>
   <v>       0.00000000      -0.00000000      -0.07093370 </v>
  </varray>
  <varray name="stress" >
   <v>      -2.09232167       0.00000000       0.00000000 </v>
   <v>       0.00000000      -2.58970378       0.00000000 </v>
   <v>       0.00000000       0.00000000      -1.43694702 </v>
  </varray>
  <energy>
   <i name="e_fr_energy">    -24.25946336 </i>
   <i name="e_wo_entrp">    -24.25946336 </i>
   <i name="e_0_energy">     -0.00000000 </i>
  </energy>
  <time name="totalsc">   41.02   41.06</time>
 </calculation>
 <calculation>
  <scstep>
   <time name="dav">    1.73    1.73</time>
   <time name="total">    1.87    1.88</time>
   <energy>
    <i name="alphaZ">     45.80336310 </i>
    <i name="ewald">   4882.11232161 </i>
    <i name="hartreedc">  -9671.47045350 </i>
    <i name="XCdc">    142.84991487 </i>
    <i name="pawpsdc">   5724.44302559 </i>
    <i name="pawaedc">  -6544.31342611 </i>
    <i name="eentropy">     -0.00000000 </i>
    <i name="bandstr">   -824.67085101 </i>
    <i name="atom">   6220.98622430 </i>
    <i name="e_fr_energy">    -24.25988115 </i>
    <i name="e_wo_entrp">    -24.25988115 </i>
    <i name="e_0_energy">    -24.25988115 </i>
   </energy>
  </scstep>
  <scstep>
   <time name="dav">    1.97    1.97</time>
   <time name="total">    2.11    2.11</time>
   <energy>
    <i name="e_fr_energy">    -24.25995607 </i>
    <i name="e_wo_entrp">    -24.25995607 </i>
    <i name="e_0_energy">    -24.25995607 </i>
   </energy>
  </scstep>
  <scstep>
   <time name="dav">    1.68    1.68</time>
   <time name="total">    1.82    1.82</time>
   <energy>
    <i name="e_fr_energy">    -24.25995550 </i>
    <i name="e_wo_entrp">    -24.25995550 </i>
    <i name="e_0_energy">    -24.25995550 </i>
   </energy>
  </scstep>
  <scstep>
   <time name="dav">    1.50    1.50</time>
   <time name="total">    1.64    1.64</time>
   <energy>
    <i name="e_fr_energy">    -24.25995669 </i>
    <i name="e_wo_entrp">    -24.25995669 </i>
    <i name="e_0_energy">    -24.25995669 </i>
   </energy>
  </scstep>
  <scstep>
   <time name="dav">    1.43    1.43</time>
   <time name="total">    1.58    1.58</time>
   <energy>
    <i name="e_fr_energy">    -24.25995763 </i>
    <i name="e_wo_entrp">    -24.25995763 </i>
    <i name="e_0_energy">    -24.25995763 </i>
   </energy>
  </scstep>
  <scstep>
   <time name="dav">    1.35    1.35</time>
   <time name="total">    1.39    1.39</time>
   <energy>
    <i name="alphaZ">     45.80336310 </i>
    <i name="ewald">   4882.11232161 </i>
    <i name="hartreedc">  -9671.47076745 </i>
    <i name="XCdc">    142.84753664 </i>
    <i name="pawpsdc">   5729.15478350 </i>
    <i name="pawaedc">  -6549.05632356 </i>
    <i name="eentropy">     -0.00000000 </i>
    <i name="bandstr">   -824.63709597 </i>
    <i name="atom">   6220.98622430 </i>
    <i name="e_fr_energy">    -24.25995782 </i>
    <i name="e_wo_entrp">    -24.25995782 </i>
    <i name="e_0_energy">    -24.25995782 </i>
   </energy>
  </scstep>
  <structure>
   <crystal>
    <varray name="basis" >
     <v>       4.97912400       0.00000000       0.00000000 </v>
     <v>       0.00000000       5.57120200       0.00000000 </v>
     <v>       0.00000000       0.00000000      18.07929100 </v>
    </varray>
    <i name="volume">    501.51420956 </i>
    <varray name="rec_basis" >
     <v>       0.20083854       0.00000000       0.00000000 </v>
     <v>       0.00000000       0.17949448       0.00000000 </v>
     <v>       0.00000000       0.00000000       0.05531190 </v>
    </varray>
   </crystal>
   <varray name="positions" >
    <v>       0.50000000       0.50000000       0.50000000 </v>
    <v>       0.00000000      -0.00000000       0.50000000 </v>
    <v>       0.25000000       0.25000000       0.41513957 </v>
    <v>       0.75000000       0.75000000       0.41513957 </v>
    <v>       0.75000000       0.25000000       0.58486043 </v>
    <v>       0.25000000       0.75000000       0.58486043 </v>
   </varray>
  </structure>
  <varray name="forces" >
   <v>       0.00000000      -0.00000000       0.00000000 </v>
   <v>      -0.00000000       0.00000000       0.00000000 </v>
   <v>      -0.00000000       0.00000000       0.04804691 </v>
   <v>      -0.00000000       0.00000000       0.04804691 </v>
   <v>      -0.00000000       0.00000000      -0.04804691 </v>
   <v>       0.00000000       0.00000000      -0.04804691 </v>
  </varray>
  <varray name="stress" >
   <v>      -1.97923059       0.00000000       0.00000000 </v>
   <v>       0.00000000      -2.46022231       0.00000000 </v>
   <v>       0.00000000       0.00000000      -1.00315695 </v>
  </varray>
  <energy>
   <i name="e_fr_energy">    -24.25995782 </i>
   <i name="e_wo_entrp">    -24.25995782 </i>
   <i name="e_0_energy">     -0.00000000 </i>
  </energy>
  <time name="totalsc">   11.62   11.64</time>
 </calculation>
 <calculation>
  <scstep>
   <time name="dav">    1.81    1.81</time>
   <time name="total">    1.95    1.95</time>
   <energy>
    <i name="alphaZ">     45.80336310 </i>
    <i name="ewald">   4891.78243333 </i>
    <i name="hartreedc">  -9680.82386537 </i>
    <i name="XCdc">    142.88659464 </i>
    <i name="pawpsdc">   5729.19020133 </i>
    <i name="pawaedc">  -6549.09179527 </i>
    <i name="eentropy">     -0.00000000 </i>
    <i name="bandstr">   -824.99320479 </i>
    <i name="atom">   6220.98622430 </i>
    <i name="e_fr_energy">    -24.26004873 </i>
    <i name="e_wo_entrp">    -24.26004873 </i>
    <i name="e_0_energy">    -24.26004873 </i>
   </energy>
  </scstep>
  <scstep>
   <time name="dav">    2.07    2.07</time>
   <time name="total">    2.21    2.21</time>
   <energy>
    <i name="e_fr_energy">    -24.26037722 </i>
    <i name="e_wo_entrp">    -24.26037722 </i>
    <i name="e_0_energy">    -24.26037722 </i>
   </energy>
  </scstep>
  <scstep>
   <time name="dav">    1.83    1.83</time>
   <time name="total">    1.97    1.97</time>
   <energy>
    <i name="e_fr_energy">    -24.26037131 </i>
    <i name="e_wo_entrp">    -24.26037131 </i>
    <i name="e_0_energy">    -24.26037131 </i>
   </energy>
  </scstep>
  <scstep>
   <time name="dav">    1.65    1.65</time>
   <time name="total">    1.79    1.79</time>
   <energy>
    <i name="e_fr_energy">    -24.26037218 </i>
    <i name="e_wo_entrp">    -24.26037218 </i>
    <i name="e_0_energy">    -24.26037218 </i>
   </energy>
  </scstep>
  <scstep>
   <time name="dav">    1.49    1.49</time>
   <time name="total">    1.63    1.64</time>
   <energy>
    <i name="e_fr_energy">    -24.26037416 </i>
    <i name="e_wo_entrp">    -24.26037416 </i>
    <i name="e_0_energy">    -24.26037416 </i>
   </energy>
  </scstep>
  <scstep>
   <time name="dav">    1.37    1.37</time>
   <time name="total">    1.40    1.40</time>
   <energy>
    <i name="alphaZ">     45.80336310 </i>
    <i name="ewald">   4891.78243333 </i>
    <i name="hartreedc">  -9680.81470637 </i>
    <i name="XCdc">    142.88150678 </i>
    <i name="pawpsdc">   5739.19474530 </i>
    <i name="pawaedc">  -6559.16217362 </i>
    <i name="eentropy">     -0.00000000 </i>
    <i name="bandstr">   -824.93176720 </i>
    <i name="atom">   6220.98622430 </i>
    <i name="e_fr_energy">    -24.26037437 </i>
    <i name="e_wo_entrp">    -24.26037437 </i>
    <i name="e_0_energy">    -24.26037437 </i>
   </energy>
  </scstep>
  <structure>
   <crystal>
    <varray name="basis" >
     <v>       4.97912400       0.00000000       0.00000000 </v>
     <v>       0.00000000       5.57120200       0.00000000 </v>
     <v>       0.00000000       0.00000000      18.07929100 </v>
    </varray>
    <i name="volume">    501.51420956 </i>
    <varray name="rec_basis" >
     <v>       0.20083854       0.00000000       0.00000000 </v>
     <v>       0.00000000       0.17949448       0.00000000 </v>
     <v>       0.00000000       0.00000000       0.05531190 </v>
    </varray>
   </crystal>
   <varray name="positions" >
    <v>       0.50000000       0.50000000       0.50000000 </v>
    <v>       0.00000000      -0.00000000       0.50000000 </v>
    <v>       0.25000000       0.25000000       0.41537798 </v>
    <v>       0.75000000       0.75000000       0.41537798 </v>
    <v>       0.75000000       0.25000000       0.58462202 </v>
    <v>       0.25000000       0.75000000       0.58462202 </v>
   </varray>
  </structure>
  <varray name="forces" >
   <v>       0.00000000       0.00000000       0.00000000 </v>
   <v>       0.00000000      -0.00000000       0.00000000 </v>
   <v>       0.00000000      -0.00000000      -0.00055740 </v>
   <v>      -0.00000000      -0.00000000      -0.00055740 </v>
   <v>       0.00000000      -0.00000000       0.00055740 </v>
   <v>       0.00000000      -0.00000000       0.00055740 </v>
  </varray>
  <varray name="stress" >
   <v>      -1.73110235       0.00000000       0.00000000 </v>
   <v>       0.00000000      -2.17779978       0.00000000 </v>
   <v>       0.00000000       0.00000000      -0.07281217 </v>
  </varray>
  <energy>
   <i name="e_fr_energy">    -24.26037437 </i>
   <i name="e_wo_entrp">    -24.26037437 </i>
   <i name="e_0_energy">     -0.00000000 </i>
  </energy>
  <time name="totalsc">   12.10   12.11</time>
  <eigenvalues>
   <array>
    <dimension dim="1">band</dimension>
    <dimension dim="2">kpoint</dimension>
    <dimension dim="3">spin</dimension>
    <field>eigene</field>
    <field>occ</field>
    <set>
     <set comment="spin 1">
      <set comment="kpoint 1">
       <r>  -27.8512    1.0000 </r>
       <r>  -27.8478    1.0000 </r>
       <r>  -27.8436    1.0000 </r>
       <r>  -27.8397    1.0000 </r>
       <r>  -27.8389    1.0000 </r>
       <r>  -27.8266    1.0000 </r>
       <r>  -27.8216    1.0000 </r>
       <r>  -27.8180    1.0000 </r>
       <r>  -27.8048    1.0000 </r>
       <r>  -27.7992    1.0000 </r>
       <r>  -16.9006    1.0000 </r>
       <r>  -15.4019    1.0000 </r>
       <r>  -15.0031    1.0000 </r>
       <r>  -14.8203    1.0000 </r>
       <r>  -11.8398    1.0000 </r>
       <r>   -9.2337    1.0000 </r>
       <r>   -7.4677    1.0000 </r>
       <r>   -5.8959    1.0000 </r>
       <r>   -5.5542    1.0000 </r>
       <r>   -5.5280    1.0000 </r>
       <r>   -5.3286    1.0000 </r>
       <r>   -5.1562    1.0000 </r>
       <r>   -4.6541    1.0000 </r>
       <r>   -4.1730    1.0000 </r>
       <r>   -2.9071    1.0000 </r>
       <r>   -2.8704    1.0000 </r>
       <r>   -1.9479    0.0000 </r>
       <r>   -1.3957    0.0000 </r>
       <r>   -1.0262    0.0000 </r>
       <r>    0.1469    0.0000 </r>
       <r>    0.6110    0.0000 </r>
       <r>    1.9115    0.0000 </r>
      </set>
      <set comment="kpoint 2">
       <r>  -27.8511    1.0000 </r>
       <r>  -27.8477    1.0000 </r>
       <r>  -27.8436    1.0000 </r>
       <r>  -27.8399    1.0000 </r>
       <r>  -27.8388    1.0000 </r>
       <r>  -27.8265    1.0000 </r>
       <r>  -27.8217    1.0000 </r>
       <r>  -27.8182    1.0000 </r>
       <r>  -27.8047    1.0000 </r>
       <r>  -27.7992    1.0000 </r>
       <r>  -16.8845    1.0000 </r>
       <r>  -15.3961    1.0000 </r>
       <r>  -15.0056    1.0000 </r>
       <r>  -14.8584    1.0000 </r>
       <r>  -11.7972    1.0000 </r>
       <r>   -9.2504    1.0000 </r>
       <r>   -7.4662    1.0000 </r>
       <r>   -5.8890    1.0000 </r>
       <r>   -5.6335    1.0000 </r>
       <r>   -5.6015    1.0000 </r>
       <r>   -5.3843    1.0000 </r>
       <r>   -5.0682    1.0000 </r>
       <r>   -4.6518    1.0000 </r>
       <r>   -4.1576    1.0000 </r>
       <r>   -2.9632    1.0000 </r>
       <r>   -2.8984    1.0000 </r>
       <r>   -1.8520    0.0000 </r>
       <r>   -1.3908    0.0000 </r>
       <r>   -0.9196    0.0000 </r>
       <r>    0.1917    0.0000 </r>
       <r>    0.6547    0.0000 </r>
       <r>    1.9391    0.0000 </r>
      </set>
      <set comment="kpoint 3">
       <r>  -27.8507    1.0000 </r>
       <r>  -27.8476    1.0000 </r>
       <r>  -27.8434    1.0000 </r>
       <r>  -27.8402    1.0000 </r>
       <r>  -27.8384    1.0000 </r>
       <r>  -27.8263    1.0000 </r>
       <r>  -27.8218    1.0000 </r>
       <r>  -27.8190    1.0000 </r>
       <r>  -27.8045    1.0000 </r>
       <r>  -27.7994    1.0000 </r>
       <r>  -16.8366    1.0000 </r>
       <r>  -15.3791    1.0000 </r>
       <r>  -15.0132    1.0000 </r>
       <r>  -14.9660    1.0000 </r>
       <r>  -11.6758    1.0000 </r>
       <r>   -9.3021    1.0000 </r>
       <r>   -7.4606    1.0000 </r>
       <r>   -5.8657    1.0000 </r>
       <r>   -5.7921    1.0000 </r>
       <r>   -5.7756    1.0000 </r>
       <r>   -5.5281    1.0000 </r>
       <r>   -4.9030    1.0000 </r>
       <r>   -4.6601    1.0000 </r>
       <r>   -4.1135    1.0000 </r>
       <r>   -3.1087    1.0000 </r>
       <r>   -2.9739    1.0000 </r>
       <r>   -1.6026    0.0000 </r>
       <r>   -1.3662    0.0000 </r>
       <r>   -0.6193    0.0000 </r>
       <r>    0.3170    0.0000 </r>
       <r>    0.7762    0.0000 </r>
       <r>    1.9672    0.0000 </r>
      </set>
      <set comment="kpoint 4">
       <r>  -27.8501    1.0000 </r>
       <r>  -27.8473    1.0000 </r>
       <r>  -27.8434    1.0000 </r>
       <r>  -27.8408    1.0000 </r>
       <r>  -27.8377    1.0000 </r>
       <r>  -27.8260    1.0000 </r>
       <r>  -27.8220    1.0000 </r>
       <r>  -27.8202    1.0000 </r>
       <r>  -27.8042    1.0000 </r>
       <r>  -27.7997    1.0000 </r>
       <r>  -16.7575    1.0000 </r>
       <r>  -15.3520    1.0000 </r>
       <r>  -15.1264    1.0000 </r>
       <r>  -15.0265    1.0000 </r>
       <r>  -11.4913    1.0000 </r>
       <r>   -9.3930    1.0000 </r>
       <r>   -7.4471    1.0000 </r>
       <r>   -6.0451    1.0000 </r>
       <r>   -5.9112    1.0000 </r>
       <r>   -5.8205    1.0000 </r>
       <r>   -5.7108    1.0000 </r>
       <r>   -4.7380    1.0000 </r>
       <r>   -4.7006    1.0000 </r>
       <r>   -4.0455    1.0000 </r>
       <r>   -3.3060    1.0000 </r>
       <r>   -3.0791    1.0000 </r>
       <r>   -1.3010    0.0000 </r>
       <r>   -1.2714    0.0000 </r>
       <r>   -0.1681    0.0000 </r>
       <r>    0.5006    0.0000 </r>
       <r>    0.9463    0.0000 </r>
       <r>    1.8028    0.0000 </r>
      </set>
      <set comment="kpoint 5">
       <r>  -27.8493    1.0000 </r>
       <r>  -27.8469    1.0000 </r>
       <r>  -27.8435    1.0000 </r>
       <r>  -27.8417    1.0000 </r>
       <r>  -27.8365    1.0000 </r>
       <r>  -27.8256    1.0000 </r>
       <r>  -27.8223    1.0000 </r>
       <r>  -27.8218    1.0000 </r>
       <r>  -27.8038    1.0000 </r>
       <r>  -27.8000    1.0000 </r>
       <r>  -16.6487    1.0000 </r>
       <r>  -15.3209    1.0000 </r>
       <r>  -15.3166    1.0000 </r>
       <r>  -15.0460    1.0000 </r>
       <r>  -11.2616    1.0000 </r>
       <r>   -9.5270    1.0000 </r>
       <r>   -7.4195    1.0000 </r>
       <r>   -6.3170    1.0000 </r>
       <r>   -6.0233    1.0000 </r>
       <r>   -5.8876    1.0000 </r>
       <r>   -5.7481    1.0000 </r>
       <r>   -4.7813    1.0000 </r>
       <r>   -4.5949    1.0000 </r>
       <r>   -3.9594    1.0000 </r>
       <r>   -3.5243    1.0000 </r>
       <r>   -3.1965    1.0000 </r>
       <r>   -1.1801    0.0000 </r>
       <r>   -0.9278    0.0000 </r>
       <r>    0.3902    0.0000 </r>
       <r>    0.7143    0.0000 </r>
       <r>    1.1181    0.0000 </r>
       <r>    1.6397    0.0000 </r>
      </set>
      <set comment="kpoint 6">
       <r>  -27.8484    1.0000 </r>
       <r>  -27.8464    1.0000 </r>
       <r>  -27.8438    1.0000 </r>
       <r>  -27.8426    1.0000 </r>
       <r>  -27.8348    1.0000 </r>
       <r>  -27.8252    1.0000 </r>
       <r>  -27.8238    1.0000 </r>
       <r>  -27.8227    1.0000 </r>
       <r>  -27.8033    1.0000 </r>
       <r>  -27.8005    1.0000 </r>
       <r>  -16.5119    1.0000 </r>
       <r>  -15.5334    1.0000 </r>
       <r>  -15.2753    1.0000 </r>
       <r>  -15.0721    1.0000 </r>
       <r>  -11.0023    1.0000 </r>
       <r>   -9.7056    1.0000 </r>
       <r>   -7.3697    1.0000 </r>
       <r>   -6.5796    1.0000 </r>
       <r>   -6.1076    1.0000 </r>
       <r>   -6.0303    1.0000 </r>
       <r>   -5.6464    1.0000 </r>
       <r>   -4.8994    1.0000 </r>
       <r>   -4.4742    1.0000 </r>
       <r>   -3.8614    1.0000 </r>
       <r>   -3.7401    1.0000 </r>
       <r>   -3.3145    1.0000 </r>
       <r>   -1.0058    0.0000 </r>
       <r>   -0.6408    0.0000 </r>
       <r>    0.9261    0.0000 </r>
       <r>    1.0167    0.0000 </r>
       <r>    1.2438    0.0000 </r>
       <r>    1.5137    0.0000 </r>
      </set>
      <set comment="kpoint 7">
       <r>  -27.8473    1.0000 </r>
       <r>  -27.8459    1.0000 </r>
       <r>  -27.8443    1.0000 </r>
       <r>  -27.8437    1.0000 </r>
       <r>  -27.8328    1.0000 </r>
       <r>  -27.8260    1.0000 </r>
       <r>  -27.8247    1.0000 </r>
       <r>  -27.8231    1.0000 </r>
       <r>  -27.8028    1.0000 </r>
       <r>  -27.8010    1.0000 </r>
       <r>  -16.3499    1.0000 </r>
       <r>  -15.7512    1.0000 </r>
       <r>  -15.2307    1.0000 </r>
       <r>  -15.1047    1.0000 </r>
       <r>  -10.7268    1.0000 </r>
       <r>   -9.9247    1.0000 </r>
       <r>   -7.2896    1.0000 </r>
       <r>   -6.8153    1.0000 </r>
       <r>   -6.1630    1.0000 </r>
       <r>   -6.1272    1.0000 </r>
       <r>   -5.5176    1.0000 </r>
       <r>   -5.0456    1.0000 </r>
       <r>   -4.3635    1.0000 </r>
       <r>   -3.9368    1.0000 </r>
       <r>   -3.7566    1.0000 </r>
       <r>   -3.4286    1.0000 </r>
       <r>   -0.8002    0.0000 </r>
       <r>   -0.4777    0.0000 </r>
       <r>    1.1025    0.0000 </r>
       <r>    1.3066    0.0000 </r>
       <r>    1.3837    0.0000 </r>
       <r>    1.3956    0.0000 </r>
      </set>
      <set comment="kpoint 8">
       <r>  -27.8461    1.0000 </r>
       <r>  -27.8454    1.0000 </r>
       <r>  -27.8449    1.0000 </r>
       <r>  -27.8448    1.0000 </r>
       <r>  -27.8306    1.0000 </r>
       <r>  -27.8283    1.0000 </r>
       <r>  -27.8241    1.0000 </r>
       <r>  -27.8236    1.0000 </r>
       <r>  -27.8022    1.0000 </r>
       <r>  -27.8016    1.0000 </r>
       <r>  -16.1659    1.0000 </r>
       <r>  -15.9644    1.0000 </r>
       <r>  -15.1858    1.0000 </r>
       <r>  -15.1431    1.0000 </r>
       <r>  -10.4473    1.0000 </r>
       <r>  -10.1758    1.0000 </r>
       <r>   -7.1725    1.0000 </r>
       <r>   -7.0144    1.0000 </r>
       <r>   -6.1877    1.0000 </r>
       <r>   -6.1778    1.0000 </r>
       <r>   -5.3678    1.0000 </r>
       <r>   -5.2063    1.0000 </r>
       <r>   -4.2454    1.0000 </r>
       <r>   -4.1056    1.0000 </r>
       <r>   -3.6486    1.0000 </r>
       <r>   -3.5394    1.0000 </r>
       <r>   -0.6037    0.0000 </r>
       <r>   -0.4747    0.0000 </r>
       <r>    1.2219    0.0000 </r>
       <r>    1.2980    0.0000 </r>
       <r>    1.3311    0.0000 </r>
       <r>    1.3542    0.0000 </r>
      </set>
      <set comment="kpoint 9">
       <r>  -27.8511    1.0000 </r>
       <r>  -27.8477    1.0000 </r>
       <r>  -27.8437    1.0000 </r>
       <r>  -27.8395    1.0000 </r>
       <r>  -27.8390    1.0000 </r>
       <r>  -27.8265    1.0000 </r>
       <r>  -27.8217    1.0000 </r>
       <r>  -27.8183    1.0000 </r>
       <r>  -27.8047    1.0000 </r>
       <r>  -27.7993    1.0000 </r>
       <r>  -16.8821    1.0000 </r>
       <r>  -15.3936    1.0000 </r>
       <r>  -15.0521    1.0000 </r>
       <r>  -14.8288    1.0000 </r>
       <r>  -11.7783    1.0000 </r>
       <r>   -9.2537    1.0000 </r>
       <r>   -7.4556    1.0000 </r>
       <r>   -5.9211    1.0000 </r>
       <r>   -5.5844    1.0000 </r>
       <r>   -5.5450    1.0000 </r>
       <r>   -5.4101    1.0000 </r>
       <r>   -5.1198    1.0000 </r>
       <r>   -4.6514    1.0000 </r>
       <r>   -4.1438    1.0000 </r>
       <r>   -2.9381    1.0000 </r>
       <r>   -2.9360    1.0000 </r>
       <r>   -1.8332    0.0000 </r>
       <r>   -1.3743    0.0000 </r>
       <r>   -0.8984    0.0000 </r>
       <r>    0.1667    0.0000 </r>
       <r>    0.6449    0.0000 </r>
       <r>    1.9383    0.0000 </r>
      </set>
      <set comment="kpoint 10">
       <r>  -27.8510    1.0000 </r>
       <r>  -27.8476    1.0000 </r>
       <r>  -27.8437    1.0000 </r>
       <r>  -27.8396    1.0000 </r>
       <r>  -27.8389    1.0000 </r>
       <r>  -27.8264    1.0000 </r>
       <r>  -27.8218    1.0000 </r>
       <r>  -27.8186    1.0000 </r>
       <r>  -27.8046    1.0000 </r>
       <r>  -27.7993    1.0000 </r>
       <r>  -16.8663    1.0000 </r>
       <r>  -15.3880    1.0000 </r>
       <r>  -15.0585    1.0000 </r>
       <r>  -14.8602    1.0000 </r>
       <r>  -11.7395    1.0000 </r>
       <r>   -9.2719    1.0000 </r>
       <r>   -7.4510    1.0000 </r>
       <r>   -5.9283    1.0000 </r>
       <r>   -5.7164    1.0000 </r>
       <r>   -5.6060    1.0000 </r>
       <r>   -5.3792    1.0000 </r>
       <r>   -5.0372    1.0000 </r>
       <r>   -4.6561    1.0000 </r>
       <r>   -4.1294    1.0000 </r>
       <r>   -3.0676    1.0000 </r>
       <r>   -2.8737    1.0000 </r>
       <r>   -1.7930    0.0000 </r>
       <r>   -1.3683    0.0000 </r>
       <r>   -0.7692    0.0000 </r>
       <r>    0.2097    0.0000 </r>
       <r>    0.6876    0.0000 </r>
       <r>    1.9080    0.0000 </r>
      </set>
      <set comment="kpoint 11">
       <r>  -27.8507    1.0000 </r>
       <r>  -27.8474    1.0000 </r>
       <r>  -27.8436    1.0000 </r>
       <r>  -27.8399    1.0000 </r>
       <r>  -27.8385    1.0000 </r>
       <r>  -27.8262    1.0000 </r>
       <r>  -27.8219    1.0000 </r>
       <r>  -27.8192    1.0000 </r>
       <r>  -27.8045    1.0000 </r>
       <r>  -27.7995    1.0000 </r>
       <r>  -16.8189    1.0000 </r>
       <r>  -15.3716    1.0000 </r>
       <r>  -15.0872    1.0000 </r>
       <r>  -14.9393    1.0000 </r>
       <r>  -11.6287    1.0000 </r>
       <r>   -9.3280    1.0000 </r>
       <r>   -7.4369    1.0000 </r>
       <r>   -5.9613    1.0000 </r>
       <r>   -5.9519    1.0000 </r>
       <r>   -5.6913    1.0000 </r>
       <r>   -5.4214    1.0000 </r>
       <r>   -4.8771    1.0000 </r>
       <r>   -4.6758    1.0000 </r>
       <r>   -4.0870    1.0000 </r>
       <r>   -3.2421    1.0000 </r>
       <r>   -2.8875    1.0000 </r>
       <r>   -1.6479    0.0000 </r>
       <r>   -1.3415    0.0000 </r>
       <r>   -0.4325    0.0000 </r>
       <r>    0.3292    0.0000 </r>
       <r>    0.8075    0.0000 </r>
       <r>    1.7817    0.0000 </r>
      </set>
      <set comment="kpoint 12">
       <r>  -27.8502    1.0000 </r>
       <r>  -27.8470    1.0000 </r>
       <r>  -27.8437    1.0000 </r>
       <r>  -27.8404    1.0000 </r>
       <r>  -27.8377    1.0000 </r>
       <r>  -27.8259    1.0000 </r>
       <r>  -27.8223    1.0000 </r>
       <r>  -27.8203    1.0000 </r>
       <r>  -27.8042    1.0000 </r>
       <r>  -27.7997    1.0000 </r>
       <r>  -16.7408    1.0000 </r>
       <r>  -15.3454    1.0000 </r>
       <r>  -15.1807    1.0000 </r>
       <r>  -15.0097    1.0000 </r>
       <r>  -11.4591    1.0000 </r>
       <r>   -9.4251    1.0000 </r>
       <r>   -7.4111    1.0000 </r>
       <r>   -6.2019    1.0000 </r>
       <r>   -6.0322    1.0000 </r>
       <r>   -5.7149    1.0000 </r>
       <r>   -5.5553    1.0000 </r>
       <r>   -4.7261    1.0000 </r>
       <r>   -4.7163    1.0000 </r>
       <r>   -4.0187    1.0000 </r>
       <r>   -3.4359    1.0000 </r>
       <r>   -2.9637    1.0000 </r>
       <r>   -1.3947    0.0000 </r>
       <r>   -1.2751    0.0000 </r>
       <r>    0.0304    0.0000 </r>
       <r>    0.5019    0.0000 </r>
       <r>    0.9786    0.0000 </r>
       <r>    1.6215    0.0000 </r>
      </set>
      <set comment="kpoint 13">
       <r>  -27.8495    1.0000 </r>
       <r>  -27.8465    1.0000 </r>
       <r>  -27.8441    1.0000 </r>
       <r>  -27.8411    1.0000 </r>
       <r>  -27.8365    1.0000 </r>
       <r>  -27.8255    1.0000 </r>
       <r>  -27.8230    1.0000 </r>
       <r>  -27.8215    1.0000 </r>
       <r>  -27.8038    1.0000 </r>
       <r>  -27.8001    1.0000 </r>
       <r>  -16.6333    1.0000 </r>
       <r>  -15.3477    1.0000 </r>
       <r>  -15.3113    1.0000 </r>
       <r>  -15.0463    1.0000 </r>
       <r>  -11.2463    1.0000 </r>
       <r>   -9.5659    1.0000 </r>
       <r>   -7.3705    1.0000 </r>
       <r>   -6.4359    1.0000 </r>
       <r>   -6.1112    1.0000 </r>
       <r>   -5.7320    1.0000 </r>
       <r>   -5.6815    1.0000 </r>
       <r>   -4.8172    1.0000 </r>
       <r>   -4.5781    1.0000 </r>
       <r>   -3.9288    1.0000 </r>
       <r>   -3.6292    1.0000 </r>
       <r>   -3.0764    1.0000 </r>
       <r>   -1.1565    0.0000 </r>
       <r>   -1.0842    0.0000 </r>
       <r>    0.5613    0.0000 </r>
       <r>    0.6986    0.0000 </r>
       <r>    1.1578    0.0000 </r>
       <r>    1.4779    0.0000 </r>
      </set>
      <set comment="kpoint 14">
       <r>  -27.8487    1.0000 </r>
       <r>  -27.8459    1.0000 </r>
       <r>  -27.8446    1.0000 </r>
       <r>  -27.8418    1.0000 </r>
       <r>  -27.8349    1.0000 </r>
       <r>  -27.8250    1.0000 </r>
       <r>  -27.8245    1.0000 </r>
       <r>  -27.8223    1.0000 </r>
       <r>  -27.8033    1.0000 </r>
       <r>  -27.8005    1.0000 </r>
       <r>  -16.4985    1.0000 </r>
       <r>  -15.5465    1.0000 </r>
       <r>  -15.2717    1.0000 </r>
       <r>  -15.0761    1.0000 </r>
       <r>  -11.0041    1.0000 </r>
       <r>   -9.7493    1.0000 </r>
       <r>   -7.3108    1.0000 </r>
       <r>   -6.6439    1.0000 </r>
       <r>   -6.1697    1.0000 </r>
       <r>   -5.9058    1.0000 </r>
       <r>   -5.6109    1.0000 </r>
       <r>   -4.9443    1.0000 </r>
       <r>   -4.4624    1.0000 </r>
       <r>   -3.8234    1.0000 </r>
       <r>   -3.8102    1.0000 </r>
       <r>   -3.2046    1.0000 </r>
       <r>   -0.9906    0.0000 </r>
       <r>   -0.7916    0.0000 </r>
       <r>    0.8888    0.0000 </r>
       <r>    1.0994    0.0000 </r>
       <r>    1.2972    0.0000 </r>
       <r>    1.3964    0.0000 </r>
      </set>
      <set comment="kpoint 15">
       <r>  -27.8479    1.0000 </r>
       <r>  -27.8453    1.0000 </r>
       <r>  -27.8452    1.0000 </r>
       <r>  -27.8427    1.0000 </r>
       <r>  -27.8330    1.0000 </r>
       <r>  -27.8264    1.0000 </r>
       <r>  -27.8245    1.0000 </r>
       <r>  -27.8228    1.0000 </r>
       <r>  -27.8027    1.0000 </r>
       <r>  -27.8010    1.0000 </r>
       <r>  -16.3392    1.0000 </r>
       <r>  -15.7553    1.0000 </r>
       <r>  -15.2291    1.0000 </r>
       <r>  -15.1086    1.0000 </r>
       <r>  -10.7445    1.0000 </r>
       <r>   -9.9694    1.0000 </r>
       <r>   -7.2278    1.0000 </r>
       <r>   -6.8259    1.0000 </r>
       <r>   -6.1973    1.0000 </r>
       <r>   -6.0464    1.0000 </r>
       <r>   -5.5112    1.0000 </r>
       <r>   -5.0924    1.0000 </r>
       <r>   -4.3565    1.0000 </r>
       <r>   -3.9741    1.0000 </r>
       <r>   -3.7086    1.0000 </r>
       <r>   -3.3355    1.0000 </r>
       <r>   -0.8024    0.0000 </r>
       <r>   -0.5958    0.0000 </r>
       <r>    1.0470    0.0000 </r>
       <r>    1.2782    0.0000 </r>
       <r>    1.3709    0.0000 </r>
       <r>    1.4646    0.0000 </r>
      </set>
      <set comment="kpoint 16">
       <r>  -27.8470    1.0000 </r>
       <r>  -27.8461    1.0000 </r>
       <r>  -27.8444    1.0000 </r>
       <r>  -27.8435    1.0000 </r>
       <r>  -27.8308    1.0000 </r>
       <r>  -27.8286    1.0000 </r>
       <r>  -27.8240    1.0000 </r>
       <r>  -27.8234    1.0000 </r>
       <r>  -27.8022    1.0000 </r>
       <r>  -27.8016    1.0000 </r>
       <r>  -16.1588    1.0000 </r>
       <r>  -15.9621    1.0000 </r>
       <r>  -15.1862    1.0000 </r>
       <r>  -15.1455    1.0000 </r>
       <r>  -10.4783    1.0000 </r>
       <r>  -10.2162    1.0000 </r>
       <r>   -7.1190    1.0000 </r>
       <r>   -6.9845    1.0000 </r>
       <r>   -6.1894    1.0000 </r>
       <r>   -6.1410    1.0000 </r>
       <r>   -5.3873    1.0000 </r>
       <r>   -5.2446    1.0000 </r>
       <r>   -4.2455    1.0000 </r>
       <r>   -4.1193    1.0000 </r>
       <r>   -3.5881    1.0000 </r>
       <r>   -3.4637    1.0000 </r>
       <r>   -0.6354    0.0000 </r>
       <r>   -0.5478    0.0000 </r>
       <r>    1.1664    0.0000 </r>
       <r>    1.2512    0.0000 </r>
       <r>    1.3877    0.0000 </r>
       <r>    1.3927    0.0000 </r>
      </set>
      <set comment="kpoint 17">
       <r>  -27.8507    1.0000 </r>
       <r>  -27.8473    1.0000 </r>
       <r>  -27.8439    1.0000 </r>
       <r>  -27.8394    1.0000 </r>
       <r>  -27.8387    1.0000 </r>
       <r>  -27.8263    1.0000 </r>
       <r>  -27.8219    1.0000 </r>
       <r>  -27.8193    1.0000 </r>
       <r>  -27.8045    1.0000 </r>
       <r>  -27.7995    1.0000 </r>
       <r>  -16.8270    1.0000 </r>
       <r>  -15.3692    1.0000 </r>
       <r>  -15.1868    1.0000 </r>
       <r>  -14.8538    1.0000 </r>
       <r>  -11.6065    1.0000 </r>
       <r>   -9.3163    1.0000 </r>
       <r>   -7.4179    1.0000 </r>
       <r>   -5.9845    1.0000 </r>
       <r>   -5.7280    1.0000 </r>
       <r>   -5.6174    1.0000 </r>
       <r>   -5.5158    1.0000 </r>
       <r>   -5.0221    1.0000 </r>
       <r>   -4.6622    1.0000 </r>
       <r>   -4.0620    1.0000 </r>
       <r>   -3.1050    1.0000 </r>
       <r>   -3.0083    1.0000 </r>
       <r>   -1.5443    0.0000 </r>
       <r>   -1.3070    0.0000 </r>
       <r>   -0.5443    0.0000 </r>
       <r>    0.2239    0.0000 </r>
       <r>    0.7380    0.0000 </r>
       <r>    1.8503    0.0000 </r>
      </set>
      <set comment="kpoint 18">
       <r>  -27.8507    1.0000 </r>
       <r>  -27.8472    1.0000 </r>
       <r>  -27.8439    1.0000 </r>
       <r>  -27.8393    1.0000 </r>
       <r>  -27.8388    1.0000 </r>
       <r>  -27.8262    1.0000 </r>
       <r>  -27.8220    1.0000 </r>
       <r>  -27.8195    1.0000 </r>
       <r>  -27.8044    1.0000 </r>
       <r>  -27.7996    1.0000 </r>
       <r>  -16.8117    1.0000 </r>
       <r>  -15.3642    1.0000 </r>
       <r>  -15.1956    1.0000 </r>
       <r>  -14.8757    1.0000 </r>
       <r>  -11.5779    1.0000 </r>
       <r>   -9.3388    1.0000 </r>
       <r>   -7.4050    1.0000 </r>
       <r>   -6.0100    1.0000 </r>
       <r>   -5.9364    1.0000 </r>
       <r>   -5.5521    1.0000 </r>
       <r>   -5.4562    1.0000 </r>
       <r>   -4.9505    1.0000 </r>
       <r>   -4.6773    1.0000 </r>
       <r>   -4.0489    1.0000 </r>
       <r>   -3.2448    1.0000 </r>
       <r>   -2.9093    1.0000 </r>
       <r>   -1.5969    0.0000 </r>
       <r>   -1.2986    0.0000 </r>
       <r>   -0.3830    0.0000 </r>
       <r>    0.2612    0.0000 </r>
       <r>    0.7788    0.0000 </r>
       <r>    1.7272    0.0000 </r>
      </set>
      <set comment="kpoint 19">
       <r>  -27.8505    1.0000 </r>
       <r>  -27.8468    1.0000 </r>
       <r>  -27.8441    1.0000 </r>
       <r>  -27.8392    1.0000 </r>
       <r>  -27.8386    1.0000 </r>
       <r>  -27.8260    1.0000 </r>
       <r>  -27.8224    1.0000 </r>
       <r>  -27.8199    1.0000 </r>
       <r>  -27.8042    1.0000 </r>
       <r>  -27.7997    1.0000 </r>
       <r>  -16.7660    1.0000 </r>
       <r>  -15.3494    1.0000 </r>
       <r>  -15.2278    1.0000 </r>
       <r>  -14.9323    1.0000 </r>
       <r>  -11.4954    1.0000 </r>
       <r>   -9.4066    1.0000 </r>
       <r>   -7.3671    1.0000 </r>
       <r>   -6.1919    1.0000 </r>
       <r>   -6.0839    1.0000 </r>
       <r>   -5.5979    1.0000 </r>
       <r>   -5.3472    1.0000 </r>
       <r>   -4.8043    1.0000 </r>
       <r>   -4.7219    1.0000 </r>
       <r>   -4.0077    1.0000 </r>
       <r>   -3.4374    1.0000 </r>
       <r>   -2.8346    1.0000 </r>
       <r>   -1.6418    0.0000 </r>
       <r>   -1.2670    0.0000 </r>
       <r>   -0.0115    0.0000 </r>
       <r>    0.3633    0.0000 </r>
       <r>    0.8956    0.0000 </r>
       <r>    1.5661    0.0000 </r>
      </set>
      <set comment="kpoint 20">
       <r>  -27.8503    1.0000 </r>
       <r>  -27.8463    1.0000 </r>
       <r>  -27.8445    1.0000 </r>
       <r>  -27.8395    1.0000 </r>
       <r>  -27.8378    1.0000 </r>
       <r>  -27.8256    1.0000 </r>
       <r>  -27.8230    1.0000 </r>
       <r>  -27.8205    1.0000 </r>
       <r>  -27.8039    1.0000 </r>
       <r>  -27.7999    1.0000 </r>
       <r>  -16.6908    1.0000 </r>
       <r>  -15.3261    1.0000 </r>
       <r>  -15.2996    1.0000 </r>
       <r>  -14.9981    1.0000 </r>
       <r>  -11.3662    1.0000 </r>
       <r>   -9.5201    1.0000 </r>
       <r>   -7.3065    1.0000 </r>
       <r>   -6.4201    1.0000 </r>
       <r>   -6.1818    1.0000 </r>
       <r>   -5.6069    1.0000 </r>
       <r>   -5.3601    1.0000 </r>
       <r>   -4.7999    1.0000 </r>
       <r>   -4.6585    1.0000 </r>
       <r>   -3.9343    1.0000 </r>
       <r>   -3.6228    1.0000 </r>
       <r>   -2.8311    1.0000 </r>
       <r>   -1.5662    0.0000 </r>
       <r>   -1.1997    0.0000 </r>
       <r>    0.4360    0.0000 </r>
       <r>    0.5063    0.0000 </r>
       <r>    1.0694    0.0000 </r>
       <r>    1.4256    0.0000 </r>
      </set>
      <set comment="kpoint 21">
       <r>  -27.8499    1.0000 </r>
       <r>  -27.8457    1.0000 </r>
       <r>  -27.8451    1.0000 </r>
       <r>  -27.8400    1.0000 </r>
       <r>  -27.8366    1.0000 </r>
       <r>  -27.8252    1.0000 </r>
       <r>  -27.8242    1.0000 </r>
       <r>  -27.8212    1.0000 </r>
       <r>  -27.8036    1.0000 </r>
       <r>  -27.8002    1.0000 </r>
       <r>  -16.5877    1.0000 </r>
       <r>  -15.4230    1.0000 </r>
       <r>  -15.2960    1.0000 </r>
       <r>  -15.0495    1.0000 </r>
       <r>  -11.1998    1.0000 </r>
       <r>   -9.6772    1.0000 </r>
       <r>   -7.2284    1.0000 </r>
       <r>   -6.6044    1.0000 </r>
       <r>   -6.2652    1.0000 </r>
       <r>   -5.5860    1.0000 </r>
       <r>   -5.4743    1.0000 </r>
       <r>   -4.9172    1.0000 </r>
       <r>   -4.5394    1.0000 </r>
       <r>   -3.8296    1.0000 </r>
       <r>   -3.7847    1.0000 </r>
       <r>   -2.8919    1.0000 </r>
       <r>   -1.3691    0.0000 </r>
       <r>   -1.0911    0.0000 </r>
       <r>    0.6647    0.0000 </r>
       <r>    0.8611    0.0000 </r>
       <r>    1.2613    0.0000 </r>
       <r>    1.3632    0.0000 </r>
      </set>
      <set comment="kpoint 22">
       <r>  -27.8494    1.0000 </r>
       <r>  -27.8457    1.0000 </r>
       <r>  -27.8449    1.0000 </r>
       <r>  -27.8407    1.0000 </r>
       <r>  -27.8351    1.0000 </r>
       <r>  -27.8257    1.0000 </r>
       <r>  -27.8247    1.0000 </r>
       <r>  -27.8217    1.0000 </r>
       <r>  -27.8031    1.0000 </r>
       <r>  -27.8006    1.0000 </r>
       <r>  -16.4590    1.0000 </r>
       <r>  -15.5859    1.0000 </r>
       <r>  -15.2613    1.0000 </r>
       <r>  -15.0869    1.0000 </r>
       <r>  -11.0047    1.0000 </r>
       <r>   -9.8707    1.0000 </r>
       <r>   -7.1419    1.0000 </r>
       <r>   -6.7427    1.0000 </r>
       <r>   -6.3038    1.0000 </r>
       <r>   -5.6474    1.0000 </r>
       <r>   -5.5464    1.0000 </r>
       <r>   -5.0602    1.0000 </r>
       <r>   -4.4430    1.0000 </r>
       <r>   -3.9233    1.0000 </r>
       <r>   -3.7025    1.0000 </r>
       <r>   -2.9972    1.0000 </r>
       <r>   -1.1142    0.0000 </r>
       <r>   -0.9536    0.0000 </r>
       <r>    0.8192    0.0000 </r>
       <r>    1.0714    0.0000 </r>
       <r>    1.4158    0.0000 </r>
       <r>    1.5481    0.0000 </r>
      </set>
      <set comment="kpoint 23">
       <r>  -27.8487    1.0000 </r>
       <r>  -27.8465    1.0000 </r>
       <r>  -27.8440    1.0000 </r>
       <r>  -27.8414    1.0000 </r>
       <r>  -27.8333    1.0000 </r>
       <r>  -27.8275    1.0000 </r>
       <r>  -27.8241    1.0000 </r>
       <r>  -27.8223    1.0000 </r>
       <r>  -27.8026    1.0000 </r>
       <r>  -27.8011    1.0000 </r>
       <r>  -16.3078    1.0000 </r>
       <r>  -15.7686    1.0000 </r>
       <r>  -15.2244    1.0000 </r>
       <r>  -15.1194    1.0000 </r>
       <r>  -10.7887    1.0000 </r>
       <r>  -10.0899    1.0000 </r>
       <r>   -7.0591    1.0000 </r>
       <r>   -6.8433    1.0000 </r>
       <r>   -6.2783    1.0000 </r>
       <r>   -5.8427    1.0000 </r>
       <r>   -5.4919    1.0000 </r>
       <r>   -5.2026    1.0000 </r>
       <r>   -4.3544    1.0000 </r>
       <r>   -4.0463    1.0000 </r>
       <r>   -3.5631    1.0000 </r>
       <r>   -3.1281    1.0000 </r>
       <r>   -0.8842    0.0000 </r>
       <r>   -0.8192    0.0000 </r>
       <r>    0.9610    0.0000 </r>
       <r>    1.1229    0.0000 </r>
       <r>    1.4867    0.0000 </r>
       <r>    1.5996    0.0000 </r>
      </set>
      <set comment="kpoint 24">
       <r>  -27.8480    1.0000 </r>
       <r>  -27.8473    1.0000 </r>
       <r>  -27.8431    1.0000 </r>
       <r>  -27.8423    1.0000 </r>
       <r>  -27.8314    1.0000 </r>
       <r>  -27.8294    1.0000 </r>
       <r>  -27.8235    1.0000 </r>
       <r>  -27.8229    1.0000 </r>
       <r>  -27.8021    1.0000 </r>
       <r>  -27.8016    1.0000 </r>
       <r>  -16.1383    1.0000 </r>
       <r>  -15.9561    1.0000 </r>
       <r>  -15.1876    1.0000 </r>
       <r>  -15.1524    1.0000 </r>
       <r>  -10.5590    1.0000 </r>
       <r>  -10.3230    1.0000 </r>
       <r>   -6.9868    1.0000 </r>
       <r>   -6.9195    1.0000 </r>
       <r>   -6.1830    1.0000 </r>
       <r>   -6.0301    1.0000 </r>
       <r>   -5.4199    1.0000 </r>
       <r>   -5.3245    1.0000 </r>
       <r>   -4.2613    1.0000 </r>
       <r>   -4.1587    1.0000 </r>
       <r>   -3.4180    1.0000 </r>
       <r>   -3.2712    1.0000 </r>
       <r>   -0.7491    0.0000 </r>
       <r>   -0.7352    0.0000 </r>
       <r>    1.0859    0.0000 </r>
       <r>    1.1518    0.0000 </r>
       <r>    1.4755    0.0000 </r>
       <r>    1.4778    0.0000 </r>
      </set>
      <set comment="kpoint 25">
       <r>  -27.8502    1.0000 </r>
       <r>  -27.8467    1.0000 </r>
       <r>  -27.8443    1.0000 </r>
       <r>  -27.8400    1.0000 </r>
       <r>  -27.8374    1.0000 </r>
       <r>  -27.8259    1.0000 </r>
       <r>  -27.8222    1.0000 </r>
       <r>  -27.8208    1.0000 </r>
       <r>  -27.8041    1.0000 </r>
       <r>  -27.7999    1.0000 </r>
       <r>  -16.7361    1.0000 </r>
       <r>  -15.3796    1.0000 </r>
       <r>  -15.3299    1.0000 </r>
       <r>  -14.8939    1.0000 </r>
       <r>  -11.3536    1.0000 </r>
       <r>   -9.4277    1.0000 </r>
       <r>   -7.3511    1.0000 </r>
       <r>   -6.0642    1.0000 </r>
       <r>   -5.9048    1.0000 </r>
       <r>   -5.8888    1.0000 </r>
       <r>   -5.4630    1.0000 </r>
       <r>   -4.8828    1.0000 </r>
       <r>   -4.7081    1.0000 </r>
       <r>   -3.9421    1.0000 </r>
       <r>   -3.3258    1.0000 </r>
       <r>   -3.1000    1.0000 </r>
       <r>   -1.1875    0.0000 </r>
       <r>   -1.1721    0.0000 </r>
       <r>   -0.0220    0.0000 </r>
       <r>    0.3129    0.0000 </r>
       <r>    0.8665    0.0000 </r>
       <r>    1.5983    0.0000 </r>
      </set>
      <set comment="kpoint 26">
       <r>  -27.8502    1.0000 </r>
       <r>  -27.8465    1.0000 </r>
       <r>  -27.8444    1.0000 </r>
       <r>  -27.8399    1.0000 </r>
       <r>  -27.8374    1.0000 </r>
       <r>  -27.8258    1.0000 </r>
       <r>  -27.8225    1.0000 </r>
       <r>  -27.8208    1.0000 </r>
       <r>  -27.8040    1.0000 </r>
       <r>  -27.7999    1.0000 </r>
       <r>  -16.7217    1.0000 </r>
       <r>  -15.3863    1.0000 </r>
       <r>  -15.3259    1.0000 </r>
       <r>  -14.9091    1.0000 </r>
       <r>  -11.3389    1.0000 </r>
       <r>   -9.4560    1.0000 </r>
       <r>   -7.3269    1.0000 </r>
       <r>   -6.1661    1.0000 </r>
       <r>   -6.0964    1.0000 </r>
       <r>   -5.6278    1.0000 </r>
       <r>   -5.4900    1.0000 </r>
       <r>   -4.8222    1.0000 </r>
       <r>   -4.7320    1.0000 </r>
       <r>   -3.9279    1.0000 </r>
       <r>   -3.4474    1.0000 </r>
       <r>   -2.9942    1.0000 </r>
       <r>   -1.2840    0.0000 </r>
       <r>   -1.1774    0.0000 </r>
       <r>    0.1421    0.0000 </r>
       <r>    0.3404    0.0000 </r>
       <r>    0.9061    0.0000 </r>
       <r>    1.4981    0.0000 </r>
      </set>
      <set comment="kpoint 27">
       <r>  -27.8502    1.0000 </r>
       <r>  -27.8461    1.0000 </r>
       <r>  -27.8448    1.0000 </r>
       <r>  -27.8394    1.0000 </r>
       <r>  -27.8374    1.0000 </r>
       <r>  -27.8256    1.0000 </r>
       <r>  -27.8232    1.0000 </r>
       <r>  -27.8208    1.0000 </r>
       <r>  -27.8039    1.0000 </r>
       <r>  -27.8000    1.0000 </r>
       <r>  -16.6789    1.0000 </r>
       <r>  -15.4091    1.0000 </r>
       <r>  -15.3140    1.0000 </r>
       <r>  -14.9505    1.0000 </r>
       <r>  -11.2949    1.0000 </r>
       <r>   -9.5393    1.0000 </r>
       <r>   -7.2562    1.0000 </r>
       <r>   -6.4036    1.0000 </r>
       <r>   -6.1862    1.0000 </r>
       <r>   -5.5261    1.0000 </r>
       <r>   -5.4048    1.0000 </r>
       <r>   -4.8025    1.0000 </r>
       <r>   -4.6971    1.0000 </r>
       <r>   -3.8801    1.0000 </r>
       <r>   -3.6282    1.0000 </r>
       <r>   -2.8601    1.0000 </r>
       <r>   -1.4761    0.0000 </r>
       <r>   -1.1444    0.0000 </r>
       <r>    0.4147    0.0000 </r>
       <r>    0.4889    0.0000 </r>
       <r>    1.0218    0.0000 </r>
       <r>    1.3691    0.0000 </r>
      </set>
      <set comment="kpoint 28">
       <r>  -27.8502    1.0000 </r>
       <r>  -27.8454    1.0000 </r>
       <r>  -27.8454    1.0000 </r>
       <r>  -27.8391    1.0000 </r>
       <r>  -27.8372    1.0000 </r>
       <r>  -27.8252    1.0000 </r>
       <r>  -27.8243    1.0000 </r>
       <r>  -27.8209    1.0000 </r>
       <r>  -27.8036    1.0000 </r>
       <r>  -27.8002    1.0000 </r>
       <r>  -16.6087    1.0000 </r>
       <r>  -15.4559    1.0000 </r>
       <r>  -15.2955    1.0000 </r>
       <r>  -15.0058    1.0000 </r>
       <r>  -11.2221    1.0000 </r>
       <r>   -9.6726    1.0000 </r>
       <r>   -7.1448    1.0000 </r>
       <r>   -6.5916    1.0000 </r>
       <r>   -6.3055    1.0000 </r>
       <r>   -5.5340    1.0000 </r>
       <r>   -5.2765    1.0000 </r>
       <r>   -4.9150    1.0000 </r>
       <r>   -4.5802    1.0000 </r>
       <r>   -3.7896    1.0000 </r>
       <r>   -3.7884    1.0000 </r>
       <r>   -2.7771    1.0000 </r>
       <r>   -1.5913    0.0000 </r>
       <r>   -1.0845    0.0000 </r>
       <r>    0.5179    0.0000 </r>
       <r>    0.8254    0.0000 </r>
       <r>    1.1986    0.0000 </r>
       <r>    1.3192    0.0000 </r>
      </set>
      <set comment="kpoint 29">
       <r>  -27.8501    1.0000 </r>
       <r>  -27.8461    1.0000 </r>
       <r>  -27.8446    1.0000 </r>
       <r>  -27.8392    1.0000 </r>
       <r>  -27.8365    1.0000 </r>
       <r>  -27.8256    1.0000 </r>
       <r>  -27.8247    1.0000 </r>
       <r>  -27.8211    1.0000 </r>
       <r>  -27.8032    1.0000 </r>
       <r>  -27.8005    1.0000 </r>
       <r>  -16.5131    1.0000 </r>
       <r>  -15.5362    1.0000 </r>
       <r>  -15.2719    1.0000 </r>
       <r>  -15.0594    1.0000 </r>
       <r>  -11.1210    1.0000 </r>
       <r>   -9.8458    1.0000 </r>
       <r>   -7.0074    1.0000 </r>
       <r>   -6.7254    1.0000 </r>
       <r>   -6.4117    1.0000 </r>
       <r>   -5.5187    1.0000 </r>
       <r>   -5.2704    1.0000 </r>
       <r>   -5.0592    1.0000 </r>
       <r>   -4.4959    1.0000 </r>
       <r>   -3.9177    1.0000 </r>
       <r>   -3.6587    1.0000 </r>
       <r>   -2.7598    1.0000 </r>
       <r>   -1.5708    0.0000 </r>
       <r>   -1.0031    0.0000 </r>
       <r>    0.6366    0.0000 </r>
       <r>    0.9578    0.0000 </r>
       <r>    1.3975    0.0000 </r>
       <r>    1.4958    0.0000 </r>
      </set>
      <set comment="kpoint 30">
       <r>  -27.8498    1.0000 </r>
       <r>  -27.8469    1.0000 </r>
       <r>  -27.8437    1.0000 </r>
       <r>  -27.8396    1.0000 </r>
       <r>  -27.8352    1.0000 </r>
       <r>  -27.8271    1.0000 </r>
       <r>  -27.8242    1.0000 </r>
       <r>  -27.8214    1.0000 </r>
       <r>  -27.8028    1.0000 </r>
       <r>  -27.8008    1.0000 </r>
       <r>  -16.3948    1.0000 </r>
       <r>  -15.6517    1.0000 </r>
       <r>  -15.2452    1.0000 </r>
       <r>  -15.1020    1.0000 </r>
       <r>  -10.9926    1.0000 </r>
       <r>  -10.0451    1.0000 </r>
       <r>   -6.8851    1.0000 </r>
       <r>   -6.8095    1.0000 </r>
       <r>   -6.4470    1.0000 </r>
       <r>   -5.4921    1.0000 </r>
       <r>   -5.3906    1.0000 </r>
       <r>   -5.1987    1.0000 </r>
       <r>   -4.4330    1.0000 </r>
       <r>   -4.0258    1.0000 </r>
       <r>   -3.5037    1.0000 </r>
       <r>   -2.8060    1.0000 </r>
       <r>   -1.4278    0.0000 </r>
       <r>   -0.9222    0.0000 </r>
       <r>    0.7660    0.0000 </r>
       <r>    0.9727    0.0000 </r>
       <r>    1.5561    0.0000 </r>
       <r>    1.7852    0.0000 </r>
      </set>
      <set comment="kpoint 31">
       <r>  -27.8494    1.0000 </r>
       <r>  -27.8476    1.0000 </r>
       <r>  -27.8428    1.0000 </r>
       <r>  -27.8403    1.0000 </r>
       <r>  -27.8338    1.0000 </r>
       <r>  -27.8287    1.0000 </r>
       <r>  -27.8236    1.0000 </r>
       <r>  -27.8219    1.0000 </r>
       <r>  -27.8024    1.0000 </r>
       <r>  -27.8011    1.0000 </r>
       <r>  -16.2577    1.0000 </r>
       <r>  -15.7937    1.0000 </r>
       <r>  -15.2173    1.0000 </r>
       <r>  -15.1347    1.0000 </r>
       <r>  -10.8383    1.0000 </r>
       <r>  -10.2557    1.0000 </r>
       <r>   -6.8530    1.0000 </r>
       <r>   -6.8430    1.0000 </r>
       <r>   -6.3421    1.0000 </r>
       <r>   -5.6124    1.0000 </r>
       <r>   -5.4604    1.0000 </r>
       <r>   -5.2986    1.0000 </r>
       <r>   -4.3718    1.0000 </r>
       <r>   -4.1245    1.0000 </r>
       <r>   -3.3410    1.0000 </r>
       <r>   -2.9018    1.0000 </r>
       <r>   -1.2239    0.0000 </r>
       <r>   -0.8791    0.0000 </r>
       <r>    0.9036    0.0000 </r>
       <r>    1.0090    0.0000 </r>
       <r>    1.6090    0.0000 </r>
       <r>    1.6998    0.0000 </r>
      </set>
      <set comment="kpoint 32">
       <r>  -27.8489    1.0000 </r>
       <r>  -27.8483    1.0000 </r>
       <r>  -27.8419    1.0000 </r>
       <r>  -27.8410    1.0000 </r>
       <r>  -27.8321    1.0000 </r>
       <r>  -27.8305    1.0000 </r>
       <r>  -27.8230    1.0000 </r>
       <r>  -27.8224    1.0000 </r>
       <r>  -27.8020    1.0000 </r>
       <r>  -27.8015    1.0000 </r>
       <r>  -16.1069    1.0000 </r>
       <r>  -15.9493    1.0000 </r>
       <r>  -15.1897    1.0000 </r>
       <r>  -15.1627    1.0000 </r>
       <r>  -10.6607    1.0000 </r>
       <r>  -10.4642    1.0000 </r>
       <r>   -6.8649    1.0000 </r>
       <r>   -6.8548    1.0000 </r>
       <r>   -6.1282    1.0000 </r>
       <r>   -5.8721    1.0000 </r>
       <r>   -5.4221    1.0000 </r>
       <r>   -5.3706    1.0000 </r>
       <r>   -4.3006    1.0000 </r>
       <r>   -4.2171    1.0000 </r>
       <r>   -3.1808    1.0000 </r>
       <r>   -3.0312    1.0000 </r>
       <r>   -1.0330    0.0000 </r>
       <r>   -0.9109    0.0000 </r>
       <r>    1.0268    0.0000 </r>
       <r>    1.0601    0.0000 </r>
       <r>    1.5602    0.0000 </r>
       <r>    1.5664    0.0000 </r>
      </set>
      <set comment="kpoint 33">
       <r>  -27.8495    1.0000 </r>
       <r>  -27.8459    1.0000 </r>
       <r>  -27.8449    1.0000 </r>
       <r>  -27.8408    1.0000 </r>
       <r>  -27.8355    1.0000 </r>
       <r>  -27.8254    1.0000 </r>
       <r>  -27.8229    1.0000 </r>
       <r>  -27.8226    1.0000 </r>
       <r>  -27.8036    1.0000 </r>
       <r>  -27.8004    1.0000 </r>
       <r>  -16.6110    1.0000 </r>
       <r>  -15.6027    1.0000 </r>
       <r>  -15.2780    1.0000 </r>
       <r>  -14.9467    1.0000 </r>
       <r>  -11.0509    1.0000 </r>
       <r>   -9.5940    1.0000 </r>
       <r>   -7.2505    1.0000 </r>
       <r>   -6.1789    1.0000 </r>
       <r>   -6.1428    1.0000 </r>
       <r>   -6.0652    1.0000 </r>
       <r>   -5.3849    1.0000 </r>
       <r>   -4.7913    1.0000 </r>
       <r>   -4.7145    1.0000 </r>
       <r>   -3.8024    1.0000 </r>
       <r>   -3.5729    1.0000 </r>
       <r>   -3.1975    1.0000 </r>
       <r>   -1.0149    0.0000 </r>
       <r>   -0.8029    0.0000 </r>
       <r>    0.4267    0.0000 </r>
       <r>    0.6181    0.0000 </r>
       <r>    0.9954    0.0000 </r>
       <r>    1.3467    0.0000 </r>
      </set>
      <set comment="kpoint 34">
       <r>  -27.8496    1.0000 </r>
       <r>  -27.8457    1.0000 </r>
       <r>  -27.8451    1.0000 </r>
       <r>  -27.8406    1.0000 </r>
       <r>  -27.8355    1.0000 </r>
       <r>  -27.8253    1.0000 </r>
       <r>  -27.8236    1.0000 </r>
       <r>  -27.8221    1.0000 </r>
       <r>  -27.8035    1.0000 </r>
       <r>  -27.8004    1.0000 </r>
       <r>  -16.5980    1.0000 </r>
       <r>  -15.6052    1.0000 </r>
       <r>  -15.2753    1.0000 </r>
       <r>  -14.9573    1.0000 </r>
       <r>  -11.0511    1.0000 </r>
       <r>   -9.6277    1.0000 </r>
       <r>   -7.2158    1.0000 </r>
       <r>   -6.3720    1.0000 </r>
       <r>   -6.1706    1.0000 </r>
       <r>   -5.8414    1.0000 </r>
       <r>   -5.4152    1.0000 </r>
       <r>   -4.8249    1.0000 </r>
       <r>   -4.6654    1.0000 </r>
       <r>   -3.7826    1.0000 </r>
       <r>   -3.6604    1.0000 </r>
       <r>   -3.1010    1.0000 </r>
       <r>   -1.0070    0.0000 </r>
       <r>   -0.9308    0.0000 </r>
       <r>    0.4417    0.0000 </r>
       <r>    0.7422    0.0000 </r>
       <r>    1.0352    0.0000 </r>
       <r>    1.2865    0.0000 </r>
      </set>
      <set comment="kpoint 35">
       <r>  -27.8498    1.0000 </r>
       <r>  -27.8457    1.0000 </r>
       <r>  -27.8451    1.0000 </r>
       <r>  -27.8401    1.0000 </r>
       <r>  -27.8356    1.0000 </r>
       <r>  -27.8250    1.0000 </r>
       <r>  -27.8247    1.0000 </r>
       <r>  -27.8216    1.0000 </r>
       <r>  -27.8034    1.0000 </r>
       <r>  -27.8005    1.0000 </r>
       <r>  -16.5594    1.0000 </r>
       <r>  -15.6145    1.0000 </r>
       <r>  -15.2675    1.0000 </r>
       <r>  -14.9870    1.0000 </r>
       <r>  -11.0490    1.0000 </r>
       <r>   -9.7243    1.0000 </r>
       <r>   -7.1150    1.0000 </r>
       <r>   -6.5638    1.0000 </r>
       <r>   -6.2520    1.0000 </r>
       <r>   -5.5706    1.0000 </r>
       <r>   -5.4641    1.0000 </r>
       <r>   -4.9199    1.0000 </r>
       <r>   -4.5685    1.0000 </r>
       <r>   -3.8032    1.0000 </r>
       <r>   -3.7169    1.0000 </r>
       <r>   -2.9376    1.0000 </r>
       <r>   -1.1952    0.0000 </r>
       <r>   -0.9843    0.0000 </r>
       <r>    0.4841    0.0000 </r>
       <r>    0.9417    0.0000 </r>
       <r>    1.1507    0.0000 </r>
       <r>    1.2775    0.0000 </r>
[...]
       <r>    1.2047    0.0000 </r>
       <r>    1.3200    0.0000 </r>
      </set>
      <set comment="kpoint 54">
       <r>  -27.8499    1.0000 </r>
       <r>  -27.8494    1.0000 </r>
       <r>  -27.8403    1.0000 </r>
       <r>  -27.8395    1.0000 </r>
       <r>  -27.8332    1.0000 </r>
       <r>  -27.8317    1.0000 </r>
       <r>  -27.8223    1.0000 </r>
       <r>  -27.8219    1.0000 </r>
       <r>  -27.8019    1.0000 </r>
       <r>  -27.8015    1.0000 </r>
       <r>  -16.0897    1.0000 </r>
       <r>  -15.9685    1.0000 </r>
       <r>  -15.1797    1.0000 </r>
       <r>  -15.1579    1.0000 </r>
       <r>  -10.7715    1.0000 </r>
       <r>  -10.6227    1.0000 </r>
       <r>   -6.8151    1.0000 </r>
       <r>   -6.7679    1.0000 </r>
       <r>   -5.8883    1.0000 </r>
       <r>   -5.6628    1.0000 </r>
       <r>   -5.3522    1.0000 </r>
       <r>   -5.2377    1.0000 </r>
       <r>   -4.3511    1.0000 </r>
       <r>   -4.2847    1.0000 </r>
       <r>   -2.8268    1.0000 </r>
       <r>   -2.7040    1.0000 </r>
       <r>   -1.4674    0.0000 </r>
       <r>   -1.2512    0.0000 </r>
       <r>    1.0470    0.0000 </r>
       <r>    1.0983    0.0000 </r>
       <r>    1.2953    0.0000 </r>
       <r>    1.3384    0.0000 </r>
      </set>
      <set comment="kpoint 55">
       <r>  -27.8501    1.0000 </r>
       <r>  -27.8498    1.0000 </r>
       <r>  -27.8396    1.0000 </r>
       <r>  -27.8390    1.0000 </r>
       <r>  -27.8336    1.0000 </r>
       <r>  -27.8326    1.0000 </r>
       <r>  -27.8220    1.0000 </r>
       <r>  -27.8217    1.0000 </r>
       <r>  -27.8017    1.0000 </r>
       <r>  -27.8015    1.0000 </r>
       <r>  -16.0363    1.0000 </r>
       <r>  -15.9582    1.0000 </r>
       <r>  -15.1897    1.0000 </r>
       <r>  -15.1789    1.0000 </r>
       <r>  -10.8236    1.0000 </r>
       <r>  -10.7321    1.0000 </r>
       <r>   -6.8300    1.0000 </r>
       <r>   -6.7980    1.0000 </r>
       <r>   -5.8180    1.0000 </r>
       <r>   -5.7021    1.0000 </r>
       <r>   -5.2325    1.0000 </r>
       <r>   -5.1156    1.0000 </r>
       <r>   -4.3798    1.0000 </r>
       <r>   -4.3354    1.0000 </r>
       <r>   -2.7007    1.0000 </r>
       <r>   -2.6284    1.0000 </r>
       <r>   -1.6150    0.0000 </r>
       <r>   -1.4517    0.0000 </r>
       <r>    1.1275    0.0000 </r>
       <r>    1.1510    0.0000 </r>
       <r>    1.3436    0.0000 </r>
       <r>    1.3528    0.0000 </r>
      </set>
      <set comment="kpoint 56">
       <r>  -27.8502    1.0000 </r>
       <r>  -27.8501    1.0000 </r>
       <r>  -27.8390    1.0000 </r>
       <r>  -27.8388    1.0000 </r>
       <r>  -27.8336    1.0000 </r>
       <r>  -27.8333    1.0000 </r>
       <r>  -27.8217    1.0000 </r>
       <r>  -27.8216    1.0000 </r>
       <r>  -27.8016    1.0000 </r>
       <r>  -27.8016    1.0000 </r>
       <r>  -15.9926    1.0000 </r>
       <r>  -15.9655    1.0000 </r>
       <r>  -15.1951    1.0000 </r>
       <r>  -15.1920    1.0000 </r>
       <r>  -10.8360    1.0000 </r>
       <r>  -10.8051    1.0000 </r>
       <r>   -6.8348    1.0000 </r>
       <r>   -6.8239    1.0000 </r>
       <r>   -5.7716    1.0000 </r>
       <r>   -5.7368    1.0000 </r>
       <r>   -5.1203    1.0000 </r>
       <r>   -5.0722    1.0000 </r>
       <r>   -4.3878    1.0000 </r>
       <r>   -4.3716    1.0000 </r>
       <r>   -2.6274    1.0000 </r>
       <r>   -2.6050    1.0000 </r>
       <r>   -1.6584    0.0000 </r>
       <r>   -1.5983    0.0000 </r>
       <r>    1.1693    0.0000 </r>
       <r>    1.1928    0.0000 </r>
       <r>    1.3547    0.0000 </r>
       <r>    1.3683    0.0000 </r>
      </set>
     </set>
    </set>
   </array>
  </eigenvalues>
  <separator name="orbital magnetization" >
   <v name="MAGDIPOLOUT">      0.00000000      0.00000000      0.00000000</v>
  </separator>
  <dos>
   <i name="efermi">     -2.43228735 </i>
   <total>
    <array>
     <dimension dim="1">gridpoints</dimension>
     <dimension dim="2">spin</dimension>
     <field>energy</field>
     <field>total</field>
     <field>integrated</field>
     <set>
      <set comment="spin 1">
       <r>   -29.3421     0.0000     0.0000 </r>
       <r>   -29.2328     0.0000     0.0000 </r>
       <r>   -29.1234     0.0000     0.0000 </r>
       <r>   -29.0141     0.0000     0.0000 </r>
       <r>   -28.9048     0.0000     0.0000 </r>
       <r>   -28.7954     0.0000     0.0000 </r>
       <r>   -28.6861     0.0000     0.0000 </r>
       <r>   -28.5768     0.0000     0.0000 </r>
       <r>   -28.4674     0.0000     0.0000 </r>
       <r>   -28.3581     0.0000     0.0000 </r>
       <r>   -28.2488     0.0000     0.0000 </r>
       <r>   -28.1394     0.0000     0.0000 </r>
       <r>   -28.0301     0.0000     0.0000 </r>
       <r>   -27.9208     0.0000     0.0000 </r>
       <r>   -27.8114   143.3730    15.6755 </r>
       <r>   -27.7021    39.5528    20.0000 </r>
       <r>   -27.5928     0.0000    20.0000 </r>
       <r>   -27.4834     0.0000    20.0000 </r>
       <r>   -27.3741     0.0000    20.0000 </r>
       <r>   -27.2648     0.0000    20.0000 </r>
       <r>   -27.1554     0.0000    20.0000 </r>
       <r>   -27.0461     0.0000    20.0000 </r>
       <r>   -26.9368     0.0000    20.0000 </r>
       <r>   -26.8274     0.0000    20.0000 </r>
       <r>   -26.7181     0.0000    20.0000 </r>
       <r>   -26.6088     0.0000    20.0000 </r>
       <r>   -26.4994     0.0000    20.0000 </r>
       <r>   -26.3901     0.0000    20.0000 </r>
       <r>   -26.2808     0.0000    20.0000 </r>
       <r>   -26.1714     0.0000    20.0000 </r>
       <r>   -26.0621     0.0000    20.0000 </r>
       <r>   -25.9528     0.0000    20.0000 </r>
       <r>   -25.8434     0.0000    20.0000 </r>
       <r>   -25.7341     0.0000    20.0000 </r>
       <r>   -25.6248     0.0000    20.0000 </r>
       <r>   -25.5154     0.0000    20.0000 </r>
       <r>   -25.4061     0.0000    20.0000 </r>
       <r>   -25.2968     0.0000    20.0000 </r>
       <r>   -25.1874     0.0000    20.0000 </r>
       <r>   -25.0781     0.0000    20.0000 </r>
       <r>   -24.9688     0.0000    20.0000 </r>
       <r>   -24.8594     0.0000    20.0000 </r>
       <r>   -24.7501     0.0000    20.0000 </r>
       <r>   -24.6407     0.0000    20.0000 </r>
       <r>   -24.5314     0.0000    20.0000 </r>
       <r>   -24.4221     0.0000    20.0000 </r>
       <r>   -24.3127     0.0000    20.0000 </r>
       <r>   -24.2034     0.0000    20.0000 </r>
       <r>   -24.0941     0.0000    20.0000 </r>
       <r>   -23.9847     0.0000    20.0000 </r>
       <r>   -23.8754     0.0000    20.0000 </r>
       <r>   -23.7661     0.0000    20.0000 </r>
       <r>   -23.6567     0.0000    20.0000 </r>
       <r>   -23.5474     0.0000    20.0000 </r>
       <r>   -23.4381     0.0000    20.0000 </r>
       <r>   -23.3287     0.0000    20.0000 </r>
       <r>   -23.2194     0.0000    20.0000 </r>
       <r>   -23.1101     0.0000    20.0000 </r>
       <r>   -23.0007     0.0000    20.0000 </r>
       <r>   -22.8914     0.0000    20.0000 </r>
       <r>   -22.7821     0.0000    20.0000 </r>
       <r>   -22.6727     0.0000    20.0000 </r>
       <r>   -22.5634     0.0000    20.0000 </r>
       <r>   -22.4541     0.0000    20.0000 </r>
       <r>   -22.3447     0.0000    20.0000 </r>
       <r>   -22.2354     0.0000    20.0000 </r>
       <r>   -22.1261     0.0000    20.0000 </r>
       <r>   -22.0167     0.0000    20.0000 </r>
       <r>   -21.9074     0.0000    20.0000 </r>
       <r>   -21.7981     0.0000    20.0000 </r>
       <r>   -21.6887     0.0000    20.0000 </r>
       <r>   -21.5794     0.0000    20.0000 </r>
       <r>   -21.4701     0.0000    20.0000 </r>
       <r>   -21.3607     0.0000    20.0000 </r>
       <r>   -21.2514     0.0000    20.0000 </r>
       <r>   -21.1421     0.0000    20.0000 </r>
       <r>   -21.0327     0.0000    20.0000 </r>
       <r>   -20.9234     0.0000    20.0000 </r>
       <r>   -20.8141     0.0000    20.0000 </r>
       <r>   -20.7047     0.0000    20.0000 </r>
       <r>   -20.5954     0.0000    20.0000 </r>
       <r>   -20.4861     0.0000    20.0000 </r>
       <r>   -20.3767     0.0000    20.0000 </r>
       <r>   -20.2674     0.0000    20.0000 </r>
       <r>   -20.1581     0.0000    20.0000 </r>
       <r>   -20.0487     0.0000    20.0000 </r>
       <r>   -19.9394     0.0000    20.0000 </r>
       <r>   -19.8301     0.0000    20.0000 </r>
       <r>   -19.7207     0.0000    20.0000 </r>
       <r>   -19.6114     0.0000    20.0000 </r>
       <r>   -19.5021     0.0000    20.0000 </r>
       <r>   -19.3927     0.0000    20.0000 </r>
       <r>   -19.2834     0.0000    20.0000 </r>
       <r>   -19.1741     0.0000    20.0000 </r>
       <r>   -19.0647     0.0000    20.0000 </r>
       <r>   -18.9554     0.0000    20.0000 </r>
       <r>   -18.8460     0.0000    20.0000 </r>
       <r>   -18.7367     0.0000    20.0000 </r>
       <r>   -18.6274     0.0000    20.0000 </r>
       <r>   -18.5180     0.0000    20.0000 </r>
       <r>   -18.4087     0.0000    20.0000 </r>
       <r>   -18.2994     0.0000    20.0000 </r>
       <r>   -18.1900     0.0000    20.0000 </r>
       <r>   -18.0807     0.0000    20.0000 </r>
       <r>   -17.9714     0.0000    20.0000 </r>
       <r>   -17.8620     0.0000    20.0000 </r>
       <r>   -17.7527     0.0000    20.0000 </r>
       <r>   -17.6434     0.0000    20.0000 </r>
       <r>   -17.5340     0.0000    20.0000 </r>
       <r>   -17.4247     0.0000    20.0000 </r>
       <r>   -17.3154     0.0000    20.0000 </r>
       <r>   -17.2060     0.0000    20.0000 </r>
       <r>   -17.0967     0.0000    20.0000 </r>
       <r>   -16.9874     0.0000    20.0000 </r>
       <r>   -16.8780     0.4071    20.0445 </r>
       <r>   -16.7687     1.7726    20.2383 </r>
       <r>   -16.6594     2.0598    20.4635 </r>
       <r>   -16.5500     2.1387    20.6974 </r>
       <r>   -16.4407     2.1261    20.9298 </r>
       <r>   -16.3314     2.1835    21.1685 </r>
       <r>   -16.2220     2.5290    21.4451 </r>
       <r>   -16.1127     2.8070    21.7520 </r>
       <r>   -16.0034     3.2685    22.1093 </r>
       <r>   -15.8940     4.0138    22.5482 </r>
       <r>   -15.7847     3.0105    22.8773 </r>
       <r>   -15.6754     1.5674    23.0487 </r>
       <r>   -15.5660     2.2359    23.2932 </r>
       <r>   -15.4567     1.1129    23.4148 </r>
       <r>   -15.3474     4.1665    23.8704 </r>
       <r>   -15.2380     7.3135    24.6700 </r>
       <r>   -15.1287    15.4593    26.3602 </r>
       <r>   -15.0194     8.8941    27.3327 </r>
       <r>   -14.9100     4.3076    27.8036 </r>
       <r>   -14.8007     1.7837    27.9987 </r>
       <r>   -14.6914     0.0122    28.0000 </r>
       <r>   -14.5820     0.0000    28.0000 </r>
       <r>   -14.4727     0.0000    28.0000 </r>
       <r>   -14.3634     0.0000    28.0000 </r>
       <r>   -14.2540     0.0000    28.0000 </r>
       <r>   -14.1447     0.0000    28.0000 </r>
       <r>   -14.0354     0.0000    28.0000 </r>
       <r>   -13.9260     0.0000    28.0000 </r>
       <r>   -13.8167     0.0000    28.0000 </r>
       <r>   -13.7074     0.0000    28.0000 </r>
       <r>   -13.5980     0.0000    28.0000 </r>
       <r>   -13.4887     0.0000    28.0000 </r>
       <r>   -13.3794     0.0000    28.0000 </r>
       <r>   -13.2700     0.0000    28.0000 </r>
       <r>   -13.1607     0.0000    28.0000 </r>
       <r>   -13.0513     0.0000    28.0000 </r>
       <r>   -12.9420     0.0000    28.0000 </r>
       <r>   -12.8327     0.0000    28.0000 </r>
       <r>   -12.7233     0.0000    28.0000 </r>
       <r>   -12.6140     0.0000    28.0000 </r>
       <r>   -12.5047     0.0000    28.0000 </r>
       <r>   -12.3953     0.0000    28.0000 </r>
       <r>   -12.2860     0.0000    28.0000 </r>
       <r>   -12.1767     0.0000    28.0000 </r>
       <r>   -12.0673     0.0000    28.0000 </r>
       <r>   -11.9580     0.0000    28.0000 </r>
       <r>   -11.8487     0.0249    28.0027 </r>
       <r>   -11.7393     0.6330    28.0719 </r>
       <r>   -11.6300     0.5565    28.1328 </r>
       <r>   -11.5207     0.7729    28.2173 </r>
       <r>   -11.4113     0.9208    28.3180 </r>
       <r>   -11.3020     1.0522    28.4330 </r>
       <r>   -11.1927     1.4516    28.5917 </r>
       <r>   -11.0833     0.5057    28.6470 </r>
       <r>   -10.9740     2.9733    28.9721 </r>
       <r>   -10.8647     1.4184    29.1272 </r>
       <r>   -10.7553     4.1183    29.5775 </r>
       <r>   -10.6460     2.7025    29.8729 </r>
       <r>   -10.5367     1.8917    30.0798 </r>
       <r>   -10.4273     2.4223    30.3446 </r>
       <r>   -10.3180     1.2050    30.4764 </r>
       <r>   -10.2087     1.7863    30.6717 </r>
       <r>   -10.0993     1.1215    30.7943 </r>
       <r>    -9.9900     1.3947    30.9468 </r>
       <r>    -9.8807     1.1056    31.0676 </r>
       <r>    -9.7713     1.5145    31.2332 </r>
       <r>    -9.6620     1.5304    31.4005 </r>
       <r>    -9.5527     1.0833    31.5190 </r>
       <r>    -9.4433     1.2983    31.6609 </r>
       <r>    -9.3340     1.5164    31.8267 </r>
       <r>    -9.2247     1.5500    31.9962 </r>
       <r>    -9.1153     0.0349    32.0000 </r>
       <r>    -9.0060     0.0000    32.0000 </r>
       <r>    -8.8967     0.0000    32.0000 </r>
       <r>    -8.7873     0.0000    32.0000 </r>
       <r>    -8.6780     0.0000    32.0000 </r>
       <r>    -8.5687     0.0000    32.0000 </r>
       <r>    -8.4593     0.0000    32.0000 </r>
       <r>    -8.3500     0.0000    32.0000 </r>
       <r>    -8.2407     0.0000    32.0000 </r>
       <r>    -8.1313     0.0000    32.0000 </r>
       <r>    -8.0220     0.0000    32.0000 </r>
       <r>    -7.9127     0.0000    32.0000 </r>
       <r>    -7.8033     0.0000    32.0000 </r>
       <r>    -7.6940     0.0000    32.0000 </r>
       <r>    -7.5847     0.0000    32.0000 </r>
       <r>    -7.4753     0.1410    32.0154 </r>
       <r>    -7.3660     3.1544    32.3603 </r>
       <r>    -7.2566     2.1240    32.5925 </r>
       <r>    -7.1473     1.9157    32.8020 </r>
       <r>    -7.0380     2.1264    33.0345 </r>
       <r>    -6.9286     2.3008    33.2860 </r>
       <r>    -6.8193     7.2120    34.0746 </r>
       <r>    -6.7100     8.1780    34.9687 </r>
       <r>    -6.6006     2.5413    35.2465 </r>
       <r>    -6.4913     2.0175    35.4671 </r>
       <r>    -6.3820     2.3075    35.7194 </r>
       <r>    -6.2726     3.1512    36.0639 </r>
       <r>    -6.1633     7.7489    36.9112 </r>
       <r>    -6.0540     4.1366    37.3634 </r>
       <r>    -5.9446     4.7008    37.8774 </r>
       <r>    -5.8353     4.2290    38.3398 </r>
       <r>    -5.7260     3.8998    38.7662 </r>
       <r>    -5.6166     4.9335    39.3056 </r>
       <r>    -5.5073     7.1545    40.0878 </r>
       <r>    -5.3980     8.7676    41.0464 </r>
       <r>    -5.2886     7.9198    41.9123 </r>
       <r>    -5.1793     5.9787    42.5660 </r>
       <r>    -5.0700     4.0549    43.0093 </r>
       <r>    -4.9606     2.6860    43.3030 </r>
       <r>    -4.8513     3.1923    43.6521 </r>
       <r>    -4.7420     2.8802    43.9670 </r>
       <r>    -4.6326     5.0038    44.5140 </r>
       <r>    -4.5233     1.8284    44.7140 </r>
       <r>    -4.4140     3.6894    45.1173 </r>
       <r>    -4.3046     6.9088    45.8727 </r>
       <r>    -4.1953     4.7170    46.3884 </r>
       <r>    -4.0860     4.4868    46.8790 </r>
       <r>    -3.9766     3.7617    47.2903 </r>
       <r>    -3.8673     3.9469    47.7218 </r>
       <r>    -3.7580     3.7393    48.1306 </r>
       <r>    -3.6486     2.3632    48.3890 </r>
       <r>    -3.5393     3.3048    48.7504 </r>
       <r>    -3.4300     3.0511    49.0839 </r>
       <r>    -3.3206     2.9626    49.4079 </r>
       <r>    -3.2113     2.7324    49.7066 </r>
       <r>    -3.1020     2.9901    50.0335 </r>
       <r>    -2.9926     3.9424    50.4646 </r>
       <r>    -2.8833     4.1535    50.9187 </r>
       <r>    -2.7740     4.5272    51.4137 </r>
       <r>    -2.6646     3.3963    51.7850 </r>
       <r>    -2.5553     1.9661    52.0000 </r>
       <r>    -2.4460     0.0001    52.0000 </r>
       <r>    -2.3366     0.0000    52.0000 </r>
       <r>    -2.2273     0.0000    52.0000 </r>
       <r>    -2.1180     0.0000    52.0000 </r>
       <r>    -2.0086     0.0000    52.0000 </r>
       <r>    -1.8993     0.0939    52.0103 </r>
       <r>    -1.7900     0.5949    52.0753 </r>
       <r>    -1.6806     0.1844    52.0955 </r>
       <r>    -1.5713     4.6522    52.6041 </r>
       <r>    -1.4619     2.1391    52.8380 </r>
       <r>    -1.3526     3.5633    53.2276 </r>
       <r>    -1.2433     3.2799    53.5862 </r>
       <r>    -1.1339     4.1373    54.0385 </r>
       <r>    -1.0246     2.8235    54.3472 </r>
       <r>    -0.9153     5.4772    54.9461 </r>
       <r>    -0.8059     3.8163    55.3633 </r>
       <r>    -0.6966     2.9515    55.6860 </r>
       <r>    -0.5873     2.2010    55.9267 </r>
       <r>    -0.4779     1.5399    56.0951 </r>
       <r>    -0.3686     1.0423    56.2090 </r>
       <r>    -0.2593     0.0582    56.2154 </r>
       <r>    -0.1499     0.1690    56.2339 </r>
       <r>    -0.0406     0.0436    56.2386 </r>
       <r>     0.0687     0.9118    56.3383 </r>
       <r>     0.1781     0.6515    56.4096 </r>
       <r>     0.2874     1.1308    56.5332 </r>
       <r>     0.3967     1.6689    56.7157 </r>
       <r>     0.5061     2.6339    57.0036 </r>
       <r>     0.6154     2.6394    57.2922 </r>
       <r>     0.7247     3.4297    57.6672 </r>
       <r>     0.8341     3.9914    58.1036 </r>
       <r>     0.9434     5.2201    58.6743 </r>
       <r>     1.0527     8.4273    59.5957 </r>
       <r>     1.1621     9.1752    60.5989 </r>
       <r>     1.2714     4.8810    61.1326 </r>
       <r>     1.3807     7.7301    61.9777 </r>
       <r>     1.4901     5.1304    62.5386 </r>
       <r>     1.5994     6.1884    63.2152 </r>
       <r>     1.7087     3.7928    63.6299 </r>
       <r>     1.8181     2.1354    63.8634 </r>
       <r>     1.9274     0.7224    63.9424 </r>
       <r>     2.0367     0.5269    64.0000 </r>
       <r>     2.1461     0.0000    64.0000 </r>
       <r>     2.2554     0.0000    64.0000 </r>
       <r>     2.3647     0.0000    64.0000 </r>
       <r>     2.4741     0.0000    64.0000 </r>
       <r>     2.5834     0.0000    64.0000 </r>
       <r>     2.6927     0.0000    64.0000 </r>
       <r>     2.8021     0.0000    64.0000 </r>
       <r>     2.9114     0.0000    64.0000 </r>
       <r>     3.0207     0.0000    64.0000 </r>
       <r>     3.1301     0.0000    64.0000 </r>
       <r>     3.2394     0.0000    64.0000 </r>
       <r>     3.3487     0.0000    64.0000 </r>
       <r>     3.4581     0.0000    64.0000 </r>
      </set>
     </set>
    </array>
   </total>
  </dos>
 </calculation>
 <structure name="finalpos" >
  <crystal>
   <varray name="basis" >
    <v>       4.97912400       0.00000000       0.00000000 </v>
    <v>       0.00000000       5.57120200       0.00000000 </v>
    <v>       0.00000000       0.00000000      18.07929100 </v>
   </varray>
   <i name="volume">    501.51420956 </i>
   <varray name="rec_basis" >
    <v>       0.20083854       0.00000000       0.00000000 </v>
    <v>       0.00000000       0.17949448       0.00000000 </v>
    <v>       0.00000000       0.00000000       0.05531190 </v>
   </varray>
  </crystal>
  <varray name="positions" >
   <v>       0.50000000       0.50000000       0.50000000 </v>
   <v>       0.00000000      -0.00000000       0.50000000 </v>
   <v>       0.25000000       0.25000000       0.41537798 </v>
   <v>       0.75000000       0.75000000       0.41537798 </v>
   <v>       0.75000000       0.25000000       0.58462202 </v>
   <v>       0.25000000       0.75000000       0.58462202 </v>
  </varray>
 </structure>
</modeling>
