<?xml version="1.0" encoding="ISO-8859-1"?>
<modeling>
 <generator>
  <i name="program" type="string">vasp </i>
  <i name="version" type="string">5.4.1  </i>
  <i name="subversion" type="string">24Jun15 (build Nov 20 2020 10:29:34) complex                          parallel </i>
  <i name="platform" type="string">IFC91_ompi </i>
  <i name="date" type="string">2021 09 09 </i>
  <i name="time" type="string">14:50:10 </i>
 </generator>
 <incar>
  <i type="string" name="PREC">a</i>
  <i type="string" name="ALGO"> Normal</i>
  <i type="int" name="ISPIN">     1</i>
  <i type="int" name="ICHARG">     2</i>
  <i type="int" name="NELM">   250</i>
  <i type="int" name="NELMDL">    -5</i>
  <i type="int" name="NELMIN">     6</i>
  <i type="int" name="IBRION">     2</i>
  <i name="EDIFF">      0.00001000</i>
  <i name="EDIFFG">     -0.01000000</i>
  <i type="int" name="NSW">   200</i>
  <i type="int" name="ISIF">     2</i>
  <i name="ENCUT">    520.00000000</i>
  <i name="POTIM">      0.30000000</i>
  <i type="logical" name="LREAL"> F  </i>
  <i type="int" name="ISMEAR">     0</i>
  <i name="SIGMA">      0.02000000</i>
  <i type="logical" name="LWAVE"> F  </i>
  <i type="logical" name="LCHARG"> F  </i>
  <i type="logical" name="LAECHG"> F  </i>
  <v type="int" name="KPOINT_BSE">    -1     0     0     0</v>
  <i type="int" name="NELM">   250</i>
 </incar>
 <kpoints>
  <generation param="Gamma">
   <v type="int" name="divisions">      21       15        1 </v>
   <v name="usershift">      0.00000000       0.00000000       0.00000000 </v>
   <v name="genvec1">      0.04761905       0.00000000       0.00000000 </v>
   <v name="genvec2">      0.00000000       0.06666667       0.00000000 </v>
   <v name="genvec3">      0.00000000      -0.00000000       1.00000000 </v>
   <v name="shift">      0.00000000       0.00000000       0.00000000 </v>
  </generation>
  <varray name="kpointlist" >
   <v>       0.00000000       0.00000000       0.00000000 </v>
   <v>       0.04761905       0.00000000       0.00000000 </v>
   <v>       0.09523810       0.00000000       0.00000000 </v>
   <v>       0.14285714       0.00000000       0.00000000 </v>
   <v>       0.19047619       0.00000000       0.00000000 </v>
   <v>       0.23809524       0.00000000       0.00000000 </v>
   <v>       0.28571429       0.00000000       0.00000000 </v>
   <v>       0.33333333       0.00000000       0.00000000 </v>
   <v>       0.38095238       0.00000000       0.00000000 </v>
   <v>       0.42857143       0.00000000       0.00000000 </v>
   <v>       0.47619048       0.00000000       0.00000000 </v>
   <v>       0.00000000       0.06666667       0.00000000 </v>
   <v>       0.04761905       0.06666667       0.00000000 </v>
   <v>       0.09523810       0.06666667       0.00000000 </v>
   <v>       0.14285714       0.06666667       0.00000000 </v>
   <v>       0.19047619       0.06666667       0.00000000 </v>
   <v>       0.23809524       0.06666667       0.00000000 </v>
   <v>       0.28571429       0.06666667       0.00000000 </v>
   <v>       0.33333333       0.06666667       0.00000000 </v>
   <v>       0.38095238       0.06666667       0.00000000 </v>
   <v>       0.42857143       0.06666667       0.00000000 </v>
   <v>       0.47619048       0.06666667       0.00000000 </v>
   <v>      -0.47619048       0.06666667       0.00000000 </v>
   <v>      -0.42857143       0.06666667       0.00000000 </v>
   <v>      -0.38095238       0.06666667       0.00000000 </v>
   <v>      -0.33333333       0.06666667       0.00000000 </v>
   <v>      -0.28571429       0.06666667       0.00000000 </v>
   <v>      -0.23809524       0.06666667       0.00000000 </v>
   <v>      -0.19047619       0.06666667       0.00000000 </v>
   <v>      -0.14285714       0.06666667       0.00000000 </v>
   <v>      -0.09523810       0.06666667       0.00000000 </v>
   <v>      -0.04761905       0.06666667       0.00000000 </v>
   <v>       0.00000000       0.13333333       0.00000000 </v>
   <v>       0.04761905       0.13333333       0.00000000 </v>
   <v>       0.09523810       0.13333333       0.00000000 </v>
   <v>       0.14285714       0.13333333       0.00000000 </v>
   <v>       0.19047619       0.13333333       0.00000000 </v>
   <v>       0.23809524       0.13333333       0.00000000 </v>
   <v>       0.28571429       0.13333333       0.00000000 </v>
   <v>       0.33333333       0.13333333       0.00000000 </v>
   <v>       0.38095238       0.13333333       0.00000000 </v>
   <v>       0.42857143       0.13333333       0.00000000 </v>
   <v>       0.47619048       0.13333333       0.00000000 </v>
   <v>      -0.47619048       0.13333333       0.00000000 </v>
   <v>      -0.42857143       0.13333333       0.00000000 </v>
   <v>      -0.38095238       0.13333333       0.00000000 </v>
   <v>      -0.33333333       0.13333333       0.00000000 </v>
   <v>      -0.28571429       0.13333333       0.00000000 </v>
   <v>      -0.23809524       0.13333333       0.00000000 </v>
   <v>      -0.19047619       0.13333333       0.00000000 </v>
   <v>      -0.14285714       0.13333333       0.00000000 </v>
   <v>      -0.09523810       0.13333333       0.00000000 </v>
   <v>      -0.04761905       0.13333333       0.00000000 </v>
   <v>       0.00000000       0.20000000       0.00000000 </v>
   <v>       0.04761905       0.20000000       0.00000000 </v>
   <v>       0.09523810       0.20000000       0.00000000 </v>
   <v>       0.14285714       0.20000000       0.00000000 </v>
   <v>       0.19047619       0.20000000       0.00000000 </v>
   <v>       0.23809524       0.20000000       0.00000000 </v>
   <v>       0.28571429       0.20000000       0.00000000 </v>
   <v>       0.33333333       0.20000000       0.00000000 </v>
   <v>       0.38095238       0.20000000       0.00000000 </v>
   <v>       0.42857143       0.20000000       0.00000000 </v>
   <v>       0.47619048       0.20000000       0.00000000 </v>
   <v>      -0.47619048       0.20000000       0.00000000 </v>
   <v>      -0.42857143       0.20000000       0.00000000 </v>
   <v>      -0.38095238       0.20000000       0.00000000 </v>
   <v>      -0.33333333       0.20000000       0.00000000 </v>
   <v>      -0.28571429       0.20000000       0.00000000 </v>
   <v>      -0.23809524       0.20000000       0.00000000 </v>
   <v>      -0.19047619       0.20000000       0.00000000 </v>
   <v>      -0.14285714       0.20000000       0.00000000 </v>
   <v>      -0.09523810       0.20000000       0.00000000 </v>
   <v>      -0.04761905       0.20000000       0.00000000 </v>
   <v>       0.00000000       0.26666667       0.00000000 </v>
   <v>       0.04761905       0.26666667       0.00000000 </v>
   <v>       0.09523810       0.26666667       0.00000000 </v>
   <v>       0.14285714       0.26666667       0.00000000 </v>
   <v>       0.19047619       0.26666667       0.00000000 </v>
   <v>       0.23809524       0.26666667       0.00000000 </v>
   <v>       0.28571429       0.26666667       0.00000000 </v>
   <v>       0.33333333       0.26666667       0.00000000 </v>
   <v>       0.38095238       0.26666667       0.00000000 </v>
   <v>       0.42857143       0.26666667       0.00000000 </v>
   <v>       0.47619048       0.26666667       0.00000000 </v>
   <v>      -0.47619048       0.26666667       0.00000000 </v>
   <v>      -0.42857143       0.26666667       0.00000000 </v>
   <v>      -0.38095238       0.26666667       0.00000000 </v>
   <v>      -0.33333333       0.26666667       0.00000000 </v>
   <v>      -0.28571429       0.26666667       0.00000000 </v>
   <v>      -0.23809524       0.26666667       0.00000000 </v>
   <v>      -0.19047619       0.26666667       0.00000000 </v>
   <v>      -0.14285714       0.26666667       0.00000000 </v>
   <v>      -0.09523810       0.26666667       0.00000000 </v>
   <v>      -0.04761905       0.26666667       0.00000000 </v>
   <v>       0.00000000       0.33333333       0.00000000 </v>
   <v>       0.04761905       0.33333333       0.00000000 </v>
   <v>       0.09523810       0.33333333       0.00000000 </v>
   <v>       0.14285714       0.33333333       0.00000000 </v>
   <v>       0.19047619       0.33333333       0.00000000 </v>
   <v>       0.23809524       0.33333333       0.00000000 </v>
   <v>       0.28571429       0.33333333       0.00000000 </v>
   <v>       0.33333333       0.33333333       0.00000000 </v>
   <v>       0.38095238       0.33333333       0.00000000 </v>
   <v>       0.42857143       0.33333333       0.00000000 </v>
   <v>       0.47619048       0.33333333       0.00000000 </v>
   <v>      -0.47619048       0.33333333       0.00000000 </v>
   <v>      -0.42857143       0.33333333       0.00000000 </v>
   <v>      -0.38095238       0.33333333       0.00000000 </v>
   <v>      -0.33333333       0.33333333       0.00000000 </v>
   <v>      -0.28571429       0.33333333       0.00000000 </v>
   <v>      -0.23809524       0.33333333       0.00000000 </v>
   <v>      -0.19047619       0.33333333       0.00000000 </v>
   <v>      -0.14285714       0.33333333       0.00000000 </v>
   <v>      -0.09523810       0.33333333       0.00000000 </v>
   <v>      -0.04761905       0.33333333       0.00000000 </v>
   <v>       0.00000000       0.40000000       0.00000000 </v>
   <v>       0.04761905       0.40000000       0.00000000 </v>
   <v>       0.09523810       0.40000000       0.00000000 </v>
   <v>       0.14285714       0.40000000       0.00000000 </v>
   <v>       0.19047619       0.40000000       0.00000000 </v>
   <v>       0.23809524       0.40000000       0.00000000 </v>
   <v>       0.28571429       0.40000000       0.00000000 </v>
   <v>       0.33333333       0.40000000       0.00000000 </v>
   <v>       0.38095238       0.40000000       0.00000000 </v>
   <v>       0.42857143       0.40000000       0.00000000 </v>
   <v>       0.47619048       0.40000000       0.00000000 </v>
   <v>      -0.47619048       0.40000000       0.00000000 </v>
   <v>      -0.42857143       0.40000000       0.00000000 </v>
   <v>      -0.38095238       0.40000000       0.00000000 </v>
   <v>      -0.33333333       0.40000000       0.00000000 </v>
   <v>      -0.28571429       0.40000000       0.00000000 </v>
   <v>      -0.23809524       0.40000000       0.00000000 </v>
   <v>      -0.19047619       0.40000000       0.00000000 </v>
   <v>      -0.14285714       0.40000000       0.00000000 </v>
   <v>      -0.09523810       0.40000000       0.00000000 </v>
   <v>      -0.04761905       0.40000000       0.00000000 </v>
   <v>       0.00000000       0.46666667       0.00000000 </v>
   <v>       0.04761905       0.46666667       0.00000000 </v>
   <v>       0.09523810       0.46666667       0.00000000 </v>
   <v>       0.14285714       0.46666667       0.00000000 </v>
   <v>       0.19047619       0.46666667       0.00000000 </v>
   <v>       0.23809524       0.46666667       0.00000000 </v>
   <v>       0.28571429       0.46666667       0.00000000 </v>
   <v>       0.33333333       0.46666667       0.00000000 </v>
   <v>       0.38095238       0.46666667       0.00000000 </v>
   <v>       0.42857143       0.46666667       0.00000000 </v>
   <v>       0.47619048       0.46666667       0.00000000 </v>
   <v>      -0.47619048       0.46666667       0.00000000 </v>
   <v>      -0.42857143       0.46666667       0.00000000 </v>
   <v>      -0.38095238       0.46666667       0.00000000 </v>
   <v>      -0.33333333       0.46666667       0.00000000 </v>
   <v>      -0.28571429       0.46666667       0.00000000 </v>
   <v>      -0.23809524       0.46666667       0.00000000 </v>
   <v>      -0.19047619       0.46666667       0.00000000 </v>
   <v>      -0.14285714       0.46666667       0.00000000 </v>
   <v>      -0.09523810       0.46666667       0.00000000 </v>
   <v>      -0.04761905       0.46666667       0.00000000 </v>
  </varray>
  <varray name="weights" >
   <v>       0.00317460 </v>
   <v>       0.00634921 </v>
   <v>       0.00634921 </v>
   <v>       0.00634921 </v>
   <v>       0.00634921 </v>
   <v>       0.00634921 </v>
   <v>       0.00634921 </v>
   <v>       0.00634921 </v>
   <v>       0.00634921 </v>
   <v>       0.00634921 </v>
   <v>       0.00634921 </v>
   <v>       0.00634921 </v>
   <v>       0.00634921 </v>
   <v>       0.00634921 </v>
   <v>       0.00634921 </v>
   <v>       0.00634921 </v>
   <v>       0.00634921 </v>
   <v>       0.00634921 </v>
   <v>       0.00634921 </v>
   <v>       0.00634921 </v>
   <v>       0.00634921 </v>
   <v>       0.00634921 </v>
   <v>       0.00634921 </v>
   <v>       0.00634921 </v>
   <v>       0.00634921 </v>
   <v>       0.00634921 </v>
   <v>       0.00634921 </v>
   <v>       0.00634921 </v>
   <v>       0.00634921 </v>
   <v>       0.00634921 </v>
   <v>       0.00634921 </v>
   <v>       0.00634921 </v>
   <v>       0.00634921 </v>
   <v>       0.00634921 </v>
   <v>       0.00634921 </v>
   <v>       0.00634921 </v>
   <v>       0.00634921 </v>
   <v>       0.00634921 </v>
   <v>       0.00634921 </v>
   <v>       0.00634921 </v>
   <v>       0.00634921 </v>
   <v>       0.00634921 </v>
   <v>       0.00634921 </v>
   <v>       0.00634921 </v>
   <v>       0.00634921 </v>
   <v>       0.00634921 </v>
   <v>       0.00634921 </v>
   <v>       0.00634921 </v>
   <v>       0.00634921 </v>
   <v>       0.00634921 </v>
   <v>       0.00634921 </v>
   <v>       0.00634921 </v>
   <v>       0.00634921 </v>
   <v>       0.00634921 </v>
   <v>       0.00634921 </v>
   <v>       0.00634921 </v>
   <v>       0.00634921 </v>
   <v>       0.00634921 </v>
   <v>       0.00634921 </v>
   <v>       0.00634921 </v>
   <v>       0.00634921 </v>
   <v>       0.00634921 </v>
   <v>       0.00634921 </v>
   <v>       0.00634921 </v>
   <v>       0.00634921 </v>
   <v>       0.00634921 </v>
   <v>       0.00634921 </v>
   <v>       0.00634921 </v>
   <v>       0.00634921 </v>
   <v>       0.00634921 </v>
   <v>       0.00634921 </v>
   <v>       0.00634921 </v>
   <v>       0.00634921 </v>
   <v>       0.00634921 </v>
   <v>       0.00634921 </v>
   <v>       0.00634921 </v>
   <v>       0.00634921 </v>
   <v>       0.00634921 </v>
   <v>       0.00634921 </v>
   <v>       0.00634921 </v>
   <v>       0.00634921 </v>
   <v>       0.00634921 </v>
   <v>       0.00634921 </v>
   <v>       0.00634921 </v>
   <v>       0.00634921 </v>
   <v>       0.00634921 </v>
   <v>       0.00634921 </v>
   <v>       0.00634921 </v>
   <v>       0.00634921 </v>
   <v>       0.00634921 </v>
   <v>       0.00634921 </v>
   <v>       0.00634921 </v>
   <v>       0.00634921 </v>
   <v>       0.00634921 </v>
   <v>       0.00634921 </v>
   <v>       0.00634921 </v>
   <v>       0.00634921 </v>
   <v>       0.00634921 </v>
   <v>       0.00634921 </v>
   <v>       0.00634921 </v>
   <v>       0.00634921 </v>
   <v>       0.00634921 </v>
   <v>       0.00634921 </v>
   <v>       0.00634921 </v>
   <v>       0.00634921 </v>
   <v>       0.00634921 </v>
   <v>       0.00634921 </v>
   <v>       0.00634921 </v>
   <v>       0.00634921 </v>
   <v>       0.00634921 </v>
   <v>       0.00634921 </v>
   <v>       0.00634921 </v>
   <v>       0.00634921 </v>
   <v>       0.00634921 </v>
   <v>       0.00634921 </v>
   <v>       0.00634921 </v>
   <v>       0.00634921 </v>
   <v>       0.00634921 </v>
   <v>       0.00634921 </v>
   <v>       0.00634921 </v>
   <v>       0.00634921 </v>
   <v>       0.00634921 </v>
   <v>       0.00634921 </v>
   <v>       0.00634921 </v>
   <v>       0.00634921 </v>
   <v>       0.00634921 </v>
   <v>       0.00634921 </v>
   <v>       0.00634921 </v>
   <v>       0.00634921 </v>
   <v>       0.00634921 </v>
   <v>       0.00634921 </v>
   <v>       0.00634921 </v>
   <v>       0.00634921 </v>
   <v>       0.00634921 </v>
   <v>       0.00634921 </v>
   <v>       0.00634921 </v>
   <v>       0.00634921 </v>
   <v>       0.00634921 </v>
   <v>       0.00634921 </v>
   <v>       0.00634921 </v>
   <v>       0.00634921 </v>
   <v>       0.00634921 </v>
   <v>       0.00634921 </v>
   <v>       0.00634921 </v>
   <v>       0.00634921 </v>
   <v>       0.00634921 </v>
   <v>       0.00634921 </v>
   <v>       0.00634921 </v>
   <v>       0.00634921 </v>
   <v>       0.00634921 </v>
   <v>       0.00634921 </v>
   <v>       0.00634921 </v>
   <v>       0.00634921 </v>
   <v>       0.00634921 </v>
   <v>       0.00634921 </v>
   <v>       0.00634921 </v>
   <v>       0.00634921 </v>
   <v>       0.00634921 </v>
  </varray>
 </kpoints>
 <parameters>
  <separator name="general" >
   <i type="string" name="SYSTEM">unknown system</i>
   <i type="logical" name="LCOMPAT"> F  </i>
  </separator>
  <separator name="electronic" >
   <i type="string" name="PREC">a</i>
   <i name="ENMAX">    520.00000000</i>
   <i name="ENAUG">    342.92400000</i>
   <i name="EDIFF">      0.00001000</i>
   <i type="int" name="IALGO">    38</i>
   <i type="int" name="IWAVPR">    11</i>
   <i type="int" name="NBANDS">    16</i>
   <i name="NELECT">     20.00000000</i>
   <i type="int" name="TURBO">     0</i>
   <i type="int" name="IRESTART">     0</i>
   <i type="int" name="NREBOOT">     0</i>
   <i type="int" name="NMIN">     0</i>
   <i name="EREF">      0.00000000</i>
   <separator name="electronic smearing" >
    <i type="int" name="ISMEAR">     0</i>
    <i name="SIGMA">      0.02000000</i>
    <i name="KSPACING">      0.50000000</i>
    <i type="logical" name="KGAMMA"> T  </i>
   </separator>
   <separator name="electronic projectors" >
    <i type="logical" name="LREAL"> F  </i>
    <v name="ROPT">      0.00000000</v>
    <i type="int" name="LMAXPAW">  -100</i>
    <i type="int" name="LMAXMIX">     2</i>
    <i type="logical" name="NLSPLINE"> F  </i>
   </separator>
   <separator name="electronic startup" >
    <i type="int" name="ISTART">     0</i>
    <i type="int" name="ICHARG">     2</i>
    <i type="int" name="INIWAV">     1</i>
   </separator>
   <separator name="electronic spin" >
    <i type="int" name="ISPIN">     1</i>
    <i type="logical" name="LNONCOLLINEAR"> F  </i>
    <v name="MAGMOM">      1.00000000      1.00000000      1.00000000      1.00000000</v>
    <i name="NUPDOWN">     -1.00000000</i>
    <i type="logical" name="LSORBIT"> F  </i>
    <v name="SAXIS">      0.00000000      0.00000000      1.00000000</v>
    <i type="logical" name="LSPIRAL"> F  </i>
    <v name="QSPIRAL">      0.00000000      0.00000000      0.00000000</v>
    <i type="logical" name="LZEROZ"> F  </i>
   </separator>
   <separator name="electronic exchange-correlation" >
    <i type="logical" name="LASPH"> F  </i>
    <i type="logical" name="LMETAGGA"> F  </i>
   </separator>
   <separator name="electronic convergence" >
    <i type="int" name="NELM">   250</i>
    <i type="int" name="NELMDL">    -5</i>
    <i type="int" name="NELMIN">     6</i>
    <i name="ENINI">    520.00000000</i>
    <separator name="electronic convergence detail" >
     <i type="logical" name="LDIAG"> T  </i>
     <i type="logical" name="LSUBROT"> F  </i>
     <i name="WEIMIN">      0.00100000</i>
     <i name="EBREAK">      0.00000016</i>
     <i name="DEPER">      0.30000000</i>
     <i type="int" name="NRMM">     4</i>
     <i name="TIME">      0.40000000</i>
    </separator>
   </separator>
   <separator name="electronic mixer" >
    <i name="AMIX">      0.40000000</i>
    <i name="BMIX">      1.00000000</i>
    <i name="AMIN">      0.10000000</i>
    <i name="AMIX_MAG">      1.60000000</i>
    <i name="BMIX_MAG">      1.00000000</i>
    <separator name="electronic mixer details" >
     <i type="int" name="IMIX">     4</i>
     <i type="logical" name="MIXFIRST"> F  </i>
     <i type="int" name="MAXMIX">   -45</i>
     <i name="WC">    100.00000000</i>
     <i type="int" name="INIMIX">     1</i>
     <i type="int" name="MIXPRE">     1</i>
     <i type="int" name="MREMOVE">     5</i>
    </separator>
   </separator>
   <separator name="electronic dipolcorrection" >
    <i type="logical" name="LDIPOL"> F  </i>
    <i type="logical" name="LMONO"> F  </i>
    <i type="int" name="IDIPOL">     0</i>
    <i name="EPSILON">      1.00000000</i>
    <v name="DIPOL">   -100.00000000   -100.00000000   -100.00000000</v>
    <i name="EFIELD">      0.00000000</i>
   </separator>
  </separator>
  <separator name="grids" >
   <i type="int" name="NGX">    28</i>
   <i type="int" name="NGY">    36</i>
   <i type="int" name="NGZ">   150</i>
   <i type="int" name="NGXF">    56</i>
   <i type="int" name="NGYF">    72</i>
   <i type="int" name="NGZF">   300</i>
   <i type="logical" name="ADDGRID"> F  </i>
  </separator>
  <separator name="ionic" >
   <i type="int" name="NSW">   200</i>
   <i type="int" name="IBRION">     2</i>
   <i type="int" name="ISIF">     2</i>
   <i name="PSTRESS">      0.00000000</i>
   <i name="EDIFFG">     -0.01000000</i>
   <i type="int" name="NFREE">     1</i>
   <i name="POTIM">      0.30000000</i>
   <i name="SMASS">     -3.00000000</i>
   <i name="SCALEE">      1.00000000</i>
  </separator>
  <separator name="ionic md" >
   <i name="TEBEG">      0.00010000</i>
   <i name="TEEND">      0.00010000</i>
   <i type="int" name="NBLOCK">     1</i>
   <i type="int" name="KBLOCK">   200</i>
   <i type="int" name="NPACO">   256</i>
   <i name="APACO">     16.00000000</i>
  </separator>
  <separator name="symmetry" >
   <i type="int" name="ISYM">     2</i>
   <i name="SYMPREC">      0.00001000</i>
  </separator>
  <separator name="dos" >
   <i type="logical" name="LORBIT"> F  </i>
   <v name="RWIGS">     -1.00000000</v>
   <i type="int" name="NEDOS">   301</i>
   <i name="EMIN">     10.00000000</i>
   <i name="EMAX">    -10.00000000</i>
   <i name="EFERMI">      0.00000000</i>
  </separator>
  <separator name="writing" >
   <i type="int" name="NWRITE">     2</i>
   <i type="logical" name="LWAVE"> F  </i>
   <i type="logical" name="LCHARG"> F  </i>
   <i type="logical" name="LPARD"> F  </i>
   <i type="logical" name="LVTOT"> F  </i>
   <i type="logical" name="LVHAR"> F  </i>
   <i type="logical" name="LELF"> F  </i>
   <i type="logical" name="LOPTICS"> F  </i>
   <v name="STM">      0.00000000      0.00000000      0.00000000      0.00000000      0.00000000      0.00000000      0.00000000</v>
  </separator>
  <separator name="performance" >
   <i type="int" name="NPAR">     4</i>
   <i type="int" name="NSIM">     4</i>
   <i type="int" name="NBLK">    -1</i>
   <i type="logical" name="LPLANE"> T  </i>
   <i type="logical" name="LSCALAPACK"> T  </i>
   <i type="logical" name="LSCAAWARE"> F  </i>
   <i type="logical" name="LSCALU"> F  </i>
   <i type="logical" name="LASYNC"> F  </i>
   <i type="logical" name="LORBITALREAL"> F  </i>
  </separator>
  <separator name="miscellaneous" >
   <i type="int" name="IDIOT">     3</i>
   <i type="logical" name="LMUSIC"> F  </i>
   <v name="POMASS">     30.97400000</v>
   <v name="DARWINR">      0.00000000</v>
   <v name="DARWINV">      1.00000000</v>
   <i type="logical" name="LCORR"> T  </i>
  </separator>
  <i type="logical" name="GGA_COMPAT"> T  </i>
  <i type="logical" name="LBERRY"> F  </i>
  <i type="int" name="ICORELEVEL">     0</i>
  <i type="logical" name="LDAU"> F  </i>
  <i type="int" name="I_CONSTRAINED_M">     0</i>
  <separator name="electronic exchange-correlation" >
   <i type="string" name="GGA">--</i>
   <i type="int" name="VOSKOWN">     0</i>
   <i type="logical" name="LHFCALC"> F  </i>
   <i type="string" name="PRECFOCK"></i>
   <i type="logical" name="LSYMGRAD"> F  </i>
   <i type="logical" name="LHFONE"> F  </i>
   <i type="logical" name="LRHFCALC"> F  </i>
   <i type="logical" name="LTHOMAS"> F  </i>
   <i type="logical" name="LMODELHF"> F  </i>
   <i name="ENCUT4O">     -1.00000000</i>
   <i type="int" name="EXXOEP">     0</i>
   <i type="int" name="FOURORBIT">     0</i>
   <i name="AEXX">      0.00000000</i>
   <i name="HFALPHA">      0.00000000</i>
   <i name="MCALPHA">      0.00000000</i>
   <i name="ALDAX">      1.00000000</i>
   <i name="AGGAX">      1.00000000</i>
   <i name="ALDAC">      1.00000000</i>
   <i name="AGGAC">      1.00000000</i>
   <i type="int" name="NKREDX">     1</i>
   <i type="int" name="NKREDY">     1</i>
   <i type="int" name="NKREDZ">     1</i>
   <i type="logical" name="SHIFTRED"> F  </i>
   <i type="logical" name="ODDONLY"> F  </i>
   <i type="logical" name="EVENONLY"> F  </i>
   <i type="int" name="LMAXFOCK">     0</i>
   <i type="int" name="NMAXFOCKAE">     0</i>
   <i type="logical" name="LFOCKAEDFT"> F  </i>
   <i name="HFSCREEN">      0.00000000</i>
   <i name="HFSCREENC">      0.00000000</i>
   <i type="int" name="NBANDSGWLOW">     0</i>
  </separator>
  <separator name="vdW DFT" >
   <i type="logical" name="LUSE_VDW"> F  </i>
   <i name="Zab_VDW">     -0.84910000</i>
   <i name="PARAM1">      0.12340000</i>
   <i name="PARAM2">      1.00000000</i>
   <i name="PARAM3">      0.00000000</i>
  </separator>
  <separator name="model GW" >
   <i type="int" name="MODEL_GW">     0</i>
   <i name="MODEL_EPS0">     45.09611590</i>
   <i name="MODEL_ALPHA">      1.00000000</i>
  </separator>
  <separator name="linear response parameters" >
   <i type="logical" name="LEPSILON"> F  </i>
   <i type="logical" name="LRPA"> F  </i>
   <i type="logical" name="LNABLA"> F  </i>
   <i type="logical" name="LVEL"> F  </i>
   <i type="int" name="KINTER">     0</i>
   <i name="CSHIFT">      0.10000000</i>
   <i name="OMEGAMAX">     -1.00000000</i>
   <i name="DEG_THRESHOLD">      0.00200000</i>
  </separator>
  <separator name="orbital magnetization" >
   <i type="logical" name="NUCIND"> F  </i>
   <v name="MAGPOS">      0.00000000      0.00000000      0.00000000</v>
   <i type="logical" name="LNICSALL"> T  </i>
   <i type="logical" name="ORBITALMAG"> F  </i>
   <i type="logical" name="LMAGBLOCH"> F  </i>
   <i type="logical" name="LCHIMAG"> F  </i>
   <i type="logical" name="LGAUGE"> T  </i>
   <i type="int" name="MAGATOM">     0</i>
   <v name="MAGDIPOL">      0.00000000      0.00000000      0.00000000</v>
   <v name="AVECCONST">      0.00000000      0.00000000      0.00000000</v>
  </separator>
  <separator name="response functions" >
   <i type="logical" name="LADDER"> F  </i>
   <i type="logical" name="LFXC"> F  </i>
   <i type="logical" name="LHARTREE"> T  </i>
   <i type="int" name="IBSE">     0</i>
   <v type="int" name="KPOINT">    -1     0     0     0</v>
   <i type="logical" name="LTCTE"> F  </i>
   <i type="logical" name="LTETE"> F  </i>
   <i type="logical" name="LTRIPLET"> F  </i>
   <i type="logical" name="LFXCEPS"> F  </i>
   <i type="logical" name="LFXHEG"> F  </i>
   <i type="int" name="NATURALO">     0</i>
   <i type="logical" name="L2ORDER"> F  </i>
   <i type="logical" name="LUSEW"> F  </i>
   <i name="ENCUTGW">     -2.00000000</i>
   <i name="ENCUTGWSOFT">     -2.00000000</i>
   <i name="ENCUTLF">     -1.00000000</i>
   <i type="int" name="LMAXMP2">    -1</i>
   <i name="SCISSOR">      0.00000000</i>
   <i type="int" name="NOMEGA">     0</i>
   <i type="int" name="NOMEGAR">     0</i>
   <i type="int" name="NBANDSGW">    -1</i>
   <i type="int" name="NBANDSO">    -1</i>
   <i type="int" name="NBANDSV">    -1</i>
   <i type="int" name="NELM">   250</i>
   <i type="int" name="NELMHF">     1</i>
   <i type="int" name="DIM">     3</i>
   <i type="int" name="ANTIRES">     0</i>
   <i name="OMEGAMAX">    -30.00000000</i>
   <i name="OMEGAMIN">    -30.00000000</i>
   <i name="OMEGATL">   -200.00000000</i>
   <i type="int" name="OMEGAGRID">     0</i>
   <i name="CSHIFT">     -0.10000000</i>
   <i type="logical" name="SELFENERGY"> F  </i>
   <i type="logical" name="LSPECTRAL"> F  </i>
   <i type="logical" name="LSPECTRALGW"> F  </i>
   <i type="logical" name="LSINGLES"> F  </i>
   <i type="logical" name="LFERMIGW"> F  </i>
   <i type="logical" name="ODDONLYGW"> F  </i>
   <i type="logical" name="EVENONLYGW"> F  </i>
   <i type="int" name="NKREDLFX">     1</i>
   <i type="int" name="NKREDLFY">     1</i>
   <i type="int" name="NKREDLFZ">     1</i>
   <i type="int" name="MAXMEM">  1800</i>
   <i type="int" name="TELESCOPE">     0</i>
   <i type="int" name="TAUPAR">     1</i>
   <i type="int" name="OMEGAPAR">    -1</i>
   <i name="LAMBDA">      1.00000000</i>
  </separator>
  <separator name="External order field" >
   <i name="OFIELD_KAPPA">      0.00000000</i>
   <v name="OFIELD_K">      0.00000000      0.00000000      0.00000000</v>
   <i name="OFIELD_Q6_NEAR">      0.00000000</i>
   <i name="OFIELD_Q6_FAR">      0.00000000</i>
   <i name="OFIELD_A">      0.00000000</i>
  </separator>
 </parameters>
 <atominfo>
  <atoms>       4 </atoms>
  <types>       1 </types>
  <array name="atoms" >
   <dimension dim="1">ion</dimension>
   <field type="string">element</field>
   <field type="int">atomtype</field>
   <set>
    <rc><c>P </c><c>   1</c></rc>
    <rc><c>P </c><c>   1</c></rc>
    <rc><c>P </c><c>   1</c></rc>
    <rc><c>P </c><c>   1</c></rc>
   </set>
  </array>
  <array name="atomtypes" >
   <dimension dim="1">type</dimension>
   <field type="int">atomspertype</field>
   <field type="string">element</field>
   <field>mass</field>
   <field>valence</field>
   <field type="string">pseudopotential</field>
   <set>
    <rc><c>   4</c><c>P </c><c>     30.97400000</c><c>      5.00000000</c><c>  PAW_PBE P 06Sep2000                   </c></rc>
   </set>
  </array>
 </atominfo>
 <structure name="initialpos" >
  <crystal>
   <varray name="basis" >
    <v>       3.29720400       0.00000000       0.00000000 </v>
    <v>       0.00000000       4.55347300      -0.00005300 </v>
    <v>       0.00000000       0.00000000      20.02439000 </v>
   </varray>
   <i name="volume">    300.64077265 </i>
   <varray name="rec_basis" >
    <v>       0.30328727       0.00000000       0.00000000 </v>
    <v>       0.00000000       0.21961259       0.00000000 </v>
    <v>       0.00000000       0.00000058       0.04993910 </v>
   </varray>
  </crystal>
  <varray name="positions" >
   <v>       0.50000000       0.91077300       0.55252100 </v>
   <v>       0.50000000       0.08922700       0.44747900 </v>
   <v>       0.00000000       0.41076900       0.44747900 </v>
   <v>       0.00000000       0.58923100       0.55252100 </v>
  </varray>
 </structure>
 <calculation>
  <scstep>
   <time name="dav">    1.49    1.49</time>
   <time name="total">    1.51    1.52</time>
   <energy>
    <i name="alphaZ">      5.33580667 </i>
    <i name="ewald">   1898.76799699 </i>
    <i name="hartreedc">  -2492.32549763 </i>
    <i name="XCdc">     13.16064798 </i>
    <i name="pawpsdc">    559.04011960 </i>
    <i name="pawaedc">   -526.39432044 </i>
    <i name="eentropy">     -0.00060401 </i>
    <i name="bandstr">    -27.39870980 </i>
    <i name="atom">    704.16778566 </i>
    <i name="e_fr_energy">    134.35322504 </i>
    <i name="e_wo_entrp">    134.35382904 </i>
    <i name="e_0_energy">    134.35352704 </i>
   </energy>
  </scstep>
  <scstep>
   <time name="dav">    1.99    1.99</time>
   <time name="total">    1.99    2.00</time>
   <energy>
    <i name="e_fr_energy">     -6.31343387 </i>
    <i name="e_wo_entrp">     -6.31343387 </i>
    <i name="e_0_energy">     -6.31343387 </i>
   </energy>
  </scstep>
  <scstep>
   <time name="dav">    1.84    1.84</time>
   <time name="total">    1.84    1.84</time>
   <energy>
    <i name="e_fr_energy">    -21.35488411 </i>
    <i name="e_wo_entrp">    -21.35488411 </i>
    <i name="e_0_energy">    -21.35488411 </i>
   </energy>
  </scstep>
  <scstep>
   <time name="dav">    1.87    1.87</time>
   <time name="total">    1.87    1.87</time>
   <energy>
    <i name="e_fr_energy">    -21.66070791 </i>
    <i name="e_wo_entrp">    -21.66070791 </i>
    <i name="e_0_energy">    -21.66070791 </i>
   </energy>
  </scstep>
  <scstep>
   <time name="dav">    1.99    1.99</time>
   <time name="total">    2.08    2.08</time>
   <energy>
    <i name="e_fr_energy">    -21.67068357 </i>
    <i name="e_wo_entrp">    -21.67068357 </i>
    <i name="e_0_energy">    -21.67068357 </i>
   </energy>
  </scstep>
  <scstep>
   <time name="dav">    1.78    1.78</time>
   <time name="total">    1.90    1.90</time>
   <energy>
    <i name="e_fr_energy">    -21.52057032 </i>
    <i name="e_wo_entrp">    -21.52057032 </i>
    <i name="e_0_energy">    -21.52057032 </i>
   </energy>
  </scstep>
  <scstep>
   <time name="dav">    1.74    1.74</time>
   <time name="total">    1.85    1.85</time>
   <energy>
    <i name="e_fr_energy">    -21.44975616 </i>
    <i name="e_wo_entrp">    -21.44975616 </i>
    <i name="e_0_energy">    -21.44975616 </i>
   </energy>
  </scstep>
  <scstep>
   <time name="dav">    1.80    1.80</time>
   <time name="total">    1.91    1.91</time>
   <energy>
    <i name="e_fr_energy">    -21.44895052 </i>
    <i name="e_wo_entrp">    -21.44895052 </i>
    <i name="e_0_energy">    -21.44895052 </i>
   </energy>
  </scstep>
  <scstep>
   <time name="dav">    2.12    2.12</time>
   <time name="total">    2.23    2.23</time>
   <energy>
    <i name="e_fr_energy">    -21.44879584 </i>
    <i name="e_wo_entrp">    -21.44879584 </i>
    <i name="e_0_energy">    -21.44879584 </i>
   </energy>
  </scstep>
  <scstep>
   <time name="dav">    1.82    1.82</time>
   <time name="total">    1.93    1.93</time>
   <energy>
    <i name="e_fr_energy">    -21.44861340 </i>
    <i name="e_wo_entrp">    -21.44861340 </i>
    <i name="e_0_energy">    -21.44861340 </i>
   </energy>
  </scstep>
  <scstep>
   <time name="dav">    1.80    1.80</time>
   <time name="total">    1.91    1.92</time>
   <energy>
    <i name="e_fr_energy">    -21.44849179 </i>
    <i name="e_wo_entrp">    -21.44849179 </i>
    <i name="e_0_energy">    -21.44849179 </i>
   </energy>
  </scstep>
  <scstep>
   <time name="dav">    1.62    1.62</time>
   <time name="total">    1.73    1.73</time>
   <energy>
    <i name="e_fr_energy">    -21.44892115 </i>
    <i name="e_wo_entrp">    -21.44892115 </i>
    <i name="e_0_energy">    -21.44892115 </i>
   </energy>
  </scstep>
  <scstep>
   <time name="dav">    1.59    1.59</time>
   <time name="total">    1.70    1.71</time>
   <energy>
    <i name="e_fr_energy">    -21.44901059 </i>
    <i name="e_wo_entrp">    -21.44901059 </i>
    <i name="e_0_energy">    -21.44901059 </i>
   </energy>
  </scstep>
  <scstep>
   <time name="dav">    1.48    1.48</time>
   <time name="total">    1.60    1.60</time>
   <energy>
    <i name="e_fr_energy">    -21.44913450 </i>
    <i name="e_wo_entrp">    -21.44913450 </i>
    <i name="e_0_energy">    -21.44913450 </i>
   </energy>
  </scstep>
  <scstep>
   <time name="dav">    1.52    1.52</time>
   <time name="total">    1.63    1.63</time>
   <energy>
    <i name="e_fr_energy">    -21.44918631 </i>
    <i name="e_wo_entrp">    -21.44918631 </i>
    <i name="e_0_energy">    -21.44918631 </i>
   </energy>
  </scstep>
  <scstep>
   <time name="dav">    1.47    1.47</time>
   <time name="total">    1.58    1.59</time>
   <energy>
    <i name="e_fr_energy">    -21.44921664 </i>
    <i name="e_wo_entrp">    -21.44921664 </i>
    <i name="e_0_energy">    -21.44921664 </i>
   </energy>
  </scstep>
  <scstep>
   <time name="dav">    1.46    1.46</time>
   <time name="total">    1.48    1.49</time>
   <energy>
    <i name="alphaZ">      5.33580667 </i>
    <i name="ewald">   1898.76799699 </i>
    <i name="hartreedc">  -2508.25811332 </i>
    <i name="XCdc">     14.24870903 </i>
    <i name="pawpsdc">   2166.81750131 </i>
    <i name="pawaedc">  -2134.53301533 </i>
    <i name="eentropy">     -0.00000000 </i>
    <i name="bandstr">   -167.99589038 </i>
    <i name="atom">    704.16778566 </i>
    <i name="e_fr_energy">    -21.44921937 </i>
    <i name="e_wo_entrp">    -21.44921937 </i>
    <i name="e_0_energy">    -21.44921937 </i>
   </energy>
  </scstep>
  <structure>
   <crystal>
    <varray name="basis" >
     <v>       3.29720400       0.00000000       0.00000000 </v>
     <v>       0.00000000       4.55347300      -0.00005300 </v>
     <v>       0.00000000       0.00000000      20.02439000 </v>
    </varray>
    <i name="volume">    300.64077265 </i>
    <varray name="rec_basis" >
     <v>       0.30328727       0.00000000       0.00000000 </v>
     <v>       0.00000000       0.21961259       0.00000000 </v>
     <v>       0.00000000       0.00000058       0.04993910 </v>
    </varray>
   </crystal>
   <varray name="positions" >
    <v>       0.50000000       0.91077300       0.55252100 </v>
    <v>       0.50000000       0.08922700       0.44747900 </v>
    <v>       0.00000000       0.41076900       0.44747900 </v>
    <v>       0.00000000       0.58923100       0.55252100 </v>
   </varray>
  </structure>
  <varray name="forces" >
   <v>       0.00000012       0.22738612       0.03526384 </v>
   <v>      -0.00000012      -0.22738612      -0.03526384 </v>
   <v>      -0.00000014       0.22734917      -0.03526670 </v>
   <v>       0.00000014      -0.22734917       0.03526670 </v>
  </varray>
  <varray name="stress" >
   <v>       2.77601190      -0.00000041       0.00000178 </v>
   <v>      -0.00000041       5.46756599       0.00035278 </v>
   <v>       0.00000179       0.00035278       0.72361481 </v>
  </varray>
  <energy>
   <i name="e_fr_energy">    -21.44921937 </i>
   <i name="e_wo_entrp">    -21.44921937 </i>
   <i name="e_0_energy">     -0.00000000 </i>
  </energy>
  <time name="totalsc">   31.53  106.59</time>
 </calculation>
 <calculation>
  <scstep>
   <time name="dav">    1.57    1.57</time>
   <time name="total">    1.69    1.70</time>
   <energy>
    <i name="alphaZ">      5.33580667 </i>
    <i name="ewald">   1896.82113850 </i>
    <i name="hartreedc">  -2506.71695031 </i>
    <i name="XCdc">     14.21188899 </i>
    <i name="pawpsdc">   2166.55616191 </i>
    <i name="pawaedc">  -2134.27173000 </i>
    <i name="eentropy">     -0.00000000 </i>
    <i name="bandstr">   -167.55696873 </i>
    <i name="atom">    704.16778566 </i>
    <i name="e_fr_energy">    -21.45286731 </i>
    <i name="e_wo_entrp">    -21.45286731 </i>
    <i name="e_0_energy">    -21.45286731 </i>
   </energy>
  </scstep>
  <scstep>
   <time name="dav">    1.89    1.89</time>
   <time name="total">    2.00    2.00</time>
   <energy>
    <i name="e_fr_energy">    -21.45344971 </i>
    <i name="e_wo_entrp">    -21.45344971 </i>
    <i name="e_0_energy">    -21.45344971 </i>
   </energy>
  </scstep>
  <scstep>
   <time name="dav">    1.98    1.98</time>
   <time name="total">    2.09    2.09</time>
   <energy>
    <i name="e_fr_energy">    -21.45344016 </i>
    <i name="e_wo_entrp">    -21.45344016 </i>
    <i name="e_0_energy">    -21.45344016 </i>
   </energy>
  </scstep>
  <scstep>
   <time name="dav">    1.65    1.65</time>
   <time name="total">    1.76    1.76</time>
   <energy>
    <i name="e_fr_energy">    -21.45343769 </i>
    <i name="e_wo_entrp">    -21.45343769 </i>
    <i name="e_0_energy">    -21.45343769 </i>
   </energy>
  </scstep>
  <scstep>
   <time name="dav">    1.38    1.38</time>
   <time name="total">    1.49    1.49</time>
   <energy>
    <i name="e_fr_energy">    -21.45343766 </i>
    <i name="e_wo_entrp">    -21.45343766 </i>
    <i name="e_0_energy">    -21.45343766 </i>
   </energy>
  </scstep>
  <scstep>
   <time name="dav">    1.31    1.31</time>
   <time name="total">    1.33    1.33</time>
   <energy>
    <i name="alphaZ">      5.33580667 </i>
    <i name="ewald">   1896.82113850 </i>
    <i name="hartreedc">  -2506.70878806 </i>
    <i name="XCdc">     14.20728220 </i>
    <i name="pawpsdc">   2141.02850298 </i>
    <i name="pawaedc">  -2108.73458340 </i>
    <i name="eentropy">     -0.00000000 </i>
    <i name="bandstr">   -167.57058243 </i>
    <i name="atom">    704.16778566 </i>
    <i name="e_fr_energy">    -21.45343788 </i>
    <i name="e_wo_entrp">    -21.45343788 </i>
    <i name="e_0_energy">    -21.45343788 </i>
   </energy>
  </scstep>
  <structure>
   <crystal>
    <varray name="basis" >
     <v>       3.29720400       0.00000000       0.00000000 </v>
     <v>       0.00000000       4.55347300      -0.00005300 </v>
     <v>       0.00000000       0.00000000      20.02439000 </v>
    </varray>
    <i name="volume">    300.64077265 </i>
    <varray name="rec_basis" >
     <v>       0.30328727       0.00000000       0.00000000 </v>
     <v>       0.00000000       0.21961259       0.00000000 </v>
     <v>       0.00000000       0.00000058       0.04993910 </v>
    </varray>
   </crystal>
   <varray name="positions" >
    <v>       0.50000000       0.91221845       0.55257198 </v>
    <v>       0.50000000       0.08778155       0.44742802 </v>
    <v>      -0.00000000       0.41221422       0.44742803 </v>
    <v>       0.00000000       0.58778578       0.55257197 </v>
   </varray>
  </structure>
  <varray name="forces" >
   <v>      -0.00000000       0.08078164       0.04148675 </v>
   <v>       0.00000000      -0.08078164      -0.04148675 </v>
   <v>       0.00000003       0.08075082      -0.04148754 </v>
   <v>      -0.00000003      -0.08075082       0.04148754 </v>
  </varray>
  <varray name="stress" >
   <v>       2.03218452       0.00000429      -0.00000053 </v>
   <v>       0.00000433       3.38506031       0.00031028 </v>
   <v>      -0.00000057       0.00031030       0.88831556 </v>
  </varray>
  <energy>
   <i name="e_fr_energy">    -21.45343788 </i>
   <i name="e_wo_entrp">    -21.45343788 </i>
   <i name="e_0_energy">     -0.00000000 </i>
  </energy>
  <time name="totalsc">   11.12   11.15</time>
 </calculation>
 <calculation>
  <scstep>
   <time name="dav">    1.57    1.57</time>
   <time name="total">    1.68    1.68</time>
   <energy>
    <i name="alphaZ">      5.33580667 </i>
    <i name="ewald">   1895.66194763 </i>
    <i name="hartreedc">  -2505.78782820 </i>
    <i name="XCdc">     14.18536149 </i>
    <i name="pawpsdc">   2140.82078860 </i>
    <i name="pawaedc">  -2108.52690038 </i>
    <i name="eentropy">     -0.00000000 </i>
    <i name="bandstr">   -167.31090055 </i>
    <i name="atom">    704.16778566 </i>
    <i name="e_fr_energy">    -21.45393908 </i>
    <i name="e_wo_entrp">    -21.45393908 </i>
    <i name="e_0_energy">    -21.45393908 </i>
   </energy>
  </scstep>
  <scstep>
   <time name="dav">    1.89    1.89</time>
   <time name="total">    2.00    2.00</time>
   <energy>
    <i name="e_fr_energy">    -21.45414695 </i>
    <i name="e_wo_entrp">    -21.45414695 </i>
    <i name="e_0_energy">    -21.45414695 </i>
   </energy>
  </scstep>
  <scstep>
   <time name="dav">    1.91    1.91</time>
   <time name="total">    2.02    2.02</time>
   <energy>
    <i name="e_fr_energy">    -21.45414246 </i>
    <i name="e_wo_entrp">    -21.45414246 </i>
    <i name="e_0_energy">    -21.45414246 </i>
   </energy>
  </scstep>
  <scstep>
   <time name="dav">    1.37    1.38</time>
   <time name="total">    1.49    1.49</time>
   <energy>
    <i name="e_fr_energy">    -21.45413988 </i>
    <i name="e_wo_entrp">    -21.45413988 </i>
    <i name="e_0_energy">    -21.45413988 </i>
   </energy>
  </scstep>
  <scstep>
   <time name="dav">    1.23    1.23</time>
   <time name="total">    1.34    1.34</time>
   <energy>
    <i name="e_fr_energy">    -21.45413998 </i>
    <i name="e_wo_entrp">    -21.45413998 </i>
    <i name="e_0_energy">    -21.45413998 </i>
   </energy>
  </scstep>
  <scstep>
   <time name="dav">    1.17    1.17</time>
   <time name="total">    1.19    1.19</time>
   <energy>
    <i name="alphaZ">      5.33580667 </i>
    <i name="ewald">   1895.66194763 </i>
    <i name="hartreedc">  -2505.79464711 </i>
    <i name="XCdc">     14.18279569 </i>
    <i name="pawpsdc">   2125.77380784 </i>
    <i name="pawaedc">  -2093.47439561 </i>
    <i name="eentropy">     -0.00000000 </i>
    <i name="bandstr">   -167.30724072 </i>
    <i name="atom">    704.16778566 </i>
    <i name="e_fr_energy">    -21.45413995 </i>
    <i name="e_wo_entrp">    -21.45413995 </i>
    <i name="e_0_energy">    -21.45413995 </i>
   </energy>
  </scstep>
  <structure>
   <crystal>
    <varray name="basis" >
     <v>       3.29720400       0.00000000       0.00000000 </v>
     <v>       0.00000000       4.55347300      -0.00005300 </v>
     <v>       0.00000000       0.00000000      20.02439000 </v>
    </varray>
    <i name="volume">    300.64077265 </i>
    <varray name="rec_basis" >
     <v>       0.30328727       0.00000000       0.00000000 </v>
     <v>       0.00000000       0.21961259       0.00000000 </v>
     <v>       0.00000000       0.00000058       0.04993910 </v>
    </varray>
   </crystal>
   <varray name="positions" >
    <v>       0.50000000       0.91308393       0.55260250 </v>
    <v>       0.50000000       0.08691607       0.44739750 </v>
    <v>      -0.00000000       0.41307955       0.44739750 </v>
    <v>       0.00000000       0.58692045       0.55260250 </v>
   </varray>
  </structure>
  <varray name="forces" >
   <v>       0.00000000      -0.00463034       0.04484838 </v>
   <v>      -0.00000000       0.00463034      -0.04484838 </v>
   <v>      -0.00000000      -0.00465759      -0.04484814 </v>
   <v>       0.00000000       0.00465759       0.04484814 </v>
  </varray>
  <varray name="stress" >
   <v>       1.63167394      -0.00000107      -0.00000035 </v>
   <v>      -0.00000104       2.14036320       0.00028436 </v>
   <v>      -0.00000031       0.00028435       0.95565658 </v>
  </varray>
  <energy>
   <i name="e_fr_energy">    -21.45413995 </i>
   <i name="e_wo_entrp">    -21.45413995 </i>
   <i name="e_0_energy">     -0.00000000 </i>
  </energy>
  <time name="totalsc">   10.48   10.50</time>
 </calculation>
 <calculation>
  <scstep>
   <time name="dav">    1.55    1.55</time>
   <time name="total">    1.66    1.66</time>
   <energy>
    <i name="alphaZ">      5.33580667 </i>
    <i name="ewald">   1895.63044336 </i>
    <i name="hartreedc">  -2505.77589297 </i>
    <i name="XCdc">     14.18225825 </i>
    <i name="pawpsdc">   2125.62141427 </i>
    <i name="pawaedc">  -2093.32202942 </i>
    <i name="eentropy">     -0.00000000 </i>
    <i name="bandstr">   -167.29392626 </i>
    <i name="atom">    704.16778566 </i>
    <i name="e_fr_energy">    -21.45414044 </i>
    <i name="e_wo_entrp">    -21.45414044 </i>
    <i name="e_0_energy">    -21.45414044 </i>
   </energy>
  </scstep>
  <scstep>
   <time name="dav">    1.12    1.12</time>
   <time name="total">    1.23    1.23</time>
   <energy>
    <i name="e_fr_energy">    -21.45414060 </i>
    <i name="e_wo_entrp">    -21.45414060 </i>
    <i name="e_0_energy">    -21.45414060 </i>
   </energy>
  </scstep>
  <scstep>
   <time name="dav">    1.17    1.17</time>
   <time name="total">    1.28    1.28</time>
   <energy>
    <i name="e_fr_energy">    -21.45414067 </i>
    <i name="e_wo_entrp">    -21.45414067 </i>
    <i name="e_0_energy">    -21.45414067 </i>
   </energy>
  </scstep>
  <scstep>
   <time name="dav">    1.17    1.17</time>
   <time name="total">    1.28    1.28</time>
   <energy>
    <i name="e_fr_energy">    -21.45414079 </i>
    <i name="e_wo_entrp">    -21.45414079 </i>
    <i name="e_0_energy">    -21.45414079 </i>
   </energy>
  </scstep>
  <scstep>
   <time name="dav">    1.21    1.21</time>
   <time name="total">    1.32    1.32</time>
   <energy>
    <i name="e_fr_energy">    -21.45414095 </i>
    <i name="e_wo_entrp">    -21.45414095 </i>
    <i name="e_0_energy">    -21.45414095 </i>
   </energy>
  </scstep>
  <scstep>
   <time name="dav">    1.17    1.17</time>
   <time name="total">    1.19    1.19</time>
   <energy>
    <i name="alphaZ">      5.33580667 </i>
    <i name="ewald">   1895.63044336 </i>
    <i name="hartreedc">  -2505.78850214 </i>
    <i name="XCdc">     14.18228957 </i>
    <i name="pawpsdc">   2125.13502297 </i>
    <i name="pawaedc">  -2092.83549269 </i>
    <i name="eentropy">     -0.00000000 </i>
    <i name="bandstr">   -167.28149445 </i>
    <i name="atom">    704.16778566 </i>
    <i name="e_fr_energy">    -21.45414106 </i>
    <i name="e_wo_entrp">    -21.45414106 </i>
    <i name="e_0_energy">    -21.45414106 </i>
   </energy>
  </scstep>
  <structure>
   <crystal>
    <varray name="basis" >
     <v>       3.29720400       0.00000000       0.00000000 </v>
     <v>       0.00000000       4.55347300      -0.00005300 </v>
     <v>       0.00000000       0.00000000      20.02439000 </v>
    </varray>
    <i name="volume">    300.64077265 </i>
    <varray name="rec_basis" >
     <v>       0.30328727       0.00000000       0.00000000 </v>
     <v>       0.00000000       0.21961259       0.00000000 </v>
     <v>       0.00000000       0.00000058       0.04993910 </v>
    </varray>
   </crystal>
   <varray name="positions" >
    <v>       0.50000000       0.91310750       0.55260333 </v>
    <v>       0.50000000       0.08689250       0.44739667 </v>
    <v>      -0.00000000       0.41310312       0.44739667 </v>
    <v>       0.00000000       0.58689688       0.55260333 </v>
   </varray>
  </structure>
  <varray name="forces" >
   <v>      -0.00000002      -0.00690117       0.04492144 </v>
   <v>       0.00000002       0.00690117      -0.04492144 </v>
   <v>       0.00000003      -0.00692843      -0.04492127 </v>
   <v>      -0.00000003       0.00692843       0.04492127 </v>
  </varray>
  <varray name="stress" >
   <v>       1.62540449       0.00000009      -0.00000046 </v>
   <v>       0.00000011       2.10149882       0.00028351 </v>
   <v>      -0.00000055       0.00028353       0.93573290 </v>
  </varray>
  <energy>
   <i name="e_fr_energy">    -21.45414106 </i>
   <i name="e_wo_entrp">    -21.45414106 </i>
   <i name="e_0_energy">     -0.00000000 </i>
  </energy>
  <time name="totalsc">    8.72    8.73</time>
 </calculation>
 <calculation>
  <scstep>
   <time name="dav">    1.44    1.44</time>
   <time name="total">    1.55    1.55</time>
   <energy>
    <i name="alphaZ">      5.33580667 </i>
    <i name="ewald">   1894.20808856 </i>
    <i name="hartreedc">  -2504.44978448 </i>
    <i name="XCdc">     14.17260821 </i>
    <i name="pawpsdc">   2125.11278772 </i>
    <i name="pawaedc">  -2092.81325585 </i>
    <i name="eentropy">     -0.00000000 </i>
    <i name="bandstr">   -167.18833999 </i>
    <i name="atom">    704.16778566 </i>
    <i name="e_fr_energy">    -21.45430351 </i>
    <i name="e_wo_entrp">    -21.45430351 </i>
    <i name="e_0_energy">    -21.45430351 </i>
   </energy>
  </scstep>
  <scstep>
   <time name="dav">    1.81    1.81</time>
   <time name="total">    1.92    1.92</time>
   <energy>
    <i name="e_fr_energy">    -21.45434199 </i>
    <i name="e_wo_entrp">    -21.45434199 </i>
    <i name="e_0_energy">    -21.45434199 </i>
   </energy>
  </scstep>
  <scstep>
   <time name="dav">    1.30    1.30</time>
   <time name="total">    1.41    1.42</time>
   <energy>
    <i name="e_fr_energy">    -21.45434011 </i>
    <i name="e_wo_entrp">    -21.45434011 </i>
    <i name="e_0_energy">    -21.45434011 </i>
   </energy>
  </scstep>
  <scstep>
   <time name="dav">    1.17    1.17</time>
   <time name="total">    1.29    1.29</time>
   <energy>
    <i name="e_fr_energy">    -21.45433980 </i>
    <i name="e_wo_entrp">    -21.45433980 </i>
    <i name="e_0_energy">    -21.45433980 </i>
   </energy>
  </scstep>
  <scstep>
   <time name="dav">    1.17    1.17</time>
   <time name="total">    1.28    1.29</time>
   <energy>
    <i name="e_fr_energy">    -21.45433983 </i>
    <i name="e_wo_entrp">    -21.45433983 </i>
    <i name="e_0_energy">    -21.45433983 </i>
   </energy>
  </scstep>
  <scstep>
   <time name="dav">    1.15    1.15</time>
   <time name="total">    1.17    1.17</time>
   <energy>
    <i name="alphaZ">      5.33580667 </i>
    <i name="ewald">   1894.20808856 </i>
    <i name="hartreedc">  -2504.44749016 </i>
    <i name="XCdc">     14.17191213 </i>
    <i name="pawpsdc">   2120.30360204 </i>
    <i name="pawaedc">  -2088.00239244 </i>
    <i name="eentropy">     -0.00000000 </i>
    <i name="bandstr">   -167.19165230 </i>
    <i name="atom">    704.16778566 </i>
    <i name="e_fr_energy">    -21.45433983 </i>
    <i name="e_wo_entrp">    -21.45433983 </i>
    <i name="e_0_energy">    -21.45433983 </i>
   </energy>
  </scstep>
  <structure>
   <crystal>
    <varray name="basis" >
     <v>       3.29720400       0.00000000       0.00000000 </v>
     <v>       0.00000000       4.55347300      -0.00005300 </v>
     <v>       0.00000000       0.00000000      20.02439000 </v>
    </varray>
    <i name="volume">    300.64077265 </i>
    <varray name="rec_basis" >
     <v>       0.30328727       0.00000000       0.00000000 </v>
     <v>       0.00000000       0.21961259       0.00000000 </v>
     <v>       0.00000000       0.00000058       0.04993910 </v>
    </varray>
   </crystal>
   <varray name="positions" >
    <v>       0.50000000       0.91312121       0.55267848 </v>
    <v>       0.50000000       0.08687879       0.44732152 </v>
    <v>      -0.00000000       0.41311662       0.44732153 </v>
    <v>       0.00000000       0.58688338       0.55267847 </v>
   </varray>
  </structure>
  <varray name="forces" >
   <v>      -0.00000002      -0.00351528       0.02204714 </v>
   <v>       0.00000002       0.00351528      -0.02204714 </v>
   <v>       0.00000003      -0.00353659      -0.02204723 </v>
   <v>      -0.00000003       0.00353659       0.02204723 </v>
  </varray>
  <varray name="stress" >
   <v>       1.58009574      -0.00000030      -0.00000043 </v>
   <v>      -0.00000028       2.00441611       0.00022030 </v>
   <v>      -0.00000042       0.00022028       0.43005895 </v>
  </varray>
  <energy>
   <i name="e_fr_energy">    -21.45433983 </i>
   <i name="e_wo_entrp">    -21.45433983 </i>
   <i name="e_0_energy">     -0.00000000 </i>
  </energy>
  <time name="totalsc">    9.38    9.40</time>
 </calculation>
 <calculation>
  <scstep>
   <time name="dav">    1.44    1.44</time>
   <time name="total">    1.55    1.55</time>
   <energy>
    <i name="alphaZ">      5.33580667 </i>
    <i name="ewald">   1892.83831507 </i>
    <i name="hartreedc">  -2503.15774404 </i>
    <i name="XCdc">     14.16264843 </i>
    <i name="pawpsdc">   2120.18902152 </i>
    <i name="pawaedc">  -2087.88784045 </i>
    <i name="eentropy">     -0.00000000 </i>
    <i name="bandstr">   -167.10236256 </i>
    <i name="atom">    704.16778566 </i>
    <i name="e_fr_energy">    -21.45436969 </i>
    <i name="e_wo_entrp">    -21.45436969 </i>
    <i name="e_0_energy">    -21.45436969 </i>
   </energy>
  </scstep>
  <scstep>
   <time name="dav">    1.83    1.83</time>
   <time name="total">    1.94    1.94</time>
   <energy>
    <i name="e_fr_energy">    -21.45440573 </i>
    <i name="e_wo_entrp">    -21.45440573 </i>
    <i name="e_0_energy">    -21.45440573 </i>
   </energy>
  </scstep>
  <scstep>
   <time name="dav">    1.30    1.30</time>
   <time name="total">    1.41    1.42</time>
   <energy>
    <i name="e_fr_energy">    -21.45440403 </i>
    <i name="e_wo_entrp">    -21.45440403 </i>
    <i name="e_0_energy">    -21.45440403 </i>
   </energy>
  </scstep>
  <scstep>
   <time name="dav">    1.20    1.20</time>
   <time name="total">    1.31    1.31</time>
   <energy>
    <i name="e_fr_energy">    -21.45440371 </i>
    <i name="e_wo_entrp">    -21.45440371 </i>
    <i name="e_0_energy">    -21.45440371 </i>
   </energy>
  </scstep>
  <scstep>
   <time name="dav">    1.17    1.17</time>
   <time name="total">    1.28    1.28</time>
   <energy>
    <i name="e_fr_energy">    -21.45440373 </i>
    <i name="e_wo_entrp">    -21.45440373 </i>
    <i name="e_0_energy">    -21.45440373 </i>
   </energy>
  </scstep>
  <scstep>
   <time name="dav">    1.06    1.06</time>
   <time name="total">    1.08    1.08</time>
   <energy>
    <i name="alphaZ">      5.33580667 </i>
    <i name="ewald">   1892.83831507 </i>
    <i name="hartreedc">  -2503.15768985 </i>
    <i name="XCdc">     14.16199524 </i>
    <i name="pawpsdc">   2115.60449257 </i>
    <i name="pawaedc">  -2083.30170840 </i>
    <i name="eentropy">     -0.00000000 </i>
    <i name="bandstr">   -167.10340069 </i>
    <i name="atom">    704.16778566 </i>
    <i name="e_fr_energy">    -21.45440373 </i>
    <i name="e_wo_entrp">    -21.45440373 </i>
    <i name="e_0_energy">    -21.45440373 </i>
   </energy>
  </scstep>
  <structure>
   <crystal>
    <varray name="basis" >
     <v>       3.29720400       0.00000000       0.00000000 </v>
     <v>       0.00000000       4.55347300      -0.00005300 </v>
     <v>       0.00000000       0.00000000      20.02439000 </v>
    </varray>
    <i name="volume">    300.64077265 </i>
    <varray name="rec_basis" >
     <v>       0.30328727       0.00000000       0.00000000 </v>
     <v>       0.00000000       0.21961259       0.00000000 </v>
     <v>       0.00000000       0.00000058       0.04993910 </v>
    </varray>
   </crystal>
   <varray name="positions" >
    <v>       0.50000000       0.91313441       0.55275087 </v>
    <v>       0.50000000       0.08686559       0.44724913 </v>
    <v>      -0.00000000       0.41312963       0.44724914 </v>
    <v>       0.00000000       0.58687037       0.55275086 </v>
   </varray>
  </structure>
  <varray name="forces" >
   <v>      -0.00000002      -0.00039295       0.00047554 </v>
   <v>       0.00000002       0.00039295      -0.00047554 </v>
   <v>       0.00000002      -0.00040874      -0.00047592 </v>
   <v>      -0.00000002       0.00040874       0.00047592 </v>
  </varray>
  <varray name="stress" >
   <v>       1.53338332      -0.00000005      -0.00000046 </v>
   <v>      -0.00000009       1.90922793       0.00015917 </v>
   <v>      -0.00000046       0.00015922      -0.05482855 </v>
  </varray>
  <energy>
   <i name="e_fr_energy">    -21.45440373 </i>
   <i name="e_wo_entrp">    -21.45440373 </i>
   <i name="e_0_energy">     -0.00000000 </i>
  </energy>
  <time name="totalsc">    9.28    9.29</time>
  <eigenvalues>
   <array>
    <dimension dim="1">band</dimension>
    <dimension dim="2">kpoint</dimension>
    <dimension dim="3">spin</dimension>
    <field>eigene</field>
    <field>occ</field>
    <set>
     <set comment="spin 1">
      <set comment="kpoint 1">
       <r>  -17.2231    1.0000 </r>
       <r>  -14.7162    1.0000 </r>
       <r>  -11.3084    1.0000 </r>
       <r>   -7.9048    1.0000 </r>
       <r>   -6.8516    1.0000 </r>
       <r>   -6.7590    1.0000 </r>
       <r>   -5.5666    1.0000 </r>
       <r>   -3.9535    1.0000 </r>
       <r>   -3.9317    1.0000 </r>
       <r>   -2.2018    1.0000 </r>
       <r>   -1.3660    0.0000 </r>
       <r>   -0.5796    0.0000 </r>
       <r>    0.4996    0.0000 </r>
       <r>    1.1737    0.0000 </r>
       <r>    2.1899    0.0000 </r>
       <r>    2.3150    0.0000 </r>
      </set>
      <set comment="kpoint 2">
       <r>  -17.1960    1.0000 </r>
       <r>  -14.6880    1.0000 </r>
       <r>  -11.3193    1.0000 </r>
       <r>   -7.8839    1.0000 </r>
       <r>   -6.8718    1.0000 </r>
       <r>   -6.7350    1.0000 </r>
       <r>   -5.7388    1.0000 </r>
       <r>   -4.1339    1.0000 </r>
       <r>   -3.9194    1.0000 </r>
       <r>   -2.2014    1.0000 </r>
       <r>   -1.3403    0.0000 </r>
       <r>   -0.3385    0.0000 </r>
       <r>    0.7395    0.0000 </r>
       <r>    1.0053    0.0000 </r>
       <r>    2.2183    0.0000 </r>
       <r>    2.3455    0.0000 </r>
      </set>
      <set comment="kpoint 3">
       <r>  -17.1148    1.0000 </r>
       <r>  -14.6033    1.0000 </r>
       <r>  -11.3576    1.0000 </r>
       <r>   -7.8219    1.0000 </r>
       <r>   -6.9534    1.0000 </r>
       <r>   -6.6634    1.0000 </r>
       <r>   -6.1582    1.0000 </r>
       <r>   -4.5477    1.0000 </r>
       <r>   -3.8859    1.0000 </r>
       <r>   -2.2214    1.0000 </r>
       <r>   -1.2636    0.0000 </r>
       <r>    0.3096    0.0000 </r>
       <r>    0.5868    0.0000 </r>
       <r>    1.3271    0.0000 </r>
       <r>    2.2999    0.0000 </r>
       <r>    2.4362    0.0000 </r>
      </set>
      <set comment="kpoint 4">
       <r>  -16.9800    1.0000 </r>
       <r>  -14.4624    1.0000 </r>
       <r>  -11.4403    1.0000 </r>
       <r>   -7.7210    1.0000 </r>
       <r>   -7.1600    1.0000 </r>
       <r>   -6.6549    1.0000 </r>
       <r>   -6.5454    1.0000 </r>
       <r>   -4.9635    1.0000 </r>
       <r>   -3.8420    1.0000 </r>
       <r>   -2.2847    1.0000 </r>
       <r>   -1.1369    0.0000 </r>
       <r>    0.0673    0.0000 </r>
       <r>    1.2178    0.0000 </r>
       <r>    1.9416    0.0000 </r>
       <r>    2.3932    0.0000 </r>
       <r>    2.5863    0.0000 </r>
      </set>
      <set comment="kpoint 5">
       <r>  -16.7920    1.0000 </r>
       <r>  -14.2656    1.0000 </r>
       <r>  -11.5931    1.0000 </r>
       <r>   -7.5856    1.0000 </r>
       <r>   -7.5578    1.0000 </r>
       <r>   -7.1038    1.0000 </r>
       <r>   -6.3834    1.0000 </r>
       <r>   -5.2140    1.0000 </r>
       <r>   -3.8088    1.0000 </r>
       <r>   -2.4021    1.0000 </r>
       <r>   -0.9624    0.0000 </r>
       <r>   -0.4389    0.0000 </r>
       <r>    1.9183    0.0000 </r>
       <r>    2.0725    0.0000 </r>
       <r>    2.2368    0.0000 </r>
       <r>    2.7453    0.0000 </r>
      </set>
      <set comment="kpoint 6">
       <r>  -16.5520    1.0000 </r>
       <r>  -14.0132    1.0000 </r>
       <r>  -11.8408    1.0000 </r>
       <r>   -8.1256    1.0000 </r>
       <r>   -7.4296    1.0000 </r>
       <r>   -7.4236    1.0000 </r>
       <r>   -6.1813    1.0000 </r>
       <r>   -5.2748    1.0000 </r>
       <r>   -3.8198    1.0000 </r>
       <r>   -2.5818    1.0000 </r>
       <r>   -0.8442    0.0000 </r>
       <r>   -0.7455    0.0000 </r>
       <r>    1.3288    0.0000 </r>
       <r>    1.4913    0.0000 </r>
       <r>    2.6281    0.0000 </r>
       <r>    2.9929    0.0000 </r>
      </set>
      <set comment="kpoint 7">
       <r>  -16.2611    1.0000 </r>
       <r>  -13.7059    1.0000 </r>
       <r>  -12.1911    1.0000 </r>
       <r>   -8.7815    1.0000 </r>
       <r>   -7.6008    1.0000 </r>
       <r>   -7.2481    1.0000 </r>
       <r>   -5.9456    1.0000 </r>
       <r>   -5.2121    1.0000 </r>
       <r>   -3.9079    1.0000 </r>
       <r>   -2.8254    1.0000 </r>
       <r>   -1.0783    0.0000 </r>
       <r>   -0.5018    0.0000 </r>
       <r>    0.6760    0.0000 </r>
       <r>    0.9300    0.0000 </r>
       <r>    2.1621    0.0000 </r>
       <r>    3.3211    0.0000 </r>
      </set>
      <set comment="kpoint 8">
       <r>  -15.9214    1.0000 </r>
       <r>  -13.3444    1.0000 </r>
       <r>  -12.6274    1.0000 </r>
       <r>   -9.4621    1.0000 </r>
       <r>   -7.6247    1.0000 </r>
       <r>   -7.0820    1.0000 </r>
       <r>   -5.6865    1.0000 </r>
       <r>   -5.0913    1.0000 </r>
       <r>   -4.0679    1.0000 </r>
       <r>   -3.1229    1.0000 </r>
       <r>   -1.1106    0.0000 </r>
       <r>   -0.3053    0.0000 </r>
       <r>    0.0773    0.0000 </r>
       <r>    0.5039    0.0000 </r>
       <r>    1.6443    0.0000 </r>
       <r>    3.0564    0.0000 </r>
      </set>
      <set comment="kpoint 9">
       <r>  -15.5354    1.0000 </r>
       <r>  -13.1184    1.0000 </r>
       <r>  -12.9299    1.0000 </r>
       <r>  -10.1334    1.0000 </r>
       <r>   -7.5331    1.0000 </r>
       <r>   -6.9614    1.0000 </r>
       <r>   -5.4204    1.0000 </r>
       <r>   -4.9637    1.0000 </r>
       <r>   -4.2349    1.0000 </r>
       <r>   -3.4518    1.0000 </r>
       <r>   -0.9640    0.0000 </r>
       <r>   -0.4186    0.0000 </r>
       <r>   -0.4082    0.0000 </r>
       <r>    0.4930    0.0000 </r>
       <r>    1.1251    0.0000 </r>
       <r>    2.6310    0.0000 </r>
      </set>
      <set comment="kpoint 10">
       <r>  -15.1069    1.0000 </r>
       <r>  -13.6327    1.0000 </r>
       <r>  -12.4636    1.0000 </r>
       <r>  -10.7773    1.0000 </r>
       <r>   -7.3675    1.0000 </r>
       <r>   -6.9303    1.0000 </r>
       <r>   -5.1729    1.0000 </r>
       <r>   -4.8774    1.0000 </r>
       <r>   -4.3182    1.0000 </r>
       <r>   -3.7795    1.0000 </r>
       <r>   -0.7686    0.0000 </r>
       <r>   -0.6959    0.0000 </r>
       <r>   -0.6843    0.0000 </r>
       <r>    0.6149    0.0000 </r>
       <r>    0.8123    0.0000 </r>
       <r>    2.1626    0.0000 </r>
      </set>
      <set comment="kpoint 11">
       <r>  -14.6412    1.0000 </r>
       <r>  -14.1459    1.0000 </r>
       <r>  -11.9474    1.0000 </r>
       <r>  -11.3840    1.0000 </r>
       <r>   -7.1750    1.0000 </r>
       <r>   -7.0105    1.0000 </r>
       <r>   -4.9792    1.0000 </r>
       <r>   -4.8757    1.0000 </r>
       <r>   -4.2596    1.0000 </r>
       <r>   -4.0651    1.0000 </r>
       <r>   -0.9339    0.0000 </r>
       <r>   -0.9001    0.0000 </r>
       <r>   -0.3102    0.0000 </r>
       <r>    0.1301    0.0000 </r>
       <r>    1.2289    0.0000 </r>
       <r>    1.6870    0.0000 </r>
      </set>
      <set comment="kpoint 12">
       <r>  -17.2007    1.0000 </r>
       <r>  -14.7444    1.0000 </r>
       <r>  -11.3260    1.0000 </r>
       <r>   -8.0499    1.0000 </r>
       <r>   -6.7788    1.0000 </r>
       <r>   -6.6583    1.0000 </r>
       <r>   -5.5493    1.0000 </r>
       <r>   -3.9680    1.0000 </r>
       <r>   -3.8219    1.0000 </r>
       <r>   -2.4129    1.0000 </r>
       <r>   -1.1722    0.0000 </r>
       <r>   -0.5622    0.0000 </r>
       <r>    0.4534    0.0000 </r>
       <r>    1.1526    0.0000 </r>
       <r>    2.2509    0.0000 </r>
       <r>    2.3466    0.0000 </r>
      </set>
      <set comment="kpoint 13">
       <r>  -17.1736    1.0000 </r>
       <r>  -14.7163    1.0000 </r>
       <r>  -11.3352    1.0000 </r>
       <r>   -8.0325    1.0000 </r>
       <r>   -6.7926    1.0000 </r>
       <r>   -6.6445    1.0000 </r>
       <r>   -5.7120    1.0000 </r>
       <r>   -4.1592    1.0000 </r>
       <r>   -3.8057    1.0000 </r>
       <r>   -2.4081    1.0000 </r>
       <r>   -1.1512    0.0000 </r>
       <r>   -0.3214    0.0000 </r>
       <r>    0.6841    0.0000 </r>
       <r>    0.9979    0.0000 </r>
       <r>    2.2779    0.0000 </r>
       <r>    2.3769    0.0000 </r>
      </set>
      <set comment="kpoint 14">
       <r>  -17.0926    1.0000 </r>
       <r>  -14.6322    1.0000 </r>
       <r>  -11.3685    1.0000 </r>
       <r>   -7.9841    1.0000 </r>
       <r>   -6.8522    1.0000 </r>
       <r>   -6.6298    1.0000 </r>
       <r>   -6.0779    1.0000 </r>
       <r>   -4.5862    1.0000 </r>
       <r>   -3.7787    1.0000 </r>
       <r>   -2.4108    1.0000 </r>
       <r>   -1.0919    0.0000 </r>
       <r>    0.3260    0.0000 </r>
       <r>    0.5600    0.0000 </r>
       <r>    1.3074    0.0000 </r>
       <r>    2.3553    0.0000 </r>
       <r>    2.4672    0.0000 </r>
      </set>
      <set comment="kpoint 15">
       <r>  -16.9578    1.0000 </r>
       <r>  -14.4923    1.0000 </r>
       <r>  -11.4430    1.0000 </r>
       <r>   -7.9220    1.0000 </r>
       <r>   -7.0082    1.0000 </r>
       <r>   -6.8110    1.0000 </r>
       <r>   -6.2834    1.0000 </r>
       <r>   -5.0150    1.0000 </r>
       <r>   -3.7520    1.0000 </r>
       <r>   -2.4441    1.0000 </r>
       <r>   -0.9935    0.0000 </r>
       <r>    0.0639    0.0000 </r>
       <r>    1.2290    0.0000 </r>
       <r>    1.9446    0.0000 </r>
       <r>    2.4177    0.0000 </r>
       <r>    2.6168    0.0000 </r>
      </set>
      <set comment="kpoint 16">
       <r>  -16.7701    1.0000 </r>
       <r>  -14.2972    1.0000 </r>
       <r>  -11.5846    1.0000 </r>
       <r>   -7.9288    1.0000 </r>
       <r>   -7.2571    1.0000 </r>
       <r>   -7.1973    1.0000 </r>
       <r>   -6.1961    1.0000 </r>
       <r>   -5.2718    1.0000 </r>
       <r>   -3.7472    1.0000 </r>
       <r>   -2.5255    1.0000 </r>
       <r>   -0.8519    0.0000 </r>
       <r>   -0.4111    0.0000 </r>
       <r>    1.8580    0.0000 </r>
       <r>    2.0007    0.0000 </r>
       <r>    2.3261    0.0000 </r>
       <r>    2.7034    0.0000 </r>
      </set>
      <set comment="kpoint 17">
       <r>  -16.5303    1.0000 </r>
       <r>  -14.0481    1.0000 </r>
       <r>  -11.8192    1.0000 </r>
       <r>   -8.2503    1.0000 </r>
       <r>   -7.5111    1.0000 </r>
       <r>   -7.3411    1.0000 </r>
       <r>   -6.0217    1.0000 </r>
       <r>   -5.3324    1.0000 </r>
       <r>   -3.7963    1.0000 </r>
       <r>   -2.6692    1.0000 </r>
       <r>   -0.7743    0.0000 </r>
       <r>   -0.6669    0.0000 </r>
       <r>    1.2889    0.0000 </r>
       <r>    1.4406    0.0000 </r>
       <r>    2.6918    0.0000 </r>
       <r>    3.0871    0.0000 </r>
      </set>
      <set comment="kpoint 18">
       <r>  -16.2399    1.0000 </r>
       <r>  -13.7475    1.0000 </r>
       <r>  -12.1547    1.0000 </r>
       <r>   -8.8379    1.0000 </r>
       <r>   -7.6783    1.0000 </r>
       <r>   -7.2334    1.0000 </r>
       <r>   -5.8084    1.0000 </r>
       <r>   -5.2734    1.0000 </r>
       <r>   -3.9192    1.0000 </r>
       <r>   -2.8802    1.0000 </r>
       <r>   -0.9637    0.0000 </r>
       <r>   -0.4513    0.0000 </r>
       <r>    0.7296    0.0000 </r>
       <r>    0.7921    0.0000 </r>
       <r>    2.3522    0.0000 </r>
       <r>    3.2999    0.0000 </r>
      </set>
      <set comment="kpoint 19">
       <r>  -15.9008    1.0000 </r>
       <r>  -13.4075    1.0000 </r>
       <r>  -12.5643    1.0000 </r>
       <r>   -9.4964    1.0000 </r>
       <r>   -7.6977    1.0000 </r>
       <r>   -7.0854    1.0000 </r>
       <r>   -5.5770    1.0000 </r>
       <r>   -5.1734    1.0000 </r>
       <r>   -4.0847    1.0000 </r>
       <r>   -3.1474    1.0000 </r>
       <r>   -0.9668    0.0000 </r>
       <r>   -0.2956    0.0000 </r>
       <r>    0.1908    0.0000 </r>
       <r>    0.3260    0.0000 </r>
       <r>    1.8864    0.0000 </r>
       <r>    3.0045    0.0000 </r>
      </set>
      <set comment="kpoint 20">
       <r>  -15.5157    1.0000 </r>
       <r>  -13.2213    1.0000 </r>
       <r>  -12.8242    1.0000 </r>
       <r>  -10.1578    1.0000 </r>
       <r>   -7.5987    1.0000 </r>
       <r>   -6.9689    1.0000 </r>
       <r>   -5.3525    1.0000 </r>
       <r>   -5.0975    1.0000 </r>
       <r>   -4.2037    1.0000 </r>
       <r>   -3.4433    1.0000 </r>
       <r>   -0.8331    0.0000 </r>
       <r>   -0.4849    0.0000 </r>
       <r>   -0.2930    0.0000 </r>
       <r>    0.3795    0.0000 </r>
       <r>    1.4075    0.0000 </r>
       <r>    2.5885    0.0000 </r>
      </set>
      <set comment="kpoint 21">
       <r>  -15.0887    1.0000 </r>
       <r>  -13.6372    1.0000 </r>
       <r>  -12.4555    1.0000 </r>
       <r>  -10.7958    1.0000 </r>
       <r>   -7.4221    1.0000 </r>
       <r>   -6.9421    1.0000 </r>
       <r>   -5.1709    1.0000 </r>
       <r>   -5.0693    1.0000 </r>
       <r>   -4.2064    1.0000 </r>
       <r>   -3.7276    1.0000 </r>
       <r>   -0.8229    0.0000 </r>
       <r>   -0.7868    0.0000 </r>
       <r>   -0.3993    0.0000 </r>
       <r>    0.5916    0.0000 </r>
       <r>    1.0363    0.0000 </r>
       <r>    2.1296    0.0000 </r>
      </set>
      <set comment="kpoint 22">
       <r>  -14.6257    1.0000 </r>
       <r>  -14.1358    1.0000 </r>
       <r>  -11.9542    1.0000 </r>
       <r>  -11.3975    1.0000 </r>
       <r>   -7.2148    1.0000 </r>
       <r>   -7.0341    1.0000 </r>
       <r>   -5.0713    1.0000 </r>
       <r>   -5.0550    1.0000 </r>
       <r>   -4.1153    1.0000 </r>
       <r>   -3.9577    1.0000 </r>
       <r>   -0.9781    0.0000 </r>
       <r>   -0.9721    0.0000 </r>
       <r>   -0.0801    0.0000 </r>
       <r>    0.3240    0.0000 </r>
       <r>    1.2411    0.0000 </r>
       <r>    1.6677    0.0000 </r>
      </set>
      <set comment="kpoint 23">
       <r>  -14.6257    1.0000 </r>
       <r>  -14.1358    1.0000 </r>
       <r>  -11.9542    1.0000 </r>
       <r>  -11.3975    1.0000 </r>
       <r>   -7.2148    1.0000 </r>
       <r>   -7.0341    1.0000 </r>
       <r>   -5.0713    1.0000 </r>
       <r>   -5.0550    1.0000 </r>
       <r>   -4.1153    1.0000 </r>
       <r>   -3.9577    1.0000 </r>
       <r>   -0.9781    0.0000 </r>
       <r>   -0.9721    0.0000 </r>
       <r>   -0.0801    0.0000 </r>
       <r>    0.3240    0.0000 </r>
       <r>    1.2411    0.0000 </r>
       <r>    1.6677    0.0000 </r>
      </set>
      <set comment="kpoint 24">
       <r>  -15.0887    1.0000 </r>
       <r>  -13.6372    1.0000 </r>
       <r>  -12.4555    1.0000 </r>
       <r>  -10.7958    1.0000 </r>
       <r>   -7.4221    1.0000 </r>
       <r>   -6.9421    1.0000 </r>
       <r>   -5.1709    1.0000 </r>
       <r>   -5.0693    1.0000 </r>
       <r>   -4.2064    1.0000 </r>
       <r>   -3.7276    1.0000 </r>
       <r>   -0.8229    0.0000 </r>
       <r>   -0.7868    0.0000 </r>
       <r>   -0.3993    0.0000 </r>
       <r>    0.5916    0.0000 </r>
       <r>    1.0363    0.0000 </r>
       <r>    2.1296    0.0000 </r>
      </set>
      <set comment="kpoint 25">
       <r>  -15.5157    1.0000 </r>
       <r>  -13.2213    1.0000 </r>
       <r>  -12.8242    1.0000 </r>
       <r>  -10.1578    1.0000 </r>
       <r>   -7.5987    1.0000 </r>
       <r>   -6.9689    1.0000 </r>
       <r>   -5.3525    1.0000 </r>
       <r>   -5.0975    1.0000 </r>
       <r>   -4.2037    1.0000 </r>
       <r>   -3.4433    1.0000 </r>
       <r>   -0.8331    0.0000 </r>
       <r>   -0.4849    0.0000 </r>
       <r>   -0.2930    0.0000 </r>
       <r>    0.3795    0.0000 </r>
       <r>    1.4075    0.0000 </r>
       <r>    2.5885    0.0000 </r>
      </set>
      <set comment="kpoint 26">
       <r>  -15.9008    1.0000 </r>
       <r>  -13.4075    1.0000 </r>
       <r>  -12.5643    1.0000 </r>
       <r>   -9.4964    1.0000 </r>
       <r>   -7.6977    1.0000 </r>
       <r>   -7.0854    1.0000 </r>
       <r>   -5.5770    1.0000 </r>
       <r>   -5.1734    1.0000 </r>
       <r>   -4.0847    1.0000 </r>
       <r>   -3.1474    1.0000 </r>
       <r>   -0.9668    0.0000 </r>
       <r>   -0.2956    0.0000 </r>
       <r>    0.1908    0.0000 </r>
       <r>    0.3260    0.0000 </r>
       <r>    1.8864    0.0000 </r>
       <r>    3.0045    0.0000 </r>
      </set>
      <set comment="kpoint 27">
       <r>  -16.2399    1.0000 </r>
       <r>  -13.7475    1.0000 </r>
       <r>  -12.1547    1.0000 </r>
       <r>   -8.8379    1.0000 </r>
       <r>   -7.6783    1.0000 </r>
       <r>   -7.2334    1.0000 </r>
       <r>   -5.8084    1.0000 </r>
       <r>   -5.2734    1.0000 </r>
       <r>   -3.9192    1.0000 </r>
       <r>   -2.8802    1.0000 </r>
       <r>   -0.9637    0.0000 </r>
       <r>   -0.4513    0.0000 </r>
       <r>    0.7296    0.0000 </r>
       <r>    0.7921    0.0000 </r>
       <r>    2.3522    0.0000 </r>
       <r>    3.2999    0.0000 </r>
      </set>
      <set comment="kpoint 28">
       <r>  -16.5303    1.0000 </r>
       <r>  -14.0481    1.0000 </r>
       <r>  -11.8192    1.0000 </r>
       <r>   -8.2503    1.0000 </r>
       <r>   -7.5111    1.0000 </r>
       <r>   -7.3411    1.0000 </r>
       <r>   -6.0217    1.0000 </r>
       <r>   -5.3324    1.0000 </r>
       <r>   -3.7963    1.0000 </r>
       <r>   -2.6692    1.0000 </r>
       <r>   -0.7743    0.0000 </r>
       <r>   -0.6669    0.0000 </r>
       <r>    1.2889    0.0000 </r>
       <r>    1.4406    0.0000 </r>
       <r>    2.6918    0.0000 </r>
       <r>    3.0871    0.0000 </r>
      </set>
      <set comment="kpoint 29">
       <r>  -16.7701    1.0000 </r>
       <r>  -14.2972    1.0000 </r>
       <r>  -11.5846    1.0000 </r>
       <r>   -7.9288    1.0000 </r>
       <r>   -7.2571    1.0000 </r>
       <r>   -7.1973    1.0000 </r>
       <r>   -6.1961    1.0000 </r>
       <r>   -5.2718    1.0000 </r>
       <r>   -3.7472    1.0000 </r>
       <r>   -2.5255    1.0000 </r>
       <r>   -0.8519    0.0000 </r>
       <r>   -0.4111    0.0000 </r>
       <r>    1.8580    0.0000 </r>
       <r>    2.0007    0.0000 </r>
       <r>    2.3261    0.0000 </r>
       <r>    2.7034    0.0000 </r>
      </set>
      <set comment="kpoint 30">
       <r>  -16.9578    1.0000 </r>
       <r>  -14.4923    1.0000 </r>
       <r>  -11.4430    1.0000 </r>
       <r>   -7.9220    1.0000 </r>
       <r>   -7.0082    1.0000 </r>
       <r>   -6.8110    1.0000 </r>
       <r>   -6.2834    1.0000 </r>
       <r>   -5.0150    1.0000 </r>
       <r>   -3.7520    1.0000 </r>
       <r>   -2.4441    1.0000 </r>
       <r>   -0.9935    0.0000 </r>
       <r>    0.0639    0.0000 </r>
       <r>    1.2290    0.0000 </r>
       <r>    1.9446    0.0000 </r>
       <r>    2.4177    0.0000 </r>
       <r>    2.6168    0.0000 </r>
      </set>
      <set comment="kpoint 31">
       <r>  -17.0926    1.0000 </r>
       <r>  -14.6322    1.0000 </r>
       <r>  -11.3685    1.0000 </r>
       <r>   -7.9841    1.0000 </r>
       <r>   -6.8522    1.0000 </r>
       <r>   -6.6298    1.0000 </r>
       <r>   -6.0779    1.0000 </r>
       <r>   -4.5862    1.0000 </r>
       <r>   -3.7787    1.0000 </r>
       <r>   -2.4108    1.0000 </r>
       <r>   -1.0919    0.0000 </r>
       <r>    0.3260    0.0000 </r>
       <r>    0.5600    0.0000 </r>
       <r>    1.3074    0.0000 </r>
       <r>    2.3553    0.0000 </r>
       <r>    2.4672    0.0000 </r>
      </set>
      <set comment="kpoint 32">
       <r>  -17.1736    1.0000 </r>
       <r>  -14.7163    1.0000 </r>
       <r>  -11.3352    1.0000 </r>
       <r>   -8.0325    1.0000 </r>
       <r>   -6.7926    1.0000 </r>
       <r>   -6.6445    1.0000 </r>
       <r>   -5.7120    1.0000 </r>
       <r>   -4.1592    1.0000 </r>
       <r>   -3.8057    1.0000 </r>
       <r>   -2.4081    1.0000 </r>
       <r>   -1.1512    0.0000 </r>
       <r>   -0.3214    0.0000 </r>
       <r>    0.6841    0.0000 </r>
       <r>    0.9979    0.0000 </r>
       <r>    2.2779    0.0000 </r>
       <r>    2.3769    0.0000 </r>
      </set>
      <set comment="kpoint 33">
       <r>  -17.1340    1.0000 </r>
       <r>  -14.8298    1.0000 </r>
       <r>  -11.3621    1.0000 </r>
       <r>   -8.3942    1.0000 </r>
       <r>   -6.6218    1.0000 </r>
       <r>   -6.3733    1.0000 </r>
       <r>   -5.4980    1.0000 </r>
       <r>   -4.0118    1.0000 </r>
       <r>   -3.5307    1.0000 </r>
       <r>   -2.8207    1.0000 </r>
       <r>   -0.8112    0.0000 </r>
       <r>   -0.5087    0.0000 </r>
       <r>    0.3178    0.0000 </r>
       <r>    1.1008    0.0000 </r>
       <r>    2.4248    0.0000 </r>
       <r>    2.4404    0.0000 </r>
      </set>
      <set comment="kpoint 34">
       <r>  -17.1070    1.0000 </r>
       <r>  -14.8022    1.0000 </r>
       <r>  -11.3673    1.0000 </r>
       <r>   -8.3805    1.0000 </r>
       <r>   -6.6256    1.0000 </r>
       <r>   -6.3968    1.0000 </r>
       <r>   -5.6251    1.0000 </r>
       <r>   -4.2149    1.0000 </r>
       <r>   -3.5219    1.0000 </r>
       <r>   -2.8121    1.0000 </r>
       <r>   -0.7964    0.0000 </r>
       <r>   -0.2674    0.0000 </r>
       <r>    0.5393    0.0000 </r>
       <r>    0.9727    0.0000 </r>
       <r>    2.4479    0.0000 </r>
       <r>    2.4703    0.0000 </r>
      </set>
      <set comment="kpoint 35">
       <r>  -17.0262    1.0000 </r>
       <r>  -14.7195    1.0000 </r>
       <r>  -11.3881    1.0000 </r>
       <r>   -8.3443    1.0000 </r>
       <r>   -6.6531    1.0000 </r>
       <r>   -6.5455    1.0000 </r>
       <r>   -5.8365    1.0000 </r>
       <r>   -4.6733    1.0000 </r>
       <r>   -3.5183    1.0000 </r>
       <r>   -2.7974    1.0000 </r>
       <r>   -0.7550    0.0000 </r>
       <r>    0.3768    0.0000 </r>
       <r>    0.5111    0.0000 </r>
       <r>    1.2390    0.0000 </r>
       <r>    2.5139    0.0000 </r>
       <r>    2.5597    0.0000 </r>
      </set>
      <set comment="kpoint 36">
       <r>  -16.8918    1.0000 </r>
       <r>  -14.5823    1.0000 </r>
       <r>  -11.4413    1.0000 </r>
       <r>   -8.3055    1.0000 </r>
       <r>   -6.9121    1.0000 </r>
       <r>   -6.7582    1.0000 </r>
[...]
       <r>    3.4243    0.0000 </r>
       <r>    3.4617    0.0000 </r>
      </set>
      <set comment="kpoint 153">
       <r>  -15.3008    1.0000 </r>
       <r>  -15.0449    1.0000 </r>
       <r>  -10.8677    1.0000 </r>
       <r>  -10.5416    1.0000 </r>
       <r>   -7.9222    1.0000 </r>
       <r>   -7.7559    1.0000 </r>
       <r>   -5.2434    1.0000 </r>
       <r>   -5.0131    1.0000 </r>
       <r>   -3.8060    1.0000 </r>
       <r>   -3.6982    1.0000 </r>
       <r>    0.4223    0.0000 </r>
       <r>    0.8490    0.0000 </r>
       <r>    1.1868    0.0000 </r>
       <r>    1.5043    0.0000 </r>
       <r>    3.4004    0.0000 </r>
       <r>    3.4287    0.0000 </r>
      </set>
      <set comment="kpoint 154">
       <r>  -15.5716    1.0000 </r>
       <r>  -15.3105    1.0000 </r>
       <r>  -10.7253    1.0000 </r>
       <r>  -10.3930    1.0000 </r>
       <r>   -7.5884    1.0000 </r>
       <r>   -7.4165    1.0000 </r>
       <r>   -5.1297    1.0000 </r>
       <r>   -4.8450    1.0000 </r>
       <r>   -3.6469    1.0000 </r>
       <r>   -3.6414    1.0000 </r>
       <r>    0.4076    0.0000 </r>
       <r>    0.7493    0.0000 </r>
       <r>    1.2689    0.0000 </r>
       <r>    1.6237    0.0000 </r>
       <r>    3.1713    0.0000 </r>
       <r>    3.3772    0.0000 </r>
      </set>
      <set comment="kpoint 155">
       <r>  -15.7990    1.0000 </r>
       <r>  -15.5350    1.0000 </r>
       <r>  -10.6952    1.0000 </r>
       <r>  -10.3667    1.0000 </r>
       <r>   -7.0595    1.0000 </r>
       <r>   -6.8750    1.0000 </r>
       <r>   -5.1525    1.0000 </r>
       <r>   -4.8293    1.0000 </r>
       <r>   -3.5177    1.0000 </r>
       <r>   -3.3843    1.0000 </r>
       <r>    0.4796    0.0000 </r>
       <r>    0.7023    0.0000 </r>
       <r>    1.2561    0.0000 </r>
       <r>    1.6351    0.0000 </r>
       <r>    2.5647    0.0000 </r>
       <r>    2.8033    0.0000 </r>
      </set>
      <set comment="kpoint 156">
       <r>  -15.9789    1.0000 </r>
       <r>  -15.7133    1.0000 </r>
       <r>  -10.7231    1.0000 </r>
       <r>  -10.4004    1.0000 </r>
       <r>   -6.4122    1.0000 </r>
       <r>   -6.2157    1.0000 </r>
       <r>   -5.2228    1.0000 </r>
       <r>   -4.8815    1.0000 </r>
       <r>   -3.4177    1.0000 </r>
       <r>   -3.1587    1.0000 </r>
       <r>    0.5975    0.0000 </r>
       <r>    0.6866    0.0000 </r>
       <r>    1.1574    0.0000 </r>
       <r>    1.4883    0.0000 </r>
       <r>    1.9395    0.0000 </r>
       <r>    2.0533    0.0000 </r>
      </set>
      <set comment="kpoint 157">
       <r>  -16.1087    1.0000 </r>
       <r>  -15.8422    1.0000 </r>
       <r>  -10.7658    1.0000 </r>
       <r>  -10.4479    1.0000 </r>
       <r>   -5.7286    1.0000 </r>
       <r>   -5.5311    1.0000 </r>
       <r>   -5.2873    1.0000 </r>
       <r>   -4.9425    1.0000 </r>
       <r>   -3.4201    1.0000 </r>
       <r>   -3.0471    1.0000 </r>
       <r>    0.4700    0.0000 </r>
       <r>    0.4750    0.0000 </r>
       <r>    1.1193    0.0000 </r>
       <r>    1.2333    0.0000 </r>
       <r>    1.6178    0.0000 </r>
       <r>    1.7026    0.0000 </r>
      </set>
      <set comment="kpoint 158">
       <r>  -16.1871    1.0000 </r>
       <r>  -15.9202    1.0000 </r>
       <r>  -10.7991    1.0000 </r>
       <r>  -10.4839    1.0000 </r>
       <r>   -5.3458    1.0000 </r>
       <r>   -5.1198    1.0000 </r>
       <r>   -4.9859    1.0000 </r>
       <r>   -4.9212    1.0000 </r>
       <r>   -3.5412    1.0000 </r>
       <r>   -3.0753    1.0000 </r>
       <r>    0.0566    0.0000 </r>
       <r>    0.0870    0.0000 </r>
       <r>    1.2167    0.0000 </r>
       <r>    1.2560    0.0000 </r>
       <r>    1.5211    0.0000 </r>
       <r>    1.6162    0.0000 </r>
      </set>
     </set>
    </set>
   </array>
  </eigenvalues>
  <separator name="orbital magnetization" >
   <v name="MAGDIPOLOUT">      0.00000000      0.00000000      0.00000000</v>
  </separator>
  <dos>
   <i name="efermi">     -2.11588595 </i>
   <total>
    <array>
     <dimension dim="1">gridpoints</dimension>
     <dimension dim="2">spin</dimension>
     <field>energy</field>
     <field>total</field>
     <field>integrated</field>
     <set>
      <set comment="spin 1">
       <r>   -18.2655     0.0000     0.0000 </r>
       <r>   -18.1891     0.0000     0.0000 </r>
       <r>   -18.1126     0.0000     0.0000 </r>
       <r>   -18.0362     0.0000     0.0000 </r>
       <r>   -17.9597     0.0000     0.0000 </r>
       <r>   -17.8833     0.0000     0.0000 </r>
       <r>   -17.8068     0.0000     0.0000 </r>
       <r>   -17.7304     0.0000     0.0000 </r>
       <r>   -17.6539     0.0000     0.0000 </r>
       <r>   -17.5775     0.0000     0.0000 </r>
       <r>   -17.5010     0.0000     0.0000 </r>
       <r>   -17.4246     0.0000     0.0000 </r>
       <r>   -17.3482     0.0000     0.0000 </r>
       <r>   -17.2717     0.0000     0.0000 </r>
       <r>   -17.1953     0.2964     0.0227 </r>
       <r>   -17.1188     0.7363     0.0789 </r>
       <r>   -17.0424     0.7701     0.1378 </r>
       <r>   -16.9659     1.0014     0.2144 </r>
       <r>   -16.8895     0.8014     0.2756 </r>
       <r>   -16.8130     0.6448     0.3249 </r>
       <r>   -16.7366     1.1431     0.4123 </r>
       <r>   -16.6601     0.6515     0.4621 </r>
       <r>   -16.5837     0.9083     0.5316 </r>
       <r>   -16.5072     0.7540     0.5892 </r>
       <r>   -16.4308     1.3083     0.6892 </r>
       <r>   -16.3543     0.6040     0.7354 </r>
       <r>   -16.2779     0.3323     0.7608 </r>
       <r>   -16.2014     1.5387     0.8784 </r>
       <r>   -16.1250     0.7596     0.9365 </r>
       <r>   -16.0485     0.7643     0.9949 </r>
       <r>   -15.9721     0.7564     1.0528 </r>
       <r>   -15.8956     1.2858     1.1511 </r>
       <r>   -15.8192     0.9065     1.2204 </r>
       <r>   -15.7427     0.9147     1.2903 </r>
       <r>   -15.6663     0.7879     1.3505 </r>
       <r>   -15.5898     0.6584     1.4009 </r>
       <r>   -15.5134     1.6685     1.5284 </r>
       <r>   -15.4370     0.7674     1.5871 </r>
       <r>   -15.3605     1.0627     1.6683 </r>
       <r>   -15.2841     1.1304     1.7547 </r>
       <r>   -15.2076     0.9798     1.8296 </r>
       <r>   -15.1312     0.8409     1.8939 </r>
       <r>   -15.0547     1.2204     1.9872 </r>
       <r>   -14.9783     1.6539     2.1137 </r>
       <r>   -14.9018     1.1781     2.2037 </r>
       <r>   -14.8254     0.9649     2.2775 </r>
       <r>   -14.7489     1.6375     2.4027 </r>
       <r>   -14.6725     1.9585     2.5524 </r>
       <r>   -14.5960     1.3684     2.6570 </r>
       <r>   -14.5196     1.5418     2.7749 </r>
       <r>   -14.4431     1.7098     2.9056 </r>
       <r>   -14.3667     0.8645     2.9717 </r>
       <r>   -14.2902     1.1702     3.0611 </r>
       <r>   -14.2138     1.1419     3.1484 </r>
       <r>   -14.1373     1.3889     3.2546 </r>
       <r>   -14.0609     1.2592     3.3509 </r>
       <r>   -13.9844     2.6498     3.5534 </r>
       <r>   -13.9080     0.5271     3.5937 </r>
       <r>   -13.8315     0.6584     3.6441 </r>
       <r>   -13.7551     0.8477     3.7089 </r>
       <r>   -13.6786     0.9395     3.7807 </r>
       <r>   -13.6022     0.8762     3.8477 </r>
       <r>   -13.5258     0.6614     3.8982 </r>
       <r>   -13.4493     0.0028     3.8985 </r>
       <r>   -13.3729     0.6155     3.9455 </r>
       <r>   -13.2964     0.2144     3.9619 </r>
       <r>   -13.2200     0.1790     3.9756 </r>
       <r>   -13.1435     0.1595     3.9878 </r>
       <r>   -13.0671     0.1598     4.0000 </r>
       <r>   -12.9906     0.0000     4.0000 </r>
       <r>   -12.9142     0.1439     4.0110 </r>
       <r>   -12.8377     0.0788     4.0170 </r>
       <r>   -12.7613     0.2756     4.0381 </r>
       <r>   -12.6848     0.0026     4.0383 </r>
       <r>   -12.6084     0.4807     4.0750 </r>
       <r>   -12.5319     0.3436     4.1013 </r>
       <r>   -12.4555     0.4693     4.1372 </r>
       <r>   -12.3790     1.1787     4.2273 </r>
       <r>   -12.3026     0.2798     4.2487 </r>
       <r>   -12.2261     0.5628     4.2917 </r>
       <r>   -12.1497     1.0365     4.3709 </r>
       <r>   -12.0732     0.3454     4.3973 </r>
       <r>   -11.9968     2.3153     4.5743 </r>
       <r>   -11.9203     1.6150     4.6978 </r>
       <r>   -11.8439     0.6825     4.7500 </r>
       <r>   -11.7674     0.9956     4.8261 </r>
       <r>   -11.6910     1.2820     4.9241 </r>
       <r>   -11.6146     0.9353     4.9956 </r>
       <r>   -11.5381     1.0572     5.0764 </r>
       <r>   -11.4617     1.5056     5.1915 </r>
       <r>   -11.3852     3.3844     5.4503 </r>
       <r>   -11.3088     3.7336     5.7357 </r>
       <r>   -11.2323     1.3301     5.8374 </r>
       <r>   -11.1559     1.6517     5.9636 </r>
       <r>   -11.0794     0.5268     6.0039 </r>
       <r>   -11.0030     1.3037     6.1036 </r>
       <r>   -10.9265     1.2808     6.2015 </r>
       <r>   -10.8501     0.5888     6.2465 </r>
       <r>   -10.7736     1.4279     6.3556 </r>
       <r>   -10.6972     1.4559     6.4669 </r>
       <r>   -10.6207     0.2039     6.4825 </r>
       <r>   -10.5443     0.2804     6.5040 </r>
       <r>   -10.4678     1.1952     6.5953 </r>
       <r>   -10.3914     0.7931     6.6560 </r>
       <r>   -10.3149     0.8866     6.7238 </r>
       <r>   -10.2385     0.3506     6.7506 </r>
       <r>   -10.1620     0.7782     6.8100 </r>
       <r>   -10.0856     0.9582     6.8833 </r>
       <r>   -10.0091     0.9387     6.9551 </r>
       <r>    -9.9327     0.6293     7.0032 </r>
       <r>    -9.8562     0.2028     7.0187 </r>
       <r>    -9.7798     0.1727     7.0319 </r>
       <r>    -9.7034     0.5896     7.0769 </r>
       <r>    -9.6269     0.9659     7.1508 </r>
       <r>    -9.5505     0.9251     7.2215 </r>
       <r>    -9.4740     0.6465     7.2709 </r>
       <r>    -9.3976     0.1517     7.2825 </r>
       <r>    -9.3211     0.0001     7.2825 </r>
       <r>    -9.2447     0.8747     7.3494 </r>
       <r>    -9.1682     1.1250     7.4354 </r>
       <r>    -9.0918     0.1596     7.4476 </r>
       <r>    -9.0153     0.0334     7.4502 </r>
       <r>    -8.9389     0.2988     7.4730 </r>
       <r>    -8.8624     0.3117     7.4968 </r>
       <r>    -8.7860     0.9821     7.5719 </r>
       <r>    -8.7095     1.0234     7.6502 </r>
       <r>    -8.6331     0.0083     7.6508 </r>
       <r>    -8.5566     0.0124     7.6517 </r>
       <r>    -8.4802     0.3197     7.6762 </r>
       <r>    -8.4037     0.0580     7.6806 </r>
       <r>    -8.3273     0.8837     7.7482 </r>
       <r>    -8.2508     0.7144     7.8028 </r>
       <r>    -8.1744     0.3304     7.8281 </r>
       <r>    -8.0979     1.1995     7.9198 </r>
       <r>    -8.0215     2.3522     8.0996 </r>
       <r>    -7.9450     1.3577     8.2034 </r>
       <r>    -7.8686     1.9374     8.3515 </r>
       <r>    -7.7922     2.4901     8.5418 </r>
       <r>    -7.7157     1.9534     8.6912 </r>
       <r>    -7.6393     1.9475     8.8401 </r>
       <r>    -7.5628     1.6138     8.9634 </r>
       <r>    -7.4864     2.0958     9.1236 </r>
       <r>    -7.4099     2.3153     9.3006 </r>
       <r>    -7.3335     1.9745     9.4516 </r>
       <r>    -7.2570     1.9057     9.5973 </r>
       <r>    -7.1806     3.9906     9.9024 </r>
       <r>    -7.1041     2.6153    10.1023 </r>
       <r>    -7.0277     2.9990    10.3316 </r>
       <r>    -6.9512     2.8270    10.5477 </r>
       <r>    -6.8748     1.6055    10.6704 </r>
       <r>    -6.7983     1.5385    10.7880 </r>
       <r>    -6.7219     1.9188    10.9347 </r>
       <r>    -6.6454     1.6255    11.0590 </r>
       <r>    -6.5690     2.1379    11.2224 </r>
       <r>    -6.4925     1.1235    11.3083 </r>
       <r>    -6.4161     2.1483    11.4725 </r>
       <r>    -6.3396     1.4166    11.5808 </r>
       <r>    -6.2632     0.8158    11.6432 </r>
       <r>    -6.1867     2.0765    11.8019 </r>
       <r>    -6.1103     1.5162    11.9179 </r>
       <r>    -6.0338     2.0879    12.0775 </r>
       <r>    -5.9574     1.5554    12.1964 </r>
       <r>    -5.8810     1.3866    12.3024 </r>
       <r>    -5.8045     1.4262    12.4114 </r>
       <r>    -5.7281     2.8086    12.6261 </r>
       <r>    -5.6516     2.3002    12.8020 </r>
       <r>    -5.5752     3.2425    13.0498 </r>
       <r>    -5.4987     3.5632    13.3222 </r>
       <r>    -5.4223     3.2394    13.5699 </r>
       <r>    -5.3458     3.5818    13.8437 </r>
       <r>    -5.2694     4.0203    14.1511 </r>
       <r>    -5.1929     2.3917    14.3339 </r>
       <r>    -5.1165     3.4633    14.5987 </r>
       <r>    -5.0400     2.7605    14.8097 </r>
       <r>    -4.9636     2.2906    14.9848 </r>
       <r>    -4.8871     1.7918    15.1218 </r>
       <r>    -4.8107     1.9660    15.2721 </r>
       <r>    -4.7342     1.5967    15.3941 </r>
       <r>    -4.6578     0.9023    15.4631 </r>
       <r>    -4.5813     1.3281    15.5647 </r>
       <r>    -4.5049     1.6099    15.6877 </r>
       <r>    -4.4284     1.0562    15.7685 </r>
       <r>    -4.3520     0.9488    15.8410 </r>
       <r>    -4.2755     0.6723    15.8924 </r>
       <r>    -4.1991     1.2716    15.9896 </r>
       <r>    -4.1226     2.6372    16.1912 </r>
       <r>    -4.0462     3.0554    16.4248 </r>
       <r>    -3.9698     1.9644    16.5750 </r>
       <r>    -3.8933     3.1034    16.8122 </r>
       <r>    -3.8169     2.0718    16.9706 </r>
       <r>    -3.7404     4.1658    17.2891 </r>
       <r>    -3.6640     4.2185    17.6116 </r>
       <r>    -3.5875     2.9085    17.8339 </r>
       <r>    -3.5111     3.6612    18.1138 </r>
       <r>    -3.4346     2.3096    18.2904 </r>
       <r>    -3.3582     4.5590    18.6389 </r>
       <r>    -3.2817     2.8656    18.8580 </r>
       <r>    -3.2053     2.8724    19.0776 </r>
       <r>    -3.1288     2.4740    19.2667 </r>
       <r>    -3.0524     0.8959    19.3352 </r>
       <r>    -2.9759     1.1402    19.4223 </r>
       <r>    -2.8995     0.4821    19.4592 </r>
       <r>    -2.8230     1.4287    19.5684 </r>
       <r>    -2.7466     2.2964    19.7440 </r>
       <r>    -2.6701     0.4275    19.7767 </r>
       <r>    -2.5937     0.5460    19.8184 </r>
       <r>    -2.5172     0.3723    19.8469 </r>
       <r>    -2.4408     0.3036    19.8701 </r>
       <r>    -2.3643     1.1170    19.9555 </r>
       <r>    -2.2879     0.0692    19.9608 </r>
       <r>    -2.2114     0.2841    19.9825 </r>
       <r>    -2.1350     0.2292    20.0000 </r>
       <r>    -2.0585     0.0000    20.0000 </r>
       <r>    -1.9821     0.0000    20.0000 </r>
       <r>    -1.9057     0.0000    20.0000 </r>
       <r>    -1.8292     0.0000    20.0000 </r>
       <r>    -1.7528     0.0000    20.0000 </r>
       <r>    -1.6763     0.0000    20.0000 </r>
       <r>    -1.5999     0.0000    20.0000 </r>
       <r>    -1.5234     0.0000    20.0000 </r>
       <r>    -1.4470     0.0000    20.0000 </r>
       <r>    -1.3705     0.0338    20.0026 </r>
       <r>    -1.2941     0.2179    20.0192 </r>
       <r>    -1.2176     0.1636    20.0317 </r>
       <r>    -1.1412     0.4821    20.0686 </r>
       <r>    -1.0647     0.8097    20.1305 </r>
       <r>    -0.9883     0.7425    20.1873 </r>
       <r>    -0.9118     2.2997    20.3631 </r>
       <r>    -0.8354     1.6053    20.4858 </r>
       <r>    -0.7589     1.9775    20.6370 </r>
       <r>    -0.6825     1.3813    20.7426 </r>
       <r>    -0.6060     2.3724    20.9239 </r>
       <r>    -0.5296     1.2580    21.0201 </r>
       <r>    -0.4531     2.1815    21.1869 </r>
       <r>    -0.3767     2.5064    21.3785 </r>
       <r>    -0.3002     3.0305    21.6102 </r>
       <r>    -0.2238     2.3554    21.7902 </r>
       <r>    -0.1473     2.6439    21.9924 </r>
       <r>    -0.0709     1.7660    22.1274 </r>
       <r>     0.0055     1.7688    22.2626 </r>
       <r>     0.0820     5.2679    22.6653 </r>
       <r>     0.1584     3.3146    22.9187 </r>
       <r>     0.2349     2.5879    23.1165 </r>
       <r>     0.3113     2.6509    23.3192 </r>
       <r>     0.3878     3.6458    23.5979 </r>
       <r>     0.4642     4.4450    23.9377 </r>
       <r>     0.5407     5.7328    24.3760 </r>
       <r>     0.6171     4.0450    24.6852 </r>
       <r>     0.6936     2.5819    24.8826 </r>
       <r>     0.7700     3.9186    25.1822 </r>
       <r>     0.8465     2.7750    25.3943 </r>
       <r>     0.9229     3.9388    25.6954 </r>
       <r>     0.9994     3.3539    25.9518 </r>
       <r>     1.0758     2.6259    26.1526 </r>
       <r>     1.1523     4.5288    26.4988 </r>
       <r>     1.2287     1.9849    26.6505 </r>
       <r>     1.3052     3.6233    26.9275 </r>
       <r>     1.3816     1.9439    27.0761 </r>
       <r>     1.4581     1.6095    27.1992 </r>
       <r>     1.5345     2.7944    27.4128 </r>
       <r>     1.6110     2.4427    27.5995 </r>
       <r>     1.6874     3.1006    27.8366 </r>
       <r>     1.7639     2.3529    28.0164 </r>
       <r>     1.8403     1.1641    28.1054 </r>
       <r>     1.9167     2.4489    28.2927 </r>
       <r>     1.9932     4.2123    28.6147 </r>
       <r>     2.0696     1.6239    28.7388 </r>
       <r>     2.1461     1.1486    28.8266 </r>
       <r>     2.2225     2.9570    29.0527 </r>
       <r>     2.2990     1.8087    29.1910 </r>
       <r>     2.3754     3.8295    29.4837 </r>
       <r>     2.4519     3.3422    29.7392 </r>
       <r>     2.5283     2.3612    29.9197 </r>
       <r>     2.6048     2.2017    30.0880 </r>
       <r>     2.6812     3.3889    30.3471 </r>
       <r>     2.7577     3.4349    30.6097 </r>
       <r>     2.8341     2.4757    30.7990 </r>
       <r>     2.9106     2.5703    30.9955 </r>
       <r>     2.9870     1.6724    31.1233 </r>
       <r>     3.0635     1.6595    31.2502 </r>
       <r>     3.1399     1.6638    31.3774 </r>
       <r>     3.2164     2.0529    31.5343 </r>
       <r>     3.2928     1.0889    31.6176 </r>
       <r>     3.3693     1.1445    31.7051 </r>
       <r>     3.4457     2.1799    31.8717 </r>
       <r>     3.5222     0.7523    31.9292 </r>
       <r>     3.5986     0.3412    31.9553 </r>
       <r>     3.6751     0.5845    32.0000 </r>
       <r>     3.7515     0.0001    32.0000 </r>
       <r>     3.8279     0.0000    32.0000 </r>
       <r>     3.9044     0.0000    32.0000 </r>
       <r>     3.9808     0.0000    32.0000 </r>
       <r>     4.0573     0.0000    32.0000 </r>
       <r>     4.1337     0.0000    32.0000 </r>
       <r>     4.2102     0.0000    32.0000 </r>
       <r>     4.2866     0.0000    32.0000 </r>
       <r>     4.3631     0.0000    32.0000 </r>
       <r>     4.4395     0.0000    32.0000 </r>
       <r>     4.5160     0.0000    32.0000 </r>
       <r>     4.5924     0.0000    32.0000 </r>
       <r>     4.6689     0.0000    32.0000 </r>
      </set>
     </set>
    </array>
   </total>
  </dos>
 </calculation>
 <structure name="finalpos" >
  <crystal>
   <varray name="basis" >
    <v>       3.29720400       0.00000000       0.00000000 </v>
    <v>       0.00000000       4.55347300      -0.00005300 </v>
    <v>       0.00000000       0.00000000      20.02439000 </v>
   </varray>
   <i name="volume">    300.64077265 </i>
   <varray name="rec_basis" >
    <v>       0.30328727       0.00000000       0.00000000 </v>
    <v>       0.00000000       0.21961259       0.00000000 </v>
    <v>       0.00000000       0.00000058       0.04993910 </v>
   </varray>
  </crystal>
  <varray name="positions" >
   <v>       0.50000000       0.91313441       0.55275087 </v>
   <v>       0.50000000       0.08686559       0.44724913 </v>
   <v>      -0.00000000       0.41312963       0.44724914 </v>
   <v>       0.00000000       0.58687037       0.55275086 </v>
  </varray>
 </structure>
</modeling>
