 running on   48 total cores
 distrk:  each k-point on   48 cores,    1 groups
 distr:  one band on    8 cores,    6 groups
 using from now: INCAR     
 vasp.5.4.1 24Jun15 (build Nov 20 2020 10:29:34) complex                        
  
 POSCAR found type information on POSCAR  C 
 POSCAR found :  1 types and       2 ions
 scaLAPACK will be used

 ----------------------------------------------------------------------------- 
|                                                                             |
|  ADVICE TO THIS USER RUNNING 'VASP/VAMP'   (HEAR YOUR MASTER'S VOICE ...):  |
|                                                                             |
|      You have a (more or less) 'small supercell' and for smaller cells      |
|      it is recommended  to use the reciprocal-space projection scheme!      |
|      The real space optimization is not  efficient for small cells and it   |
|      is also less accurate ...                                              |
|      Therefore set LREAL=.FALSE. in the  INCAR file                         |
|                                                                             |
 ----------------------------------------------------------------------------- 

 LDA part: xc-table for Pade appr. of Perdew
 POSCAR, INCAR and KPOINTS ok, starting setup
 FFT: planning ...
 WAVECAR not read
 entering main loop
       N       E                     dE             d eps       ncg     rms          rms(c)
DAV:   1     0.360111500908E+02    0.36011E+02   -0.39154E+03  1464   0.507E+02
DAV:   2    -0.184422597152E+02   -0.54453E+02   -0.49803E+02  1932   0.104E+02
DAV:   3    -0.198943201836E+02   -0.14521E+01   -0.14520E+01  2040   0.229E+01
DAV:   4    -0.199008529564E+02   -0.65328E-02   -0.65328E-02  2220   0.156E+00
DAV:   5    -0.199008570143E+02   -0.40579E-05   -0.40584E-05  2028   0.434E-02    0.677E+00
DAV:   6    -0.188219613461E+02    0.10789E+01   -0.10522E+00  1812   0.497E+00    0.399E+00
DAV:   7    -0.184080153329E+02    0.41395E+00   -0.13622E+00  2100   0.553E+00    0.106E+00
DAV:   8    -0.183989839342E+02    0.90314E-02   -0.10746E-02  2124   0.686E-01    0.994E-02
DAV:   9    -0.183967937713E+02    0.21902E-02   -0.14425E-03  1956   0.146E-01    0.775E-02
DAV:  10    -0.183946880000E+02    0.21058E-02   -0.32509E-03  1668   0.187E-01    0.407E-02
DAV:  11    -0.183949793726E+02   -0.29137E-03   -0.18610E-04  1608   0.618E-02    0.645E-02
DAV:  12    -0.183952004206E+02   -0.22105E-03   -0.37220E-05  1668   0.303E-02    0.109E-02
DAV:  13    -0.183959764696E+02   -0.77605E-03   -0.21662E-04  1644   0.387E-02    0.551E-03
DAV:  14    -0.183960313849E+02   -0.54915E-04   -0.57187E-07  1956   0.297E-03    0.294E-03
DAV:  15    -0.183961409692E+02   -0.10958E-03   -0.91505E-06  1608   0.755E-03    0.882E-04
DAV:  16    -0.183961490606E+02   -0.80914E-05   -0.20605E-07  1644   0.166E-03
   1 F= -.18396149E+02 E0= -.18396110E+02  d E =-.783596E-04
