<?xml version="1.0" encoding="ISO-8859-1"?>
<modeling>
 <generator>
  <i name="program" type="string">vasp </i>
  <i name="version" type="string">5.4.1  </i>
  <i name="subversion" type="string">24Jun15 (build Nov 20 2020 10:29:34) complex                          parallel </i>
  <i name="platform" type="string">IFC91_ompi </i>
  <i name="date" type="string">2021 09 14 </i>
  <i name="time" type="string">00:23:56 </i>
 </generator>
 <incar>
  <i type="int" name="ISTART">     1</i>
  <i type="string" name="PREC">a</i>
  <i type="string" name="ALGO"> Normal</i>
  <i type="int" name="ISPIN">     1</i>
  <i type="int" name="ICHARG">     2</i>
  <i type="int" name="NELM">   250</i>
  <i type="int" name="NELMDL">    -5</i>
  <i type="int" name="NELMIN">     6</i>
  <i type="int" name="IBRION">     2</i>
  <i name="EDIFF">      0.00001000</i>
  <i name="EDIFFG">     -0.00500000</i>
  <i type="int" name="NSW">     0</i>
  <i type="int" name="ISIF">     2</i>
  <i name="ENCUT">    520.00000000</i>
  <i name="POTIM">      0.25000000</i>
  <v name="MAGMOM">      0.60000000      0.60000000</v>
  <i type="string" name="LREAL"> Auto</i>
  <i type="int" name="ISMEAR">     0</i>
  <i name="SIGMA">      0.02000000</i>
  <i type="logical" name="LWAVE"> F  </i>
  <i type="logical" name="LCHARG"> F  </i>
  <i type="logical" name="LVHAR"> F  </i>
  <v type="int" name="KPOINT_BSE">    -1     0     0     0</v>
  <i type="int" name="NELM">   250</i>
 </incar>
 <kpoints>
  <generation param="Gamma">
   <v type="int" name="divisions">      24       24        1 </v>
   <v name="usershift">      0.00000000       0.00000000       0.00000000 </v>
   <v name="genvec1">      0.04166667      -0.00000000       0.00000000 </v>
   <v name="genvec2">      0.00000000       0.04166667       0.00000000 </v>
   <v name="genvec3">      0.00000000       0.00000000       1.00000000 </v>
   <v name="shift">      0.00000000       0.00000000       0.00000000 </v>
  </generation>
  <varray name="kpointlist" >
   <v>       0.00000000       0.00000000       0.00000000 </v>
   <v>       0.04166667       0.00000000       0.00000000 </v>
   <v>       0.08333333       0.00000000       0.00000000 </v>
   <v>       0.12500000       0.00000000       0.00000000 </v>
   <v>       0.16666667       0.00000000       0.00000000 </v>
   <v>       0.20833333       0.00000000       0.00000000 </v>
   <v>       0.25000000       0.00000000       0.00000000 </v>
   <v>       0.29166667       0.00000000       0.00000000 </v>
   <v>       0.33333333       0.00000000       0.00000000 </v>
   <v>       0.37500000       0.00000000       0.00000000 </v>
   <v>       0.41666667      -0.00000000       0.00000000 </v>
   <v>       0.45833333       0.00000000       0.00000000 </v>
   <v>       0.50000000       0.00000000       0.00000000 </v>
   <v>       0.04166667       0.04166667       0.00000000 </v>
   <v>       0.08333333       0.04166667       0.00000000 </v>
   <v>       0.12500000       0.04166667       0.00000000 </v>
   <v>       0.16666667       0.04166667       0.00000000 </v>
   <v>       0.20833333       0.04166667       0.00000000 </v>
   <v>       0.25000000       0.04166667       0.00000000 </v>
   <v>       0.29166667       0.04166667       0.00000000 </v>
   <v>       0.33333333       0.04166667       0.00000000 </v>
   <v>       0.37500000       0.04166667       0.00000000 </v>
   <v>       0.41666667       0.04166667       0.00000000 </v>
   <v>       0.45833333       0.04166667       0.00000000 </v>
   <v>       0.08333333       0.08333333       0.00000000 </v>
   <v>       0.12500000       0.08333333       0.00000000 </v>
   <v>       0.16666667       0.08333333       0.00000000 </v>
   <v>       0.20833333       0.08333333       0.00000000 </v>
   <v>       0.25000000       0.08333333       0.00000000 </v>
   <v>       0.29166667       0.08333333       0.00000000 </v>
   <v>       0.33333333       0.08333333       0.00000000 </v>
   <v>       0.37500000       0.08333333       0.00000000 </v>
   <v>       0.41666667       0.08333333       0.00000000 </v>
   <v>       0.45833333       0.08333333       0.00000000 </v>
   <v>       0.12500000       0.12500000       0.00000000 </v>
   <v>       0.16666667       0.12500000       0.00000000 </v>
   <v>       0.20833333       0.12500000       0.00000000 </v>
   <v>       0.25000000       0.12500000       0.00000000 </v>
   <v>       0.29166667       0.12500000       0.00000000 </v>
   <v>       0.33333333       0.12500000       0.00000000 </v>
   <v>       0.37500000       0.12500000       0.00000000 </v>
   <v>       0.41666667       0.12500000       0.00000000 </v>
   <v>       0.16666667       0.16666667       0.00000000 </v>
   <v>       0.20833333       0.16666667       0.00000000 </v>
   <v>       0.25000000       0.16666667       0.00000000 </v>
   <v>       0.29166667       0.16666667       0.00000000 </v>
   <v>       0.33333333       0.16666667       0.00000000 </v>
   <v>       0.37500000       0.16666667       0.00000000 </v>
   <v>       0.41666667       0.16666667       0.00000000 </v>
   <v>       0.20833333       0.20833333       0.00000000 </v>
   <v>       0.25000000       0.20833333       0.00000000 </v>
   <v>       0.29166667       0.20833333       0.00000000 </v>
   <v>       0.33333333       0.20833333       0.00000000 </v>
   <v>       0.37500000       0.20833333       0.00000000 </v>
   <v>       0.25000000       0.25000000       0.00000000 </v>
   <v>       0.29166667       0.25000000       0.00000000 </v>
   <v>       0.33333333       0.25000000       0.00000000 </v>
   <v>       0.37500000       0.25000000       0.00000000 </v>
   <v>       0.29166667       0.29166667       0.00000000 </v>
   <v>       0.33333333       0.29166667       0.00000000 </v>
   <v>       0.33333333       0.33333333       0.00000000 </v>
  </varray>
  <varray name="weights" >
   <v>       0.00173611 </v>
   <v>       0.01041667 </v>
   <v>       0.01041667 </v>
   <v>       0.01041667 </v>
   <v>       0.01041667 </v>
   <v>       0.01041667 </v>
   <v>       0.01041667 </v>
   <v>       0.01041667 </v>
   <v>       0.01041667 </v>
   <v>       0.01041667 </v>
   <v>       0.01041667 </v>
   <v>       0.01041667 </v>
   <v>       0.00520833 </v>
   <v>       0.01041667 </v>
   <v>       0.02083333 </v>
   <v>       0.02083333 </v>
   <v>       0.02083333 </v>
   <v>       0.02083333 </v>
   <v>       0.02083333 </v>
   <v>       0.02083333 </v>
   <v>       0.02083333 </v>
   <v>       0.02083333 </v>
   <v>       0.02083333 </v>
   <v>       0.02083333 </v>
   <v>       0.01041667 </v>
   <v>       0.02083333 </v>
   <v>       0.02083333 </v>
   <v>       0.02083333 </v>
   <v>       0.02083333 </v>
   <v>       0.02083333 </v>
   <v>       0.02083333 </v>
   <v>       0.02083333 </v>
   <v>       0.02083333 </v>
   <v>       0.01041667 </v>
   <v>       0.01041667 </v>
   <v>       0.02083333 </v>
   <v>       0.02083333 </v>
   <v>       0.02083333 </v>
   <v>       0.02083333 </v>
   <v>       0.02083333 </v>
   <v>       0.02083333 </v>
   <v>       0.02083333 </v>
   <v>       0.01041667 </v>
   <v>       0.02083333 </v>
   <v>       0.02083333 </v>
   <v>       0.02083333 </v>
   <v>       0.02083333 </v>
   <v>       0.02083333 </v>
   <v>       0.01041667 </v>
   <v>       0.01041667 </v>
   <v>       0.02083333 </v>
   <v>       0.02083333 </v>
   <v>       0.02083333 </v>
   <v>       0.02083333 </v>
   <v>       0.01041667 </v>
   <v>       0.02083333 </v>
   <v>       0.02083333 </v>
   <v>       0.01041667 </v>
   <v>       0.01041667 </v>
   <v>       0.02083333 </v>
   <v>       0.00347222 </v>
  </varray>
 </kpoints>
 <parameters>
  <separator name="general" >
   <i type="string" name="SYSTEM">unknown system</i>
   <i type="logical" name="LCOMPAT"> F  </i>
  </separator>
  <separator name="electronic" >
   <i type="string" name="PREC">a</i>
   <i name="ENMAX">    520.00000000</i>
   <i name="ENAUG">    644.87300000</i>
   <i name="EDIFF">      0.00001000</i>
   <i type="int" name="IALGO">    38</i>
   <i type="int" name="IWAVPR">    10</i>
   <i type="int" name="NBANDS">    12</i>
   <i name="NELECT">      8.00000000</i>
   <i type="int" name="TURBO">     0</i>
   <i type="int" name="IRESTART">     0</i>
   <i type="int" name="NREBOOT">     0</i>
   <i type="int" name="NMIN">     0</i>
   <i name="EREF">      0.00000000</i>
   <separator name="electronic smearing" >
    <i type="int" name="ISMEAR">     0</i>
    <i name="SIGMA">      0.02000000</i>
    <i name="KSPACING">      0.50000000</i>
    <i type="logical" name="KGAMMA"> T  </i>
   </separator>
   <separator name="electronic projectors" >
    <i type="logical" name="LREAL"> T  </i>
    <v name="ROPT">     -0.00025000</v>
    <i type="int" name="LMAXPAW">  -100</i>
    <i type="int" name="LMAXMIX">     2</i>
    <i type="logical" name="NLSPLINE"> F  </i>
   </separator>
   <separator name="electronic startup" >
    <i type="int" name="ISTART">     0</i>
    <i type="int" name="ICHARG">     2</i>
    <i type="int" name="INIWAV">     1</i>
   </separator>
   <separator name="electronic spin" >
    <i type="int" name="ISPIN">     1</i>
    <i type="logical" name="LNONCOLLINEAR"> F  </i>
    <v name="MAGMOM">      0.60000000      0.60000000</v>
    <i name="NUPDOWN">     -1.00000000</i>
    <i type="logical" name="LSORBIT"> F  </i>
    <v name="SAXIS">      0.00000000      0.00000000      1.00000000</v>
    <i type="logical" name="LSPIRAL"> F  </i>
    <v name="QSPIRAL">      0.00000000      0.00000000      0.00000000</v>
    <i type="logical" name="LZEROZ"> F  </i>
   </separator>
   <separator name="electronic exchange-correlation" >
    <i type="logical" name="LASPH"> F  </i>
    <i type="logical" name="LMETAGGA"> F  </i>
   </separator>
   <separator name="electronic convergence" >
    <i type="int" name="NELM">   250</i>
    <i type="int" name="NELMDL">    -5</i>
    <i type="int" name="NELMIN">     6</i>
    <i name="ENINI">    520.00000000</i>
    <separator name="electronic convergence detail" >
     <i type="logical" name="LDIAG"> T  </i>
     <i type="logical" name="LSUBROT"> F  </i>
     <i name="WEIMIN">      0.00000000</i>
     <i name="EBREAK">      0.00000021</i>
     <i name="DEPER">      0.30000000</i>
     <i type="int" name="NRMM">     4</i>
     <i name="TIME">      0.40000000</i>
    </separator>
   </separator>
   <separator name="electronic mixer" >
    <i name="AMIX">      0.40000000</i>
    <i name="BMIX">      1.00000000</i>
    <i name="AMIN">      0.10000000</i>
    <i name="AMIX_MAG">      1.60000000</i>
    <i name="BMIX_MAG">      1.00000000</i>
    <separator name="electronic mixer details" >
     <i type="int" name="IMIX">     4</i>
     <i type="logical" name="MIXFIRST"> F  </i>
     <i type="int" name="MAXMIX">   -45</i>
     <i name="WC">    100.00000000</i>
     <i type="int" name="INIMIX">     1</i>
     <i type="int" name="MIXPRE">     1</i>
     <i type="int" name="MREMOVE">     5</i>
    </separator>
   </separator>
   <separator name="electronic dipolcorrection" >
    <i type="logical" name="LDIPOL"> F  </i>
    <i type="logical" name="LMONO"> F  </i>
    <i type="int" name="IDIPOL">     0</i>
    <i name="EPSILON">      1.00000000</i>
    <v name="DIPOL">   -100.00000000   -100.00000000   -100.00000000</v>
    <i name="EFIELD">      0.00000000</i>
   </separator>
  </separator>
  <separator name="grids" >
   <i type="int" name="NGX">    18</i>
   <i type="int" name="NGY">    18</i>
   <i type="int" name="NGZ">   112</i>
   <i type="int" name="NGXF">    36</i>
   <i type="int" name="NGYF">    36</i>
   <i type="int" name="NGZF">   224</i>
   <i type="logical" name="ADDGRID"> F  </i>
  </separator>
  <separator name="ionic" >
   <i type="int" name="NSW">     0</i>
   <i type="int" name="IBRION">    -1</i>
   <i type="int" name="ISIF">     2</i>
   <i name="PSTRESS">      0.00000000</i>
   <i name="EDIFFG">     -0.00500000</i>
   <i type="int" name="NFREE">     1</i>
   <i name="POTIM">      0.25000000</i>
   <i name="SMASS">     -3.00000000</i>
   <i name="SCALEE">      1.00000000</i>
  </separator>
  <separator name="ionic md" >
   <i name="TEBEG">      0.00010000</i>
   <i name="TEEND">      0.00010000</i>
   <i type="int" name="NBLOCK">     1</i>
   <i type="int" name="KBLOCK">     1</i>
   <i type="int" name="NPACO">   256</i>
   <i name="APACO">     16.00000000</i>
  </separator>
  <separator name="symmetry" >
   <i type="int" name="ISYM">     2</i>
   <i name="SYMPREC">      0.00001000</i>
  </separator>
  <separator name="dos" >
   <i type="logical" name="LORBIT"> F  </i>
   <v name="RWIGS">     -1.00000000</v>
   <i type="int" name="NEDOS">   301</i>
   <i name="EMIN">     10.00000000</i>
   <i name="EMAX">    -10.00000000</i>
   <i name="EFERMI">      0.00000000</i>
  </separator>
  <separator name="writing" >
   <i type="int" name="NWRITE">     2</i>
   <i type="logical" name="LWAVE"> F  </i>
   <i type="logical" name="LCHARG"> F  </i>
   <i type="logical" name="LPARD"> F  </i>
   <i type="logical" name="LVTOT"> F  </i>
   <i type="logical" name="LVHAR"> F  </i>
   <i type="logical" name="LELF"> F  </i>
   <i type="logical" name="LOPTICS"> F  </i>
   <v name="STM">      0.00000000      0.00000000      0.00000000      0.00000000      0.00000000      0.00000000      0.00000000</v>
  </separator>
  <separator name="performance" >
   <i type="int" name="NPAR">     6</i>
   <i type="int" name="NSIM">     4</i>
   <i type="int" name="NBLK">    -1</i>
   <i type="logical" name="LPLANE"> T  </i>
   <i type="logical" name="LSCALAPACK"> T  </i>
   <i type="logical" name="LSCAAWARE"> F  </i>
   <i type="logical" name="LSCALU"> F  </i>
   <i type="logical" name="LASYNC"> F  </i>
   <i type="logical" name="LORBITALREAL"> F  </i>
  </separator>
  <separator name="miscellaneous" >
   <i type="int" name="IDIOT">     3</i>
   <i type="logical" name="LMUSIC"> F  </i>
   <v name="POMASS">     12.01100000</v>
   <v name="DARWINR">      0.00000000</v>
   <v name="DARWINV">      1.00000000</v>
   <i type="logical" name="LCORR"> T  </i>
  </separator>
  <i type="logical" name="GGA_COMPAT"> T  </i>
  <i type="logical" name="LBERRY"> F  </i>
  <i type="int" name="ICORELEVEL">     0</i>
  <i type="logical" name="LDAU"> F  </i>
  <i type="int" name="I_CONSTRAINED_M">     0</i>
  <separator name="electronic exchange-correlation" >
   <i type="string" name="GGA">--</i>
   <i type="int" name="VOSKOWN">     0</i>
   <i type="logical" name="LHFCALC"> F  </i>
   <i type="string" name="PRECFOCK"></i>
   <i type="logical" name="LSYMGRAD"> F  </i>
   <i type="logical" name="LHFONE"> F  </i>
   <i type="logical" name="LRHFCALC"> F  </i>
   <i type="logical" name="LTHOMAS"> F  </i>
   <i type="logical" name="LMODELHF"> F  </i>
   <i name="ENCUT4O">     -1.00000000</i>
   <i type="int" name="EXXOEP">     0</i>
   <i type="int" name="FOURORBIT">     0</i>
   <i name="AEXX">      0.00000000</i>
   <i name="HFALPHA">      0.00000000</i>
   <i name="MCALPHA">      0.00000000</i>
   <i name="ALDAX">      1.00000000</i>
   <i name="AGGAX">      1.00000000</i>
   <i name="ALDAC">      1.00000000</i>
   <i name="AGGAC">      1.00000000</i>
   <i type="int" name="NKREDX">     1</i>
   <i type="int" name="NKREDY">     1</i>
   <i type="int" name="NKREDZ">     1</i>
   <i type="logical" name="SHIFTRED"> F  </i>
   <i type="logical" name="ODDONLY"> F  </i>
   <i type="logical" name="EVENONLY"> F  </i>
   <i type="int" name="LMAXFOCK">     0</i>
   <i type="int" name="NMAXFOCKAE">     0</i>
   <i type="logical" name="LFOCKAEDFT"> F  </i>
   <i name="HFSCREEN">      0.00000000</i>
   <i name="HFSCREENC">      0.00000000</i>
   <i type="int" name="NBANDSGWLOW">     0</i>
  </separator>
  <separator name="vdW DFT" >
   <i type="logical" name="LUSE_VDW"> F  </i>
   <i name="Zab_VDW">     -0.84910000</i>
   <i name="PARAM1">      0.12340000</i>
   <i name="PARAM2">      1.00000000</i>
   <i name="PARAM3">      0.00000000</i>
  </separator>
  <separator name="model GW" >
   <i type="int" name="MODEL_GW">     0</i>
   <i name="MODEL_EPS0">     22.84748248</i>
   <i name="MODEL_ALPHA">      1.00000000</i>
  </separator>
  <separator name="linear response parameters" >
   <i type="logical" name="LEPSILON"> F  </i>
   <i type="logical" name="LRPA"> F  </i>
   <i type="logical" name="LNABLA"> F  </i>
   <i type="logical" name="LVEL"> F  </i>
   <i type="int" name="KINTER">     0</i>
   <i name="CSHIFT">      0.10000000</i>
   <i name="OMEGAMAX">     -1.00000000</i>
   <i name="DEG_THRESHOLD">      0.00200000</i>
  </separator>
  <separator name="orbital magnetization" >
   <i type="logical" name="NUCIND"> F  </i>
   <v name="MAGPOS">      0.00000000      0.00000000      0.00000000</v>
   <i type="logical" name="LNICSALL"> T  </i>
   <i type="logical" name="ORBITALMAG"> F  </i>
   <i type="logical" name="LMAGBLOCH"> F  </i>
   <i type="logical" name="LCHIMAG"> F  </i>
   <i type="logical" name="LGAUGE"> T  </i>
   <i type="int" name="MAGATOM">     0</i>
   <v name="MAGDIPOL">      0.00000000      0.00000000      0.00000000</v>
   <v name="AVECCONST">      0.00000000      0.00000000      0.00000000</v>
  </separator>
  <separator name="response functions" >
   <i type="logical" name="LADDER"> F  </i>
   <i type="logical" name="LFXC"> F  </i>
   <i type="logical" name="LHARTREE"> T  </i>
   <i type="int" name="IBSE">     0</i>
   <v type="int" name="KPOINT">    -1     0     0     0</v>
   <i type="logical" name="LTCTE"> F  </i>
   <i type="logical" name="LTETE"> F  </i>
   <i type="logical" name="LTRIPLET"> F  </i>
   <i type="logical" name="LFXCEPS"> F  </i>
   <i type="logical" name="LFXHEG"> F  </i>
   <i type="int" name="NATURALO">     0</i>
   <i type="logical" name="L2ORDER"> F  </i>
   <i type="logical" name="LUSEW"> F  </i>
   <i name="ENCUTGW">     -2.00000000</i>
   <i name="ENCUTGWSOFT">     -2.00000000</i>
   <i name="ENCUTLF">     -1.00000000</i>
   <i type="int" name="LMAXMP2">    -1</i>
   <i name="SCISSOR">      0.00000000</i>
   <i type="int" name="NOMEGA">     0</i>
   <i type="int" name="NOMEGAR">     0</i>
   <i type="int" name="NBANDSGW">    -1</i>
   <i type="int" name="NBANDSO">    -1</i>
   <i type="int" name="NBANDSV">    -1</i>
   <i type="int" name="NELM">   250</i>
   <i type="int" name="NELMHF">     1</i>
   <i type="int" name="DIM">     3</i>
   <i type="int" name="ANTIRES">     0</i>
   <i name="OMEGAMAX">    -30.00000000</i>
   <i name="OMEGAMIN">    -30.00000000</i>
   <i name="OMEGATL">   -200.00000000</i>
   <i type="int" name="OMEGAGRID">     0</i>
   <i name="CSHIFT">     -0.10000000</i>
   <i type="logical" name="SELFENERGY"> F  </i>
   <i type="logical" name="LSPECTRAL"> F  </i>
   <i type="logical" name="LSPECTRALGW"> F  </i>
   <i type="logical" name="LSINGLES"> F  </i>
   <i type="logical" name="LFERMIGW"> F  </i>
   <i type="logical" name="ODDONLYGW"> F  </i>
   <i type="logical" name="EVENONLYGW"> F  </i>
   <i type="int" name="NKREDLFX">     1</i>
   <i type="int" name="NKREDLFY">     1</i>
   <i type="int" name="NKREDLFZ">     1</i>
   <i type="int" name="MAXMEM">  1800</i>
   <i type="int" name="TELESCOPE">     0</i>
   <i type="int" name="TAUPAR">     1</i>
   <i type="int" name="OMEGAPAR">    -1</i>
   <i name="LAMBDA">      1.00000000</i>
  </separator>
  <separator name="External order field" >
   <i name="OFIELD_KAPPA">      0.00000000</i>
   <v name="OFIELD_K">      0.00000000      0.00000000      0.00000000</v>
   <i name="OFIELD_Q6_NEAR">      0.00000000</i>
   <i name="OFIELD_Q6_FAR">      0.00000000</i>
   <i name="OFIELD_A">      0.00000000</i>
  </separator>
 </parameters>
 <atominfo>
  <atoms>       2 </atoms>
  <types>       1 </types>
  <array name="atoms" >
   <dimension dim="1">ion</dimension>
   <field type="string">element</field>
   <field type="int">atomtype</field>
   <set>
    <rc><c>C </c><c>   1</c></rc>
    <rc><c>C </c><c>   1</c></rc>
   </set>
  </array>
  <array name="atomtypes" >
   <dimension dim="1">type</dimension>
   <field type="int">atomspertype</field>
   <field type="string">element</field>
   <field>mass</field>
   <field>valence</field>
   <field type="string">pseudopotential</field>
   <set>
    <rc><c>   2</c><c>C </c><c>     12.01100000</c><c>      4.00000000</c><c>  PAW_PBE C 08Apr2002                   </c></rc>
   </set>
  </array>
 </atominfo>
 <structure name="initialpos" >
  <crystal>
   <varray name="basis" >
    <v>       2.42129500       0.00000000       0.00000000 </v>
    <v>      -1.21064700       2.09690200       0.00000000 </v>
    <v>       0.00000000       0.00000000      15.00000000 </v>
   </varray>
   <i name="volume">     76.15827492 </i>
   <varray name="rec_basis" >
    <v>       0.41300213       0.23844691       0.00000000 </v>
    <v>       0.00000000       0.47689401       0.00000000 </v>
    <v>       0.00000000       0.00000000       0.06666667 </v>
   </varray>
  </crystal>
  <varray name="positions" >
   <v>       0.00000000       0.00000000       0.50000000 </v>
   <v>       0.33333300       0.66666700       0.50000000 </v>
  </varray>
 </structure>
 <calculation>
  <scstep>
   <time name="dav">    0.17    0.17</time>
   <time name="total">    0.18    0.18</time>
   <energy>
    <i name="alphaZ">      4.31452609 </i>
    <i name="ewald">    877.93371807 </i>
    <i name="hartreedc">  -1093.83587224 </i>
    <i name="XCdc">     26.60928149 </i>
    <i name="pawpsdc">    217.04409276 </i>
    <i name="pawaedc">   -218.18290438 </i>
    <i name="eentropy">     -0.00021475 </i>
    <i name="bandstr">    -72.16926357 </i>
    <i name="atom">    294.29778662 </i>
    <i name="e_fr_energy">     36.01115009 </i>
    <i name="e_wo_entrp">     36.01136484 </i>
    <i name="e_0_energy">     36.01125747 </i>
   </energy>
  </scstep>
  <scstep>
   <time name="dav">    0.22    0.22</time>
   <time name="total">    0.22    0.23</time>
   <energy>
    <i name="e_fr_energy">    -18.44225972 </i>
    <i name="e_wo_entrp">    -18.44225972 </i>
    <i name="e_0_energy">    -18.44225972 </i>
   </energy>
  </scstep>
  <scstep>
   <time name="dav">    0.24    0.24</time>
   <time name="total">    0.24    0.24</time>
   <energy>
    <i name="e_fr_energy">    -19.89432018 </i>
    <i name="e_wo_entrp">    -19.89424182 </i>
    <i name="e_0_energy">    -19.89428100 </i>
   </energy>
  </scstep>
  <scstep>
   <time name="dav">    0.26    0.26</time>
   <time name="total">    0.27    0.27</time>
   <energy>
    <i name="e_fr_energy">    -19.90085296 </i>
    <i name="e_wo_entrp">    -19.90077460 </i>
    <i name="e_0_energy">    -19.90081378 </i>
   </energy>
  </scstep>
  <scstep>
   <time name="dav">    0.24    0.24</time>
   <time name="total">    0.25    0.25</time>
   <energy>
    <i name="e_fr_energy">    -19.90085701 </i>
    <i name="e_wo_entrp">    -19.90077865 </i>
    <i name="e_0_energy">    -19.90081783 </i>
   </energy>
  </scstep>
  <scstep>
   <time name="dav">    0.22    0.22</time>
   <time name="total">    0.23    0.23</time>
   <energy>
    <i name="e_fr_energy">    -18.82196135 </i>
    <i name="e_wo_entrp">    -18.82188299 </i>
    <i name="e_0_energy">    -18.82192217 </i>
   </energy>
  </scstep>
  <scstep>
   <time name="dav">    0.24    0.24</time>
   <time name="total">    0.26    0.27</time>
   <energy>
    <i name="e_fr_energy">    -18.40801533 </i>
    <i name="e_wo_entrp">    -18.40793697 </i>
    <i name="e_0_energy">    -18.40797615 </i>
   </energy>
  </scstep>
  <scstep>
   <time name="dav">    0.25    0.25</time>
   <time name="total">    0.26    0.27</time>
   <energy>
    <i name="e_fr_energy">    -18.39898393 </i>
    <i name="e_wo_entrp">    -18.39890557 </i>
    <i name="e_0_energy">    -18.39894475 </i>
   </energy>
  </scstep>
  <scstep>
   <time name="dav">    0.22    0.22</time>
   <time name="total">    0.24    0.24</time>
   <energy>
    <i name="e_fr_energy">    -18.39679377 </i>
    <i name="e_wo_entrp">    -18.39671541 </i>
    <i name="e_0_energy">    -18.39675459 </i>
   </energy>
  </scstep>
  <scstep>
   <time name="dav">    0.19    0.19</time>
   <time name="total">    0.21    0.21</time>
   <energy>
    <i name="e_fr_energy">    -18.39468800 </i>
    <i name="e_wo_entrp">    -18.39460964 </i>
    <i name="e_0_energy">    -18.39464882 </i>
   </energy>
  </scstep>
  <scstep>
   <time name="dav">    0.18    0.18</time>
   <time name="total">    0.20    0.21</time>
   <energy>
    <i name="e_fr_energy">    -18.39497937 </i>
    <i name="e_wo_entrp">    -18.39490101 </i>
    <i name="e_0_energy">    -18.39494019 </i>
   </energy>
  </scstep>
  <scstep>
   <time name="dav">    0.19    0.19</time>
   <time name="total">    0.20    0.21</time>
   <energy>
    <i name="e_fr_energy">    -18.39520042 </i>
    <i name="e_wo_entrp">    -18.39512206 </i>
    <i name="e_0_energy">    -18.39516124 </i>
   </energy>
  </scstep>
  <scstep>
   <time name="dav">    0.19    0.19</time>
   <time name="total">    0.20    0.20</time>
   <energy>
    <i name="e_fr_energy">    -18.39597647 </i>
    <i name="e_wo_entrp">    -18.39589811 </i>
    <i name="e_0_energy">    -18.39593729 </i>
   </energy>
  </scstep>
  <scstep>
   <time name="dav">    0.23    0.23</time>
   <time name="total">    0.25    0.25</time>
   <energy>
    <i name="e_fr_energy">    -18.39603138 </i>
    <i name="e_wo_entrp">    -18.39595303 </i>
    <i name="e_0_energy">    -18.39599221 </i>
   </energy>
  </scstep>
  <scstep>
   <time name="dav">    0.19    0.19</time>
   <time name="total">    0.20    0.21</time>
   <energy>
    <i name="e_fr_energy">    -18.39614097 </i>
    <i name="e_wo_entrp">    -18.39606261 </i>
    <i name="e_0_energy">    -18.39610179 </i>
   </energy>
  </scstep>
  <scstep>
   <time name="dav">    0.19    0.19</time>
   <time name="total">    0.19    0.20</time>
   <energy>
    <i name="alphaZ">      4.31452609 </i>
    <i name="ewald">    877.93371807 </i>
    <i name="hartreedc">  -1130.27977317 </i>
    <i name="XCdc">     27.87898016 </i>
    <i name="pawpsdc">    909.50046615 </i>
    <i name="pawaedc">   -910.89751170 </i>
    <i name="eentropy">     -0.00007836 </i>
    <i name="bandstr">    -91.14426292 </i>
    <i name="atom">    294.29778662 </i>
    <i name="e_fr_energy">    -18.39614906 </i>
    <i name="e_wo_entrp">    -18.39607070 </i>
    <i name="e_0_energy">    -18.39610988 </i>
   </energy>
  </scstep>
  <structure>
   <crystal>
    <varray name="basis" >
     <v>       2.42129500       0.00000000       0.00000000 </v>
     <v>      -1.21064700       2.09690200       0.00000000 </v>
     <v>       0.00000000       0.00000000      15.00000000 </v>
    </varray>
    <i name="volume">     76.15827492 </i>
    <varray name="rec_basis" >
     <v>       0.41300213       0.23844691       0.00000000 </v>
     <v>       0.00000000       0.47689401       0.00000000 </v>
     <v>       0.00000000       0.00000000       0.06666667 </v>
    </varray>
   </crystal>
   <varray name="positions" >
    <v>       0.00000000       0.00000000       0.50000000 </v>
    <v>       0.33333300       0.66666700       0.50000000 </v>
   </varray>
  </structure>
  <varray name="forces" >
   <v>       0.00000000       0.00000000       0.00000000 </v>
   <v>       0.00000000      -0.00000000       0.00000000 </v>
  </varray>
  <varray name="stress" >
   <v>      57.59098804       0.00001373      -0.00000000 </v>
   <v>       0.00001373      57.59093421      -0.00000000 </v>
   <v>       0.00000000       0.00000000      -0.11998123 </v>
  </varray>
  <energy>
   <i name="e_fr_energy">    -18.39614906 </i>
   <i name="e_wo_entrp">    -18.39610988 </i>
   <i name="e_0_energy">     -0.00007836 </i>
  </energy>
  <time name="totalsc">    3.78    3.82</time>
  <eigenvalues>
   <array>
    <dimension dim="1">band</dimension>
    <dimension dim="2">kpoint</dimension>
    <dimension dim="3">spin</dimension>
    <field>eigene</field>
    <field>occ</field>
    <set>
     <set comment="spin 1">
      <set comment="kpoint 1">
       <r>  -22.0054    1.0000 </r>
       <r>  -10.0407    1.0000 </r>
       <r>   -5.0501    1.0000 </r>
       <r>   -5.0501    1.0000 </r>
       <r>    1.0359    0.0000 </r>
       <r>    1.9522    0.0000 </r>
       <r>    2.4566    0.0000 </r>
       <r>    4.3759    0.0000 </r>
       <r>    5.1164    0.0000 </r>
       <r>    6.6389    0.0000 </r>
       <r>    6.6389    0.0000 </r>
       <r>    8.2630    0.0000 </r>
      </set>
      <set comment="kpoint 2">
       <r>  -21.9631    1.0000 </r>
       <r>   -9.9895    1.0000 </r>
       <r>   -5.2230    1.0000 </r>
       <r>   -5.1447    1.0000 </r>
       <r>    1.0936    0.0000 </r>
       <r>    2.0106    0.0000 </r>
       <r>    2.5154    0.0000 </r>
       <r>    4.4339    0.0000 </r>
       <r>    5.1731    0.0000 </r>
       <r>    6.6659    0.0000 </r>
       <r>    6.8277    0.0000 </r>
       <r>    8.3195    0.0000 </r>
      </set>
      <set comment="kpoint 3">
       <r>  -21.8360    1.0000 </r>
       <r>   -9.8361    1.0000 </r>
       <r>   -5.7158    1.0000 </r>
       <r>   -5.4087    1.0000 </r>
       <r>    1.2669    0.0000 </r>
       <r>    2.1856    0.0000 </r>
       <r>    2.6920    0.0000 </r>
       <r>    4.6079    0.0000 </r>
       <r>    5.3432    0.0000 </r>
       <r>    6.7226    0.0000 </r>
       <r>    7.3730    0.0000 </r>
       <r>    8.4885    0.0000 </r>
      </set>
      <set comment="kpoint 4">
       <r>  -21.6246    1.0000 </r>
       <r>   -9.5815    1.0000 </r>
       <r>   -6.4652    1.0000 </r>
       <r>   -5.7939    1.0000 </r>
       <r>    1.5557    0.0000 </r>
       <r>    2.4769    0.0000 </r>
       <r>    2.9863    0.0000 </r>
       <r>    4.8975    0.0000 </r>
       <r>    5.6258    0.0000 </r>
       <r>    6.7584    0.0000 </r>
       <r>    8.2228    0.0000 </r>
       <r>    8.7100    0.0000 </r>
      </set>
      <set comment="kpoint 5">
       <r>  -21.3294    1.0000 </r>
       <r>   -9.2275    1.0000 </r>
       <r>   -7.3967    1.0000 </r>
       <r>   -6.2453    1.0000 </r>
       <r>    1.9599    0.0000 </r>
       <r>    2.8840    0.0000 </r>
       <r>    3.3984    0.0000 </r>
       <r>    5.3012    0.0000 </r>
       <r>    6.0141    0.0000 </r>
       <r>    6.7461    0.0000 </r>
       <r>    7.8179    0.0000 </r>
       <r>    9.1661    0.0000 </r>
      </set>
      <set comment="kpoint 6">
       <r>  -20.9513    1.0000 </r>
       <r>   -8.7768    1.0000 </r>
       <r>   -8.4446    1.0000 </r>
       <r>   -6.7159    1.0000 </r>
       <r>    2.4792    0.0000 </r>
       <r>    3.4051    0.0000 </r>
       <r>    3.9281    0.0000 </r>
       <r>    5.8103    0.0000 </r>
       <r>    6.4282    0.0000 </r>
       <r>    6.7639    0.0000 </r>
       <r>    6.7641    0.0000 </r>
       <r>    9.6678    0.0000 </r>
      </set>
      <set comment="kpoint 7">
       <r>  -20.4914    1.0000 </r>
       <r>   -9.5569    1.0000 </r>
       <r>   -8.2341    1.0000 </r>
       <r>   -7.1704    1.0000 </r>
       <r>    3.1131    0.0000 </r>
       <r>    4.0316    0.0000 </r>
       <r>    4.5751    0.0000 </r>
       <r>    5.5652    0.0000 </r>
       <r>    6.4543    0.0000 </r>
       <r>    6.4863    0.0000 </r>
       <r>    7.2449    0.0000 </r>
       <r>   10.2756    0.0000 </r>
      </set>
      <set comment="kpoint 8">
       <r>  -19.9513    1.0000 </r>
       <r>  -10.6949    1.0000 </r>
       <r>   -7.6066    1.0000 </r>
       <r>   -7.5839    1.0000 </r>
       <r>    3.8601    0.0000 </r>
       <r>    4.2535    0.0000 </r>
       <r>    4.8851    0.0000 </r>
       <r>    5.3373    0.0000 </r>
       <r>    6.3325    0.0000 </r>
       <r>    7.2213    0.0000 </r>
       <r>    7.9749    0.0000 </r>
       <r>   10.9826    0.0000 </r>
      </set>
      <set comment="kpoint 9">
       <r>  -19.3333    1.0000 </r>
       <r>  -11.8302    1.0000 </r>
       <r>   -7.9395    1.0000 </r>
       <r>   -6.9068    1.0000 </r>
       <r>    3.0768    0.0000 </r>
       <r>    4.7172    0.0000 </r>
       <r>    5.6983    0.0000 </r>
       <r>    6.1250    0.0000 </r>
       <r>    6.2960    0.0000 </r>
       <r>    8.0785    0.0000 </r>
       <r>    8.8318    0.0000 </r>
       <r>   11.7749    0.0000 </r>
      </set>
      <set comment="kpoint 10">
       <r>  -18.6411    1.0000 </r>
       <r>  -12.9406    1.0000 </r>
       <r>   -8.2256    1.0000 </r>
       <r>   -6.1586    1.0000 </r>
       <r>    1.8927    0.0000 </r>
       <r>    5.6563    0.0000 </r>
       <r>    6.1004    0.0000 </r>
       <r>    6.6723    0.0000 </r>
       <r>    7.2338    0.0000 </r>
       <r>    9.0445    0.0000 </r>
       <r>    9.8041    0.0000 </r>
       <r>   12.6076    0.0000 </r>
      </set>
      <set comment="kpoint 11">
       <r>  -17.8819    1.0000 </r>
       <r>  -14.0064    1.0000 </r>
       <r>   -8.4346    1.0000 </r>
       <r>   -5.4124    1.0000 </r>
       <r>    0.8183    0.0000 </r>
       <r>    5.9382    0.0000 </r>
       <r>    6.8106    0.0000 </r>
       <r>    7.7588    0.0000 </r>
       <r>    8.3476    0.0000 </r>
       <r>   10.1101    0.0000 </r>
       <r>   10.8862    0.0000 </r>
       <r>   12.0541    0.0000 </r>
      </set>
      <set comment="kpoint 12">
       <r>  -17.0810    1.0000 </r>
       <r>  -14.9943    1.0000 </r>
       <r>   -8.5618    1.0000 </r>
       <r>   -4.7862    1.0000 </r>
       <r>   -0.0108    0.0000 </r>
       <r>    5.8926    0.0000 </r>
       <r>    7.9855    0.0000 </r>
       <r>    8.9478    0.0000 </r>
       <r>    9.5790    0.0000 </r>
       <r>   10.6411    0.0000 </r>
       <r>   11.2065    0.0000 </r>
       <r>   11.6715    0.0000 </r>
      </set>
      <set comment="kpoint 13">
       <r>  -16.5078    1.0000 </r>
       <r>  -15.6303    1.0000 </r>
       <r>   -8.6045    1.0000 </r>
       <r>   -4.5184    1.0000 </r>
       <r>   -0.3473    0.0000 </r>
       <r>    5.8747    0.0000 </r>
       <r>    9.1971    0.0000 </r>
       <r>    9.3447    0.0000 </r>
       <r>   10.1301    0.0000 </r>
       <r>   10.3332    0.0000 </r>
       <r>   10.9155    0.0000 </r>
       <r>   10.9380    0.0000 </r>
      </set>
      <set comment="kpoint 14">
       <r>  -21.8783    1.0000 </r>
       <r>   -9.8872    1.0000 </r>
       <r>   -5.5459    1.0000 </r>
       <r>   -5.3340    1.0000 </r>
       <r>    1.2091    0.0000 </r>
       <r>    2.1272    0.0000 </r>
       <r>    2.6331    0.0000 </r>
       <r>    4.5500    0.0000 </r>
       <r>    5.2866    0.0000 </r>
       <r>    6.7311    0.0000 </r>
       <r>    7.1695    0.0000 </r>
       <r>    8.4323    0.0000 </r>
      </set>
      <set comment="kpoint 15">
       <r>  -21.7091    1.0000 </r>
       <r>   -9.6832    1.0000 </r>
       <r>   -6.1448    1.0000 </r>
       <r>   -5.6811    1.0000 </r>
       <r>    1.4402    0.0000 </r>
       <r>    2.3604    0.0000 </r>
       <r>    2.8686    0.0000 </r>
       <r>    4.7818    0.0000 </r>
       <r>    5.5136    0.0000 </r>
       <r>    6.8278    0.0000 </r>
       <r>    7.8043    0.0000 </r>
       <r>    8.6567    0.0000 </r>
      </set>
      <set comment="kpoint 16">
       <r>  -21.4558    1.0000 </r>
       <r>   -9.3788    1.0000 </r>
       <r>   -6.9631    1.0000 </r>
       <r>   -6.1219    1.0000 </r>
       <r>    1.7868    0.0000 </r>
       <r>    2.7097    0.0000 </r>
       <r>    3.2219    0.0000 </r>
       <r>    5.1286    0.0000 </r>
       <r>    5.8524    0.0000 </r>
       <r>    6.8820    0.0000 </r>
       <r>    8.2053    0.0000 </r>
       <r>    8.9959    0.0000 </r>
      </set>
      <set comment="kpoint 17">
       <r>  -21.1192    1.0000 </r>
       <r>   -8.9763    1.0000 </r>
       <r>   -7.9356    1.0000 </r>
       <r>   -6.6004    1.0000 </r>
       <r>    2.2487    0.0000 </r>
       <r>    3.1742    0.0000 </r>
       <r>    3.6929    0.0000 </r>
       <r>    5.5879    0.0000 </r>
       <r>    6.2892    0.0000 </r>
       <r>    6.8778    0.0000 </r>
       <r>    7.2269    0.0000 </r>
       <r>    9.4423    0.0000 </r>
      </set>
      <set comment="kpoint 18">
       <r>  -20.7002    1.0000 </r>
       <r>   -9.0036    1.0000 </r>
       <r>   -8.4793    1.0000 </r>
       <r>   -7.0752    1.0000 </r>
       <r>    2.8255    0.0000 </r>
       <r>    3.7505    0.0000 </r>
       <r>    4.2814    0.0000 </r>
       <r>    6.0175    0.0000 </r>
       <r>    6.2698    0.0000 </r>
       <r>    6.6335    0.0000 </r>
       <r>    7.0177    0.0000 </r>
       <r>    9.9958    0.0000 </r>
      </set>
      <set comment="kpoint 19">
       <r>  -20.2001    1.0000 </r>
       <r>  -10.1208    1.0000 </r>
       <r>   -7.8934    1.0000 </r>
       <r>   -7.5172    1.0000 </r>
       <r>    3.5163    0.0000 </r>
       <r>    4.3936    0.0000 </r>
       <r>    4.9676    0.0000 </r>
       <r>    4.9868    0.0000 </r>
       <r>    6.5757    0.0000 </r>
       <r>    6.8748    0.0000 </r>
       <r>    7.6386    0.0000 </r>
       <r>   10.6506    0.0000 </r>
      </set>
      <set comment="kpoint 20">
       <r>  -19.6211    1.0000 </r>
       <r>  -11.2521    1.0000 </r>
       <r>   -7.9068    1.0000 </r>
       <r>   -7.2281    1.0000 </r>
       <r>    3.6553    0.0000 </r>
       <r>    4.3195    0.0000 </r>
       <r>    5.2970    0.0000 </r>
       <r>    5.8048    0.0000 </r>
       <r>    6.4545    0.0000 </r>
       <r>    7.6743    0.0000 </r>
       <r>    8.4323    0.0000 </r>
       <r>   11.3954    0.0000 </r>
      </set>
      <set comment="kpoint 21">
       <r>  -18.9659    1.0000 </r>
       <r>  -12.3717    1.0000 </r>
       <r>   -8.2308    1.0000 </r>
       <r>   -6.5003    1.0000 </r>
       <r>    2.4584    0.0000 </r>
       <r>    5.2294    0.0000 </r>
       <r>    6.2089    0.0000 </r>
       <r>    6.3080    0.0000 </r>
       <r>    6.7721    0.0000 </r>
       <r>    8.5848    0.0000 </r>
       <r>    9.3468    0.0000 </r>
       <r>   12.2013    0.0000 </r>
      </set>
      <set comment="kpoint 22">
       <r>  -18.2394    1.0000 </r>
       <r>  -13.4584    1.0000 </r>
       <r>   -8.4802    1.0000 </r>
       <r>   -5.7438    1.0000 </r>
       <r>    1.3235    0.0000 </r>
       <r>    6.0933    0.0000 </r>
       <r>    6.3752    0.0000 </r>
       <r>    7.2391    0.0000 </r>
       <r>    7.8198    0.0000 </r>
       <r>    9.5979    0.0000 </r>
       <r>   10.3741    0.0000 </r>
       <r>   12.9080    0.0000 </r>
      </set>
      <set comment="kpoint 23">
       <r>  -17.4542    1.0000 </r>
       <r>  -14.4892    1.0000 </r>
       <r>   -8.6493    1.0000 </r>
       <r>   -5.0351    1.0000 </r>
       <r>    0.3522    0.0000 </r>
       <r>    6.1034    0.0000 </r>
       <r>    7.4252    0.0000 </r>
       <r>    8.3748    0.0000 </r>
       <r>    8.9927    0.0000 </r>
       <r>   10.6932    0.0000 </r>
       <r>   11.3622    0.0000 </r>
       <r>   11.5234    0.0000 </r>
      </set>
      <set comment="kpoint 24">
       <r>  -16.6793    1.0000 </r>
       <r>  -15.3883    1.0000 </r>
       <r>   -8.7346    1.0000 </r>
       <r>   -4.5507    1.0000 </r>
       <r>   -0.2665    0.0000 </r>
       <r>    6.0697    0.0000 </r>
       <r>    8.6536    0.0000 </r>
       <r>    9.5991    0.0000 </r>
       <r>    9.9850    0.0000 </r>
       <r>   10.2850    0.0000 </r>
       <r>   10.9083    0.0000 </r>
       <r>   11.6848    0.0000 </r>
      </set>
      <set comment="kpoint 25">
       <r>  -21.4980    1.0000 </r>
       <r>   -9.4293    1.0000 </r>
       <r>   -6.7714    1.0000 </r>
       <r>   -6.1254    1.0000 </r>
       <r>    1.7291    0.0000 </r>
       <r>    2.6516    0.0000 </r>
       <r>    3.1631    0.0000 </r>
       <r>    5.0711    0.0000 </r>
       <r>    5.7984    0.0000 </r>
       <r>    7.0407    0.0000 </r>
       <r>    8.3426    0.0000 </r>
       <r>    8.3613    0.0000 </r>
      </set>
      <set comment="kpoint 26">
       <r>  -21.2033    1.0000 </r>
       <r>   -9.0764    1.0000 </r>
       <r>   -7.5764    1.0000 </r>
       <r>   -6.6482    1.0000 </r>
       <r>    2.1336    0.0000 </r>
       <r>    3.0585    0.0000 </r>
       <r>    3.5753    0.0000 </r>
       <r>    5.4749    0.0000 </r>
       <r>    6.1954    0.0000 </r>
       <r>    7.2165    0.0000 </r>
       <r>    7.4806    0.0000 </r>
       <r>    9.3260    0.0000 </r>
      </set>
      <set comment="kpoint 27">
       <r>  -20.8257    1.0000 </r>
       <r>   -8.6271    1.0000 </r>
       <r>   -8.5268    1.0000 </r>
       <r>   -7.1737    1.0000 </r>
       <r>    2.6532    0.0000 </r>
       <r>    3.5797    0.0000 </r>
       <r>    4.1053    0.0000 </r>
       <r>    5.9841    0.0000 </r>
       <r>    6.4832    0.0000 </r>
       <r>    6.6899    0.0000 </r>
       <r>    7.2851    0.0000 </r>
       <r>    9.8216    0.0000 </r>
      </set>
      <set comment="kpoint 28">
       <r>  -20.3666    1.0000 </r>
       <r>   -9.5722    1.0000 </r>
       <r>   -8.0860    1.0000 </r>
       <r>   -7.6635    1.0000 </r>
       <r>    3.2873    0.0000 </r>
       <r>    4.2068    0.0000 </r>
       <r>    4.7527    0.0000 </r>
       <r>    5.3641    0.0000 </r>
       <r>    6.6360    0.0000 </r>
       <r>    7.0757    0.0000 </r>
       <r>    7.4752    0.0000 </r>
       <r>   10.4177    0.0000 </r>
      </set>
      <set comment="kpoint 29">
       <r>  -19.8277    1.0000 </r>
       <r>  -10.6657    1.0000 </r>
       <r>   -8.0984    1.0000 </r>
       <r>   -7.4603    1.0000 </r>
       <r>    4.0350    0.0000 </r>
       <r>    4.1489    0.0000 </r>
       <r>    5.0065    0.0000 </r>
       <r>    5.5169    0.0000 </r>
       <r>    7.0340    0.0000 </r>
       <r>    7.3772    0.0000 </r>
       <r>    8.1551    0.0000 </r>
       <r>   11.1018    0.0000 </r>
      </set>
      <set comment="kpoint 30">
       <r>  -19.2112    1.0000 </r>
       <r>  -11.7710    1.0000 </r>
       <r>   -8.4664    1.0000 </r>
       <r>   -6.7620    1.0000 </r>
       <r>    2.9807    0.0000 </r>
       <r>    4.8942    0.0000 </r>
       <r>    5.8526    0.0000 </r>
       <r>    6.3922    0.0000 </r>
       <r>    6.9273    0.0000 </r>
       <r>    8.2286    0.0000 </r>
       <r>    9.0053    0.0000 </r>
       <r>   11.8434    0.0000 </r>
      </set>
      <set comment="kpoint 31">
       <r>  -18.5211    1.0000 </r>
       <r>  -12.8612    1.0000 </r>
       <r>   -8.7595    1.0000 </r>
       <r>   -6.0143    1.0000 </r>
       <r>    1.8282    0.0000 </r>
       <r>    5.8582    0.0000 </r>
       <r>    6.7997    0.0000 </r>
       <r>    6.8234    0.0000 </r>
       <r>    7.4138    0.0000 </r>
       <r>    9.1811    0.0000 </r>
       <r>    9.9745    0.0000 </r>
       <r>   12.5368    0.0000 </r>
      </set>
      <set comment="kpoint 32">
       <r>  -17.7649    1.0000 </r>
       <r>  -13.9129    1.0000 </r>
       <r>   -8.9723    1.0000 </r>
       <r>   -5.2663    1.0000 </r>
       <r>    0.7753    0.0000 </r>
       <r>    6.6463    0.0000 </r>
       <r>    7.0069    0.0000 </r>
       <r>    7.8990    0.0000 </r>
       <r>    8.5235    0.0000 </r>
       <r>   10.2157    0.0000 </r>
       <r>   11.0525    0.0000 </r>
       <r>   12.1279    0.0000 </r>
      </set>
      <set comment="kpoint 33">
       <r>  -16.9681    1.0000 </r>
       <r>  -14.8905    1.0000 </r>
       <r>   -9.1014    1.0000 </r>
       <r>   -4.6345    1.0000 </r>
       <r>   -0.0456    0.0000 </r>
       <r>    6.6280    0.0000 </r>
       <r>    8.1508    0.0000 </r>
       <r>    9.0625    0.0000 </r>
       <r>    9.7535    0.0000 </r>
       <r>   10.7770    0.0000 </r>
       <r>   11.1725    0.0000 </r>
       <r>   11.8084    0.0000 </r>
      </set>
      <set comment="kpoint 34">
       <r>  -16.4005    1.0000 </r>
       <r>  -15.5191    1.0000 </r>
       <r>   -9.1446    1.0000 </r>
       <r>   -4.3619    1.0000 </r>
       <r>   -0.3821    0.0000 </r>
       <r>    6.6112    0.0000 </r>
       <r>    9.3485    0.0000 </r>
       <r>    9.5053    0.0000 </r>
       <r>   10.1111    0.0000 </r>
       <r>   10.5089    0.0000 </r>
       <r>   11.0870    0.0000 </r>
       <r>   11.1115    0.0000 </r>
      </set>
      <set comment="kpoint 35">
       <r>  -20.8676    1.0000 </r>
       <r>   -8.6765    1.0000 </r>
       <r>   -8.3030    1.0000 </r>
       <r>   -7.2744    1.0000 </r>
       <r>    2.5958    0.0000 </r>
       <r>    3.5225    0.0000 </r>
       <r>    4.0466    0.0000 </r>
       <r>    5.9351    0.0000 </r>
       <r>    6.6005    0.0000 </r>
       <r>    6.6527    0.0000 </r>
       <r>    7.6189    0.0000 </r>
       <r>    9.7621    0.0000 </r>
      </set>
      <set comment="kpoint 36">
       <r>  -20.4501    1.0000 </r>
       <r>   -9.1622    1.0000 </r>
       <r>   -8.1827    1.0000 </r>
       <r>   -7.8838    1.0000 </r>
       <r>    3.1729    0.0000 </r>
       <r>    4.0997    0.0000 </r>
       <r>    4.6356    0.0000 </r>
       <r>    5.6054    0.0000 </r>
       <r>    6.5092    0.0000 </r>
       <r>    7.2127    0.0000 </r>
       <r>    7.8837    0.0000 </r>
       <r>   10.2967    0.0000 </r>
      </set>
      <set comment="kpoint 37">
       <r>  -19.9520    1.0000 </r>
       <r>  -10.1371    1.0000 </r>
       <r>   -8.4134    1.0000 </r>
       <r>   -7.6005    1.0000 </r>
       <r>    3.8640    0.0000 </r>
       <r>    4.4998    0.0000 </r>
       <r>    4.8222    0.0000 </r>
       <r>    5.3419    0.0000 </r>
       <r>    7.1929    0.0000 </r>
       <r>    7.7376    0.0000 </r>
       <r>    8.0919    0.0000 </r>
       <r>   10.9144    0.0000 </r>
      </set>
      <set comment="kpoint 38">
       <r>  -19.3756    1.0000 </r>
       <r>  -11.1785    1.0000 </r>
       <r>   -8.8528    1.0000 </r>
       <r>   -6.9389    1.0000 </r>
       <r>    3.4002    0.0000 </r>
       <r>    4.6680    0.0000 </r>
       <r>    5.6057    0.0000 </r>
       <r>    6.1650    0.0000 </r>
       <r>    7.7756    0.0000 </r>
       <r>    7.9828    0.0000 </r>
       <r>    8.7890    0.0000 </r>
       <r>   11.5765    0.0000 </r>
      </set>
      <set comment="kpoint 39">
       <r>  -18.7239    1.0000 </r>
       <r>  -12.2406    1.0000 </r>
       <r>   -9.2041    1.0000 </r>
       <r>   -6.2137    1.0000 </r>
       <r>    2.2764    0.0000 </r>
       <r>    5.5825    0.0000 </r>
       <r>    6.5162    0.0000 </r>
       <r>    7.1006    0.0000 </r>
       <r>    7.6904    0.0000 </r>
       <r>    8.8696    0.0000 </r>
       <r>    9.6911    0.0000 </r>
       <r>   12.1680    0.0000 </r>
      </set>
      <set comment="kpoint 40">
       <r>  -18.0025    1.0000 </r>
       <r>  -13.2895    1.0000 </r>
       <r>   -9.4683    1.0000 </r>
       <r>   -5.4566    1.0000 </r>
       <r>    1.1996    0.0000 </r>
       <r>    6.6012    0.0000 </r>
       <r>    7.5271    0.0000 </r>
       <r>    7.5817    0.0000 </r>
       <r>    8.1760    0.0000 </r>
       <r>    9.8291    0.0000 </r>
       <r>   10.7110    0.0000 </r>
       <r>   12.4113    0.0000 </r>
      </set>
      <set comment="kpoint 41">
       <r>  -17.2242    1.0000 </r>
       <r>  -14.2945    1.0000 </r>
       <r>   -9.6450    1.0000 </r>
       <r>   -4.7401    1.0000 </r>
       <r>    0.2599    0.0000 </r>
       <r>    7.4562    0.0000 </r>
       <r>    7.7868    0.0000 </r>
       <r>    8.6172    0.0000 </r>
       <r>    9.3432    0.0000 </r>
       <r>   10.7630    0.0000 </r>
       <r>   11.5739    0.0000 </r>
       <r>   11.8522    0.0000 </r>
      </set>
      <set comment="kpoint 42">
       <r>  -16.4600    1.0000 </r>
       <r>  -15.1744    1.0000 </r>
       <r>   -9.7336    1.0000 </r>
       <r>   -4.2413    1.0000 </r>
       <r>   -0.3535    0.0000 </r>
       <r>    7.4509    0.0000 </r>
       <r>    8.9739    0.0000 </r>
       <r>    9.6997    0.0000 </r>
       <r>   10.2779    0.0000 </r>
       <r>   10.6324    0.0000 </r>
       <r>   10.9424    0.0000 </r>
       <r>   12.0241    0.0000 </r>
      </set>
      <set comment="kpoint 43">
       <r>  -19.9935    1.0000 </r>
       <r>   -9.8760    1.0000 </r>
       <r>   -8.6079    1.0000 </r>
       <r>   -7.6475    1.0000 </r>
       <r>    3.8070    0.0000 </r>
       <r>    4.6548    0.0000 </r>
       <r>    4.7327    0.0000 </r>
       <r>    5.2835    0.0000 </r>
       <r>    7.1297    0.0000 </r>
       <r>    7.8413    0.0000 </r>
       <r>    8.4858    0.0000 </r>
       <r>   10.2850    0.0000 </r>
      </set>
      <set comment="kpoint 44">
       <r>  -19.4580    1.0000 </r>
       <r>  -10.7141    1.0000 </r>
       <r>   -9.2270    1.0000 </r>
       <r>   -7.0280    1.0000 </r>
       <r>    3.6418    0.0000 </r>
       <r>    4.5543    0.0000 </r>
       <r>    5.4759    0.0000 </r>
       <r>    6.0486    0.0000 </r>
       <r>    7.8559    0.0000 </r>
       <r>    8.5069    0.0000 </r>
       <r>    8.8708    0.0000 </r>
       <r>   10.8391    0.0000 </r>
      </set>
      <set comment="kpoint 45">
       <r>  -18.8463    1.0000 </r>
       <r>  -11.6611    1.0000 </r>
       <r>   -9.7010    1.0000 </r>
       <r>   -6.3356    1.0000 </r>
       <r>    2.5957    0.0000 </r>
       <r>    5.4133    0.0000 </r>
       <r>    6.3242    0.0000 </r>
       <r>    6.9303    0.0000 </r>
       <r>    8.6739    0.0000 </r>
       <r>    8.7191    0.0000 </r>
       <r>    9.5393    0.0000 </r>
       <r>   11.6773    0.0000 </r>
      </set>
      <set comment="kpoint 46">
       <r>  -18.1626    1.0000 </r>
       <r>  -12.6577    1.0000 </r>
       <r>  -10.0485    1.0000 </r>
       <r>   -5.5908    1.0000 </r>
       <r>    1.5535    0.0000 </r>
       <r>    6.3810    0.0000 </r>
       <r>    7.2665    0.0000 </r>
       <r>    7.9260    0.0000 </r>
       <r>    8.6677    0.0000 </r>
       <r>    9.5500    0.0000 </r>
       <r>   10.4859    0.0000 </r>
       <r>   12.0552    0.0000 </r>
      </set>
      <set comment="kpoint 47">
       <r>  -17.4154    1.0000 </r>
       <r>  -13.6518    1.0000 </r>
       <r>  -10.2885    1.0000 </r>
       <r>   -4.8374    1.0000 </r>
       <r>    0.5743    0.0000 </r>
       <r>    7.4507    0.0000 </r>
       <r>    8.2729    0.0000 </r>
       <r>    8.5771    0.0000 </r>
       <r>    9.0554    0.0000 </r>
       <r>   10.3742    0.0000 </r>
       <r>   11.5442    0.0000 </r>
       <r>   12.0673    0.0000 </r>
      </set>
      <set comment="kpoint 48">
       <r>  -16.6315    1.0000 </r>
       <r>  -14.5918    1.0000 </r>
       <r>  -10.4302    1.0000 </r>
       <r>   -4.1852    1.0000 </r>
       <r>   -0.2191    0.0000 </r>
       <r>    8.4608    0.0000 </r>
       <r>    8.6841    0.0000 </r>
       <r>    9.2389    0.0000 </r>
       <r>   10.2758    0.0000 </r>
       <r>   10.8785    0.0000 </r>
       <r>   11.1489    0.0000 </r>
       <r>   12.2840    0.0000 </r>
      </set>
      <set comment="kpoint 49">
       <r>  -16.0788    1.0000 </r>
       <r>  -15.1978    1.0000 </r>
       <r>  -10.4771    1.0000 </r>
       <r>   -3.8939    1.0000 </r>
       <r>   -0.5584    0.0000 </r>
       <r>    8.4869    0.0000 </r>
       <r>    9.7398    0.0000 </r>
       <r>    9.7903    0.0000 </r>
       <r>    9.9797    0.0000 </r>
       <r>   11.0356    0.0000 </r>
       <r>   11.5985    0.0000 </r>
       <r>   11.6301    0.0000 </r>
      </set>
      <set comment="kpoint 50">
       <r>  -18.8872    1.0000 </r>
       <r>  -11.3605    1.0000 </r>
       <r>   -9.9782    1.0000 </r>
       <r>   -6.3767    1.0000 </r>
       <r>    2.7131    0.0000 </r>
       <r>    5.3566    0.0000 </r>
       <r>    6.2582    0.0000 </r>
       <r>    6.8722    0.0000 </r>
       <r>    8.6066    0.0000 </r>
       <r>    9.2937    0.0000 </r>
       <r>    9.6685    0.0000 </r>
       <r>   10.8797    0.0000 </r>
      </set>
      <set comment="kpoint 51">
       <r>  -18.2432    1.0000 </r>
       <r>  -12.1412    1.0000 </r>
       <r>  -10.5495    1.0000 </r>
       <r>   -5.6600    1.0000 </r>
       <r>    1.7588    0.0000 </r>
       <r>    6.2683    0.0000 </r>
       <r>    7.1298    0.0000 </r>
       <r>    7.8120    0.0000 </r>
       <r>    9.4005    0.0000 </r>
       <r>    9.7580    0.0000 </r>
       <r>   10.4056    0.0000 </r>
       <r>   11.4284    0.0000 </r>
      </set>
      <set comment="kpoint 52">
       <r>  -17.5322    1.0000 </r>
       <r>  -13.0310    1.0000 </r>
       <r>  -10.9264    1.0000 </r>
       <r>   -4.9042    1.0000 </r>
       <r>    0.8133    0.0000 </r>
       <r>    7.2848    0.0000 </r>
       <r>    8.0473    0.0000 </r>
       <r>    8.8656    0.0000 </r>
       <r>    9.7674    0.0000 </r>
       <r>   10.1051    0.0000 </r>
       <r>   11.3753    0.0000 </r>
       <r>   11.8585    0.0000 </r>
      </set>
      <set comment="kpoint 53">
       <r>  -16.7688    1.0000 </r>
       <r>  -13.9482    1.0000 </r>
       <r>  -11.1540    1.0000 </r>
       <r>   -4.1700    1.0000 </r>
       <r>   -0.0540    0.0000 </r>
       <r>    8.3959    0.0000 </r>
       <r>    8.8709    0.0000 </r>
       <r>    9.6903    0.0000 </r>
       <r>   10.0495    0.0000 </r>
       <r>   10.5903    0.0000 </r>
       <r>   11.8162    0.0000 </r>
       <r>   12.3589    0.0000 </r>
      </set>
      <set comment="kpoint 54">
       <r>  -16.0246    1.0000 </r>
       <r>  -14.7779    1.0000 </r>
       <r>  -11.2623    1.0000 </r>
       <r>   -3.6298    1.0000 </r>
       <r>   -0.6630    0.0000 </r>
       <r>    9.3060    0.0000 </r>
       <r>    9.5287    0.0000 </r>
       <r>    9.7060    0.0000 </r>
       <r>   10.8211    0.0000 </r>
       <r>   11.2074    0.0000 </r>
       <r>   11.3245    0.0000 </r>
       <r>   12.6892    0.0000 </r>
      </set>
      <set comment="kpoint 55">
       <r>  -17.5715    1.0000 </r>
       <r>  -12.6939    1.0000 </r>
       <r>  -11.2720    1.0000 </r>
       <r>   -4.9278    1.0000 </r>
       <r>    0.9032    0.0000 </r>
       <r>    7.2286    0.0000 </r>
       <r>    7.9672    0.0000 </r>
       <r>    8.8087    0.0000 </r>
       <r>   10.0082    0.0000 </r>
       <r>   10.6622    0.0000 </r>
       <r>   11.3436    0.0000 </r>
       <r>   11.3790    0.0000 </r>
      </set>
      <set comment="kpoint 56">
       <r>  -16.8412    1.0000 </r>
       <r>  -13.3964    1.0000 </r>
       <r>  -11.7501    1.0000 </r>
       <r>   -4.1700    1.0000 </r>
       <r>    0.0572    0.0000 </r>
       <r>    8.2853    0.0000 </r>
       <r>    8.6599    0.0000 </r>
       <r>    9.9171    0.0000 </r>
       <r>   10.4153    0.0000 </r>
       <r>   10.8518    0.0000 </r>
       <r>   11.7499    0.0000 </r>
       <r>   12.2994    0.0000 </r>
      </set>
      <set comment="kpoint 57">
       <r>  -16.0803    1.0000 </r>
       <r>  -14.1901    1.0000 </r>
       <r>  -11.9949    1.0000 </r>
       <r>   -3.4707    1.0000 </r>
       <r>   -0.6956    0.0000 </r>
       <r>    8.9439    0.0000 </r>
       <r>    9.4161    0.0000 </r>
       <r>   10.7741    0.0000 </r>
       <r>   11.1175    0.0000 </r>
       <r>   11.1437    0.0000 </r>
       <r>   11.5816    0.0000 </r>
       <r>   13.1336    0.0000 </r>
      </set>
      <set comment="kpoint 58">
       <r>  -15.5439    1.0000 </r>
       <r>  -14.7460    1.0000 </r>
       <r>  -12.0690    1.0000 </r>
       <r>   -3.1198    1.0000 </r>
       <r>   -1.0646    0.0000 </r>
       <r>    8.9804    0.0000 </r>
       <r>   10.4685    0.0000 </r>
       <r>   10.5890    0.0000 </r>
       <r>   10.8734    0.0000 </r>
       <r>   11.9121    0.0000 </r>
       <r>   12.4326    0.0000 </r>
       <r>   12.4845    0.0000 </r>
      </set>
      <set comment="kpoint 59">
       <r>  -16.1063    1.0000 </r>
       <r>  -13.8451    1.0000 </r>
       <r>  -12.3829    1.0000 </r>
       <r>   -3.4186    1.0000 </r>
       <r>   -0.6993    0.0000 </r>
       <r>    8.8093    0.0000 </r>
       <r>    9.3615    0.0000 </r>
       <r>   11.0684    0.0000 </r>
       <r>   11.0696    0.0000 </r>
       <r>   11.5467    0.0000 </r>
       <r>   11.6588    0.0000 </r>
       <r>   13.2134    0.0000 </r>
      </set>
      <set comment="kpoint 60">
       <r>  -15.3900    1.0000 </r>
       <r>  -14.4266    1.0000 </r>
       <r>  -12.6950    1.0000 </r>
       <r>   -2.7577    1.0000 </r>
       <r>   -1.3599    0.0000 </r>
       <r>    8.7455    0.0000 </r>
       <r>   10.4471    0.0000 </r>
       <r>   11.3227    0.0000 </r>
       <r>   11.6321    0.0000 </r>
       <r>   12.0993    0.0000 </r>
       <r>   12.3514    0.0000 </r>
       <r>   13.5997    0.0000 </r>
      </set>
      <set comment="kpoint 61">
       <r>  -14.7979    1.0000 </r>
       <r>  -14.7978    1.0000 </r>
       <r>  -12.9995    1.0000 </r>
       <r>   -2.0494    0.5004 </r>
       <r>   -2.0494    0.4996 </r>
       <r>    8.6507    0.0000 </r>
       <r>   11.1995    0.0000 </r>
       <r>   11.1996    0.0000 </r>
       <r>   11.6915    0.0000 </r>
       <r>   13.1360    0.0000 </r>
       <r>   13.1565    0.0000 </r>
       <r>   13.5113    0.0000 </r>
      </set>
     </set>
    </set>
   </array>
  </eigenvalues>
  <separator name="orbital magnetization" >
   <v name="MAGDIPOLOUT">      0.00000000      0.00000000      0.00000000</v>
  </separator>
  <dos>
   <i name="efermi">     -2.04937952 </i>
   <total>
    <array>
     <dimension dim="1">gridpoints</dimension>
     <dimension dim="2">spin</dimension>
     <field>energy</field>
     <field>total</field>
     <field>integrated</field>
     <set>
      <set comment="spin 1">
       <r>   -23.7857     0.0000     0.0000 </r>
       <r>   -23.6551     0.0000     0.0000 </r>
       <r>   -23.5246     0.0000     0.0000 </r>
       <r>   -23.3940     0.0000     0.0000 </r>
       <r>   -23.2634     0.0000     0.0000 </r>
       <r>   -23.1329     0.0000     0.0000 </r>
       <r>   -23.0023     0.0000     0.0000 </r>
       <r>   -22.8718     0.0000     0.0000 </r>
       <r>   -22.7412     0.0000     0.0000 </r>
       <r>   -22.6107     0.0000     0.0000 </r>
       <r>   -22.4801     0.0000     0.0000 </r>
       <r>   -22.3496     0.0000     0.0000 </r>
       <r>   -22.2190     0.0000     0.0000 </r>
       <r>   -22.0885     0.0000     0.0000 </r>
       <r>   -21.9579     0.1290     0.0168 </r>
       <r>   -21.8274     0.3330     0.0603 </r>
       <r>   -21.6968     0.3010     0.0996 </r>
       <r>   -21.5663     0.2210     0.1285 </r>
       <r>   -21.4357     0.4540     0.1877 </r>
       <r>   -21.3052     0.1774     0.2109 </r>
       <r>   -21.1746     0.3192     0.2526 </r>
       <r>   -21.0441     0.3260     0.2951 </r>
       <r>   -20.9135     0.1591     0.3159 </r>
       <r>   -20.7830     0.4782     0.3784 </r>
       <r>   -20.6524     0.3190     0.4201 </r>
       <r>   -20.5219     0.0025     0.4205 </r>
       <r>   -20.3913     0.4892     0.4843 </r>
       <r>   -20.2608     0.3062     0.5243 </r>
       <r>   -20.1302     0.3192     0.5660 </r>
       <r>   -19.9996     0.0531     0.5729 </r>
       <r>   -19.8691     0.5857     0.6494 </r>
       <r>   -19.7385     0.3186     0.6910 </r>
       <r>   -19.6080     0.2627     0.7253 </r>
       <r>   -19.4774     0.0835     0.7362 </r>
       <r>   -19.3469     0.6314     0.8186 </r>
       <r>   -19.2163     0.2538     0.8517 </r>
       <r>   -19.0858     0.2047     0.8785 </r>
       <r>   -18.9552     0.2470     0.9107 </r>
       <r>   -18.8247     0.5307     0.9800 </r>
       <r>   -18.6941     0.3337     1.0236 </r>
       <r>   -18.5636     0.1600     1.0452 </r>
       <r>   -18.4330     0.3187     1.0868 </r>
       <r>   -18.3025     0.0000     1.0868 </r>
       <r>   -18.1719     0.7200     1.1808 </r>
       <r>   -18.0414     0.2385     1.2119 </r>
       <r>   -17.9108     0.3215     1.2539 </r>
       <r>   -17.7803     0.2003     1.2801 </r>
       <r>   -17.6497     0.2751     1.3160 </r>
       <r>   -17.5192     0.4220     1.3711 </r>
       <r>   -17.3886     0.6857     1.4606 </r>
       <r>   -17.2581     0.0120     1.4622 </r>
       <r>   -17.1275     0.3166     1.5035 </r>
       <r>   -16.9970     0.1661     1.5252 </r>
       <r>   -16.8664     0.3244     1.5675 </r>
       <r>   -16.7359     0.6233     1.6489 </r>
       <r>   -16.6053     0.6281     1.7313 </r>
       <r>   -16.4747     0.1365     1.7491 </r>
       <r>   -16.3442     0.4314     1.8056 </r>
       <r>   -16.2136     0.0000     1.8056 </r>
       <r>   -16.0831     0.3467     1.8508 </r>
       <r>   -15.9525     0.6108     1.9306 </r>
       <r>   -15.8220     0.0000     1.9306 </r>
       <r>   -15.6914     0.0000     1.9306 </r>
       <r>   -15.5609     0.0984     1.9434 </r>
       <r>   -15.4303     0.3017     1.9828 </r>
       <r>   -15.2998     0.6371     2.0660 </r>
       <r>   -15.1692     0.3613     2.1131 </r>
       <r>   -15.0387     0.1175     2.1285 </r>
       <r>   -14.9081     0.1933     2.1537 </r>
       <r>   -14.7776     0.5482     2.2253 </r>
       <r>   -14.6470     0.3222     2.2674 </r>
       <r>   -14.5165     0.3277     2.3101 </r>
       <r>   -14.3859     0.6291     2.3923 </r>
       <r>   -14.2554     0.3182     2.4339 </r>
       <r>   -14.1248     0.3192     2.4757 </r>
       <r>   -13.9943     0.1285     2.4925 </r>
       <r>   -13.8637     0.6843     2.5818 </r>
       <r>   -13.7332     0.1446     2.6007 </r>
       <r>   -13.6026     0.3191     2.6424 </r>
       <r>   -13.4721     0.0534     2.6493 </r>
       <r>   -13.3415     0.5849     2.7257 </r>
       <r>   -13.2109     0.3191     2.7674 </r>
       <r>   -13.0804     0.0001     2.7674 </r>
       <r>   -12.9498     0.4133     2.8213 </r>
       <r>   -12.8193     0.4373     2.8784 </r>
       <r>   -12.6887     0.3210     2.9204 </r>
       <r>   -12.5582     0.4769     2.9826 </r>
       <r>   -12.4276     0.0001     2.9827 </r>
       <r>   -12.2971     0.4786     3.0451 </r>
       <r>   -12.1665     0.3309     3.0883 </r>
       <r>   -12.0360     0.4660     3.1492 </r>
       <r>   -11.9054     0.3186     3.1910 </r>
       <r>   -11.7749     0.2978     3.2299 </r>
       <r>   -11.6443     0.7817     3.3319 </r>
       <r>   -11.5138     0.0375     3.3368 </r>
       <r>   -11.3832     0.0086     3.3379 </r>
       <r>   -11.2527     0.6912     3.4282 </r>
       <r>   -11.1221     0.8921     3.5446 </r>
       <r>   -10.9916     0.0000     3.5451 </r>
       <r>   -10.8610     0.3192     3.5868 </r>
       <r>   -10.7305     0.0402     3.5921 </r>
       <r>   -10.5999     0.7577     3.6910 </r>
       <r>   -10.4694     0.4328     3.7475 </r>
       <r>   -10.3388     0.3650     3.7951 </r>
       <r>   -10.2083     0.3191     3.8368 </r>
       <r>   -10.0777     0.6442     3.9209 </r>
       <r>    -9.9471     0.6562     4.0066 </r>
       <r>    -9.8166     0.4653     4.0677 </r>
       <r>    -9.6860     0.7398     4.1643 </r>
       <r>    -9.5555     1.0718     4.3042 </r>
       <r>    -9.4249     0.5349     4.3740 </r>
       <r>    -9.2944     0.3793     4.4236 </r>
       <r>    -9.1638     0.9558     4.5484 </r>
       <r>    -9.0333     0.9639     4.6743 </r>
       <r>    -8.9027     0.9518     4.7986 </r>
       <r>    -8.7722     0.4796     4.8612 </r>
       <r>    -8.6416     1.0715     5.0011 </r>
       <r>    -8.5111     1.0469     5.1379 </r>
       <r>    -8.3805     1.6264     5.3503 </r>
       <r>    -8.2500     0.2150     5.3788 </r>
       <r>    -8.1194     0.9267     5.4997 </r>
       <r>    -7.9889     0.6137     5.5799 </r>
       <r>    -7.8583     1.4225     5.7656 </r>
       <r>    -7.7278     0.0115     5.7674 </r>
       <r>    -7.5972     0.8372     5.8767 </r>
       <r>    -7.4667     1.0218     6.0101 </r>
       <r>    -7.3361     0.3750     6.0590 </r>
       <r>    -7.2056     0.4660     6.1199 </r>
       <r>    -7.0750     0.6528     6.2051 </r>
       <r>    -6.9445     0.8776     6.3197 </r>
       <r>    -6.8139     0.3975     6.3716 </r>
       <r>    -6.6833     0.6384     6.4549 </r>
       <r>    -6.5528     0.6362     6.5382 </r>
       <r>    -6.4222     0.4786     6.6007 </r>
       <r>    -6.2917     0.4784     6.6632 </r>
       <r>    -6.1611     0.5882     6.7400 </r>
       <r>    -6.0306     0.8878     6.8559 </r>
       <r>    -5.9000     0.2793     6.8924 </r>
       <r>    -5.7695     0.1640     6.9138 </r>
       <r>    -5.6389     1.0907     7.0562 </r>
       <r>    -5.5084     0.4997     7.1215 </r>
       <r>    -5.3778     0.6350     7.2044 </r>
       <r>    -5.2473     0.4568     7.2645 </r>
       <r>    -5.1167     0.3371     7.3085 </r>
       <r>    -4.9862     0.3761     7.3576 </r>
       <r>    -4.8556     0.5102     7.4243 </r>
       <r>    -4.7251     0.7204     7.5183 </r>
       <r>    -4.5945     0.3646     7.5659 </r>
       <r>    -4.4640     0.3986     7.6181 </r>
       <r>    -4.3334     0.1561     7.6384 </r>
       <r>    -4.2029     0.3617     7.6857 </r>
       <r>    -4.0723     0.9174     7.8056 </r>
       <r>    -3.9418     0.0001     7.8056 </r>
       <r>    -3.8112     0.1595     7.8264 </r>
       <r>    -3.6807     0.0001     7.8264 </r>
       <r>    -3.5501     0.3191     7.8681 </r>
       <r>    -3.4196     0.3947     7.9196 </r>
       <r>    -3.2890     0.0840     7.9306 </r>
       <r>    -3.1584     0.0005     7.9306 </r>
       <r>    -3.0279     0.1591     7.9514 </r>
       <r>    -2.8973     0.0000     7.9514 </r>
       <r>    -2.7668     0.0833     7.9623 </r>
       <r>    -2.6362     0.2359     7.9931 </r>
       <r>    -2.5057     0.0000     7.9931 </r>
       <r>    -2.3751     0.0000     7.9931 </r>
       <r>    -2.2446     0.0000     7.9931 </r>
       <r>    -2.1140     0.0000     7.9931 </r>
       <r>    -1.9835     0.1064     8.0069 </r>
       <r>    -1.8529     0.0000     8.0069 </r>
       <r>    -1.7224     0.0000     8.0069 </r>
       <r>    -1.5918     0.0000     8.0069 </r>
       <r>    -1.4613     0.0000     8.0069 </r>
       <r>    -1.3307     0.3129     8.0478 </r>
       <r>    -1.2002     0.0063     8.0486 </r>
       <r>    -1.0696     0.0575     8.0561 </r>
       <r>    -0.9391     0.1020     8.0694 </r>
       <r>    -0.8085     0.0000     8.0694 </r>
       <r>    -0.6780     0.4809     8.1322 </r>
       <r>    -0.5474     0.4417     8.1899 </r>
       <r>    -0.4169     0.0360     8.1946 </r>
       <r>    -0.2863     0.5832     8.2707 </r>
       <r>    -0.1558     0.6125     8.3507 </r>
       <r>    -0.0252     0.6325     8.4333 </r>
       <r>     0.1054     0.4845     8.4965 </r>
       <r>     0.2359     0.0142     8.4984 </r>
       <r>     0.3665     0.5740     8.5733 </r>
       <r>     0.4970     0.0501     8.5799 </r>
       <r>     0.6276     0.3191     8.6215 </r>
       <r>     0.7581     0.0359     8.6262 </r>
       <r>     0.8887     0.7863     8.7289 </r>
       <r>     1.0192     0.1384     8.7469 </r>
       <r>     1.1498     0.1831     8.7708 </r>
       <r>     1.2803     0.6114     8.8507 </r>
       <r>     1.4109     0.3521     8.8966 </r>
       <r>     1.5414     0.4010     8.9490 </r>
       <r>     1.6720     0.3908     9.0000 </r>
       <r>     1.8025     0.7662     9.1000 </r>
       <r>     1.9331     0.5167     9.1675 </r>
       <r>     2.0636     0.3388     9.2118 </r>
       <r>     2.1942     0.5951     9.2895 </r>
       <r>     2.3247     0.6833     9.3787 </r>
       <r>     2.4553     0.4790     9.4412 </r>
       <r>     2.5858     0.7789     9.5429 </r>
       <r>     2.7164     1.4659     9.7343 </r>
       <r>     2.8469     0.4926     9.7986 </r>
       <r>     2.9775     0.6524     9.8838 </r>
       <r>     3.1080     0.8392     9.9934 </r>
       <r>     3.2386     1.1812    10.1478 </r>
       <r>     3.3692     0.3654    10.1955 </r>
       <r>     3.4997     0.6768    10.2839 </r>
       <r>     3.6303     1.1486    10.4339 </r>
       <r>     3.7608     1.1240    10.5806 </r>
       <r>     3.8914     0.7025    10.6723 </r>
       <r>     4.0219     0.2699    10.7078 </r>
       <r>     4.1525     1.3649    10.8860 </r>
       <r>     4.2830     0.7797    10.9878 </r>
       <r>     4.4136     0.7950    11.0920 </r>
       <r>     4.5441     0.6232    11.1734 </r>
       <r>     4.6747     1.3494    11.3496 </r>
       <r>     4.8052     1.0924    11.4923 </r>
       <r>     4.9358     0.9393    11.6150 </r>
       <r>     5.0663     1.0124    11.7473 </r>
       <r>     5.1969     0.6021    11.8259 </r>
       <r>     5.3274     1.2236    11.9856 </r>
       <r>     5.4580     1.3979    12.1688 </r>
       <r>     5.5885     1.8090    12.4050 </r>
       <r>     5.7191     1.3012    12.5749 </r>
       <r>     5.8496     1.0079    12.7065 </r>
       <r>     5.9802     1.2837    12.8742 </r>
       <r>     6.1107     1.9636    13.1306 </r>
       <r>     6.2413     1.2909    13.2992 </r>
       <r>     6.3718     2.2757    13.5968 </r>
       <r>     6.5024     1.9428    13.8505 </r>
       <r>     6.6330     2.0538    14.1186 </r>
       <r>     6.7635     2.3644    14.4280 </r>
       <r>     6.8941     2.7279    14.7844 </r>
       <r>     7.0246     1.3794    14.9645 </r>
       <r>     7.1552     1.6368    15.1782 </r>
       <r>     7.2857     3.0086    15.5710 </r>
       <r>     7.4163     1.0822    15.7123 </r>
       <r>     7.5468     2.2582    16.0073 </r>
       <r>     7.6774     1.0647    16.1463 </r>
       <r>     7.8079     1.9050    16.3951 </r>
       <r>     7.9385     2.0997    16.6697 </r>
       <r>     8.0690     1.2098    16.8278 </r>
       <r>     8.1996     1.5075    17.0246 </r>
       <r>     8.3301     1.5271    17.2240 </r>
       <r>     8.4607     1.7451    17.4518 </r>
       <r>     8.5912     1.7898    17.6855 </r>
       <r>     8.7218     2.8931    18.0632 </r>
       <r>     8.8523     1.4094    18.2474 </r>
       <r>     8.9829     2.0925    18.5206 </r>
       <r>     9.1134     1.7550    18.7500 </r>
       <r>     9.2440     0.7630    18.8496 </r>
       <r>     9.3745     1.9136    19.0994 </r>
       <r>     9.5051     1.0848    19.2418 </r>
       <r>     9.6356     1.8187    19.4793 </r>
       <r>     9.7662     2.4910    19.8048 </r>
       <r>     9.8967     1.3594    19.9823 </r>
       <r>    10.0273     1.5714    20.1875 </r>
       <r>    10.1579     1.0309    20.3226 </r>
       <r>    10.2884     1.3306    20.4964 </r>
       <r>    10.4190     1.9387    20.7495 </r>
       <r>    10.5495     1.2809    20.9168 </r>
       <r>    10.6801     1.4732    21.1091 </r>
       <r>    10.8106     1.6274    21.3224 </r>
       <r>    10.9412     2.5729    21.6589 </r>
       <r>    11.0717     1.0373    21.7948 </r>
       <r>    11.2023     2.2809    22.0927 </r>
       <r>    11.3328     0.8647    22.2063 </r>
       <r>    11.4634     1.7157    22.4303 </r>
       <r>    11.5939     1.6957    22.6519 </r>
       <r>    11.7245     1.7187    22.8763 </r>
       <r>    11.8550     1.6711    23.0947 </r>
       <r>    11.9856     0.5513    23.1668 </r>
       <r>    12.1161     1.4621    23.3577 </r>
       <r>    12.2467     0.9316    23.4793 </r>
       <r>    12.3772     1.2360    23.6407 </r>
       <r>    12.5078     0.6760    23.7290 </r>
       <r>    12.6383     0.4780    23.7914 </r>
       <r>    12.7689     0.3191    23.8333 </r>
       <r>    12.8994     0.0872    23.8447 </r>
       <r>    13.0300     0.2319    23.8750 </r>
       <r>    13.1605     0.3937    23.9264 </r>
       <r>    13.2911     0.1914    23.9514 </r>
       <r>    13.4217     0.0000    23.9514 </r>
       <r>    13.5522     0.0532    23.9583 </r>
       <r>    13.6828     0.3190    24.0000 </r>
       <r>    13.8133     0.0000    24.0000 </r>
       <r>    13.9439     0.0000    24.0000 </r>
       <r>    14.0744     0.0000    24.0000 </r>
       <r>    14.2050     0.0000    24.0000 </r>
       <r>    14.3355     0.0000    24.0000 </r>
       <r>    14.4661     0.0000    24.0000 </r>
       <r>    14.5966     0.0000    24.0000 </r>
       <r>    14.7272     0.0000    24.0000 </r>
       <r>    14.8577     0.0000    24.0000 </r>
       <r>    14.9883     0.0000    24.0000 </r>
       <r>    15.1188     0.0000    24.0000 </r>
       <r>    15.2494     0.0000    24.0000 </r>
       <r>    15.3799     0.0000    24.0000 </r>
      </set>
     </set>
    </array>
   </total>
  </dos>
 </calculation>
 <structure name="finalpos" >
  <crystal>
   <varray name="basis" >
    <v>       2.42129500       0.00000000       0.00000000 </v>
    <v>      -1.21064700       2.09690200       0.00000000 </v>
    <v>       0.00000000       0.00000000      15.00000000 </v>
   </varray>
   <i name="volume">     76.15827492 </i>
   <varray name="rec_basis" >
    <v>       0.41300213       0.23844691       0.00000000 </v>
    <v>       0.00000000       0.47689401       0.00000000 </v>
    <v>       0.00000000       0.00000000       0.06666667 </v>
   </varray>
  </crystal>
  <varray name="positions" >
   <v>       0.00000000       0.00000000       0.50000000 </v>
   <v>       0.33333300       0.66666700       0.50000000 </v>
  </varray>
 </structure>
</modeling>
