<?xml version="1.0" encoding="ISO-8859-1"?>
<modeling>
 <generator>
  <i name="program" type="string">vasp </i>
  <i name="version" type="string">5.4.1  </i>
  <i name="subversion" type="string">24Jun15 (build Nov 20 2020 10:29:34) complex                          parallel </i>
  <i name="platform" type="string">IFC91_ompi </i>
  <i name="date" type="string">2021 09 09 </i>
  <i name="time" type="string">14:54:25 </i>
 </generator>
 <incar>
  <i type="string" name="PREC">a</i>
  <i type="string" name="ALGO"> Normal</i>
  <i type="int" name="ISPIN">     1</i>
  <i type="int" name="ICHARG">     2</i>
  <i type="int" name="NELM">   250</i>
  <i type="int" name="NELMDL">    -5</i>
  <i type="int" name="NELMIN">     6</i>
  <i type="int" name="IBRION">     2</i>
  <i name="EDIFF">      0.00001000</i>
  <i name="EDIFFG">     -0.01000000</i>
  <i type="int" name="NSW">   200</i>
  <i type="int" name="ISIF">     2</i>
  <i name="ENCUT">    520.00000000</i>
  <i name="POTIM">      0.30000000</i>
  <i type="logical" name="LREAL"> F  </i>
  <i type="int" name="ISMEAR">     0</i>
  <i name="SIGMA">      0.02000000</i>
  <i type="logical" name="LWAVE"> F  </i>
  <i type="logical" name="LCHARG"> F  </i>
  <i type="logical" name="LAECHG"> F  </i>
  <v type="int" name="KPOINT_BSE">    -1     0     0     0</v>
  <i type="int" name="NELM">   250</i>
 </incar>
 <kpoints>
  <generation param="Gamma">
   <v type="int" name="divisions">      22       15        1 </v>
   <v name="usershift">      0.00000000       0.00000000       0.00000000 </v>
   <v name="genvec1">      0.04545455       0.00000000       0.00000000 </v>
   <v name="genvec2">      0.00000000       0.06666667       0.00000000 </v>
   <v name="genvec3">      0.00000000       0.00000000       1.00000000 </v>
   <v name="shift">      0.00000000       0.00000000       0.00000000 </v>
  </generation>
  <varray name="kpointlist" >
   <v>       0.00000000       0.00000000       0.00000000 </v>
   <v>       0.04545455       0.00000000       0.00000000 </v>
   <v>       0.09090909       0.00000000       0.00000000 </v>
   <v>       0.13636364       0.00000000       0.00000000 </v>
   <v>       0.18181818       0.00000000       0.00000000 </v>
   <v>       0.22727273       0.00000000       0.00000000 </v>
   <v>       0.27272727       0.00000000       0.00000000 </v>
   <v>       0.31818182       0.00000000       0.00000000 </v>
   <v>       0.36363636       0.00000000       0.00000000 </v>
   <v>       0.40909091       0.00000000       0.00000000 </v>
   <v>       0.45454545       0.00000000       0.00000000 </v>
   <v>       0.50000000       0.00000000       0.00000000 </v>
   <v>       0.00000000       0.06666667       0.00000000 </v>
   <v>       0.04545455       0.06666667       0.00000000 </v>
   <v>       0.09090909       0.06666667       0.00000000 </v>
   <v>       0.13636364       0.06666667       0.00000000 </v>
   <v>       0.18181818       0.06666667       0.00000000 </v>
   <v>       0.22727273       0.06666667       0.00000000 </v>
   <v>       0.27272727       0.06666667       0.00000000 </v>
   <v>       0.31818182       0.06666667       0.00000000 </v>
   <v>       0.36363636       0.06666667       0.00000000 </v>
   <v>       0.40909091       0.06666667       0.00000000 </v>
   <v>       0.45454545       0.06666667       0.00000000 </v>
   <v>       0.50000000       0.06666667       0.00000000 </v>
   <v>      -0.45454545       0.06666667       0.00000000 </v>
   <v>      -0.40909091       0.06666667       0.00000000 </v>
   <v>      -0.36363636       0.06666667       0.00000000 </v>
   <v>      -0.31818182       0.06666667       0.00000000 </v>
   <v>      -0.27272727       0.06666667       0.00000000 </v>
   <v>      -0.22727273       0.06666667       0.00000000 </v>
   <v>      -0.18181818       0.06666667       0.00000000 </v>
   <v>      -0.13636364       0.06666667       0.00000000 </v>
   <v>      -0.09090909       0.06666667       0.00000000 </v>
   <v>      -0.04545455       0.06666667       0.00000000 </v>
   <v>       0.00000000       0.13333333       0.00000000 </v>
   <v>       0.04545455       0.13333333       0.00000000 </v>
   <v>       0.09090909       0.13333333       0.00000000 </v>
   <v>       0.13636364       0.13333333       0.00000000 </v>
   <v>       0.18181818       0.13333333       0.00000000 </v>
   <v>       0.22727273       0.13333333       0.00000000 </v>
   <v>       0.27272727       0.13333333       0.00000000 </v>
   <v>       0.31818182       0.13333333       0.00000000 </v>
   <v>       0.36363636       0.13333333       0.00000000 </v>
   <v>       0.40909091       0.13333333       0.00000000 </v>
   <v>       0.45454545       0.13333333       0.00000000 </v>
   <v>       0.50000000       0.13333333       0.00000000 </v>
   <v>      -0.45454545       0.13333333       0.00000000 </v>
   <v>      -0.40909091       0.13333333       0.00000000 </v>
   <v>      -0.36363636       0.13333333       0.00000000 </v>
   <v>      -0.31818182       0.13333333       0.00000000 </v>
   <v>      -0.27272727       0.13333333       0.00000000 </v>
   <v>      -0.22727273       0.13333333       0.00000000 </v>
   <v>      -0.18181818       0.13333333       0.00000000 </v>
   <v>      -0.13636364       0.13333333       0.00000000 </v>
   <v>      -0.09090909       0.13333333       0.00000000 </v>
   <v>      -0.04545455       0.13333333       0.00000000 </v>
   <v>       0.00000000       0.20000000       0.00000000 </v>
   <v>       0.04545455       0.20000000       0.00000000 </v>
   <v>       0.09090909       0.20000000       0.00000000 </v>
   <v>       0.13636364       0.20000000       0.00000000 </v>
   <v>       0.18181818       0.20000000       0.00000000 </v>
   <v>       0.22727273       0.20000000       0.00000000 </v>
   <v>       0.27272727       0.20000000       0.00000000 </v>
   <v>       0.31818182       0.20000000       0.00000000 </v>
   <v>       0.36363636       0.20000000       0.00000000 </v>
   <v>       0.40909091       0.20000000       0.00000000 </v>
   <v>       0.45454545       0.20000000       0.00000000 </v>
   <v>       0.50000000       0.20000000       0.00000000 </v>
   <v>      -0.45454545       0.20000000       0.00000000 </v>
   <v>      -0.40909091       0.20000000       0.00000000 </v>
   <v>      -0.36363636       0.20000000       0.00000000 </v>
   <v>      -0.31818182       0.20000000       0.00000000 </v>
   <v>      -0.27272727       0.20000000       0.00000000 </v>
   <v>      -0.22727273       0.20000000       0.00000000 </v>
   <v>      -0.18181818       0.20000000       0.00000000 </v>
   <v>      -0.13636364       0.20000000       0.00000000 </v>
   <v>      -0.09090909       0.20000000       0.00000000 </v>
   <v>      -0.04545455       0.20000000       0.00000000 </v>
   <v>       0.00000000       0.26666667       0.00000000 </v>
   <v>       0.04545455       0.26666667       0.00000000 </v>
   <v>       0.09090909       0.26666667       0.00000000 </v>
   <v>       0.13636364       0.26666667       0.00000000 </v>
   <v>       0.18181818       0.26666667       0.00000000 </v>
   <v>       0.22727273       0.26666667       0.00000000 </v>
   <v>       0.27272727       0.26666667       0.00000000 </v>
   <v>       0.31818182       0.26666667       0.00000000 </v>
   <v>       0.36363636       0.26666667       0.00000000 </v>
   <v>       0.40909091       0.26666667       0.00000000 </v>
   <v>       0.45454545       0.26666667       0.00000000 </v>
   <v>       0.50000000       0.26666667       0.00000000 </v>
   <v>      -0.45454545       0.26666667       0.00000000 </v>
   <v>      -0.40909091       0.26666667       0.00000000 </v>
   <v>      -0.36363636       0.26666667       0.00000000 </v>
   <v>      -0.31818182       0.26666667       0.00000000 </v>
   <v>      -0.27272727       0.26666667       0.00000000 </v>
   <v>      -0.22727273       0.26666667       0.00000000 </v>
   <v>      -0.18181818       0.26666667       0.00000000 </v>
   <v>      -0.13636364       0.26666667       0.00000000 </v>
   <v>      -0.09090909       0.26666667       0.00000000 </v>
   <v>      -0.04545455       0.26666667       0.00000000 </v>
   <v>       0.00000000       0.33333333       0.00000000 </v>
   <v>       0.04545455       0.33333333       0.00000000 </v>
   <v>       0.09090909       0.33333333       0.00000000 </v>
   <v>       0.13636364       0.33333333       0.00000000 </v>
   <v>       0.18181818       0.33333333       0.00000000 </v>
   <v>       0.22727273       0.33333333       0.00000000 </v>
   <v>       0.27272727       0.33333333       0.00000000 </v>
   <v>       0.31818182       0.33333333       0.00000000 </v>
   <v>       0.36363636       0.33333333       0.00000000 </v>
   <v>       0.40909091       0.33333333       0.00000000 </v>
   <v>       0.45454545       0.33333333       0.00000000 </v>
   <v>       0.50000000       0.33333333       0.00000000 </v>
   <v>      -0.45454545       0.33333333       0.00000000 </v>
   <v>      -0.40909091       0.33333333       0.00000000 </v>
   <v>      -0.36363636       0.33333333       0.00000000 </v>
   <v>      -0.31818182       0.33333333       0.00000000 </v>
   <v>      -0.27272727       0.33333333       0.00000000 </v>
   <v>      -0.22727273       0.33333333       0.00000000 </v>
   <v>      -0.18181818       0.33333333       0.00000000 </v>
   <v>      -0.13636364       0.33333333       0.00000000 </v>
   <v>      -0.09090909       0.33333333       0.00000000 </v>
   <v>      -0.04545455       0.33333333       0.00000000 </v>
   <v>       0.00000000       0.40000000       0.00000000 </v>
   <v>       0.04545455       0.40000000       0.00000000 </v>
   <v>       0.09090909       0.40000000       0.00000000 </v>
   <v>       0.13636364       0.40000000       0.00000000 </v>
   <v>       0.18181818       0.40000000       0.00000000 </v>
   <v>       0.22727273       0.40000000       0.00000000 </v>
   <v>       0.27272727       0.40000000       0.00000000 </v>
   <v>       0.31818182       0.40000000       0.00000000 </v>
   <v>       0.36363636       0.40000000       0.00000000 </v>
   <v>       0.40909091       0.40000000       0.00000000 </v>
   <v>       0.45454545       0.40000000       0.00000000 </v>
   <v>       0.50000000       0.40000000       0.00000000 </v>
   <v>      -0.45454545       0.40000000       0.00000000 </v>
   <v>      -0.40909091       0.40000000       0.00000000 </v>
   <v>      -0.36363636       0.40000000       0.00000000 </v>
   <v>      -0.31818182       0.40000000       0.00000000 </v>
   <v>      -0.27272727       0.40000000       0.00000000 </v>
   <v>      -0.22727273       0.40000000       0.00000000 </v>
   <v>      -0.18181818       0.40000000       0.00000000 </v>
   <v>      -0.13636364       0.40000000       0.00000000 </v>
   <v>      -0.09090909       0.40000000       0.00000000 </v>
   <v>      -0.04545455       0.40000000       0.00000000 </v>
   <v>       0.00000000       0.46666667       0.00000000 </v>
   <v>       0.04545455       0.46666667       0.00000000 </v>
   <v>       0.09090909       0.46666667       0.00000000 </v>
   <v>       0.13636364       0.46666667       0.00000000 </v>
   <v>       0.18181818       0.46666667       0.00000000 </v>
   <v>       0.22727273       0.46666667       0.00000000 </v>
   <v>       0.27272727       0.46666667       0.00000000 </v>
   <v>       0.31818182       0.46666667       0.00000000 </v>
   <v>       0.36363636       0.46666667       0.00000000 </v>
   <v>       0.40909091       0.46666667       0.00000000 </v>
   <v>       0.45454545       0.46666667       0.00000000 </v>
   <v>       0.50000000       0.46666667       0.00000000 </v>
   <v>      -0.45454545       0.46666667       0.00000000 </v>
   <v>      -0.40909091       0.46666667       0.00000000 </v>
   <v>      -0.36363636       0.46666667       0.00000000 </v>
   <v>      -0.31818182       0.46666667       0.00000000 </v>
   <v>      -0.27272727       0.46666667       0.00000000 </v>
   <v>      -0.22727273       0.46666667       0.00000000 </v>
   <v>      -0.18181818       0.46666667       0.00000000 </v>
   <v>      -0.13636364       0.46666667       0.00000000 </v>
   <v>      -0.09090909       0.46666667       0.00000000 </v>
   <v>      -0.04545455       0.46666667       0.00000000 </v>
  </varray>
  <varray name="weights" >
   <v>       0.00303030 </v>
   <v>       0.00606061 </v>
   <v>       0.00606061 </v>
   <v>       0.00606061 </v>
   <v>       0.00606061 </v>
   <v>       0.00606061 </v>
   <v>       0.00606061 </v>
   <v>       0.00606061 </v>
   <v>       0.00606061 </v>
   <v>       0.00606061 </v>
   <v>       0.00606061 </v>
   <v>       0.00303030 </v>
   <v>       0.00606061 </v>
   <v>       0.00606061 </v>
   <v>       0.00606061 </v>
   <v>       0.00606061 </v>
   <v>       0.00606061 </v>
   <v>       0.00606061 </v>
   <v>       0.00606061 </v>
   <v>       0.00606061 </v>
   <v>       0.00606061 </v>
   <v>       0.00606061 </v>
   <v>       0.00606061 </v>
   <v>       0.00606061 </v>
   <v>       0.00606061 </v>
   <v>       0.00606061 </v>
   <v>       0.00606061 </v>
   <v>       0.00606061 </v>
   <v>       0.00606061 </v>
   <v>       0.00606061 </v>
   <v>       0.00606061 </v>
   <v>       0.00606061 </v>
   <v>       0.00606061 </v>
   <v>       0.00606061 </v>
   <v>       0.00606061 </v>
   <v>       0.00606061 </v>
   <v>       0.00606061 </v>
   <v>       0.00606061 </v>
   <v>       0.00606061 </v>
   <v>       0.00606061 </v>
   <v>       0.00606061 </v>
   <v>       0.00606061 </v>
   <v>       0.00606061 </v>
   <v>       0.00606061 </v>
   <v>       0.00606061 </v>
   <v>       0.00606061 </v>
   <v>       0.00606061 </v>
   <v>       0.00606061 </v>
   <v>       0.00606061 </v>
   <v>       0.00606061 </v>
   <v>       0.00606061 </v>
   <v>       0.00606061 </v>
   <v>       0.00606061 </v>
   <v>       0.00606061 </v>
   <v>       0.00606061 </v>
   <v>       0.00606061 </v>
   <v>       0.00606061 </v>
   <v>       0.00606061 </v>
   <v>       0.00606061 </v>
   <v>       0.00606061 </v>
   <v>       0.00606061 </v>
   <v>       0.00606061 </v>
   <v>       0.00606061 </v>
   <v>       0.00606061 </v>
   <v>       0.00606061 </v>
   <v>       0.00606061 </v>
   <v>       0.00606061 </v>
   <v>       0.00606061 </v>
   <v>       0.00606061 </v>
   <v>       0.00606061 </v>
   <v>       0.00606061 </v>
   <v>       0.00606061 </v>
   <v>       0.00606061 </v>
   <v>       0.00606061 </v>
   <v>       0.00606061 </v>
   <v>       0.00606061 </v>
   <v>       0.00606061 </v>
   <v>       0.00606061 </v>
   <v>       0.00606061 </v>
   <v>       0.00606061 </v>
   <v>       0.00606061 </v>
   <v>       0.00606061 </v>
   <v>       0.00606061 </v>
   <v>       0.00606061 </v>
   <v>       0.00606061 </v>
   <v>       0.00606061 </v>
   <v>       0.00606061 </v>
   <v>       0.00606061 </v>
   <v>       0.00606061 </v>
   <v>       0.00606061 </v>
   <v>       0.00606061 </v>
   <v>       0.00606061 </v>
   <v>       0.00606061 </v>
   <v>       0.00606061 </v>
   <v>       0.00606061 </v>
   <v>       0.00606061 </v>
   <v>       0.00606061 </v>
   <v>       0.00606061 </v>
   <v>       0.00606061 </v>
   <v>       0.00606061 </v>
   <v>       0.00606061 </v>
   <v>       0.00606061 </v>
   <v>       0.00606061 </v>
   <v>       0.00606061 </v>
   <v>       0.00606061 </v>
   <v>       0.00606061 </v>
   <v>       0.00606061 </v>
   <v>       0.00606061 </v>
   <v>       0.00606061 </v>
   <v>       0.00606061 </v>
   <v>       0.00606061 </v>
   <v>       0.00606061 </v>
   <v>       0.00606061 </v>
   <v>       0.00606061 </v>
   <v>       0.00606061 </v>
   <v>       0.00606061 </v>
   <v>       0.00606061 </v>
   <v>       0.00606061 </v>
   <v>       0.00606061 </v>
   <v>       0.00606061 </v>
   <v>       0.00606061 </v>
   <v>       0.00606061 </v>
   <v>       0.00606061 </v>
   <v>       0.00606061 </v>
   <v>       0.00606061 </v>
   <v>       0.00606061 </v>
   <v>       0.00606061 </v>
   <v>       0.00606061 </v>
   <v>       0.00606061 </v>
   <v>       0.00606061 </v>
   <v>       0.00606061 </v>
   <v>       0.00606061 </v>
   <v>       0.00606061 </v>
   <v>       0.00606061 </v>
   <v>       0.00606061 </v>
   <v>       0.00606061 </v>
   <v>       0.00606061 </v>
   <v>       0.00606061 </v>
   <v>       0.00606061 </v>
   <v>       0.00606061 </v>
   <v>       0.00606061 </v>
   <v>       0.00606061 </v>
   <v>       0.00606061 </v>
   <v>       0.00606061 </v>
   <v>       0.00606061 </v>
   <v>       0.00606061 </v>
   <v>       0.00606061 </v>
   <v>       0.00606061 </v>
   <v>       0.00606061 </v>
   <v>       0.00606061 </v>
   <v>       0.00606061 </v>
   <v>       0.00606061 </v>
   <v>       0.00606061 </v>
   <v>       0.00606061 </v>
   <v>       0.00606061 </v>
   <v>       0.00606061 </v>
   <v>       0.00606061 </v>
   <v>       0.00606061 </v>
   <v>       0.00606061 </v>
   <v>       0.00606061 </v>
   <v>       0.00606061 </v>
   <v>       0.00606061 </v>
   <v>       0.00606061 </v>
   <v>       0.00606061 </v>
   <v>       0.00606061 </v>
   <v>       0.00606061 </v>
  </varray>
 </kpoints>
 <parameters>
  <separator name="general" >
   <i type="string" name="SYSTEM">unknown system</i>
   <i type="logical" name="LCOMPAT"> F  </i>
  </separator>
  <separator name="electronic" >
   <i type="string" name="PREC">a</i>
   <i name="ENMAX">    520.00000000</i>
   <i name="ENAUG">    342.92400000</i>
   <i name="EDIFF">      0.00001000</i>
   <i type="int" name="IALGO">    38</i>
   <i type="int" name="IWAVPR">    11</i>
   <i type="int" name="NBANDS">    16</i>
   <i name="NELECT">     20.00000000</i>
   <i type="int" name="TURBO">     0</i>
   <i type="int" name="IRESTART">     0</i>
   <i type="int" name="NREBOOT">     0</i>
   <i type="int" name="NMIN">     0</i>
   <i name="EREF">      0.00000000</i>
   <separator name="electronic smearing" >
    <i type="int" name="ISMEAR">     0</i>
    <i name="SIGMA">      0.02000000</i>
    <i name="KSPACING">      0.50000000</i>
    <i type="logical" name="KGAMMA"> T  </i>
   </separator>
   <separator name="electronic projectors" >
    <i type="logical" name="LREAL"> F  </i>
    <v name="ROPT">      0.00000000</v>
    <i type="int" name="LMAXPAW">  -100</i>
    <i type="int" name="LMAXMIX">     2</i>
    <i type="logical" name="NLSPLINE"> F  </i>
   </separator>
   <separator name="electronic startup" >
    <i type="int" name="ISTART">     0</i>
    <i type="int" name="ICHARG">     2</i>
    <i type="int" name="INIWAV">     1</i>
   </separator>
   <separator name="electronic spin" >
    <i type="int" name="ISPIN">     1</i>
    <i type="logical" name="LNONCOLLINEAR"> F  </i>
    <v name="MAGMOM">      1.00000000      1.00000000      1.00000000      1.00000000</v>
    <i name="NUPDOWN">     -1.00000000</i>
    <i type="logical" name="LSORBIT"> F  </i>
    <v name="SAXIS">      0.00000000      0.00000000      1.00000000</v>
    <i type="logical" name="LSPIRAL"> F  </i>
    <v name="QSPIRAL">      0.00000000      0.00000000      0.00000000</v>
    <i type="logical" name="LZEROZ"> F  </i>
   </separator>
   <separator name="electronic exchange-correlation" >
    <i type="logical" name="LASPH"> F  </i>
    <i type="logical" name="LMETAGGA"> F  </i>
   </separator>
   <separator name="electronic convergence" >
    <i type="int" name="NELM">   250</i>
    <i type="int" name="NELMDL">    -5</i>
    <i type="int" name="NELMIN">     6</i>
    <i name="ENINI">    520.00000000</i>
    <separator name="electronic convergence detail" >
     <i type="logical" name="LDIAG"> T  </i>
     <i type="logical" name="LSUBROT"> F  </i>
     <i name="WEIMIN">      0.00100000</i>
     <i name="EBREAK">      0.00000016</i>
     <i name="DEPER">      0.30000000</i>
     <i type="int" name="NRMM">     4</i>
     <i name="TIME">      0.40000000</i>
    </separator>
   </separator>
   <separator name="electronic mixer" >
    <i name="AMIX">      0.40000000</i>
    <i name="BMIX">      1.00000000</i>
    <i name="AMIN">      0.10000000</i>
    <i name="AMIX_MAG">      1.60000000</i>
    <i name="BMIX_MAG">      1.00000000</i>
    <separator name="electronic mixer details" >
     <i type="int" name="IMIX">     4</i>
     <i type="logical" name="MIXFIRST"> F  </i>
     <i type="int" name="MAXMIX">   -45</i>
     <i name="WC">    100.00000000</i>
     <i type="int" name="INIMIX">     1</i>
     <i type="int" name="MIXPRE">     1</i>
     <i type="int" name="MREMOVE">     5</i>
    </separator>
   </separator>
   <separator name="electronic dipolcorrection" >
    <i type="logical" name="LDIPOL"> F  </i>
    <i type="logical" name="LMONO"> F  </i>
    <i type="int" name="IDIPOL">     0</i>
    <i name="EPSILON">      1.00000000</i>
    <v name="DIPOL">   -100.00000000   -100.00000000   -100.00000000</v>
    <i name="EFIELD">      0.00000000</i>
   </separator>
  </separator>
  <separator name="grids" >
   <i type="int" name="NGX">    28</i>
   <i type="int" name="NGY">    36</i>
   <i type="int" name="NGZ">   150</i>
   <i type="int" name="NGXF">    56</i>
   <i type="int" name="NGYF">    72</i>
   <i type="int" name="NGZF">   300</i>
   <i type="logical" name="ADDGRID"> F  </i>
  </separator>
  <separator name="ionic" >
   <i type="int" name="NSW">   200</i>
   <i type="int" name="IBRION">     2</i>
   <i type="int" name="ISIF">     2</i>
   <i name="PSTRESS">      0.00000000</i>
   <i name="EDIFFG">     -0.01000000</i>
   <i type="int" name="NFREE">     1</i>
   <i name="POTIM">      0.30000000</i>
   <i name="SMASS">     -3.00000000</i>
   <i name="SCALEE">      1.00000000</i>
  </separator>
  <separator name="ionic md" >
   <i name="TEBEG">      0.00010000</i>
   <i name="TEEND">      0.00010000</i>
   <i type="int" name="NBLOCK">     1</i>
   <i type="int" name="KBLOCK">   200</i>
   <i type="int" name="NPACO">   256</i>
   <i name="APACO">     16.00000000</i>
  </separator>
  <separator name="symmetry" >
   <i type="int" name="ISYM">     2</i>
   <i name="SYMPREC">      0.00001000</i>
  </separator>
  <separator name="dos" >
   <i type="logical" name="LORBIT"> F  </i>
   <v name="RWIGS">     -1.00000000</v>
   <i type="int" name="NEDOS">   301</i>
   <i name="EMIN">     10.00000000</i>
   <i name="EMAX">    -10.00000000</i>
   <i name="EFERMI">      0.00000000</i>
  </separator>
  <separator name="writing" >
   <i type="int" name="NWRITE">     2</i>
   <i type="logical" name="LWAVE"> F  </i>
   <i type="logical" name="LCHARG"> F  </i>
   <i type="logical" name="LPARD"> F  </i>
   <i type="logical" name="LVTOT"> F  </i>
   <i type="logical" name="LVHAR"> F  </i>
   <i type="logical" name="LELF"> F  </i>
   <i type="logical" name="LOPTICS"> F  </i>
   <v name="STM">      0.00000000      0.00000000      0.00000000      0.00000000      0.00000000      0.00000000      0.00000000</v>
  </separator>
  <separator name="performance" >
   <i type="int" name="NPAR">     4</i>
   <i type="int" name="NSIM">     4</i>
   <i type="int" name="NBLK">    -1</i>
   <i type="logical" name="LPLANE"> T  </i>
   <i type="logical" name="LSCALAPACK"> T  </i>
   <i type="logical" name="LSCAAWARE"> F  </i>
   <i type="logical" name="LSCALU"> F  </i>
   <i type="logical" name="LASYNC"> F  </i>
   <i type="logical" name="LORBITALREAL"> F  </i>
  </separator>
  <separator name="miscellaneous" >
   <i type="int" name="IDIOT">     3</i>
   <i type="logical" name="LMUSIC"> F  </i>
   <v name="POMASS">     30.97400000</v>
   <v name="DARWINR">      0.00000000</v>
   <v name="DARWINV">      1.00000000</v>
   <i type="logical" name="LCORR"> T  </i>
  </separator>
  <i type="logical" name="GGA_COMPAT"> T  </i>
  <i type="logical" name="LBERRY"> F  </i>
  <i type="int" name="ICORELEVEL">     0</i>
  <i type="logical" name="LDAU"> F  </i>
  <i type="int" name="I_CONSTRAINED_M">     0</i>
  <separator name="electronic exchange-correlation" >
   <i type="string" name="GGA">--</i>
   <i type="int" name="VOSKOWN">     0</i>
   <i type="logical" name="LHFCALC"> F  </i>
   <i type="string" name="PRECFOCK"></i>
   <i type="logical" name="LSYMGRAD"> F  </i>
   <i type="logical" name="LHFONE"> F  </i>
   <i type="logical" name="LRHFCALC"> F  </i>
   <i type="logical" name="LTHOMAS"> F  </i>
   <i type="logical" name="LMODELHF"> F  </i>
   <i name="ENCUT4O">     -1.00000000</i>
   <i type="int" name="EXXOEP">     0</i>
   <i type="int" name="FOURORBIT">     0</i>
   <i name="AEXX">      0.00000000</i>
   <i name="HFALPHA">      0.00000000</i>
   <i name="MCALPHA">      0.00000000</i>
   <i name="ALDAX">      1.00000000</i>
   <i name="AGGAX">      1.00000000</i>
   <i name="ALDAC">      1.00000000</i>
   <i name="AGGAC">      1.00000000</i>
   <i type="int" name="NKREDX">     1</i>
   <i type="int" name="NKREDY">     1</i>
   <i type="int" name="NKREDZ">     1</i>
   <i type="logical" name="SHIFTRED"> F  </i>
   <i type="logical" name="ODDONLY"> F  </i>
   <i type="logical" name="EVENONLY"> F  </i>
   <i type="int" name="LMAXFOCK">     0</i>
   <i type="int" name="NMAXFOCKAE">     0</i>
   <i type="logical" name="LFOCKAEDFT"> F  </i>
   <i name="HFSCREEN">      0.00000000</i>
   <i name="HFSCREENC">      0.00000000</i>
   <i type="int" name="NBANDSGWLOW">     0</i>
  </separator>
  <separator name="vdW DFT" >
   <i type="logical" name="LUSE_VDW"> F  </i>
   <i name="Zab_VDW">     -0.84910000</i>
   <i name="PARAM1">      0.12340000</i>
   <i name="PARAM2">      1.00000000</i>
   <i name="PARAM3">      0.00000000</i>
  </separator>
  <separator name="model GW" >
   <i type="int" name="MODEL_GW">     0</i>
   <i name="MODEL_EPS0">     46.01653372</i>
   <i name="MODEL_ALPHA">      1.00000000</i>
  </separator>
  <separator name="linear response parameters" >
   <i type="logical" name="LEPSILON"> F  </i>
   <i type="logical" name="LRPA"> F  </i>
   <i type="logical" name="LNABLA"> F  </i>
   <i type="logical" name="LVEL"> F  </i>
   <i type="int" name="KINTER">     0</i>
   <i name="CSHIFT">      0.10000000</i>
   <i name="OMEGAMAX">     -1.00000000</i>
   <i name="DEG_THRESHOLD">      0.00200000</i>
  </separator>
  <separator name="orbital magnetization" >
   <i type="logical" name="NUCIND"> F  </i>
   <v name="MAGPOS">      0.00000000      0.00000000      0.00000000</v>
   <i type="logical" name="LNICSALL"> T  </i>
   <i type="logical" name="ORBITALMAG"> F  </i>
   <i type="logical" name="LMAGBLOCH"> F  </i>
   <i type="logical" name="LCHIMAG"> F  </i>
   <i type="logical" name="LGAUGE"> T  </i>
   <i type="int" name="MAGATOM">     0</i>
   <v name="MAGDIPOL">      0.00000000      0.00000000      0.00000000</v>
   <v name="AVECCONST">      0.00000000      0.00000000      0.00000000</v>
  </separator>
  <separator name="response functions" >
   <i type="logical" name="LADDER"> F  </i>
   <i type="logical" name="LFXC"> F  </i>
   <i type="logical" name="LHARTREE"> T  </i>
   <i type="int" name="IBSE">     0</i>
   <v type="int" name="KPOINT">    -1     0     0     0</v>
   <i type="logical" name="LTCTE"> F  </i>
   <i type="logical" name="LTETE"> F  </i>
   <i type="logical" name="LTRIPLET"> F  </i>
   <i type="logical" name="LFXCEPS"> F  </i>
   <i type="logical" name="LFXHEG"> F  </i>
   <i type="int" name="NATURALO">     0</i>
   <i type="logical" name="L2ORDER"> F  </i>
   <i type="logical" name="LUSEW"> F  </i>
   <i name="ENCUTGW">     -2.00000000</i>
   <i name="ENCUTGWSOFT">     -2.00000000</i>
   <i name="ENCUTLF">     -1.00000000</i>
   <i type="int" name="LMAXMP2">    -1</i>
   <i name="SCISSOR">      0.00000000</i>
   <i type="int" name="NOMEGA">     0</i>
   <i type="int" name="NOMEGAR">     0</i>
   <i type="int" name="NBANDSGW">    -1</i>
   <i type="int" name="NBANDSO">    -1</i>
   <i type="int" name="NBANDSV">    -1</i>
   <i type="int" name="NELM">   250</i>
   <i type="int" name="NELMHF">     1</i>
   <i type="int" name="DIM">     3</i>
   <i type="int" name="ANTIRES">     0</i>
   <i name="OMEGAMAX">    -30.00000000</i>
   <i name="OMEGAMIN">    -30.00000000</i>
   <i name="OMEGATL">   -200.00000000</i>
   <i type="int" name="OMEGAGRID">     0</i>
   <i name="CSHIFT">     -0.10000000</i>
   <i type="logical" name="SELFENERGY"> F  </i>
   <i type="logical" name="LSPECTRAL"> F  </i>
   <i type="logical" name="LSPECTRALGW"> F  </i>
   <i type="logical" name="LSINGLES"> F  </i>
   <i type="logical" name="LFERMIGW"> F  </i>
   <i type="logical" name="ODDONLYGW"> F  </i>
   <i type="logical" name="EVENONLYGW"> F  </i>
   <i type="int" name="NKREDLFX">     1</i>
   <i type="int" name="NKREDLFY">     1</i>
   <i type="int" name="NKREDLFZ">     1</i>
   <i type="int" name="MAXMEM">  1800</i>
   <i type="int" name="TELESCOPE">     0</i>
   <i type="int" name="TAUPAR">     1</i>
   <i type="int" name="OMEGAPAR">    -1</i>
   <i name="LAMBDA">      1.00000000</i>
  </separator>
  <separator name="External order field" >
   <i name="OFIELD_KAPPA">      0.00000000</i>
   <v name="OFIELD_K">      0.00000000      0.00000000      0.00000000</v>
   <i name="OFIELD_Q6_NEAR">      0.00000000</i>
   <i name="OFIELD_Q6_FAR">      0.00000000</i>
   <i name="OFIELD_A">      0.00000000</i>
  </separator>
 </parameters>
 <atominfo>
  <atoms>       4 </atoms>
  <types>       1 </types>
  <array name="atoms" >
   <dimension dim="1">ion</dimension>
   <field type="string">element</field>
   <field type="int">atomtype</field>
   <set>
    <rc><c>P </c><c>   1</c></rc>
    <rc><c>P </c><c>   1</c></rc>
    <rc><c>P </c><c>   1</c></rc>
    <rc><c>P </c><c>   1</c></rc>
   </set>
  </array>
  <array name="atomtypes" >
   <dimension dim="1">type</dimension>
   <field type="int">atomspertype</field>
   <field type="string">element</field>
   <field>mass</field>
   <field>valence</field>
   <field type="string">pseudopotential</field>
   <set>
    <rc><c>   4</c><c>P </c><c>     30.97400000</c><c>      5.00000000</c><c>  PAW_PBE P 06Sep2000                   </c></rc>
   </set>
  </array>
 </atominfo>
 <structure name="initialpos" >
  <crystal>
   <varray name="basis" >
    <v>       3.29720400       0.00000000       0.00000000 </v>
    <v>       0.00000000       4.64641000      -0.00005300 </v>
    <v>       0.00000000       0.00000000      20.02439000 </v>
   </varray>
   <i name="volume">    306.77689150 </i>
   <varray name="rec_basis" >
    <v>       0.30328727       0.00000000       0.00000000 </v>
    <v>       0.00000000       0.21521992       0.00000000 </v>
    <v>       0.00000000       0.00000057       0.04993910 </v>
   </varray>
  </crystal>
  <varray name="positions" >
   <v>       0.50000000       0.91077300       0.55252100 </v>
   <v>       0.50000000       0.08922700       0.44747900 </v>
   <v>       0.00000000       0.41076900       0.44747900 </v>
   <v>       0.00000000       0.58923100       0.55252100 </v>
  </varray>
 </structure>
 <calculation>
  <scstep>
   <time name="dav">    1.57    1.58</time>
   <time name="total">    1.60    1.61</time>
   <energy>
    <i name="alphaZ">      5.22908043 </i>
    <i name="ewald">   1851.52594280 </i>
    <i name="hartreedc">  -2445.33655468 </i>
    <i name="XCdc">     12.98681167 </i>
    <i name="pawpsdc">    559.04011960 </i>
    <i name="pawaedc">   -526.39432044 </i>
    <i name="eentropy">     -0.00029238 </i>
    <i name="bandstr">    -27.55340485 </i>
    <i name="atom">    704.16778566 </i>
    <i name="e_fr_energy">    133.66516781 </i>
    <i name="e_wo_entrp">    133.66546020 </i>
    <i name="e_0_energy">    133.66531401 </i>
   </energy>
  </scstep>
  <scstep>
   <time name="dav">    2.07    2.07</time>
   <time name="total">    2.07    2.07</time>
   <energy>
    <i name="e_fr_energy">     -5.91307176 </i>
    <i name="e_wo_entrp">     -5.91300338 </i>
    <i name="e_0_energy">     -5.91303757 </i>
   </energy>
  </scstep>
  <scstep>
   <time name="dav">    1.95    1.95</time>
   <time name="total">    1.95    1.95</time>
   <energy>
    <i name="e_fr_energy">    -21.33357997 </i>
    <i name="e_wo_entrp">    -21.33357997 </i>
    <i name="e_0_energy">    -21.33357997 </i>
   </energy>
  </scstep>
  <scstep>
   <time name="dav">    1.96    1.96</time>
   <time name="total">    1.96    1.96</time>
   <energy>
    <i name="e_fr_energy">    -21.65577798 </i>
    <i name="e_wo_entrp">    -21.65577798 </i>
    <i name="e_0_energy">    -21.65577798 </i>
   </energy>
  </scstep>
  <scstep>
   <time name="dav">    2.06    2.06</time>
   <time name="total">    2.16    2.16</time>
   <energy>
    <i name="e_fr_energy">    -21.66601158 </i>
    <i name="e_wo_entrp">    -21.66601158 </i>
    <i name="e_0_energy">    -21.66601158 </i>
   </energy>
  </scstep>
  <scstep>
   <time name="dav">    1.89    1.89</time>
   <time name="total">    2.01    2.02</time>
   <energy>
    <i name="e_fr_energy">    -21.52411910 </i>
    <i name="e_wo_entrp">    -21.52411910 </i>
    <i name="e_0_energy">    -21.52411910 </i>
   </energy>
  </scstep>
  <scstep>
   <time name="dav">    1.82    1.82</time>
   <time name="total">    1.94    1.94</time>
   <energy>
    <i name="e_fr_energy">    -21.45693156 </i>
    <i name="e_wo_entrp">    -21.45693156 </i>
    <i name="e_0_energy">    -21.45693156 </i>
   </energy>
  </scstep>
  <scstep>
   <time name="dav">    1.92    1.92</time>
   <time name="total">    2.03    2.03</time>
   <energy>
    <i name="e_fr_energy">    -21.45632546 </i>
    <i name="e_wo_entrp">    -21.45632546 </i>
    <i name="e_0_energy">    -21.45632546 </i>
   </energy>
  </scstep>
  <scstep>
   <time name="dav">    2.22    2.22</time>
   <time name="total">    2.34    2.34</time>
   <energy>
    <i name="e_fr_energy">    -21.45618525 </i>
    <i name="e_wo_entrp">    -21.45618525 </i>
    <i name="e_0_energy">    -21.45618525 </i>
   </energy>
  </scstep>
  <scstep>
   <time name="dav">    1.91    1.91</time>
   <time name="total">    2.02    2.02</time>
   <energy>
    <i name="e_fr_energy">    -21.45601264 </i>
    <i name="e_wo_entrp">    -21.45601264 </i>
    <i name="e_0_energy">    -21.45601264 </i>
   </energy>
  </scstep>
  <scstep>
   <time name="dav">    1.93    1.93</time>
   <time name="total">    2.04    2.05</time>
   <energy>
    <i name="e_fr_energy">    -21.45592173 </i>
    <i name="e_wo_entrp">    -21.45592173 </i>
    <i name="e_0_energy">    -21.45592173 </i>
   </energy>
  </scstep>
  <scstep>
   <time name="dav">    1.71    1.71</time>
   <time name="total">    1.82    1.82</time>
   <energy>
    <i name="e_fr_energy">    -21.45629489 </i>
    <i name="e_wo_entrp">    -21.45629489 </i>
    <i name="e_0_energy">    -21.45629489 </i>
   </energy>
  </scstep>
  <scstep>
   <time name="dav">    1.71    1.71</time>
   <time name="total">    1.82    1.82</time>
   <energy>
    <i name="e_fr_energy">    -21.45639512 </i>
    <i name="e_wo_entrp">    -21.45639512 </i>
    <i name="e_0_energy">    -21.45639512 </i>
   </energy>
  </scstep>
  <scstep>
   <time name="dav">    1.57    1.57</time>
   <time name="total">    1.69    1.69</time>
   <energy>
    <i name="e_fr_energy">    -21.45653404 </i>
    <i name="e_wo_entrp">    -21.45653404 </i>
    <i name="e_0_energy">    -21.45653404 </i>
   </energy>
  </scstep>
  <scstep>
   <time name="dav">    1.62    1.62</time>
   <time name="total">    1.74    1.74</time>
   <energy>
    <i name="e_fr_energy">    -21.45656640 </i>
    <i name="e_wo_entrp">    -21.45656640 </i>
    <i name="e_0_energy">    -21.45656640 </i>
   </energy>
  </scstep>
  <scstep>
   <time name="dav">    1.52    1.52</time>
   <time name="total">    1.63    1.63</time>
   <energy>
    <i name="e_fr_energy">    -21.45659884 </i>
    <i name="e_wo_entrp">    -21.45659884 </i>
    <i name="e_0_energy">    -21.45659884 </i>
   </energy>
  </scstep>
  <scstep>
   <time name="dav">    1.56    1.56</time>
   <time name="total">    1.58    1.58</time>
   <energy>
    <i name="alphaZ">      5.22908043 </i>
    <i name="ewald">   1851.52594280 </i>
    <i name="hartreedc">  -2460.54185466 </i>
    <i name="XCdc">     14.04723440 </i>
    <i name="pawpsdc">   2081.83333684 </i>
    <i name="pawaedc">  -2049.51898536 </i>
    <i name="eentropy">     -0.00000000 </i>
    <i name="bandstr">   -168.19914097 </i>
    <i name="atom">    704.16778566 </i>
    <i name="e_fr_energy">    -21.45660086 </i>
    <i name="e_wo_entrp">    -21.45660086 </i>
    <i name="e_0_energy">    -21.45660086 </i>
   </energy>
  </scstep>
  <structure>
   <crystal>
    <varray name="basis" >
     <v>       3.29720400       0.00000000       0.00000000 </v>
     <v>       0.00000000       4.64641000      -0.00005300 </v>
     <v>       0.00000000       0.00000000      20.02439000 </v>
    </varray>
    <i name="volume">    306.77689150 </i>
    <varray name="rec_basis" >
     <v>       0.30328727       0.00000000       0.00000000 </v>
     <v>       0.00000000       0.21521992       0.00000000 </v>
     <v>       0.00000000       0.00000057       0.04993910 </v>
    </varray>
   </crystal>
   <varray name="positions" >
    <v>       0.50000000       0.91077300       0.55252100 </v>
    <v>       0.50000000       0.08922700       0.44747900 </v>
    <v>       0.00000000       0.41076900       0.44747900 </v>
    <v>       0.00000000       0.58923100       0.55252100 </v>
   </varray>
  </structure>
  <varray name="forces" >
   <v>      -0.00000011      -0.06655360      -0.01581327 </v>
   <v>       0.00000011       0.06655360       0.01581327 </v>
   <v>       0.00000001      -0.06658439       0.01581661 </v>
   <v>      -0.00000001       0.06658439      -0.01581661 </v>
  </varray>
  <varray name="stress" >
   <v>      -0.61785772      -0.00000543       0.00000005 </v>
   <v>      -0.00000540      -1.68386354       0.00035176 </v>
   <v>       0.00000008       0.00035174      -0.41180883 </v>
  </varray>
  <energy>
   <i name="e_fr_energy">    -21.45660086 </i>
   <i name="e_wo_entrp">    -21.45660086 </i>
   <i name="e_0_energy">     -0.00000000 </i>
  </energy>
  <time name="totalsc">   33.21   33.27</time>
 </calculation>
 <calculation>
  <scstep>
   <time name="dav">    1.67    1.68</time>
   <time name="total">    1.79    1.79</time>
   <energy>
    <i name="alphaZ">      5.22908043 </i>
    <i name="ewald">   1852.23641208 </i>
    <i name="hartreedc">  -2461.14588144 </i>
    <i name="XCdc">     14.05904800 </i>
    <i name="pawpsdc">   2081.49106706 </i>
    <i name="pawaedc">  -2049.17675168 </i>
    <i name="eentropy">     -0.00000000 </i>
    <i name="bandstr">   -168.31770667 </i>
    <i name="atom">    704.16778566 </i>
    <i name="e_fr_energy">    -21.45694656 </i>
    <i name="e_wo_entrp">    -21.45694656 </i>
    <i name="e_0_energy">    -21.45694656 </i>
   </energy>
  </scstep>
  <scstep>
   <time name="dav">    2.02    2.02</time>
   <time name="total">    2.13    2.14</time>
   <energy>
    <i name="e_fr_energy">    -21.45699972 </i>
    <i name="e_wo_entrp">    -21.45699972 </i>
    <i name="e_0_energy">    -21.45699972 </i>
   </energy>
  </scstep>
  <scstep>
   <time name="dav">    1.58    1.58</time>
   <time name="total">    1.69    1.69</time>
   <energy>
    <i name="e_fr_energy">    -21.45700096 </i>
    <i name="e_wo_entrp">    -21.45700096 </i>
    <i name="e_0_energy">    -21.45700096 </i>
   </energy>
  </scstep>
  <scstep>
   <time name="dav">    1.41    1.41</time>
   <time name="total">    1.53    1.53</time>
   <energy>
    <i name="e_fr_energy">    -21.45700441 </i>
    <i name="e_wo_entrp">    -21.45700441 </i>
    <i name="e_0_energy">    -21.45700441 </i>
   </energy>
  </scstep>
  <scstep>
   <time name="dav">    1.26    1.27</time>
   <time name="total">    1.38    1.39</time>
   <energy>
    <i name="e_fr_energy">    -21.45700455 </i>
    <i name="e_wo_entrp">    -21.45700455 </i>
    <i name="e_0_energy">    -21.45700455 </i>
   </energy>
  </scstep>
  <scstep>
   <time name="dav">    1.25    1.25</time>
   <time name="total">    1.27    1.27</time>
   <energy>
    <i name="alphaZ">      5.22908043 </i>
    <i name="ewald">   1852.23641208 </i>
    <i name="hartreedc">  -2461.15435442 </i>
    <i name="XCdc">     14.06033521 </i>
    <i name="pawpsdc">   2088.86260122 </i>
    <i name="pawaedc">  -2056.55105661 </i>
    <i name="eentropy">     -0.00000000 </i>
    <i name="bandstr">   -168.30780876 </i>
    <i name="atom">    704.16778566 </i>
    <i name="e_fr_energy">    -21.45700519 </i>
    <i name="e_wo_entrp">    -21.45700519 </i>
    <i name="e_0_energy">    -21.45700519 </i>
   </energy>
  </scstep>
  <structure>
   <crystal>
    <varray name="basis" >
     <v>       3.29720400       0.00000000       0.00000000 </v>
     <v>       0.00000000       4.64641000      -0.00005300 </v>
     <v>       0.00000000       0.00000000      20.02439000 </v>
    </varray>
    <i name="volume">    306.77689150 </i>
    <varray name="rec_basis" >
     <v>       0.30328727       0.00000000       0.00000000 </v>
     <v>       0.00000000       0.21521992       0.00000000 </v>
     <v>       0.00000000       0.00000057       0.04993910 </v>
    </varray>
   </crystal>
   <varray name="positions" >
    <v>       0.50000000       0.91035839       0.55249814 </v>
    <v>       0.50000000       0.08964161       0.44750186 </v>
    <v>       0.00000000       0.41035420       0.44750186 </v>
    <v>      -0.00000000       0.58964580       0.55249814 </v>
   </varray>
  </structure>
  <varray name="forces" >
   <v>       0.00000001      -0.02580732      -0.01502245 </v>
   <v>      -0.00000001       0.02580732       0.01502245 </v>
   <v>       0.00000003      -0.02583279       0.01502419 </v>
   <v>      -0.00000003       0.02583279      -0.01502419 </v>
  </varray>
  <varray name="stress" >
   <v>      -0.43148372      -0.00000068       0.00000028 </v>
   <v>      -0.00000074      -1.08473346       0.00029150 </v>
   <v>       0.00000017       0.00029145      -0.41128031 </v>
  </varray>
  <energy>
   <i name="e_fr_energy">    -21.45700519 </i>
   <i name="e_wo_entrp">    -21.45700519 </i>
   <i name="e_0_energy">     -0.00000000 </i>
  </energy>
  <time name="totalsc">   10.61   10.63</time>
 </calculation>
 <calculation>
  <scstep>
   <time name="dav">    1.65    1.65</time>
   <time name="total">    1.77    1.77</time>
   <energy>
    <i name="alphaZ">      5.22908043 </i>
    <i name="ewald">   1852.74710511 </i>
    <i name="hartreedc">  -2461.57825688 </i>
    <i name="XCdc">     14.06880704 </i>
    <i name="pawpsdc">   2088.97673843 </i>
    <i name="pawaedc">  -2056.66518713 </i>
    <i name="eentropy">     -0.00000000 </i>
    <i name="bandstr">   -168.40313446 </i>
    <i name="atom">    704.16778566 </i>
    <i name="e_fr_energy">    -21.45706180 </i>
    <i name="e_wo_entrp">    -21.45706180 </i>
    <i name="e_0_energy">    -21.45706180 </i>
   </energy>
  </scstep>
  <scstep>
   <time name="dav">    2.02    2.02</time>
   <time name="total">    2.14    2.14</time>
   <energy>
    <i name="e_fr_energy">    -21.45708970 </i>
    <i name="e_wo_entrp">    -21.45708970 </i>
    <i name="e_0_energy">    -21.45708970 </i>
   </energy>
  </scstep>
  <scstep>
   <time name="dav">    1.39    1.39</time>
   <time name="total">    1.50    1.51</time>
   <energy>
    <i name="e_fr_energy">    -21.45708999 </i>
    <i name="e_wo_entrp">    -21.45708999 </i>
    <i name="e_0_energy">    -21.45708999 </i>
   </energy>
  </scstep>
  <scstep>
   <time name="dav">    1.25    1.25</time>
   <time name="total">    1.36    1.37</time>
   <energy>
    <i name="e_fr_energy">    -21.45709124 </i>
    <i name="e_wo_entrp">    -21.45709124 </i>
    <i name="e_0_energy">    -21.45709124 </i>
   </energy>
  </scstep>
  <scstep>
   <time name="dav">    1.21    1.22</time>
   <time name="total">    1.33    1.33</time>
   <energy>
    <i name="e_fr_energy">    -21.45709127 </i>
    <i name="e_wo_entrp">    -21.45709127 </i>
    <i name="e_0_energy">    -21.45709127 </i>
   </energy>
  </scstep>
  <scstep>
   <time name="dav">    1.20    1.20</time>
   <time name="total">    1.22    1.22</time>
   <energy>
    <i name="alphaZ">      5.22908043 </i>
    <i name="ewald">   1852.74710511 </i>
    <i name="hartreedc">  -2461.57901550 </i>
    <i name="XCdc">     14.06972844 </i>
    <i name="pawpsdc">   2094.41421700 </i>
    <i name="pawaedc">  -2062.10467498 </i>
    <i name="eentropy">     -0.00000000 </i>
    <i name="bandstr">   -168.40131759 </i>
    <i name="atom">    704.16778566 </i>
    <i name="e_fr_energy">    -21.45709143 </i>
    <i name="e_wo_entrp">    -21.45709143 </i>
    <i name="e_0_energy">    -21.45709143 </i>
   </energy>
  </scstep>
  <structure>
   <crystal>
    <varray name="basis" >
     <v>       3.29720400       0.00000000       0.00000000 </v>
     <v>       0.00000000       4.64641000      -0.00005300 </v>
     <v>       0.00000000       0.00000000      20.02439000 </v>
    </varray>
    <i name="volume">    306.77689150 </i>
    <varray name="rec_basis" >
     <v>       0.30328727       0.00000000       0.00000000 </v>
     <v>       0.00000000       0.21521992       0.00000000 </v>
     <v>       0.00000000       0.00000057       0.04993910 </v>
    </varray>
   </crystal>
   <varray name="positions" >
    <v>       0.50000000       0.91006074       0.55248173 </v>
    <v>       0.50000000       0.08993926       0.44751827 </v>
    <v>       0.00000000       0.41005641       0.44751828 </v>
    <v>      -0.00000000       0.58994359       0.55248172 </v>
   </varray>
  </structure>
  <varray name="forces" >
   <v>       0.00000005       0.00356672      -0.01459029 </v>
   <v>      -0.00000005      -0.00356672       0.01459029 </v>
   <v>       0.00000004       0.00354499       0.01459016 </v>
   <v>      -0.00000004      -0.00354499      -0.01459016 </v>
  </varray>
  <varray name="stress" >
   <v>      -0.29733281       0.00000053       0.00000029 </v>
   <v>       0.00000055      -0.64914493       0.00024773 </v>
   <v>       0.00000030       0.00024768      -0.39958786 </v>
  </varray>
  <energy>
   <i name="e_fr_energy">    -21.45709143 </i>
   <i name="e_wo_entrp">    -21.45709143 </i>
   <i name="e_0_energy">     -0.00000000 </i>
  </energy>
  <time name="totalsc">   10.14   10.16</time>
 </calculation>
 <calculation>
  <scstep>
   <time name="dav">    1.54    1.54</time>
   <time name="total">    1.66    1.66</time>
   <energy>
    <i name="alphaZ">      5.22908043 </i>
    <i name="ewald">   1853.21208753 </i>
    <i name="hartreedc">  -2462.01795935 </i>
    <i name="XCdc">     14.07282001 </i>
    <i name="pawpsdc">   2094.54728431 </i>
    <i name="pawaedc">  -2062.23774314 </i>
    <i name="eentropy">     -0.00000000 </i>
    <i name="bandstr">   -168.43046520 </i>
    <i name="atom">    704.16778566 </i>
    <i name="e_fr_energy">    -21.45710974 </i>
    <i name="e_wo_entrp">    -21.45710974 </i>
    <i name="e_0_energy">    -21.45710974 </i>
   </energy>
  </scstep>
  <scstep>
   <time name="dav">    1.80    1.80</time>
   <time name="total">    1.91    1.91</time>
   <energy>
    <i name="e_fr_energy">    -21.45711469 </i>
    <i name="e_wo_entrp">    -21.45711469 </i>
    <i name="e_0_energy">    -21.45711469 </i>
   </energy>
  </scstep>
  <scstep>
   <time name="dav">    1.22    1.22</time>
   <time name="total">    1.34    1.34</time>
   <energy>
    <i name="e_fr_energy">    -21.45711477 </i>
    <i name="e_wo_entrp">    -21.45711477 </i>
    <i name="e_0_energy">    -21.45711477 </i>
   </energy>
  </scstep>
  <scstep>
   <time name="dav">    1.20    1.21</time>
   <time name="total">    1.32    1.32</time>
   <energy>
    <i name="e_fr_energy">    -21.45711509 </i>
    <i name="e_wo_entrp">    -21.45711509 </i>
    <i name="e_0_energy">    -21.45711509 </i>
   </energy>
  </scstep>
  <scstep>
   <time name="dav">    1.19    1.19</time>
   <time name="total">    1.30    1.31</time>
   <energy>
    <i name="e_fr_energy">    -21.45711513 </i>
    <i name="e_wo_entrp">    -21.45711513 </i>
    <i name="e_0_energy">    -21.45711513 </i>
   </energy>
  </scstep>
  <scstep>
   <time name="dav">    1.17    1.17</time>
   <time name="total">    1.19    1.19</time>
   <energy>
    <i name="alphaZ">      5.22908043 </i>
    <i name="ewald">   1853.21208753 </i>
    <i name="hartreedc">  -2462.01593267 </i>
    <i name="XCdc">     14.07300461 </i>
    <i name="pawpsdc">   2096.17324503 </i>
    <i name="pawaedc">  -2063.86420799 </i>
    <i name="eentropy">     -0.00000000 </i>
    <i name="bandstr">   -168.43217781 </i>
    <i name="atom">    704.16778566 </i>
    <i name="e_fr_energy">    -21.45711520 </i>
    <i name="e_wo_entrp">    -21.45711520 </i>
    <i name="e_0_energy">    -21.45711520 </i>
   </energy>
  </scstep>
  <structure>
   <crystal>
    <varray name="basis" >
     <v>       3.29720400       0.00000000       0.00000000 </v>
     <v>       0.00000000       4.64641000      -0.00005300 </v>
     <v>       0.00000000       0.00000000      20.02439000 </v>
    </varray>
    <i name="volume">    306.77689150 </i>
    <varray name="rec_basis" >
     <v>       0.30328727       0.00000000       0.00000000 </v>
     <v>       0.00000000       0.21521992       0.00000000 </v>
     <v>       0.00000000       0.00000057       0.04993910 </v>
    </varray>
   </crystal>
   <varray name="positions" >
    <v>       0.50000000       0.91006271       0.55245632 </v>
    <v>       0.50000000       0.08993729       0.44754368 </v>
    <v>       0.00000000       0.41005821       0.44754369 </v>
    <v>      -0.00000000       0.58994179       0.55245631 </v>
   </varray>
  </structure>
  <varray name="forces" >
   <v>       0.00000002       0.00166135      -0.00721546 </v>
   <v>      -0.00000002      -0.00166135       0.00721546 </v>
   <v>      -0.00000001       0.00164392       0.00721495 </v>
   <v>       0.00000001      -0.00164392      -0.00721495 </v>
  </varray>
  <varray name="stress" >
   <v>      -0.28621139       0.00000043       0.00000021 </v>
   <v>       0.00000041      -0.62551449       0.00019956 </v>
   <v>       0.00000026       0.00019954      -0.23406080 </v>
  </varray>
  <energy>
   <i name="e_fr_energy">    -21.45711520 </i>
   <i name="e_wo_entrp">    -21.45711520 </i>
   <i name="e_0_energy">     -0.00000000 </i>
  </energy>
  <time name="totalsc">    9.47    9.49</time>
  <eigenvalues>
   <array>
    <dimension dim="1">band</dimension>
    <dimension dim="2">kpoint</dimension>
    <dimension dim="3">spin</dimension>
    <field>eigene</field>
    <field>occ</field>
    <set>
     <set comment="spin 1">
      <set comment="kpoint 1">
       <r>  -17.2314    1.0000 </r>
       <r>  -14.7928    1.0000 </r>
       <r>  -11.4854    1.0000 </r>
       <r>   -7.9467    1.0000 </r>
       <r>   -7.0226    1.0000 </r>
       <r>   -6.7694    1.0000 </r>
       <r>   -5.5912    1.0000 </r>
       <r>   -4.0294    1.0000 </r>
       <r>   -3.9310    1.0000 </r>
       <r>   -2.3040    1.0000 </r>
       <r>   -1.3821    0.0000 </r>
       <r>   -0.6347    0.0000 </r>
       <r>    0.3858    0.0000 </r>
       <r>    1.0036    0.0000 </r>
       <r>    2.1175    0.0000 </r>
       <r>    2.2959    0.0000 </r>
      </set>
      <set comment="kpoint 2">
       <r>  -17.2067    1.0000 </r>
       <r>  -14.7670    1.0000 </r>
       <r>  -11.4930    1.0000 </r>
       <r>   -7.9280    1.0000 </r>
       <r>   -7.0382    1.0000 </r>
       <r>   -6.7477    1.0000 </r>
       <r>   -5.7530    1.0000 </r>
       <r>   -4.1994    1.0000 </r>
       <r>   -3.9212    1.0000 </r>
       <r>   -2.3036    1.0000 </r>
       <r>   -1.3591    0.0000 </r>
       <r>   -0.4112    0.0000 </r>
       <r>    0.6076    0.0000 </r>
       <r>    0.8514    0.0000 </r>
       <r>    2.1431    0.0000 </r>
       <r>    2.3233    0.0000 </r>
      </set>
      <set comment="kpoint 3">
       <r>  -17.1330    1.0000 </r>
       <r>  -14.6899    1.0000 </r>
       <r>  -11.5203    1.0000 </r>
       <r>   -7.8726    1.0000 </r>
       <r>   -7.1008    1.0000 </r>
       <r>   -6.6829    1.0000 </r>
       <r>   -6.1539    1.0000 </r>
       <r>   -4.6000    1.0000 </r>
       <r>   -3.8946    1.0000 </r>
       <r>   -2.3190    1.0000 </r>
       <r>   -1.2905    0.0000 </r>
       <r>    0.1918    0.0000 </r>
       <r>    0.4691    0.0000 </r>
       <r>    1.1593    0.0000 </r>
       <r>    2.2162    0.0000 </r>
       <r>    2.4056    0.0000 </r>
      </set>
      <set comment="kpoint 4">
       <r>  -17.0104    1.0000 </r>
       <r>  -14.5615    1.0000 </r>
       <r>  -11.5807    1.0000 </r>
       <r>   -7.7826    1.0000 </r>
       <r>   -7.2618    1.0000 </r>
       <r>   -6.6431    1.0000 </r>
       <r>   -6.5762    1.0000 </r>
       <r>   -5.0280    1.0000 </r>
       <r>   -3.8611    1.0000 </r>
       <r>   -2.3691    1.0000 </r>
       <r>   -1.1773    0.0000 </r>
       <r>   -0.0112    0.0000 </r>
       <r>    1.0421    0.0000 </r>
       <r>    1.7770    0.0000 </r>
       <r>    2.2993    0.0000 </r>
       <r>    2.5421    0.0000 </r>
      </set>
      <set comment="kpoint 5">
       <r>  -16.8395    1.0000 </r>
       <r>  -14.3822    1.0000 </r>
       <r>  -11.6956    1.0000 </r>
       <r>   -7.6617    1.0000 </r>
       <r>   -7.5876    1.0000 </r>
       <r>   -7.1060    1.0000 </r>
       <r>   -6.4295    1.0000 </r>
       <r>   -5.3216    1.0000 </r>
       <r>   -3.8396    1.0000 </r>
       <r>   -2.4644    1.0000 </r>
       <r>   -1.0221    0.0000 </r>
       <r>   -0.4847    0.0000 </r>
       <r>    1.9078    0.0000 </r>
       <r>    2.0141    0.0000 </r>
       <r>    2.0239    0.0000 </r>
       <r>    2.6399    0.0000 </r>
      </set>
      <set comment="kpoint 6">
       <r>  -16.6210    1.0000 </r>
       <r>  -14.1521    1.0000 </r>
       <r>  -11.8887    1.0000 </r>
       <r>   -8.0845    1.0000 </r>
       <r>   -7.5169    1.0000 </r>
       <r>   -7.4697    1.0000 </r>
       <r>   -6.2464    1.0000 </r>
       <r>   -5.4288    1.0000 </r>
       <r>   -3.8590    1.0000 </r>
       <r>   -2.6131    1.0000 </r>
       <r>   -0.8711    0.0000 </r>
       <r>   -0.8306    0.0000 </r>
       <r>    1.4088    0.0000 </r>
       <r>    1.4789    0.0000 </r>
       <r>    2.6289    0.0000 </r>
       <r>    2.8578    0.0000 </r>
      </set>
      <set comment="kpoint 7">
       <r>  -16.3563    1.0000 </r>
       <r>  -13.8719    1.0000 </r>
       <r>  -12.1745    1.0000 </r>
       <r>   -8.6867    1.0000 </r>
       <r>   -7.6959    1.0000 </r>
       <r>   -7.3593    1.0000 </r>
       <r>   -6.0322    1.0000 </r>
       <r>   -5.3977    1.0000 </r>
       <r>   -3.9475    1.0000 </r>
       <r>   -2.8199    1.0000 </r>
       <r>   -1.1070    0.0000 </r>
       <r>   -0.6187    0.0000 </r>
       <r>    0.7895    0.0000 </r>
       <r>    0.9463    0.0000 </r>
       <r>    2.2560    0.0000 </r>
       <r>    3.1550    0.0000 </r>
      </set>
      <set comment="kpoint 8">
       <r>  -16.0468    1.0000 </r>
       <r>  -13.5422    1.0000 </r>
       <r>  -12.5476    1.0000 </r>
       <r>   -9.3288    1.0000 </r>
       <r>   -7.7790    1.0000 </r>
       <r>   -7.2079    1.0000 </r>
       <r>   -5.7954    1.0000 </r>
       <r>   -5.2911    1.0000 </r>
       <r>   -4.1031    1.0000 </r>
       <r>   -3.0806    1.0000 </r>
       <r>   -1.1625    0.0000 </r>
       <r>   -0.4471    0.0000 </r>
       <r>    0.1963    0.0000 </r>
       <r>    0.5294    0.0000 </r>
       <r>    1.7774    0.0000 </r>
       <r>    3.1350    0.0000 </r>
      </set>
      <set comment="kpoint 9">
       <r>  -15.6946    1.0000 </r>
       <r>  -13.1637    1.0000 </r>
       <r>  -12.9852    1.0000 </r>
       <r>   -9.9725    1.0000 </r>
       <r>   -7.7399    1.0000 </r>
       <r>   -7.0923    1.0000 </r>
       <r>   -5.5494    1.0000 </r>
       <r>   -5.1575    1.0000 </r>
       <r>   -4.2745    1.0000 </r>
       <r>   -3.3801    1.0000 </r>
       <r>   -1.0529    0.0000 </r>
       <r>   -0.4997    0.0000 </r>
       <r>   -0.3224    0.0000 </r>
       <r>    0.4373    0.0000 </r>
       <r>    1.2951    0.0000 </r>
       <r>    2.7675    0.0000 </r>
      </set>
      <set comment="kpoint 10">
       <r>  -15.3029    1.0000 </r>
       <r>  -13.4586    1.0000 </r>
       <r>  -12.7377    1.0000 </r>
       <r>  -10.5973    1.0000 </r>
       <r>   -7.6119    1.0000 </r>
       <r>   -7.0499    1.0000 </r>
       <r>   -5.3149    1.0000 </r>
       <r>   -5.0386    1.0000 </r>
       <r>   -4.3840    1.0000 </r>
       <r>   -3.6938    1.0000 </r>
       <r>   -0.8162    0.0000 </r>
       <r>   -0.7565    0.0000 </r>
       <r>   -0.7298    0.0000 </r>
       <r>    0.6754    0.0000 </r>
       <r>    0.8146    0.0000 </r>
       <r>    2.3413    0.0000 </r>
      </set>
      <set comment="kpoint 11">
       <r>  -14.8759    1.0000 </r>
       <r>  -13.9429    1.0000 </r>
       <r>  -12.2656    1.0000 </r>
       <r>  -11.1918    1.0000 </r>
       <r>   -7.4337    1.0000 </r>
       <r>   -7.1060    1.0000 </r>
       <r>   -5.1210    1.0000 </r>
       <r>   -4.9756    1.0000 </r>
       <r>   -4.3724    1.0000 </r>
       <r>   -3.9899    1.0000 </r>
       <r>   -0.9892    0.0000 </r>
       <r>   -0.9819    0.0000 </r>
       <r>   -0.4877    0.0000 </r>
       <r>    0.3465    0.0000 </r>
       <r>    1.0384    0.0000 </r>
       <r>    1.8947    0.0000 </r>
      </set>
      <set comment="kpoint 12">
       <r>  -14.4196    1.0000 </r>
       <r>  -14.4196    1.0000 </r>
       <r>  -11.7493    1.0000 </r>
       <r>  -11.7493    1.0000 </r>
       <r>   -7.2486    1.0000 </r>
       <r>   -7.2486    1.0000 </r>
       <r>   -5.0008    1.0000 </r>
       <r>   -5.0007    1.0000 </r>
       <r>   -4.2304    1.0000 </r>
       <r>   -4.2304    1.0000 </r>
       <r>   -1.0730    0.0000 </r>
       <r>   -1.0730    0.0000 </r>
       <r>   -0.0935    0.0000 </r>
       <r>   -0.0935    0.0000 </r>
       <r>    1.4536    0.0000 </r>
       <r>    1.4536    0.0000 </r>
      </set>
      <set comment="kpoint 13">
       <r>  -17.2102    1.0000 </r>
       <r>  -14.8235    1.0000 </r>
       <r>  -11.4906    1.0000 </r>
       <r>   -8.1079    1.0000 </r>
       <r>   -6.9179    1.0000 </r>
       <r>   -6.6794    1.0000 </r>
       <r>   -5.5750    1.0000 </r>
       <r>   -4.0449    1.0000 </r>
       <r>   -3.8403    1.0000 </r>
       <r>   -2.5024    1.0000 </r>
       <r>   -1.1973    0.0000 </r>
       <r>   -0.6183    0.0000 </r>
       <r>    0.3401    0.0000 </r>
       <r>    0.9920    0.0000 </r>
       <r>    2.1751    0.0000 </r>
       <r>    2.3257    0.0000 </r>
      </set>
      <set comment="kpoint 14">
       <r>  -17.1856    1.0000 </r>
       <r>  -14.7979    1.0000 </r>
       <r>  -11.4971    1.0000 </r>
       <r>   -8.0929    1.0000 </r>
       <r>   -6.9280    1.0000 </r>
       <r>   -6.6653    1.0000 </r>
       <r>   -5.7297    1.0000 </r>
       <r>   -4.2211    1.0000 </r>
       <r>   -3.8296    1.0000 </r>
       <r>   -2.4985    1.0000 </r>
       <r>   -1.1780    0.0000 </r>
       <r>   -0.3952    0.0000 </r>
       <r>    0.5548    0.0000 </r>
       <r>    0.8509    0.0000 </r>
       <r>    2.1995    0.0000 </r>
       <r>    2.3531    0.0000 </r>
      </set>
      <set comment="kpoint 15">
       <r>  -17.1119    1.0000 </r>
       <r>  -14.7213    1.0000 </r>
       <r>  -11.5208    1.0000 </r>
       <r>   -8.0511    1.0000 </r>
       <r>   -6.9716    1.0000 </r>
       <r>   -6.6416    1.0000 </r>
       <r>   -6.0919    1.0000 </r>
       <r>   -4.6308    1.0000 </r>
       <r>   -3.8088    1.0000 </r>
       <r>   -2.4999    1.0000 </r>
       <r>   -1.1235    0.0000 </r>
       <r>    0.2070    0.0000 </r>
       <r>    0.4541    0.0000 </r>
       <r>    1.1348    0.0000 </r>
       <r>    2.2692    0.0000 </r>
       <r>    2.4351    0.0000 </r>
      </set>
      <set comment="kpoint 16">
       <r>  -16.9894    1.0000 </r>
       <r>  -14.5939    1.0000 </r>
       <r>  -11.5752    1.0000 </r>
       <r>   -7.9978    1.0000 </r>
       <r>   -7.0886    1.0000 </r>
       <r>   -6.7853    1.0000 </r>
       <r>   -6.3362    1.0000 </r>
       <r>   -5.0679    1.0000 </r>
       <r>   -3.7888    1.0000 </r>
       <r>   -2.5256    1.0000 </r>
       <r>   -1.0338    0.0000 </r>
       <r>   -0.0065    0.0000 </r>
       <r>    1.0532    0.0000 </r>
       <r>    1.7666    0.0000 </r>
       <r>    2.3287    0.0000 </r>
       <r>    2.5729    0.0000 </r>
      </set>
      <set comment="kpoint 17">
       <r>  -16.8187    1.0000 </r>
       <r>  -14.4161    1.0000 </r>
       <r>  -11.6817    1.0000 </r>
       <r>   -7.9954    1.0000 </r>
       <r>   -7.2924    1.0000 </r>
       <r>   -7.1799    1.0000 </r>
       <r>   -6.2668    1.0000 </r>
       <r>   -5.3655    1.0000 </r>
       <r>   -3.7891    1.0000 </r>
       <r>   -2.5904    1.0000 </r>
       <r>   -0.9070    0.0000 </r>
       <r>   -0.4546    0.0000 </r>
       <r>    1.8109    0.0000 </r>
       <r>    1.9619    0.0000 </r>
       <r>    2.1212    0.0000 </r>
       <r>    2.6049    0.0000 </r>
      </set>
      <set comment="kpoint 18">
       <r>  -16.6005    1.0000 </r>
       <r>  -14.1888    1.0000 </r>
       <r>  -11.8647    1.0000 </r>
       <r>   -8.2386    1.0000 </r>
       <r>   -7.5313    1.0000 </r>
       <r>   -7.4035    1.0000 </r>
       <r>   -6.1078    1.0000 </r>
       <r>   -5.4714    1.0000 </r>
       <r>   -3.8371    1.0000 </r>
       <r>   -2.7074    1.0000 </r>
       <r>   -0.8078    0.0000 </r>
       <r>   -0.7445    0.0000 </r>
       <r>    1.3028    0.0000 </r>
       <r>    1.4996    0.0000 </r>
       <r>    2.6482    0.0000 </r>
       <r>    2.9775    0.0000 </r>
      </set>
      <set comment="kpoint 19">
       <r>  -16.3360    1.0000 </r>
       <r>  -13.9139    1.0000 </r>
       <r>  -12.1386    1.0000 </r>
       <r>   -8.7554    1.0000 </r>
       <r>   -7.7541    1.0000 </r>
       <r>   -7.3329    1.0000 </r>
       <r>   -5.9114    1.0000 </r>
       <r>   -5.4424    1.0000 </r>
       <r>   -3.9522    1.0000 </r>
       <r>   -2.8845    1.0000 </r>
       <r>   -1.0086    0.0000 </r>
       <r>   -0.5595    0.0000 </r>
       <r>    0.7711    0.0000 </r>
       <r>    0.8886    0.0000 </r>
       <r>    2.4042    0.0000 </r>
       <r>    3.2226    0.0000 </r>
      </set>
      <set comment="kpoint 20">
       <r>  -16.0270    1.0000 </r>
       <r>  -13.5977    1.0000 </r>
       <r>  -12.4937    1.0000 </r>
       <r>   -9.3698    1.0000 </r>
       <r>   -7.8344    1.0000 </r>
       <r>   -7.2066    1.0000 </r>
       <r>   -5.6953    1.0000 </r>
       <r>   -5.3513    1.0000 </r>
       <r>   -4.1150    1.0000 </r>
       <r>   -3.1176    1.0000 </r>
       <r>   -1.0388    0.0000 </r>
       <r>   -0.4200    0.0000 </r>
       <r>    0.2957    0.0000 </r>
       <r>    0.3665    0.0000 </r>
       <r>    1.9814    0.0000 </r>
       <r>    3.0781    0.0000 </r>
      </set>
      <set comment="kpoint 21">
       <r>  -15.6756    1.0000 </r>
       <r>  -13.2939    1.0000 </r>
       <r>  -12.8542    1.0000 </r>
       <r>  -10.0016    1.0000 </r>
       <r>   -7.7906    1.0000 </r>
       <r>   -7.0966    1.0000 </r>
       <r>   -5.4792    1.0000 </r>
       <r>   -5.2567    1.0000 </r>
       <r>   -4.2565    1.0000 </r>
       <r>   -3.3887    1.0000 </r>
       <r>   -0.9273    0.0000 </r>
       <r>   -0.5365    0.0000 </r>
       <r>   -0.2198    0.0000 </r>
       <r>    0.3171    0.0000 </r>
       <r>    1.5362    0.0000 </r>
       <r>    2.7201    0.0000 </r>
      </set>
      <set comment="kpoint 22">
       <r>  -15.2851    1.0000 </r>
       <r>  -13.4830    1.0000 </r>
       <r>  -12.7116    1.0000 </r>
       <r>  -10.6196    1.0000 </r>
       <r>   -7.6555    1.0000 </r>
       <r>   -7.0555    1.0000 </r>
       <r>   -5.2912    1.0000 </r>
       <r>   -5.1942    1.0000 </r>
       <r>   -4.3014    1.0000 </r>
       <r>   -3.6675    1.0000 </r>
       <r>   -0.8190    0.0000 </r>
       <r>   -0.8173    0.0000 </r>
       <r>   -0.5146    0.0000 </r>
       <r>    0.5204    0.0000 </r>
       <r>    1.1280    0.0000 </r>
       <r>    2.3024    0.0000 </r>
      </set>
      <set comment="kpoint 23">
       <r>  -14.8600    1.0000 </r>
       <r>  -13.9389    1.0000 </r>
       <r>  -12.2681    1.0000 </r>
       <r>  -11.2091    1.0000 </r>
       <r>   -7.4675    1.0000 </r>
       <r>   -7.1174    1.0000 </r>
       <r>   -5.1670    1.0000 </r>
       <r>   -5.1529    1.0000 </r>
       <r>   -4.2410    1.0000 </r>
       <r>   -3.9174    1.0000 </r>
       <r>   -1.0367    0.0000 </r>
       <r>   -1.0048    0.0000 </r>
       <r>   -0.2882    0.0000 </r>
       <r>    0.4567    0.0000 </r>
       <r>    1.0934    0.0000 </r>
       <r>    1.8669    0.0000 </r>
      </set>
      <set comment="kpoint 24">
       <r>  -14.4074    1.0000 </r>
       <r>  -14.4074    1.0000 </r>
       <r>  -11.7610    1.0000 </r>
       <r>  -11.7610    1.0000 </r>
       <r>   -7.2708    1.0000 </r>
       <r>   -7.2708    1.0000 </r>
       <r>   -5.1292    1.0000 </r>
       <r>   -5.1292    1.0000 </r>
       <r>   -4.1101    1.0000 </r>
       <r>   -4.1101    1.0000 </r>
       <r>   -1.1068    0.0000 </r>
       <r>   -1.1068    0.0000 </r>
       <r>    0.0800    0.0000 </r>
       <r>    0.0800    0.0000 </r>
       <r>    1.4456    0.0000 </r>
       <r>    1.4456    0.0000 </r>
      </set>
      <set comment="kpoint 25">
       <r>  -14.8600    1.0000 </r>
       <r>  -13.9389    1.0000 </r>
       <r>  -12.2681    1.0000 </r>
       <r>  -11.2091    1.0000 </r>
       <r>   -7.4675    1.0000 </r>
       <r>   -7.1174    1.0000 </r>
       <r>   -5.1670    1.0000 </r>
       <r>   -5.1529    1.0000 </r>
       <r>   -4.2410    1.0000 </r>
       <r>   -3.9174    1.0000 </r>
       <r>   -1.0367    0.0000 </r>
       <r>   -1.0048    0.0000 </r>
       <r>   -0.2882    0.0000 </r>
       <r>    0.4567    0.0000 </r>
       <r>    1.0934    0.0000 </r>
       <r>    1.8669    0.0000 </r>
      </set>
      <set comment="kpoint 26">
       <r>  -15.2851    1.0000 </r>
       <r>  -13.4830    1.0000 </r>
       <r>  -12.7116    1.0000 </r>
       <r>  -10.6196    1.0000 </r>
       <r>   -7.6555    1.0000 </r>
       <r>   -7.0555    1.0000 </r>
       <r>   -5.2912    1.0000 </r>
       <r>   -5.1942    1.0000 </r>
       <r>   -4.3014    1.0000 </r>
       <r>   -3.6675    1.0000 </r>
       <r>   -0.8190    0.0000 </r>
       <r>   -0.8173    0.0000 </r>
       <r>   -0.5146    0.0000 </r>
       <r>    0.5204    0.0000 </r>
       <r>    1.1280    0.0000 </r>
       <r>    2.3024    0.0000 </r>
      </set>
      <set comment="kpoint 27">
       <r>  -15.6756    1.0000 </r>
       <r>  -13.2939    1.0000 </r>
       <r>  -12.8542    1.0000 </r>
       <r>  -10.0016    1.0000 </r>
       <r>   -7.7906    1.0000 </r>
       <r>   -7.0966    1.0000 </r>
       <r>   -5.4792    1.0000 </r>
       <r>   -5.2567    1.0000 </r>
       <r>   -4.2565    1.0000 </r>
       <r>   -3.3887    1.0000 </r>
       <r>   -0.9273    0.0000 </r>
       <r>   -0.5365    0.0000 </r>
       <r>   -0.2198    0.0000 </r>
       <r>    0.3171    0.0000 </r>
       <r>    1.5362    0.0000 </r>
       <r>    2.7201    0.0000 </r>
      </set>
      <set comment="kpoint 28">
       <r>  -16.0270    1.0000 </r>
       <r>  -13.5977    1.0000 </r>
       <r>  -12.4937    1.0000 </r>
       <r>   -9.3698    1.0000 </r>
       <r>   -7.8344    1.0000 </r>
       <r>   -7.2066    1.0000 </r>
       <r>   -5.6953    1.0000 </r>
       <r>   -5.3513    1.0000 </r>
       <r>   -4.1150    1.0000 </r>
       <r>   -3.1176    1.0000 </r>
       <r>   -1.0388    0.0000 </r>
       <r>   -0.4200    0.0000 </r>
       <r>    0.2957    0.0000 </r>
       <r>    0.3665    0.0000 </r>
       <r>    1.9814    0.0000 </r>
       <r>    3.0781    0.0000 </r>
      </set>
      <set comment="kpoint 29">
       <r>  -16.3360    1.0000 </r>
       <r>  -13.9139    1.0000 </r>
       <r>  -12.1386    1.0000 </r>
       <r>   -8.7554    1.0000 </r>
       <r>   -7.7541    1.0000 </r>
       <r>   -7.3329    1.0000 </r>
       <r>   -5.9114    1.0000 </r>
       <r>   -5.4424    1.0000 </r>
       <r>   -3.9522    1.0000 </r>
       <r>   -2.8845    1.0000 </r>
       <r>   -1.0086    0.0000 </r>
       <r>   -0.5595    0.0000 </r>
       <r>    0.7711    0.0000 </r>
       <r>    0.8886    0.0000 </r>
       <r>    2.4042    0.0000 </r>
       <r>    3.2225    0.0000 </r>
      </set>
      <set comment="kpoint 30">
       <r>  -16.6005    1.0000 </r>
       <r>  -14.1888    1.0000 </r>
       <r>  -11.8647    1.0000 </r>
       <r>   -8.2386    1.0000 </r>
       <r>   -7.5313    1.0000 </r>
       <r>   -7.4035    1.0000 </r>
       <r>   -6.1078    1.0000 </r>
       <r>   -5.4714    1.0000 </r>
       <r>   -3.8371    1.0000 </r>
       <r>   -2.7074    1.0000 </r>
       <r>   -0.8078    0.0000 </r>
       <r>   -0.7445    0.0000 </r>
       <r>    1.3028    0.0000 </r>
       <r>    1.4996    0.0000 </r>
       <r>    2.6482    0.0000 </r>
       <r>    2.9777    0.0000 </r>
      </set>
      <set comment="kpoint 31">
       <r>  -16.8187    1.0000 </r>
       <r>  -14.4161    1.0000 </r>
       <r>  -11.6817    1.0000 </r>
       <r>   -7.9954    1.0000 </r>
       <r>   -7.2924    1.0000 </r>
       <r>   -7.1799    1.0000 </r>
       <r>   -6.2668    1.0000 </r>
       <r>   -5.3655    1.0000 </r>
       <r>   -3.7891    1.0000 </r>
       <r>   -2.5904    1.0000 </r>
       <r>   -0.9070    0.0000 </r>
       <r>   -0.4546    0.0000 </r>
       <r>    1.8109    0.0000 </r>
       <r>    1.9619    0.0000 </r>
       <r>    2.1212    0.0000 </r>
       <r>    2.6049    0.0000 </r>
      </set>
      <set comment="kpoint 32">
       <r>  -16.9894    1.0000 </r>
       <r>  -14.5939    1.0000 </r>
       <r>  -11.5752    1.0000 </r>
       <r>   -7.9978    1.0000 </r>
       <r>   -7.0886    1.0000 </r>
       <r>   -6.7853    1.0000 </r>
       <r>   -6.3362    1.0000 </r>
       <r>   -5.0679    1.0000 </r>
       <r>   -3.7888    1.0000 </r>
       <r>   -2.5256    1.0000 </r>
       <r>   -1.0338    0.0000 </r>
       <r>   -0.0065    0.0000 </r>
       <r>    1.0532    0.0000 </r>
       <r>    1.7666    0.0000 </r>
       <r>    2.3287    0.0000 </r>
       <r>    2.5713    0.0000 </r>
      </set>
      <set comment="kpoint 33">
       <r>  -17.1119    1.0000 </r>
       <r>  -14.7213    1.0000 </r>
       <r>  -11.5208    1.0000 </r>
       <r>   -8.0511    1.0000 </r>
       <r>   -6.9716    1.0000 </r>
       <r>   -6.6416    1.0000 </r>
       <r>   -6.0919    1.0000 </r>
       <r>   -4.6308    1.0000 </r>
       <r>   -3.8088    1.0000 </r>
       <r>   -2.4999    1.0000 </r>
       <r>   -1.1235    0.0000 </r>
       <r>    0.2070    0.0000 </r>
       <r>    0.4541    0.0000 </r>
       <r>    1.1348    0.0000 </r>
       <r>    2.2692    0.0000 </r>
       <r>    2.4351    0.0000 </r>
      </set>
      <set comment="kpoint 34">
       <r>  -17.1856    1.0000 </r>
       <r>  -14.7979    1.0000 </r>
       <r>  -11.4971    1.0000 </r>
       <r>   -8.0929    1.0000 </r>
       <r>   -6.9280    1.0000 </r>
       <r>   -6.6653    1.0000 </r>
       <r>   -5.7297    1.0000 </r>
       <r>   -4.2211    1.0000 </r>
       <r>   -3.8296    1.0000 </r>
       <r>   -2.4985    1.0000 </r>
       <r>   -1.1780    0.0000 </r>
       <r>   -0.3952    0.0000 </r>
       <r>    0.5548    0.0000 </r>
       <r>    0.8509    0.0000 </r>
       <r>    2.1995    0.0000 </r>
       <r>    2.3531    0.0000 </r>
      </set>
      <set comment="kpoint 35">
       <r>  -17.1472    1.0000 </r>
       <r>  -14.9151    1.0000 </r>
       <r>  -11.4954    1.0000 </r>
       <r>   -8.4647    1.0000 </r>
       <r>   -6.7110    1.0000 </r>
       <r>   -6.4224    1.0000 </r>
       <r>   -5.5269    1.0000 </r>
       <r>   -4.0915    1.0000 </r>
       <r>   -3.5963    1.0000 </r>
       <r>   -2.8968    1.0000 </r>
       <r>   -0.8394    0.0000 </r>
       <r>   -0.5691    0.0000 </r>
       <r>    0.2070    0.0000 </r>
       <r>    0.9652    0.0000 </r>
       <r>    2.3404    0.0000 </r>
       <r>    2.4146    0.0000 </r>
      </set>
      <set comment="kpoint 36">
       <r>  -17.1227    1.0000 </r>
       <r>  -14.8900    1.0000 </r>
       <r>  -11.4988    1.0000 </r>
       <r>   -8.4528    1.0000 </r>
       <r>   -6.7135    1.0000 </r>
       <r>   -6.4354    1.0000 </r>
       <r>   -5.6556    1.0000 </r>
       <r>   -4.2765    1.0000 </r>
       <r>   -3.5919    1.0000 </r>
       <r>   -2.8893    1.0000 </r>
       <r>   -0.8252    0.0000 </r>
       <r>   -0.3461    0.0000 </r>
       <r>    0.4163    0.0000 </r>
       <r>    0.8444    0.0000 </r>
       <r>    2.3618    0.0000 </r>
       <r>    2.4418    0.0000 </r>
      </set>
      <set comment="kpoint 37">
       <r>  -17.0491    1.0000 </r>
       <r>  -14.8146    1.0000 </r>
       <r>  -11.5134    1.0000 </r>
       <r>   -8.4214    1.0000 </r>
       <r>   -6.7338    1.0000 </r>
       <r>   -6.5396    1.0000 </r>
       <r>   -5.8961    1.0000 </r>
       <r>   -4.7082    1.0000 </r>
       <r>   -3.5914    1.0000 </r>
       <r>   -2.8758    1.0000 </r>
       <r>   -0.7866    0.0000 </r>
       <r>    0.2533    0.0000 </r>
       <r>    0.4292    0.0000 </r>
       <r>    1.0582    0.0000 </r>
       <r>    2.4223    0.0000 </r>
       <r>    2.5232    0.0000 </r>
      </set>
      <set comment="kpoint 38">
       <r>  -16.9269    1.0000 </r>
       <r>  -14.6896    1.0000 </r>
       <r>  -11.5522    1.0000 </r>
       <r>   -8.3867    1.0000 </r>
       <r>   -6.8661    1.0000 </r>
       <r>   -6.8144    1.0000 </r>
       <r>   -5.9729    1.0000 </r>
       <r>   -5.1688    1.0000 </r>
       <r>   -3.6111    1.0000 </r>
       <r>   -2.8710    1.0000 </r>
       <r>   -0.7240    0.0000 </r>
       <r>    0.0316    0.0000 </r>
       <r>    1.0826    0.0000 </r>
       <r>    1.7187    0.0000 </r>
       <r>    2.1730    0.0000 </r>
       <r>    2.5288    0.0000 </r>
      </set>
      <set comment="kpoint 39">
       <r>  -16.7566    1.0000 </r>
       <r>  -14.5159    1.0000 </r>
       <r>  -11.6368    1.0000 </r>
       <r>   -8.3947    1.0000 </r>
       <r>   -7.2880    1.0000 </r>
       <r>   -7.0037    1.0000 </r>
       <r>   -5.9014    1.0000 </r>
       <r>   -5.4741    1.0000 </r>
       <r>   -3.6716    1.0000 </r>
       <r>   -2.8895    1.0000 </r>
       <r>   -0.6370    0.0000 </r>
       <r>   -0.3429    0.0000 </r>
       <r>    1.4706    0.0000 </r>
       <r>    2.0758    0.0000 </r>
       <r>    2.1908    0.0000 </r>
       <r>    2.6417    0.0000 </r>
      </set>
      <set comment="kpoint 40">
       <r>  -16.5391    1.0000 </r>
       <r>  -14.2953    1.0000 </r>
       <r>  -11.7928    1.0000 </r>
       <r>   -8.5507    1.0000 </r>
       <r>   -7.6480    1.0000 </r>
       <r>   -7.2147    1.0000 </r>
       <r>   -5.7691    1.0000 </r>
       <r>   -5.5714    1.0000 </r>
       <r>   -3.7924    1.0000 </r>
       <r>   -2.9475    1.0000 </r>
       <r>   -0.6086    0.0000 </r>
       <r>   -0.5253    0.0000 </r>
       <r>    0.9415    0.0000 </r>
       <r>    1.7383    0.0000 </r>
       <r>    2.7074    0.0000 </r>
       <r>    3.0608    0.0000 </r>
      </set>
      <set comment="kpoint 41">
       <r>  -16.2757    1.0000 </r>
       <r>  -14.0326    1.0000 </r>
       <r>  -12.0366    1.0000 </r>
       <r>   -8.9417    1.0000 </r>
       <r>   -7.8777    1.0000 </r>
       <r>   -7.2776    1.0000 </r>
       <r>   -5.6104    1.0000 </r>
       <r>   -5.5468    1.0000 </r>
       <r>   -3.9670    1.0000 </r>
       <r>   -3.0570    1.0000 </r>
       <r>   -0.7255    0.0000 </r>
       <r>   -0.3979    0.0000 </r>
       <r>    0.4268    0.0000 </r>
       <r>    1.1607    0.0000 </r>
       <r>    2.6268    0.0000 </r>
       <r>    3.1372    0.0000 </r>
      </set>
      <set comment="kpoint 42">
       <r>  -15.9681    1.0000 </r>
       <r>  -13.7417    1.0000 </r>
       <r>  -12.3538    1.0000 </r>
       <r>   -9.4890    1.0000 </r>
       <r>   -7.9593    1.0000 </r>
       <r>   -7.2108    1.0000 </r>
       <r>   -5.4975    1.0000 </r>
       <r>   -5.4506    1.0000 </r>
       <r>   -4.1397    1.0000 </r>
       <r>   -3.2162    1.0000 </r>
       <r>   -0.6987    0.0000 </r>
       <r>   -0.3622    0.0000 </r>
       <r>    0.0938    0.0000 </r>
       <r>    0.5739    0.0000 </r>
       <r>    2.3705    0.0000 </r>
       <r>    2.9272    0.0000 </r>
      </set>
      <set comment="kpoint 43">
       <r>  -15.6190    1.0000 </r>
       <r>  -13.4895    1.0000 </r>
       <r>  -12.6561    1.0000 </r>
       <r>  -10.0879    1.0000 </r>
       <r>   -7.9091    1.0000 </r>
       <r>   -7.1130    1.0000 </r>
       <r>   -5.4903    1.0000 </r>
       <r>   -5.3218    1.0000 </r>
       <r>   -4.2221    1.0000 </r>
       <r>   -3.4032    1.0000 </r>
       <r>   -0.6357    0.0000 </r>
       <r>   -0.5820    0.0000 </r>
       <r>    0.0678    0.0000 </r>
       <r>    0.1828    0.0000 </r>
       <r>    2.0185    0.0000 </r>
       <r>    2.5891    0.0000 </r>
      </set>
      <set comment="kpoint 44">
       <r>  -15.2320    1.0000 </r>
       <r>  -13.5525    1.0000 </r>
       <r>  -12.6376    1.0000 </r>
       <r>  -10.6867    1.0000 </r>
       <r>   -7.7599    1.0000 </r>
       <r>   -7.0705    1.0000 </r>
       <r>   -5.5143    1.0000 </r>
       <r>   -5.2624    1.0000 </r>
       <r>   -4.1737    1.0000 </r>
       <r>   -3.5840    1.0000 </r>
       <r>   -0.9281    0.0000 </r>
       <r>   -0.6269    0.0000 </r>
       <r>   -0.1022    0.0000 </r>
       <r>    0.4150    0.0000 </r>
       <r>    1.6368    0.0000 </r>
       <r>    2.1956    0.0000 </r>
      </set>
      <set comment="kpoint 45">
       <r>  -14.8131    1.0000 </r>
       <r>  -13.9296    1.0000 </r>
       <r>  -12.2738    1.0000 </r>
       <r>  -11.2610    1.0000 </r>
       <r>   -7.5502    1.0000 </r>
       <r>   -7.1444    1.0000 </r>
       <r>   -5.4887    1.0000 </r>
       <r>   -5.2954    1.0000 </r>
       <r>   -4.0414    1.0000 </r>
       <r>   -3.7404    1.0000 </r>
       <r>   -1.0950    0.0000 </r>
       <r>   -0.9064    0.0000 </r>
       <r>    0.1405    0.0000 </r>
       <r>    0.5871    0.0000 </r>
       <r>    1.3619    0.0000 </r>
       <r>    1.7974    0.0000 </r>
      </set>
      <set comment="kpoint 46">
       <r>  -14.3721    1.0000 </r>
       <r>  -14.3721    1.0000 </r>
       <r>  -11.7960    1.0000 </r>
       <r>  -11.7959    1.0000 </r>
       <r>   -7.3252    1.0000 </r>
       <r>   -7.3252    1.0000 </r>
       <r>   -5.3946    1.0000 </r>
       <r>   -5.3946    1.0000 </r>
       <r>   -3.8880    1.0000 </r>
       <r>   -3.8880    1.0000 </r>
       <r>   -1.0880    0.0000 </r>
       <r>   -1.0880    0.0000 </r>
       <r>    0.4478    0.0000 </r>
       <r>    0.4478    0.0000 </r>
       <r>    1.4580    0.0000 </r>
       <r>    1.4580    0.0000 </r>
      </set>
      <set comment="kpoint 47">
       <r>  -14.8131    1.0000 </r>
       <r>  -13.9296    1.0000 </r>
       <r>  -12.2738    1.0000 </r>
       <r>  -11.2610    1.0000 </r>
       <r>   -7.5502    1.0000 </r>
       <r>   -7.1444    1.0000 </r>
       <r>   -5.4887    1.0000 </r>
       <r>   -5.2954    1.0000 </r>
       <r>   -4.0414    1.0000 </r>
       <r>   -3.7404    1.0000 </r>
       <r>   -1.0950    0.0000 </r>
       <r>   -0.9064    0.0000 </r>
       <r>    0.1405    0.0000 </r>
       <r>    0.5871    0.0000 </r>
       <r>    1.3619    0.0000 </r>
       <r>    1.7974    0.0000 </r>
      </set>
      <set comment="kpoint 48">
       <r>  -15.2320    1.0000 </r>
       <r>  -13.5525    1.0000 </r>
       <r>  -12.6376    1.0000 </r>
       <r>  -10.6867    1.0000 </r>
       <r>   -7.7599    1.0000 </r>
[...]
       <r>    3.3395    0.0000 </r>
       <r>    3.3684    0.0000 </r>
      </set>
      <set comment="kpoint 161">
       <r>  -15.4392    1.0000 </r>
       <r>  -15.1928    1.0000 </r>
       <r>  -10.8688    1.0000 </r>
       <r>  -10.5457    1.0000 </r>
       <r>   -7.8752    1.0000 </r>
       <r>   -7.7197    1.0000 </r>
       <r>   -5.2194    1.0000 </r>
       <r>   -4.9848    1.0000 </r>
       <r>   -3.8435    1.0000 </r>
       <r>   -3.7891    1.0000 </r>
       <r>    0.2388    0.0000 </r>
       <r>    0.6012    0.0000 </r>
       <r>    1.1281    0.0000 </r>
       <r>    1.4335    0.0000 </r>
       <r>    3.2603    0.0000 </r>
       <r>    3.3488    0.0000 </r>
      </set>
      <set comment="kpoint 162">
       <r>  -15.6882    1.0000 </r>
       <r>  -15.4379    1.0000 </r>
       <r>  -10.7519    1.0000 </r>
       <r>  -10.4245    1.0000 </r>
       <r>   -7.5150    1.0000 </r>
       <r>   -7.3536    1.0000 </r>
       <r>   -5.1438    1.0000 </r>
       <r>   -4.8562    1.0000 </r>
       <r>   -3.7607    1.0000 </r>
       <r>   -3.6962    1.0000 </r>
       <r>    0.2814    0.0000 </r>
       <r>    0.5508    0.0000 </r>
       <r>    1.2061    0.0000 </r>
       <r>    1.5471    0.0000 </r>
       <r>    2.9126    0.0000 </r>
       <r>    3.1887    0.0000 </r>
      </set>
      <set comment="kpoint 163">
       <r>  -15.8964    1.0000 </r>
       <r>  -15.6440    1.0000 </r>
       <r>  -10.7291    1.0000 </r>
       <r>  -10.4052    1.0000 </r>
       <r>   -6.9908    1.0000 </r>
       <r>   -6.8178    1.0000 </r>
       <r>   -5.1754    1.0000 </r>
       <r>   -4.8541    1.0000 </r>
       <r>   -3.6771    1.0000 </r>
       <r>   -3.4930    1.0000 </r>
       <r>    0.4105    0.0000 </r>
       <r>    0.5668    0.0000 </r>
       <r>    1.1972    0.0000 </r>
       <r>    1.5618    0.0000 </r>
       <r>    2.2977    0.0000 </r>
       <r>    2.5289    0.0000 </r>
      </set>
      <set comment="kpoint 164">
       <r>  -16.0608    1.0000 </r>
       <r>  -15.8071    1.0000 </r>
       <r>  -10.7536    1.0000 </r>
       <r>  -10.4349    1.0000 </r>
       <r>   -6.3708    1.0000 </r>
       <r>   -6.1873    1.0000 </r>
       <r>   -5.2415    1.0000 </r>
       <r>   -4.9059    1.0000 </r>
       <r>   -3.6215    1.0000 </r>
       <r>   -3.3304    1.0000 </r>
       <r>    0.5545    0.0000 </r>
       <r>    0.5979    0.0000 </r>
       <r>    1.1144    0.0000 </r>
       <r>    1.4175    0.0000 </r>
       <r>    1.7312    0.0000 </r>
       <r>    1.8304    0.0000 </r>
      </set>
      <set comment="kpoint 165">
       <r>  -16.1793    1.0000 </r>
       <r>  -15.9249    1.0000 </r>
       <r>  -10.7902    1.0000 </r>
       <r>  -10.4757    1.0000 </r>
       <r>   -5.7280    1.0000 </r>
       <r>   -5.5480    1.0000 </r>
       <r>   -5.2959    1.0000 </r>
       <r>   -4.9629    1.0000 </r>
       <r>   -3.6466    1.0000 </r>
       <r>   -3.2648    1.0000 </r>
       <r>    0.3774    0.0000 </r>
       <r>    0.3885    0.0000 </r>
       <r>    1.1006    0.0000 </r>
       <r>    1.1830    0.0000 </r>
       <r>    1.4880    0.0000 </r>
       <r>    1.5834    0.0000 </r>
      </set>
      <set comment="kpoint 166">
       <r>  -16.2508    1.0000 </r>
       <r>  -15.9961    1.0000 </r>
       <r>  -10.8186    1.0000 </r>
       <r>  -10.5066    1.0000 </r>
       <r>   -5.3602    1.0000 </r>
       <r>   -5.1640    1.0000 </r>
       <r>   -5.0027    1.0000 </r>
       <r>   -4.9719    1.0000 </r>
       <r>   -3.7637    1.0000 </r>
       <r>   -3.3078    1.0000 </r>
       <r>   -0.0374    0.0000 </r>
       <r>   -0.0045    0.0000 </r>
       <r>    1.1670    0.0000 </r>
       <r>    1.2372    0.0000 </r>
       <r>    1.4784    0.0000 </r>
       <r>    1.5274    0.0000 </r>
      </set>
     </set>
    </set>
   </array>
  </eigenvalues>
  <separator name="orbital magnetization" >
   <v name="MAGDIPOLOUT">      0.00000000      0.00000000      0.00000000</v>
  </separator>
  <dos>
   <i name="efermi">     -2.20054523 </i>
   <total>
    <array>
     <dimension dim="1">gridpoints</dimension>
     <dimension dim="2">spin</dimension>
     <field>energy</field>
     <field>total</field>
     <field>integrated</field>
     <set>
      <set comment="spin 1">
       <r>   -18.2692     0.0000     0.0000 </r>
       <r>   -18.1931     0.0000     0.0000 </r>
       <r>   -18.1170     0.0000     0.0000 </r>
       <r>   -18.0409     0.0000     0.0000 </r>
       <r>   -17.9648     0.0000     0.0000 </r>
       <r>   -17.8887     0.0000     0.0000 </r>
       <r>   -17.8126     0.0000     0.0000 </r>
       <r>   -17.7365     0.0000     0.0000 </r>
       <r>   -17.6604     0.0000     0.0000 </r>
       <r>   -17.5842     0.0000     0.0000 </r>
       <r>   -17.5081     0.0000     0.0000 </r>
       <r>   -17.4320     0.0000     0.0000 </r>
       <r>   -17.3559     0.0000     0.0000 </r>
       <r>   -17.2798     0.0000     0.0000 </r>
       <r>   -17.2037     0.3111     0.0237 </r>
       <r>   -17.1276     0.8136     0.0856 </r>
       <r>   -17.0515     0.7345     0.1415 </r>
       <r>   -16.9754     1.0404     0.2207 </r>
       <r>   -16.8993     0.7779     0.2799 </r>
       <r>   -16.8231     0.8345     0.3434 </r>
       <r>   -16.7470     0.9090     0.4126 </r>
       <r>   -16.6709     0.8319     0.4759 </r>
       <r>   -16.5948     1.0327     0.5545 </r>
       <r>   -16.5187     0.6351     0.6029 </r>
       <r>   -16.4426     1.0448     0.6824 </r>
       <r>   -16.3665     0.5593     0.7249 </r>
       <r>   -16.2904     1.2561     0.8205 </r>
       <r>   -16.2143     0.9261     0.8910 </r>
       <r>   -16.1382     0.7794     0.9504 </r>
       <r>   -16.0620     0.6830     1.0023 </r>
       <r>   -15.9859     1.3584     1.1057 </r>
       <r>   -15.9098     0.9316     1.1766 </r>
       <r>   -15.8337     1.0296     1.2550 </r>
       <r>   -15.7576     0.4318     1.2879 </r>
       <r>   -15.6815     1.2095     1.3799 </r>
       <r>   -15.6054     1.4860     1.4930 </r>
       <r>   -15.5293     0.7782     1.5522 </r>
       <r>   -15.4532     0.7873     1.6122 </r>
       <r>   -15.3771     1.5176     1.7277 </r>
       <r>   -15.3009     0.4952     1.7654 </r>
       <r>   -15.2248     1.5427     1.8828 </r>
       <r>   -15.1487     1.4606     1.9939 </r>
       <r>   -15.0726     0.7273     2.0493 </r>
       <r>   -14.9965     1.3432     2.1515 </r>
       <r>   -14.9204     0.9209     2.2216 </r>
       <r>   -14.8443     2.2461     2.3926 </r>
       <r>   -14.7682     1.6011     2.5144 </r>
       <r>   -14.6921     1.3605     2.6180 </r>
       <r>   -14.6160     1.9513     2.7665 </r>
       <r>   -14.5398     0.6911     2.8191 </r>
       <r>   -14.4637     1.0130     2.8962 </r>
       <r>   -14.3876     1.9333     3.0433 </r>
       <r>   -14.3115     1.3429     3.1455 </r>
       <r>   -14.2354     0.9502     3.2178 </r>
       <r>   -14.1593     1.4384     3.3273 </r>
       <r>   -14.0832     1.5457     3.4450 </r>
       <r>   -14.0071     0.7283     3.5004 </r>
       <r>   -13.9310     1.7336     3.6323 </r>
       <r>   -13.8549     1.4680     3.7441 </r>
       <r>   -13.7788     0.3117     3.7678 </r>
       <r>   -13.7026     0.4748     3.8039 </r>
       <r>   -13.6265     0.5093     3.8427 </r>
       <r>   -13.5504     0.5374     3.8836 </r>
       <r>   -13.4743     0.7828     3.9432 </r>
       <r>   -13.3982     0.2688     3.9636 </r>
       <r>   -13.3221     0.0073     3.9642 </r>
       <r>   -13.2460     0.3111     3.9879 </r>
       <r>   -13.1699     0.0530     3.9919 </r>
       <r>   -13.0938     0.1064     4.0000 </r>
       <r>   -13.0177     0.0017     4.0001 </r>
       <r>   -12.9415     0.1574     4.0121 </r>
       <r>   -12.8654     0.0684     4.0173 </r>
       <r>   -12.7893     0.2503     4.0364 </r>
       <r>   -12.7132     0.2974     4.0590 </r>
       <r>   -12.6371     0.6344     4.1073 </r>
       <r>   -12.5610     0.2118     4.1234 </r>
       <r>   -12.4849     0.6823     4.1753 </r>
       <r>   -12.4088     0.4047     4.2061 </r>
       <r>   -12.3327     0.6144     4.2529 </r>
       <r>   -12.2566     1.2317     4.3466 </r>
       <r>   -12.1804     1.2669     4.4431 </r>
       <r>   -12.1043     1.2246     4.5363 </r>
       <r>   -12.0282     1.0036     4.6127 </r>
       <r>   -11.9521     1.0218     4.6904 </r>
       <r>   -11.8760     1.3668     4.7945 </r>
       <r>   -11.7999     1.0208     4.8721 </r>
       <r>   -11.7238     1.4869     4.9853 </r>
       <r>   -11.6477     1.7541     5.1188 </r>
       <r>   -11.5716     1.0809     5.2011 </r>
       <r>   -11.4955     2.7788     5.4126 </r>
       <r>   -11.4193     2.8137     5.6267 </r>
       <r>   -11.3432     1.8577     5.7681 </r>
       <r>   -11.2671     1.0666     5.8493 </r>
       <r>   -11.1910     1.6681     5.9763 </r>
       <r>   -11.1149     1.1093     6.0607 </r>
       <r>   -11.0388     1.2255     6.1540 </r>
       <r>   -10.9627     0.8217     6.2165 </r>
       <r>   -10.8866     0.5556     6.2588 </r>
       <r>   -10.8105     0.8946     6.3269 </r>
       <r>   -10.7344     1.5692     6.4463 </r>
       <r>   -10.6582     0.6377     6.4948 </r>
       <r>   -10.5821     0.7223     6.5498 </r>
       <r>   -10.5060     0.7080     6.6037 </r>
       <r>   -10.4299     1.1374     6.6903 </r>
       <r>   -10.3538     0.8843     6.7576 </r>
       <r>   -10.2777     0.0001     6.7576 </r>
       <r>   -10.2016     0.6176     6.8046 </r>
       <r>   -10.1255     0.8631     6.8703 </r>
       <r>   -10.0494     1.2868     6.9682 </r>
       <r>    -9.9733     0.6461     7.0174 </r>
       <r>    -9.8972     0.3852     7.0467 </r>
       <r>    -9.8210     0.3412     7.0727 </r>
       <r>    -9.7449     0.3124     7.0964 </r>
       <r>    -9.6688     1.2509     7.1917 </r>
       <r>    -9.5927     0.5078     7.2303 </r>
       <r>    -9.5166     0.2169     7.2468 </r>
       <r>    -9.4405     0.4201     7.2788 </r>
       <r>    -9.3644     0.2091     7.2947 </r>
       <r>    -9.2883     1.1672     7.3835 </r>
       <r>    -9.2122     0.9624     7.4568 </r>
       <r>    -9.1361     0.2096     7.4727 </r>
       <r>    -9.0599     0.0000     7.4727 </r>
       <r>    -8.9838     0.0005     7.4728 </r>
       <r>    -8.9077     0.5662     7.5159 </r>
       <r>    -8.8316     0.9080     7.5850 </r>
       <r>    -8.7555     0.7538     7.6423 </r>
       <r>    -8.6794     0.2713     7.6630 </r>
       <r>    -8.6033     0.0483     7.6667 </r>
       <r>    -8.5272     0.3032     7.6897 </r>
       <r>    -8.4511     0.3288     7.7148 </r>
       <r>    -8.3750     1.0295     7.7931 </r>
       <r>    -8.2988     0.0903     7.8000 </r>
       <r>    -8.2227     0.2779     7.8212 </r>
       <r>    -8.1466     0.8742     7.8877 </r>
       <r>    -8.0705     2.0364     8.0427 </r>
       <r>    -7.9944     2.2975     8.2175 </r>
       <r>    -7.9183     2.2553     8.3892 </r>
       <r>    -7.8422     1.9754     8.5395 </r>
       <r>    -7.7661     1.8159     8.6777 </r>
       <r>    -7.6900     2.4416     8.8636 </r>
       <r>    -7.6139     2.6220     9.0631 </r>
       <r>    -7.5377     1.1653     9.1518 </r>
       <r>    -7.4616     1.7498     9.2850 </r>
       <r>    -7.3855     2.0958     9.4445 </r>
       <r>    -7.3094     3.1108     9.6813 </r>
       <r>    -7.2333     3.5039     9.9480 </r>
       <r>    -7.1572     3.5492    10.2181 </r>
       <r>    -7.0811     3.2160    10.4629 </r>
       <r>    -7.0050     2.1416    10.6258 </r>
       <r>    -6.9289     1.1205    10.7111 </r>
       <r>    -6.8528     0.8386    10.7750 </r>
       <r>    -6.7766     1.6261    10.8987 </r>
       <r>    -6.7005     1.4792    11.0113 </r>
       <r>    -6.6244     2.2196    11.1802 </r>
       <r>    -6.5483     1.4675    11.2919 </r>
       <r>    -6.4722     1.7926    11.4284 </r>
       <r>    -6.3961     1.2551    11.5239 </r>
       <r>    -6.3200     1.3783    11.6288 </r>
       <r>    -6.2439     1.7548    11.7623 </r>
       <r>    -6.1678     1.7738    11.8973 </r>
       <r>    -6.0917     1.3982    12.0038 </r>
       <r>    -6.0155     1.7278    12.1353 </r>
       <r>    -5.9394     2.3169    12.3116 </r>
       <r>    -5.8633     1.7161    12.4422 </r>
       <r>    -5.7872     1.4091    12.5495 </r>
       <r>    -5.7111     2.5098    12.7405 </r>
       <r>    -5.6350     4.0737    13.0505 </r>
       <r>    -5.5589     3.4029    13.3095 </r>
       <r>    -5.4828     3.8253    13.6007 </r>
       <r>    -5.4067     4.3910    13.9349 </r>
       <r>    -5.3306     2.5430    14.1284 </r>
       <r>    -5.2545     3.7338    14.4126 </r>
       <r>    -5.1783     2.7804    14.6242 </r>
       <r>    -5.1022     3.2955    14.8750 </r>
       <r>    -5.0261     1.3941    14.9811 </r>
       <r>    -4.9500     2.9672    15.2070 </r>
       <r>    -4.8739     1.4621    15.3182 </r>
       <r>    -4.7978     1.2099    15.4103 </r>
       <r>    -4.7217     1.0662    15.4915 </r>
       <r>    -4.6456     0.5556    15.5338 </r>
       <r>    -4.5695     2.3448    15.7122 </r>
       <r>    -4.4934     1.5117    15.8273 </r>
       <r>    -4.4172     0.4244    15.8596 </r>
       <r>    -4.3411     0.7868    15.9195 </r>
       <r>    -4.2650     1.2150    16.0119 </r>
       <r>    -4.1889     2.2437    16.1827 </r>
       <r>    -4.1128     2.8209    16.3974 </r>
       <r>    -4.0367     2.1628    16.5620 </r>
       <r>    -3.9606     3.0079    16.7909 </r>
       <r>    -3.8845     2.7072    16.9970 </r>
       <r>    -3.8084     3.4854    17.2623 </r>
       <r>    -3.7323     4.5663    17.6098 </r>
       <r>    -3.6561     4.0184    17.9156 </r>
       <r>    -3.5800     3.4098    18.1752 </r>
       <r>    -3.5039     2.2831    18.3489 </r>
       <r>    -3.4278     2.6781    18.5528 </r>
       <r>    -3.3517     4.6639    18.9077 </r>
       <r>    -3.2756     3.8800    19.2030 </r>
       <r>    -3.1995     1.7669    19.3375 </r>
       <r>    -3.1234     0.7650    19.3957 </r>
       <r>    -3.0473     0.9591    19.4687 </r>
       <r>    -2.9712     1.4267    19.5773 </r>
       <r>    -2.8950     1.0121    19.6543 </r>
       <r>    -2.8189     1.8381    19.7942 </r>
       <r>    -2.7428     0.0776    19.8001 </r>
       <r>    -2.6667     0.3159    19.8242 </r>
       <r>    -2.5906     0.3081    19.8476 </r>
       <r>    -2.5145     0.5405    19.8888 </r>
       <r>    -2.4384     0.8985    19.9572 </r>
       <r>    -2.3623     0.1148    19.9659 </r>
       <r>    -2.2862     0.4207    19.9979 </r>
       <r>    -2.2101     0.0272    20.0000 </r>
       <r>    -2.1339     0.0000    20.0000 </r>
       <r>    -2.0578     0.0000    20.0000 </r>
       <r>    -1.9817     0.0000    20.0000 </r>
       <r>    -1.9056     0.0000    20.0000 </r>
       <r>    -1.8295     0.0000    20.0000 </r>
       <r>    -1.7534     0.0000    20.0000 </r>
       <r>    -1.6773     0.0000    20.0000 </r>
       <r>    -1.6012     0.0000    20.0000 </r>
       <r>    -1.5251     0.0000    20.0000 </r>
       <r>    -1.4490     0.0000    20.0000 </r>
       <r>    -1.3729     0.0858    20.0065 </r>
       <r>    -1.2967     0.2056    20.0222 </r>
       <r>    -1.2206     0.1153    20.0309 </r>
       <r>    -1.1445     0.7908    20.0911 </r>
       <r>    -1.0684     1.5264    20.2073 </r>
       <r>    -0.9923     2.2831    20.3811 </r>
       <r>    -0.9162     1.3483    20.4837 </r>
       <r>    -0.8401     1.2708    20.5804 </r>
       <r>    -0.7640     2.3972    20.7629 </r>
       <r>    -0.6879     2.2013    20.9304 </r>
       <r>    -0.6118     1.6690    21.0574 </r>
       <r>    -0.5356     1.7771    21.1927 </r>
       <r>    -0.4595     2.4925    21.3824 </r>
       <r>    -0.3834     3.0678    21.6159 </r>
       <r>    -0.3073     2.1322    21.7782 </r>
       <r>    -0.2312     2.4042    21.9612 </r>
       <r>    -0.1551     2.7293    22.1689 </r>
       <r>    -0.0790     3.4163    22.4289 </r>
       <r>    -0.0029     2.3646    22.6089 </r>
       <r>     0.0732     3.0477    22.8408 </r>
       <r>     0.1493     3.2288    23.0866 </r>
       <r>     0.2255     4.2456    23.4097 </r>
       <r>     0.3016     3.1690    23.6509 </r>
       <r>     0.3777     3.3972    23.9094 </r>
       <r>     0.4538     6.8005    24.4270 </r>
       <r>     0.5299     2.8452    24.6436 </r>
       <r>     0.6060     5.3629    25.0517 </r>
       <r>     0.6821     3.0262    25.2821 </r>
       <r>     0.7582     1.9985    25.4342 </r>
       <r>     0.8343     4.3311    25.7638 </r>
       <r>     0.9104     3.7446    26.0488 </r>
       <r>     0.9866     3.3186    26.3014 </r>
       <r>     1.0627     2.4497    26.4878 </r>
       <r>     1.1388     3.7034    26.7697 </r>
       <r>     1.2149     3.1241    27.0075 </r>
       <r>     1.2910     1.6535    27.1333 </r>
       <r>     1.3671     1.8856    27.2768 </r>
       <r>     1.4432     2.4640    27.4644 </r>
       <r>     1.5193     3.0757    27.6985 </r>
       <r>     1.5954     2.2130    27.8669 </r>
       <r>     1.6715     1.7046    27.9966 </r>
       <r>     1.7477     1.8236    28.1354 </r>
       <r>     1.8238     2.8831    28.3549 </r>
       <r>     1.8999     3.0293    28.5854 </r>
       <r>     1.9760     1.4313    28.6944 </r>
       <r>     2.0521     2.2445    28.8652 </r>
       <r>     2.1282     2.3326    29.0427 </r>
       <r>     2.2043     2.7443    29.2516 </r>
       <r>     2.2804     2.2076    29.4196 </r>
       <r>     2.3565     3.2897    29.6700 </r>
       <r>     2.4326     3.0918    29.9053 </r>
       <r>     2.5087     1.6928    30.0342 </r>
       <r>     2.5849     3.2495    30.2815 </r>
       <r>     2.6610     4.1886    30.6003 </r>
       <r>     2.7371     2.6527    30.8022 </r>
       <r>     2.8132     2.0027    30.9546 </r>
       <r>     2.8893     1.0901    31.0375 </r>
       <r>     2.9654     2.3828    31.2189 </r>
       <r>     3.0415     2.0692    31.3764 </r>
       <r>     3.1176     1.7422    31.5090 </r>
       <r>     3.1937     1.3092    31.6086 </r>
       <r>     3.2698     1.9962    31.7606 </r>
       <r>     3.3460     1.2577    31.8563 </r>
       <r>     3.4221     0.9033    31.9250 </r>
       <r>     3.4982     0.6687    31.9759 </r>
       <r>     3.5743     0.3161    32.0000 </r>
       <r>     3.6504     0.0001    32.0000 </r>
       <r>     3.7265     0.0000    32.0000 </r>
       <r>     3.8026     0.0000    32.0000 </r>
       <r>     3.8787     0.0000    32.0000 </r>
       <r>     3.9548     0.0000    32.0000 </r>
       <r>     4.0309     0.0000    32.0000 </r>
       <r>     4.1071     0.0000    32.0000 </r>
       <r>     4.1832     0.0000    32.0000 </r>
       <r>     4.2593     0.0000    32.0000 </r>
       <r>     4.3354     0.0000    32.0000 </r>
       <r>     4.4115     0.0000    32.0000 </r>
       <r>     4.4876     0.0000    32.0000 </r>
       <r>     4.5637     0.0000    32.0000 </r>
      </set>
     </set>
    </array>
   </total>
  </dos>
 </calculation>
 <structure name="finalpos" >
  <crystal>
   <varray name="basis" >
    <v>       3.29720400       0.00000000       0.00000000 </v>
    <v>       0.00000000       4.64641000      -0.00005300 </v>
    <v>       0.00000000       0.00000000      20.02439000 </v>
   </varray>
   <i name="volume">    306.77689150 </i>
   <varray name="rec_basis" >
    <v>       0.30328727       0.00000000       0.00000000 </v>
    <v>       0.00000000       0.21521992       0.00000000 </v>
    <v>       0.00000000       0.00000057       0.04993910 </v>
   </varray>
  </crystal>
  <varray name="positions" >
   <v>       0.50000000       0.91006271       0.55245632 </v>
   <v>       0.50000000       0.08993729       0.44754368 </v>
   <v>       0.00000000       0.41005821       0.44754369 </v>
   <v>      -0.00000000       0.58994179       0.55245631 </v>
  </varray>
 </structure>
</modeling>
