<?xml version="1.0" encoding="ISO-8859-1"?>
<modeling>
 <generator>
  <i name="program" type="string">vasp </i>
  <i name="version" type="string">5.4.1  </i>
  <i name="subversion" type="string">24Jun15 (build Nov 20 2020 10:29:34) complex                          parallel </i>
  <i name="platform" type="string">IFC91_ompi </i>
  <i name="date" type="string">2021 09 09 </i>
  <i name="time" type="string">14:57:05 </i>
 </generator>
 <incar>
  <i type="string" name="PREC">a</i>
  <i type="string" name="ALGO"> Normal</i>
  <i type="int" name="ISPIN">     1</i>
  <i type="int" name="ICHARG">     2</i>
  <i type="int" name="NELM">   250</i>
  <i type="int" name="NELMDL">    -5</i>
  <i type="int" name="NELMIN">     6</i>
  <i type="int" name="IBRION">     2</i>
  <i name="EDIFF">      0.00001000</i>
  <i name="EDIFFG">     -0.01000000</i>
  <i type="int" name="NSW">   200</i>
  <i type="int" name="ISIF">     2</i>
  <i name="ENCUT">    520.00000000</i>
  <i name="POTIM">      0.30000000</i>
  <i type="logical" name="LREAL"> F  </i>
  <i type="int" name="ISMEAR">     0</i>
  <i name="SIGMA">      0.02000000</i>
  <i type="logical" name="LWAVE"> F  </i>
  <i type="logical" name="LCHARG"> F  </i>
  <i type="logical" name="LAECHG"> F  </i>
  <v type="int" name="KPOINT_BSE">    -1     0     0     0</v>
  <i type="int" name="NELM">   250</i>
 </incar>
 <kpoints>
  <generation param="Gamma">
   <v type="int" name="divisions">      15       13        1 </v>
   <v name="usershift">      0.00000000       0.00000000       0.00000000 </v>
   <v name="genvec1">      0.06666667       0.00000000       0.00000000 </v>
   <v name="genvec2">      0.00000000       0.07692308       0.00000000 </v>
   <v name="genvec3">      0.00000000       0.00000000       1.00000000 </v>
   <v name="shift">      0.00000000       0.00000000       0.00000000 </v>
  </generation>
  <varray name="kpointlist" >
   <v>       0.00000000       0.00000000       0.00000000 </v>
   <v>       0.06666667       0.00000000       0.00000000 </v>
   <v>       0.13333333       0.00000000       0.00000000 </v>
   <v>       0.20000000       0.00000000       0.00000000 </v>
   <v>       0.26666667       0.00000000       0.00000000 </v>
   <v>       0.33333333       0.00000000       0.00000000 </v>
   <v>       0.40000000       0.00000000       0.00000000 </v>
   <v>       0.46666667       0.00000000       0.00000000 </v>
   <v>       0.00000000       0.07692308       0.00000000 </v>
   <v>       0.06666667       0.07692308       0.00000000 </v>
   <v>       0.13333333       0.07692308       0.00000000 </v>
   <v>       0.20000000       0.07692308       0.00000000 </v>
   <v>       0.26666667       0.07692308       0.00000000 </v>
   <v>       0.33333333       0.07692308       0.00000000 </v>
   <v>       0.40000000       0.07692308       0.00000000 </v>
   <v>       0.46666667       0.07692308       0.00000000 </v>
   <v>       0.00000000       0.15384615       0.00000000 </v>
   <v>       0.06666667       0.15384615       0.00000000 </v>
   <v>       0.13333333       0.15384615       0.00000000 </v>
   <v>       0.20000000       0.15384615       0.00000000 </v>
   <v>       0.26666667       0.15384615       0.00000000 </v>
   <v>       0.33333333       0.15384615       0.00000000 </v>
   <v>       0.40000000       0.15384615       0.00000000 </v>
   <v>       0.46666667       0.15384615       0.00000000 </v>
   <v>       0.00000000       0.23076923       0.00000000 </v>
   <v>       0.06666667       0.23076923       0.00000000 </v>
   <v>       0.13333333       0.23076923       0.00000000 </v>
   <v>       0.20000000       0.23076923       0.00000000 </v>
   <v>       0.26666667       0.23076923       0.00000000 </v>
   <v>       0.33333333       0.23076923       0.00000000 </v>
   <v>       0.40000000       0.23076923       0.00000000 </v>
   <v>       0.46666667       0.23076923       0.00000000 </v>
   <v>       0.00000000       0.30769231       0.00000000 </v>
   <v>       0.06666667       0.30769231       0.00000000 </v>
   <v>       0.13333333       0.30769231       0.00000000 </v>
   <v>       0.20000000       0.30769231       0.00000000 </v>
   <v>       0.26666667       0.30769231       0.00000000 </v>
   <v>       0.33333333       0.30769231       0.00000000 </v>
   <v>       0.40000000       0.30769231       0.00000000 </v>
   <v>       0.46666667       0.30769231       0.00000000 </v>
   <v>       0.00000000       0.38461538       0.00000000 </v>
   <v>       0.06666667       0.38461538       0.00000000 </v>
   <v>       0.13333333       0.38461538       0.00000000 </v>
   <v>       0.20000000       0.38461538       0.00000000 </v>
   <v>       0.26666667       0.38461538       0.00000000 </v>
   <v>       0.33333333       0.38461538       0.00000000 </v>
   <v>       0.40000000       0.38461538       0.00000000 </v>
   <v>       0.46666667       0.38461538       0.00000000 </v>
   <v>       0.00000000       0.46153846       0.00000000 </v>
   <v>       0.06666667       0.46153846       0.00000000 </v>
   <v>       0.13333333       0.46153846       0.00000000 </v>
   <v>       0.20000000       0.46153846       0.00000000 </v>
   <v>       0.26666667       0.46153846       0.00000000 </v>
   <v>       0.33333333       0.46153846       0.00000000 </v>
   <v>       0.40000000       0.46153846       0.00000000 </v>
   <v>       0.46666667       0.46153846       0.00000000 </v>
  </varray>
  <varray name="weights" >
   <v>       0.00512821 </v>
   <v>       0.01025641 </v>
   <v>       0.01025641 </v>
   <v>       0.01025641 </v>
   <v>       0.01025641 </v>
   <v>       0.01025641 </v>
   <v>       0.01025641 </v>
   <v>       0.01025641 </v>
   <v>       0.01025641 </v>
   <v>       0.02051282 </v>
   <v>       0.02051282 </v>
   <v>       0.02051282 </v>
   <v>       0.02051282 </v>
   <v>       0.02051282 </v>
   <v>       0.02051282 </v>
   <v>       0.02051282 </v>
   <v>       0.01025641 </v>
   <v>       0.02051282 </v>
   <v>       0.02051282 </v>
   <v>       0.02051282 </v>
   <v>       0.02051282 </v>
   <v>       0.02051282 </v>
   <v>       0.02051282 </v>
   <v>       0.02051282 </v>
   <v>       0.01025641 </v>
   <v>       0.02051282 </v>
   <v>       0.02051282 </v>
   <v>       0.02051282 </v>
   <v>       0.02051282 </v>
   <v>       0.02051282 </v>
   <v>       0.02051282 </v>
   <v>       0.02051282 </v>
   <v>       0.01025641 </v>
   <v>       0.02051282 </v>
   <v>       0.02051282 </v>
   <v>       0.02051282 </v>
   <v>       0.02051282 </v>
   <v>       0.02051282 </v>
   <v>       0.02051282 </v>
   <v>       0.02051282 </v>
   <v>       0.01025641 </v>
   <v>       0.02051282 </v>
   <v>       0.02051282 </v>
   <v>       0.02051282 </v>
   <v>       0.02051282 </v>
   <v>       0.02051282 </v>
   <v>       0.02051282 </v>
   <v>       0.02051282 </v>
   <v>       0.01025641 </v>
   <v>       0.02051282 </v>
   <v>       0.02051282 </v>
   <v>       0.02051282 </v>
   <v>       0.02051282 </v>
   <v>       0.02051282 </v>
   <v>       0.02051282 </v>
   <v>       0.02051282 </v>
  </varray>
 </kpoints>
 <parameters>
  <separator name="general" >
   <i type="string" name="SYSTEM">unknown system</i>
   <i type="logical" name="LCOMPAT"> F  </i>
  </separator>
  <separator name="electronic" >
   <i type="string" name="PREC">a</i>
   <i name="ENMAX">    520.00000000</i>
   <i name="ENAUG">    531.35600000</i>
   <i name="EDIFF">      0.00001000</i>
   <i type="int" name="IALGO">    38</i>
   <i type="int" name="IWAVPR">    11</i>
   <i type="int" name="NBANDS">    32</i>
   <i name="NELECT">     52.00000000</i>
   <i type="int" name="TURBO">     0</i>
   <i type="int" name="IRESTART">     0</i>
   <i type="int" name="NREBOOT">     0</i>
   <i type="int" name="NMIN">     0</i>
   <i name="EREF">      0.00000000</i>
   <separator name="electronic smearing" >
    <i type="int" name="ISMEAR">     0</i>
    <i name="SIGMA">      0.02000000</i>
    <i name="KSPACING">      0.50000000</i>
    <i type="logical" name="KGAMMA"> T  </i>
   </separator>
   <separator name="electronic projectors" >
    <i type="logical" name="LREAL"> F  </i>
    <v name="ROPT">      0.00000000      0.00000000</v>
    <i type="int" name="LMAXPAW">  -100</i>
    <i type="int" name="LMAXMIX">     2</i>
    <i type="logical" name="NLSPLINE"> F  </i>
   </separator>
   <separator name="electronic startup" >
    <i type="int" name="ISTART">     0</i>
    <i type="int" name="ICHARG">     2</i>
    <i type="int" name="INIWAV">     1</i>
   </separator>
   <separator name="electronic spin" >
    <i type="int" name="ISPIN">     1</i>
    <i type="logical" name="LNONCOLLINEAR"> F  </i>
    <v name="MAGMOM">      1.00000000      1.00000000      1.00000000      1.00000000      1.00000000      1.00000000</v>
    <i name="NUPDOWN">     -1.00000000</i>
    <i type="logical" name="LSORBIT"> F  </i>
    <v name="SAXIS">      0.00000000      0.00000000      1.00000000</v>
    <i type="logical" name="LSPIRAL"> F  </i>
    <v name="QSPIRAL">      0.00000000      0.00000000      0.00000000</v>
    <i type="logical" name="LZEROZ"> F  </i>
   </separator>
   <separator name="electronic exchange-correlation" >
    <i type="logical" name="LASPH"> F  </i>
    <i type="logical" name="LMETAGGA"> F  </i>
   </separator>
   <separator name="electronic convergence" >
    <i type="int" name="NELM">   250</i>
    <i type="int" name="NELMDL">    -5</i>
    <i type="int" name="NELMIN">     6</i>
    <i name="ENINI">    520.00000000</i>
    <separator name="electronic convergence detail" >
     <i type="logical" name="LDIAG"> T  </i>
     <i type="logical" name="LSUBROT"> F  </i>
     <i name="WEIMIN">      0.00100000</i>
     <i name="EBREAK">      0.00000008</i>
     <i name="DEPER">      0.30000000</i>
     <i type="int" name="NRMM">     4</i>
     <i name="TIME">      0.40000000</i>
    </separator>
   </separator>
   <separator name="electronic mixer" >
    <i name="AMIX">      0.40000000</i>
    <i name="BMIX">      1.00000000</i>
    <i name="AMIN">      0.10000000</i>
    <i name="AMIX_MAG">      1.60000000</i>
    <i name="BMIX_MAG">      1.00000000</i>
    <separator name="electronic mixer details" >
     <i type="int" name="IMIX">     4</i>
     <i type="logical" name="MIXFIRST"> F  </i>
     <i type="int" name="MAXMIX">   -45</i>
     <i name="WC">    100.00000000</i>
     <i type="int" name="INIMIX">     1</i>
     <i type="int" name="MIXPRE">     1</i>
     <i type="int" name="MREMOVE">     5</i>
    </separator>
   </separator>
   <separator name="electronic dipolcorrection" >
    <i type="logical" name="LDIPOL"> F  </i>
    <i type="logical" name="LMONO"> F  </i>
    <i type="int" name="IDIPOL">     0</i>
    <i name="EPSILON">      1.00000000</i>
    <v name="DIPOL">   -100.00000000   -100.00000000   -100.00000000</v>
    <i name="EFIELD">      0.00000000</i>
   </separator>
  </separator>
  <separator name="grids" >
   <i type="int" name="NGX">    36</i>
   <i type="int" name="NGY">    42</i>
   <i type="int" name="NGZ">   140</i>
   <i type="int" name="NGXF">    72</i>
   <i type="int" name="NGYF">    84</i>
   <i type="int" name="NGZF">   280</i>
   <i type="logical" name="ADDGRID"> F  </i>
  </separator>
  <separator name="ionic" >
   <i type="int" name="NSW">   200</i>
   <i type="int" name="IBRION">     2</i>
   <i type="int" name="ISIF">     2</i>
   <i name="PSTRESS">      0.00000000</i>
   <i name="EDIFFG">     -0.01000000</i>
   <i type="int" name="NFREE">     1</i>
   <i name="POTIM">      0.30000000</i>
   <i name="SMASS">     -3.00000000</i>
   <i name="SCALEE">      1.00000000</i>
  </separator>
  <separator name="ionic md" >
   <i name="TEBEG">      0.00010000</i>
   <i name="TEEND">      0.00010000</i>
   <i type="int" name="NBLOCK">     1</i>
   <i type="int" name="KBLOCK">   200</i>
   <i type="int" name="NPACO">   256</i>
   <i name="APACO">     16.00000000</i>
  </separator>
  <separator name="symmetry" >
   <i type="int" name="ISYM">     2</i>
   <i name="SYMPREC">      0.00001000</i>
  </separator>
  <separator name="dos" >
   <i type="logical" name="LORBIT"> F  </i>
   <v name="RWIGS">     -1.00000000     -1.00000000</v>
   <i type="int" name="NEDOS">   301</i>
   <i name="EMIN">     10.00000000</i>
   <i name="EMAX">    -10.00000000</i>
   <i name="EFERMI">      0.00000000</i>
  </separator>
  <separator name="writing" >
   <i type="int" name="NWRITE">     2</i>
   <i type="logical" name="LWAVE"> F  </i>
   <i type="logical" name="LCHARG"> F  </i>
   <i type="logical" name="LPARD"> F  </i>
   <i type="logical" name="LVTOT"> F  </i>
   <i type="logical" name="LVHAR"> F  </i>
   <i type="logical" name="LELF"> F  </i>
   <i type="logical" name="LOPTICS"> F  </i>
   <v name="STM">      0.00000000      0.00000000      0.00000000      0.00000000      0.00000000      0.00000000      0.00000000</v>
  </separator>
  <separator name="performance" >
   <i type="int" name="NPAR">     4</i>
   <i type="int" name="NSIM">     4</i>
   <i type="int" name="NBLK">    -1</i>
   <i type="logical" name="LPLANE"> T  </i>
   <i type="logical" name="LSCALAPACK"> T  </i>
   <i type="logical" name="LSCAAWARE"> F  </i>
   <i type="logical" name="LSCALU"> F  </i>
   <i type="logical" name="LASYNC"> F  </i>
   <i type="logical" name="LORBITALREAL"> F  </i>
  </separator>
  <separator name="miscellaneous" >
   <i type="int" name="IDIOT">     3</i>
   <i type="logical" name="LMUSIC"> F  </i>
   <v name="POMASS">     72.61000000     78.96000000</v>
   <v name="DARWINR">      0.00000000      0.00000000</v>
   <v name="DARWINV">      1.00000000      1.00000000</v>
   <i type="logical" name="LCORR"> T  </i>
  </separator>
  <i type="logical" name="GGA_COMPAT"> T  </i>
  <i type="logical" name="LBERRY"> F  </i>
  <i type="int" name="ICORELEVEL">     0</i>
  <i type="logical" name="LDAU"> F  </i>
  <i type="int" name="I_CONSTRAINED_M">     0</i>
  <separator name="electronic exchange-correlation" >
   <i type="string" name="GGA">--</i>
   <i type="int" name="VOSKOWN">     0</i>
   <i type="logical" name="LHFCALC"> F  </i>
   <i type="string" name="PRECFOCK"></i>
   <i type="logical" name="LSYMGRAD"> F  </i>
   <i type="logical" name="LHFONE"> F  </i>
   <i type="logical" name="LRHFCALC"> F  </i>
   <i type="logical" name="LTHOMAS"> F  </i>
   <i type="logical" name="LMODELHF"> F  </i>
   <i name="ENCUT4O">     -1.00000000</i>
   <i type="int" name="EXXOEP">     0</i>
   <i type="int" name="FOURORBIT">     0</i>
   <i name="AEXX">      0.00000000</i>
   <i name="HFALPHA">      0.00000000</i>
   <i name="MCALPHA">      0.00000000</i>
   <i name="ALDAX">      1.00000000</i>
   <i name="AGGAX">      1.00000000</i>
   <i name="ALDAC">      1.00000000</i>
   <i name="AGGAC">      1.00000000</i>
   <i type="int" name="NKREDX">     1</i>
   <i type="int" name="NKREDY">     1</i>
   <i type="int" name="NKREDZ">     1</i>
   <i type="logical" name="SHIFTRED"> F  </i>
   <i type="logical" name="ODDONLY"> F  </i>
   <i type="logical" name="EVENONLY"> F  </i>
   <i type="int" name="LMAXFOCK">     0</i>
   <i type="int" name="NMAXFOCKAE">     0</i>
   <i type="logical" name="LFOCKAEDFT"> F  </i>
   <i name="HFSCREEN">      0.00000000</i>
   <i name="HFSCREENC">      0.00000000</i>
   <i type="int" name="NBANDSGWLOW">     0</i>
  </separator>
  <separator name="vdW DFT" >
   <i type="logical" name="LUSE_VDW"> F  </i>
   <i name="Zab_VDW">     -0.84910000</i>
   <i name="PARAM1">      0.12340000</i>
   <i name="PARAM2">      1.00000000</i>
   <i name="PARAM3">      0.00000000</i>
  </separator>
  <separator name="model GW" >
   <i type="int" name="MODEL_GW">     0</i>
   <i name="MODEL_EPS0">     48.41726649</i>
   <i name="MODEL_ALPHA">      1.00000000</i>
  </separator>
  <separator name="linear response parameters" >
   <i type="logical" name="LEPSILON"> F  </i>
   <i type="logical" name="LRPA"> F  </i>
   <i type="logical" name="LNABLA"> F  </i>
   <i type="logical" name="LVEL"> F  </i>
   <i type="int" name="KINTER">     0</i>
   <i name="CSHIFT">      0.10000000</i>
   <i name="OMEGAMAX">     -1.00000000</i>
   <i name="DEG_THRESHOLD">      0.00200000</i>
  </separator>
  <separator name="orbital magnetization" >
   <i type="logical" name="NUCIND"> F  </i>
   <v name="MAGPOS">      0.00000000      0.00000000      0.00000000</v>
   <i type="logical" name="LNICSALL"> T  </i>
   <i type="logical" name="ORBITALMAG"> F  </i>
   <i type="logical" name="LMAGBLOCH"> F  </i>
   <i type="logical" name="LCHIMAG"> F  </i>
   <i type="logical" name="LGAUGE"> T  </i>
   <i type="int" name="MAGATOM">     0</i>
   <v name="MAGDIPOL">      0.00000000      0.00000000      0.00000000</v>
   <v name="AVECCONST">      0.00000000      0.00000000      0.00000000</v>
  </separator>
  <separator name="response functions" >
   <i type="logical" name="LADDER"> F  </i>
   <i type="logical" name="LFXC"> F  </i>
   <i type="logical" name="LHARTREE"> T  </i>
   <i type="int" name="IBSE">     0</i>
   <v type="int" name="KPOINT">    -1     0     0     0</v>
   <i type="logical" name="LTCTE"> F  </i>
   <i type="logical" name="LTETE"> F  </i>
   <i type="logical" name="LTRIPLET"> F  </i>
   <i type="logical" name="LFXCEPS"> F  </i>
   <i type="logical" name="LFXHEG"> F  </i>
   <i type="int" name="NATURALO">     0</i>
   <i type="logical" name="L2ORDER"> F  </i>
   <i type="logical" name="LUSEW"> F  </i>
   <i name="ENCUTGW">     -2.00000000</i>
   <i name="ENCUTGWSOFT">     -2.00000000</i>
   <i name="ENCUTLF">     -1.00000000</i>
   <i type="int" name="LMAXMP2">    -1</i>
   <i name="SCISSOR">      0.00000000</i>
   <i type="int" name="NOMEGA">     0</i>
   <i type="int" name="NOMEGAR">     0</i>
   <i type="int" name="NBANDSGW">    -1</i>
   <i type="int" name="NBANDSO">    -1</i>
   <i type="int" name="NBANDSV">    -1</i>
   <i type="int" name="NELM">   250</i>
   <i type="int" name="NELMHF">     1</i>
   <i type="int" name="DIM">     3</i>
   <i type="int" name="ANTIRES">     0</i>
   <i name="OMEGAMAX">    -30.00000000</i>
   <i name="OMEGAMIN">    -30.00000000</i>
   <i name="OMEGATL">   -200.00000000</i>
   <i type="int" name="OMEGAGRID">     0</i>
   <i name="CSHIFT">     -0.10000000</i>
   <i type="logical" name="SELFENERGY"> F  </i>
   <i type="logical" name="LSPECTRAL"> F  </i>
   <i type="logical" name="LSPECTRALGW"> F  </i>
   <i type="logical" name="LSINGLES"> F  </i>
   <i type="logical" name="LFERMIGW"> F  </i>
   <i type="logical" name="ODDONLYGW"> F  </i>
   <i type="logical" name="EVENONLYGW"> F  </i>
   <i type="int" name="NKREDLFX">     1</i>
   <i type="int" name="NKREDLFY">     1</i>
   <i type="int" name="NKREDLFZ">     1</i>
   <i type="int" name="MAXMEM">  1800</i>
   <i type="int" name="TELESCOPE">     0</i>
   <i type="int" name="TAUPAR">     1</i>
   <i type="int" name="OMEGAPAR">    -1</i>
   <i name="LAMBDA">      1.00000000</i>
  </separator>
  <separator name="External order field" >
   <i name="OFIELD_KAPPA">      0.00000000</i>
   <v name="OFIELD_K">      0.00000000      0.00000000      0.00000000</v>
   <i name="OFIELD_Q6_NEAR">      0.00000000</i>
   <i name="OFIELD_Q6_FAR">      0.00000000</i>
   <i name="OFIELD_A">      0.00000000</i>
  </separator>
 </parameters>
 <atominfo>
  <atoms>       6 </atoms>
  <types>       2 </types>
  <array name="atoms" >
   <dimension dim="1">ion</dimension>
   <field type="string">element</field>
   <field type="int">atomtype</field>
   <set>
    <rc><c>Ge</c><c>   1</c></rc>
    <rc><c>Ge</c><c>   1</c></rc>
    <rc><c>Se</c><c>   2</c></rc>
    <rc><c>Se</c><c>   2</c></rc>
    <rc><c>Se</c><c>   2</c></rc>
    <rc><c>Se</c><c>   2</c></rc>
   </set>
  </array>
  <array name="atomtypes" >
   <dimension dim="1">type</dimension>
   <field type="int">atomspertype</field>
   <field type="string">element</field>
   <field>mass</field>
   <field>valence</field>
   <field type="string">pseudopotential</field>
   <set>
    <rc><c>   2</c><c>Ge</c><c>     72.61000000</c><c>     14.00000000</c><c>  PAW_PBE Ge_d 03Jul2007                </c></rc>
    <rc><c>   4</c><c>Se</c><c>     78.96000000</c><c>      6.00000000</c><c>  PAW_PBE Se 06Sep2000                  </c></rc>
   </set>
  </array>
 </atominfo>
 <structure name="initialpos" >
  <crystal>
   <varray name="basis" >
    <v>       4.80695400       0.00000000       0.00000000 </v>
    <v>       0.00000000       5.57120200       0.00000000 </v>
    <v>       0.00000000       0.00000000      18.07929100 </v>
   </varray>
   <i name="volume">    484.17266485 </i>
   <varray name="rec_basis" >
    <v>       0.20803195       0.00000000       0.00000000 </v>
    <v>       0.00000000       0.17949448       0.00000000 </v>
    <v>       0.00000000       0.00000000       0.05531190 </v>
   </varray>
  </crystal>
  <varray name="positions" >
   <v>       0.50000000       0.50000000       0.50000000 </v>
   <v>       0.00000000       0.00000000       0.50000000 </v>
   <v>       0.25000000       0.25000000       0.41502600 </v>
   <v>       0.75000000       0.75000000       0.41502600 </v>
   <v>       0.75000000       0.25000000       0.58497400 </v>
   <v>       0.25000000       0.75000000       0.58497400 </v>
  </varray>
 </structure>
 <calculation>
  <scstep>
   <time name="dav">    1.61    1.62</time>
   <time name="total">    1.65    1.65</time>
   <energy>
    <i name="alphaZ">     47.44389576 </i>
    <i name="ewald">   5128.86989723 </i>
    <i name="hartreedc">  -9918.13210083 </i>
    <i name="XCdc">    142.66033899 </i>
    <i name="pawpsdc">   4514.43351212 </i>
    <i name="pawaedc">  -5329.26418529 </i>
    <i name="eentropy">     -0.00042451 </i>
    <i name="bandstr">   -362.65133968 </i>
    <i name="atom">   6220.98622430 </i>
    <i name="e_fr_energy">    444.34581809 </i>
    <i name="e_wo_entrp">    444.34624260 </i>
    <i name="e_0_energy">    444.34603035 </i>
   </energy>
  </scstep>
  <scstep>
   <time name="dav">    1.71    1.71</time>
   <time name="total">    1.71    1.72</time>
   <energy>
    <i name="e_fr_energy">     45.97740691 </i>
    <i name="e_wo_entrp">     45.97791247 </i>
    <i name="e_0_energy">     45.97765969 </i>
   </energy>
  </scstep>
  <scstep>
   <time name="dav">    1.84    1.84</time>
   <time name="total">    1.84    1.85</time>
   <energy>
    <i name="e_fr_energy">    -21.54722558 </i>
    <i name="e_wo_entrp">    -21.54722558 </i>
    <i name="e_0_energy">    -21.54722558 </i>
   </energy>
  </scstep>
  <scstep>
   <time name="dav">    1.64    1.64</time>
   <time name="total">    1.64    1.64</time>
   <energy>
    <i name="e_fr_energy">    -24.73588014 </i>
    <i name="e_wo_entrp">    -24.73588014 </i>
    <i name="e_0_energy">    -24.73588014 </i>
   </energy>
  </scstep>
  <scstep>
   <time name="dav">    1.96    1.96</time>
   <time name="total">    2.06    2.06</time>
   <energy>
    <i name="e_fr_energy">    -24.84431147 </i>
    <i name="e_wo_entrp">    -24.84431147 </i>
    <i name="e_0_energy">    -24.84431147 </i>
   </energy>
  </scstep>
  <scstep>
   <time name="dav">    1.88    1.88</time>
   <time name="total">    2.00    2.00</time>
   <energy>
    <i name="e_fr_energy">    -24.35560448 </i>
    <i name="e_wo_entrp">    -24.35560448 </i>
    <i name="e_0_energy">    -24.35560448 </i>
   </energy>
  </scstep>
  <scstep>
   <time name="dav">    1.71    1.71</time>
   <time name="total">    1.83    1.83</time>
   <energy>
    <i name="e_fr_energy">    -24.25869979 </i>
    <i name="e_wo_entrp">    -24.25869979 </i>
    <i name="e_0_energy">    -24.25869979 </i>
   </energy>
  </scstep>
  <scstep>
   <time name="dav">    1.81    1.82</time>
   <time name="total">    1.93    1.94</time>
   <energy>
    <i name="e_fr_energy">    -24.25294675 </i>
    <i name="e_wo_entrp">    -24.25294675 </i>
    <i name="e_0_energy">    -24.25294675 </i>
   </energy>
  </scstep>
  <scstep>
   <time name="dav">    1.86    1.86</time>
   <time name="total">    1.98    1.98</time>
   <energy>
    <i name="e_fr_energy">    -24.25228768 </i>
    <i name="e_wo_entrp">    -24.25228768 </i>
    <i name="e_0_energy">    -24.25228768 </i>
   </energy>
  </scstep>
  <scstep>
   <time name="dav">    1.93    1.93</time>
   <time name="total">    2.04    2.05</time>
   <energy>
    <i name="e_fr_energy">    -24.25203069 </i>
    <i name="e_wo_entrp">    -24.25203069 </i>
    <i name="e_0_energy">    -24.25203069 </i>
   </energy>
  </scstep>
  <scstep>
   <time name="dav">    1.56    1.56</time>
   <time name="total">    1.68    1.68</time>
   <energy>
    <i name="e_fr_energy">    -24.25179475 </i>
    <i name="e_wo_entrp">    -24.25179475 </i>
    <i name="e_0_energy">    -24.25179475 </i>
   </energy>
  </scstep>
  <scstep>
   <time name="dav">    1.53    1.53</time>
   <time name="total">    1.65    1.65</time>
   <energy>
    <i name="e_fr_energy">    -24.25192761 </i>
    <i name="e_wo_entrp">    -24.25192761 </i>
    <i name="e_0_energy">    -24.25192761 </i>
   </energy>
  </scstep>
  <scstep>
   <time name="dav">    1.49    1.49</time>
   <time name="total">    1.61    1.61</time>
   <energy>
    <i name="e_fr_energy">    -24.25219985 </i>
    <i name="e_wo_entrp">    -24.25219985 </i>
    <i name="e_0_energy">    -24.25219985 </i>
   </energy>
  </scstep>
  <scstep>
   <time name="dav">    1.41    1.41</time>
   <time name="total">    1.53    1.54</time>
   <energy>
    <i name="e_fr_energy">    -24.25229890 </i>
    <i name="e_wo_entrp">    -24.25229890 </i>
    <i name="e_0_energy">    -24.25229890 </i>
   </energy>
  </scstep>
  <scstep>
   <time name="dav">    1.40    1.40</time>
   <time name="total">    1.52    1.52</time>
   <energy>
    <i name="e_fr_energy">    -24.25235812 </i>
    <i name="e_wo_entrp">    -24.25235812 </i>
    <i name="e_0_energy">    -24.25235812 </i>
   </energy>
  </scstep>
  <scstep>
   <time name="dav">    1.33    1.33</time>
   <time name="total">    1.45    1.45</time>
   <energy>
    <i name="e_fr_energy">    -24.25242622 </i>
    <i name="e_wo_entrp">    -24.25242622 </i>
    <i name="e_0_energy">    -24.25242622 </i>
   </energy>
  </scstep>
  <scstep>
   <time name="dav">    1.26    1.26</time>
   <time name="total">    1.38    1.38</time>
   <energy>
    <i name="e_fr_energy">    -24.25247575 </i>
    <i name="e_wo_entrp">    -24.25247575 </i>
    <i name="e_0_energy">    -24.25247575 </i>
   </energy>
  </scstep>
  <scstep>
   <time name="dav">    1.30    1.30</time>
   <time name="total">    1.42    1.42</time>
   <energy>
    <i name="e_fr_energy">    -24.25250347 </i>
    <i name="e_wo_entrp">    -24.25250347 </i>
    <i name="e_0_energy">    -24.25250347 </i>
   </energy>
  </scstep>
  <scstep>
   <time name="dav">    1.31    1.31</time>
   <time name="total">    1.34    1.34</time>
   <energy>
    <i name="alphaZ">     47.44389576 </i>
    <i name="ewald">   5128.86989723 </i>
    <i name="hartreedc">  -9923.82616413 </i>
    <i name="XCdc">    143.19912861 </i>
    <i name="pawpsdc">   5812.00380857 </i>
    <i name="pawaedc">  -6632.46048229 </i>
    <i name="eentropy">     -0.00000000 </i>
    <i name="bandstr">   -820.46881657 </i>
    <i name="atom">   6220.98622430 </i>
    <i name="e_fr_energy">    -24.25250852 </i>
    <i name="e_wo_entrp">    -24.25250852 </i>
    <i name="e_0_energy">    -24.25250852 </i>
   </energy>
  </scstep>
  <structure>
   <crystal>
    <varray name="basis" >
     <v>       4.80695400       0.00000000       0.00000000 </v>
     <v>       0.00000000       5.57120200       0.00000000 </v>
     <v>       0.00000000       0.00000000      18.07929100 </v>
    </varray>
    <i name="volume">    484.17266485 </i>
    <varray name="rec_basis" >
     <v>       0.20803195       0.00000000       0.00000000 </v>
     <v>       0.00000000       0.17949448       0.00000000 </v>
     <v>       0.00000000       0.00000000       0.05531190 </v>
    </varray>
   </crystal>
   <varray name="positions" >
    <v>       0.50000000       0.50000000       0.50000000 </v>
    <v>       0.00000000       0.00000000       0.50000000 </v>
    <v>       0.25000000       0.25000000       0.41502600 </v>
    <v>       0.75000000       0.75000000       0.41502600 </v>
    <v>       0.75000000       0.25000000       0.58497400 </v>
    <v>       0.25000000       0.75000000       0.58497400 </v>
   </varray>
  </structure>
  <varray name="forces" >
   <v>      -0.00000000      -0.00000000      -0.00000000 </v>
   <v>       0.00000000      -0.00000000      -0.00000000 </v>
   <v>       0.00000000      -0.00000000      -0.09991730 </v>
   <v>      -0.00000000       0.00000000      -0.09991730 </v>
   <v>       0.00000000      -0.00000000       0.09991730 </v>
   <v>       0.00000000       0.00000000       0.09991730 </v>
  </varray>
  <varray name="stress" >
   <v>       3.35346229       0.00000000       0.00000000 </v>
   <v>       0.00000000       3.98699144       0.00000000 </v>
   <v>       0.00000000       0.00000000       1.99196243 </v>
  </varray>
  <energy>
   <i name="e_fr_energy">    -24.25250852 </i>
   <i name="e_wo_entrp">    -24.25250852 </i>
   <i name="e_0_energy">     -0.00000000 </i>
  </energy>
  <time name="totalsc">   33.43   33.49</time>
 </calculation>
 <calculation>
  <scstep>
   <time name="dav">    1.46    1.46</time>
   <time name="total">    1.58    1.58</time>
   <energy>
    <i name="alphaZ">     47.44389576 </i>
    <i name="ewald">   5122.12276577 </i>
    <i name="hartreedc">  -9917.29917894 </i>
    <i name="XCdc">    143.17201565 </i>
    <i name="pawpsdc">   5811.98664372 </i>
    <i name="pawaedc">  -6632.44348126 </i>
    <i name="eentropy">     -0.00000000 </i>
    <i name="bandstr">   -820.22220653 </i>
    <i name="atom">   6220.98622430 </i>
    <i name="e_fr_energy">    -24.25332154 </i>
    <i name="e_wo_entrp">    -24.25332154 </i>
    <i name="e_0_energy">    -24.25332154 </i>
   </energy>
  </scstep>
  <scstep>
   <time name="dav">    1.67    1.67</time>
   <time name="total">    1.79    1.79</time>
   <energy>
    <i name="e_fr_energy">    -24.25346903 </i>
    <i name="e_wo_entrp">    -24.25346903 </i>
    <i name="e_0_energy">    -24.25346903 </i>
   </energy>
  </scstep>
  <scstep>
   <time name="dav">    1.50    1.50</time>
   <time name="total">    1.62    1.62</time>
   <energy>
    <i name="e_fr_energy">    -24.25346298 </i>
    <i name="e_wo_entrp">    -24.25346298 </i>
    <i name="e_0_energy">    -24.25346298 </i>
   </energy>
  </scstep>
  <scstep>
   <time name="dav">    1.30    1.30</time>
   <time name="total">    1.42    1.42</time>
   <energy>
    <i name="e_fr_energy">    -24.25346036 </i>
    <i name="e_wo_entrp">    -24.25346036 </i>
    <i name="e_0_energy">    -24.25346036 </i>
   </energy>
  </scstep>
  <scstep>
   <time name="dav">    1.19    1.19</time>
   <time name="total">    1.31    1.31</time>
   <energy>
    <i name="e_fr_energy">    -24.25345920 </i>
    <i name="e_wo_entrp">    -24.25345920 </i>
    <i name="e_0_energy">    -24.25345920 </i>
   </energy>
  </scstep>
  <scstep>
   <time name="dav">    1.12    1.12</time>
   <time name="total">    1.15    1.15</time>
   <energy>
    <i name="alphaZ">     47.44389576 </i>
    <i name="ewald">   5122.12276577 </i>
    <i name="hartreedc">  -9917.30040725 </i>
    <i name="XCdc">    143.17550529 </i>
    <i name="pawpsdc">   5804.79821613 </i>
    <i name="pawaedc">  -6625.20755484 </i>
    <i name="eentropy">     -0.00000000 </i>
    <i name="bandstr">   -820.27210427 </i>
    <i name="atom">   6220.98622430 </i>
    <i name="e_fr_energy">    -24.25345912 </i>
    <i name="e_wo_entrp">    -24.25345912 </i>
    <i name="e_0_energy">    -24.25345912 </i>
   </energy>
  </scstep>
  <structure>
   <crystal>
    <varray name="basis" >
     <v>       4.80695400       0.00000000       0.00000000 </v>
     <v>       0.00000000       5.57120200       0.00000000 </v>
     <v>       0.00000000       0.00000000      18.07929100 </v>
    </varray>
    <i name="volume">    484.17266485 </i>
    <varray name="rec_basis" >
     <v>       0.20803195       0.00000000       0.00000000 </v>
     <v>       0.00000000       0.17949448       0.00000000 </v>
     <v>       0.00000000       0.00000000       0.05531190 </v>
    </varray>
   </crystal>
   <varray name="positions" >
    <v>       0.50000000       0.50000000       0.50000000 </v>
    <v>       0.00000000      -0.00000000       0.50000000 </v>
    <v>       0.25000000       0.25000000       0.41486603 </v>
    <v>       0.75000000       0.75000000       0.41486603 </v>
    <v>       0.75000000       0.25000000       0.58513397 </v>
    <v>       0.25000000       0.75000000       0.58513397 </v>
   </varray>
  </structure>
  <varray name="forces" >
   <v>       0.00000000       0.00000000       0.00000000 </v>
   <v>      -0.00000000       0.00000000       0.00000000 </v>
   <v>      -0.00000000      -0.00000000      -0.06545371 </v>
   <v>      -0.00000000       0.00000000      -0.06545371 </v>
   <v>      -0.00000000      -0.00000000       0.06545371 </v>
   <v>       0.00000000       0.00000000       0.06545371 </v>
  </varray>
  <varray name="stress" >
   <v>       3.16759756       0.00000000       0.00000000 </v>
   <v>       0.00000000       3.76826165       0.00000000 </v>
   <v>       0.00000000       0.00000000       1.30736141 </v>
  </varray>
  <energy>
   <i name="e_fr_energy">    -24.25345912 </i>
   <i name="e_wo_entrp">    -24.25345912 </i>
   <i name="e_0_energy">     -0.00000000 </i>
  </energy>
  <time name="totalsc">   10.02   10.04</time>
 </calculation>
 <calculation>
  <scstep>
   <time name="dav">    1.45    1.45</time>
   <time name="total">    1.57    1.57</time>
   <energy>
    <i name="alphaZ">     47.44389576 </i>
    <i name="ewald">   5109.30949204 </i>
    <i name="hartreedc">  -9904.91542536 </i>
    <i name="XCdc">    143.12416302 </i>
    <i name="pawpsdc">   5804.75387491 </i>
    <i name="pawaedc">  -6625.16345497 </i>
    <i name="eentropy">     -0.00000000 </i>
    <i name="bandstr">   -819.79242638 </i>
    <i name="atom">   6220.98622430 </i>
    <i name="e_fr_energy">    -24.25365668 </i>
    <i name="e_wo_entrp">    -24.25365668 </i>
    <i name="e_0_energy">    -24.25365668 </i>
   </energy>
  </scstep>
  <scstep>
   <time name="dav">    1.67    1.67</time>
   <time name="total">    1.79    1.80</time>
   <energy>
    <i name="e_fr_energy">    -24.25419280 </i>
    <i name="e_wo_entrp">    -24.25419280 </i>
    <i name="e_0_energy">    -24.25419280 </i>
   </energy>
  </scstep>
  <scstep>
   <time name="dav">    1.49    1.49</time>
   <time name="total">    1.61    1.61</time>
   <energy>
    <i name="e_fr_energy">    -24.25417365 </i>
    <i name="e_wo_entrp">    -24.25417365 </i>
    <i name="e_0_energy">    -24.25417365 </i>
   </energy>
  </scstep>
  <scstep>
   <time name="dav">    1.44    1.44</time>
   <time name="total">    1.56    1.56</time>
   <energy>
    <i name="e_fr_energy">    -24.25416710 </i>
    <i name="e_wo_entrp">    -24.25416710 </i>
    <i name="e_0_energy">    -24.25416710 </i>
   </energy>
  </scstep>
  <scstep>
   <time name="dav">    1.22    1.22</time>
   <time name="total">    1.34    1.34</time>
   <energy>
    <i name="e_fr_energy">    -24.25416482 </i>
    <i name="e_wo_entrp">    -24.25416482 </i>
    <i name="e_0_energy">    -24.25416482 </i>
   </energy>
  </scstep>
  <scstep>
   <time name="dav">    1.11    1.11</time>
   <time name="total">    1.14    1.14</time>
   <energy>
    <i name="alphaZ">     47.44389576 </i>
    <i name="ewald">   5109.30949204 </i>
    <i name="hartreedc">  -9904.92590941 </i>
    <i name="XCdc">    143.13084762 </i>
    <i name="pawpsdc">   5791.18974342 </i>
    <i name="pawaedc">  -6611.50942517 </i>
    <i name="eentropy">     -0.00000000 </i>
    <i name="bandstr">   -819.87903330 </i>
    <i name="atom">   6220.98622430 </i>
    <i name="e_fr_energy">    -24.25416474 </i>
    <i name="e_wo_entrp">    -24.25416474 </i>
    <i name="e_0_energy">    -24.25416474 </i>
   </energy>
  </scstep>
  <structure>
   <crystal>
    <varray name="basis" >
     <v>       4.80695400       0.00000000       0.00000000 </v>
     <v>       0.00000000       5.57120200       0.00000000 </v>
     <v>       0.00000000       0.00000000      18.07929100 </v>
    </varray>
    <i name="volume">    484.17266485 </i>
    <varray name="rec_basis" >
     <v>       0.20803195       0.00000000       0.00000000 </v>
     <v>       0.00000000       0.17949448       0.00000000 </v>
     <v>       0.00000000       0.00000000       0.05531190 </v>
    </varray>
   </crystal>
   <varray name="positions" >
    <v>       0.50000000       0.50000000       0.50000000 </v>
    <v>       0.00000000      -0.00000000       0.50000000 </v>
    <v>       0.25000000       0.25000000       0.41456221 </v>
    <v>       0.75000000       0.75000000       0.41456221 </v>
    <v>       0.75000000       0.25000000       0.58543779 </v>
    <v>       0.25000000       0.75000000       0.58543779 </v>
   </varray>
  </structure>
  <varray name="forces" >
   <v>       0.00000000       0.00000000      -0.00000000 </v>
   <v>       0.00000000       0.00000000      -0.00000000 </v>
   <v>       0.00000000       0.00000000      -0.00025842 </v>
   <v>      -0.00000000       0.00000000      -0.00025842 </v>
   <v>       0.00000000       0.00000000       0.00025842 </v>
   <v>       0.00000000       0.00000000       0.00025842 </v>
  </varray>
  <varray name="stress" >
   <v>       2.82885696       0.00000000       0.00000000 </v>
   <v>       0.00000000       3.37114642       0.00000000 </v>
   <v>       0.00000000       0.00000000       0.01102850 </v>
  </varray>
  <energy>
   <i name="e_fr_energy">    -24.25416474 </i>
   <i name="e_wo_entrp">    -24.25416474 </i>
   <i name="e_0_energy">     -0.00000000 </i>
  </energy>
  <time name="totalsc">   10.10   10.12</time>
  <eigenvalues>
   <array>
    <dimension dim="1">band</dimension>
    <dimension dim="2">kpoint</dimension>
    <dimension dim="3">spin</dimension>
    <field>eigene</field>
    <field>occ</field>
    <set>
     <set comment="spin 1">
      <set comment="kpoint 1">
       <r>  -27.7170    1.0000 </r>
       <r>  -27.7133    1.0000 </r>
       <r>  -27.7117    1.0000 </r>
       <r>  -27.7034    1.0000 </r>
       <r>  -27.7020    1.0000 </r>
       <r>  -27.6884    1.0000 </r>
       <r>  -27.6845    1.0000 </r>
       <r>  -27.6841    1.0000 </r>
       <r>  -27.6716    1.0000 </r>
       <r>  -27.6667    1.0000 </r>
       <r>  -16.9128    1.0000 </r>
       <r>  -15.3838    1.0000 </r>
       <r>  -14.9262    1.0000 </r>
       <r>  -14.6798    1.0000 </r>
       <r>  -11.7280    1.0000 </r>
       <r>   -9.1925    1.0000 </r>
       <r>   -7.4475    1.0000 </r>
       <r>   -5.8927    1.0000 </r>
       <r>   -5.4218    1.0000 </r>
       <r>   -5.3225    1.0000 </r>
       <r>   -5.0982    1.0000 </r>
       <r>   -5.0634    1.0000 </r>
       <r>   -4.6466    1.0000 </r>
       <r>   -4.1275    1.0000 </r>
       <r>   -2.7450    1.0000 </r>
       <r>   -2.6817    1.0000 </r>
       <r>   -1.6796    0.0000 </r>
       <r>   -1.3513    0.0000 </r>
       <r>   -0.7415    0.0000 </r>
       <r>    0.1302    0.0000 </r>
       <r>    0.7503    0.0000 </r>
       <r>    2.0034    0.0000 </r>
      </set>
      <set comment="kpoint 2">
       <r>  -27.7168    1.0000 </r>
       <r>  -27.7131    1.0000 </r>
       <r>  -27.7117    1.0000 </r>
       <r>  -27.7035    1.0000 </r>
       <r>  -27.7020    1.0000 </r>
       <r>  -27.6884    1.0000 </r>
       <r>  -27.6847    1.0000 </r>
       <r>  -27.6841    1.0000 </r>
       <r>  -27.6716    1.0000 </r>
       <r>  -27.6667    1.0000 </r>
       <r>  -16.8953    1.0000 </r>
       <r>  -15.3768    1.0000 </r>
       <r>  -14.9286    1.0000 </r>
       <r>  -14.7201    1.0000 </r>
       <r>  -11.6849    1.0000 </r>
       <r>   -9.2060    1.0000 </r>
       <r>   -7.4458    1.0000 </r>
       <r>   -5.8873    1.0000 </r>
       <r>   -5.5338    1.0000 </r>
       <r>   -5.4077    1.0000 </r>
       <r>   -5.1315    1.0000 </r>
       <r>   -4.9793    1.0000 </r>
       <r>   -4.6410    1.0000 </r>
       <r>   -4.1144    1.0000 </r>
       <r>   -2.8101    1.0000 </r>
       <r>   -2.7155    1.0000 </r>
       <r>   -1.5755    0.0000 </r>
       <r>   -1.3477    0.0000 </r>
       <r>   -0.6248    0.0000 </r>
       <r>    0.1839    0.0000 </r>
       <r>    0.8032    0.0000 </r>
       <r>    2.0347    0.0000 </r>
      </set>
      <set comment="kpoint 3">
       <r>  -27.7164    1.0000 </r>
       <r>  -27.7126    1.0000 </r>
       <r>  -27.7115    1.0000 </r>
       <r>  -27.7040    1.0000 </r>
       <r>  -27.7020    1.0000 </r>
       <r>  -27.6882    1.0000 </r>
       <r>  -27.6856    1.0000 </r>
       <r>  -27.6841    1.0000 </r>
       <r>  -27.6715    1.0000 </r>
       <r>  -27.6669    1.0000 </r>
       <r>  -16.8432    1.0000 </r>
       <r>  -15.3564    1.0000 </r>
       <r>  -14.9361    1.0000 </r>
       <r>  -14.8340    1.0000 </r>
       <r>  -11.5624    1.0000 </r>
       <r>   -9.2485    1.0000 </r>
       <r>   -7.4398    1.0000 </r>
       <r>   -5.8677    1.0000 </r>
       <r>   -5.7096    1.0000 </r>
       <r>   -5.6244    1.0000 </r>
       <r>   -5.3070    1.0000 </r>
       <r>   -4.7873    1.0000 </r>
       <r>   -4.6442    1.0000 </r>
       <r>   -4.0760    1.0000 </r>
       <r>   -2.9776    1.0000 </r>
       <r>   -2.8082    1.0000 </r>
       <r>   -1.3237    0.0000 </r>
       <r>   -1.3093    0.0000 </r>
       <r>   -0.2975    0.0000 </r>
       <r>    0.3339    0.0000 </r>
       <r>    0.9486    0.0000 </r>
       <r>    2.0825    0.0000 </r>
      </set>
      <set comment="kpoint 4">
       <r>  -27.7157    1.0000 </r>
       <r>  -27.7117    1.0000 </r>
       <r>  -27.7113    1.0000 </r>
       <r>  -27.7047    1.0000 </r>
       <r>  -27.7020    1.0000 </r>
       <r>  -27.6878    1.0000 </r>
       <r>  -27.6869    1.0000 </r>
       <r>  -27.6842    1.0000 </r>
       <r>  -27.6713    1.0000 </r>
       <r>  -27.6672    1.0000 </r>
       <r>  -16.7573    1.0000 </r>
       <r>  -15.3239    1.0000 </r>
       <r>  -15.0042    1.0000 </r>
       <r>  -14.9495    1.0000 </r>
       <r>  -11.3766    1.0000 </r>
       <r>   -9.3257    1.0000 </r>
       <r>   -7.4262    1.0000 </r>
       <r>   -5.9077    1.0000 </r>
       <r>   -5.8674    1.0000 </r>
       <r>   -5.8259    1.0000 </r>
       <r>   -5.5301    1.0000 </r>
       <r>   -4.6798    1.0000 </r>
       <r>   -4.6142    1.0000 </r>
       <r>   -4.0149    1.0000 </r>
       <r>   -3.2022    1.0000 </r>
       <r>   -2.9399    1.0000 </r>
       <r>   -1.2524    0.0000 </r>
       <r>   -0.9656    0.0000 </r>
       <r>    0.1894    0.0000 </r>
       <r>    0.5535    0.0000 </r>
       <r>    1.1458    0.0000 </r>
       <r>    1.9161    0.0000 </r>
      </set>
      <set comment="kpoint 5">
       <r>  -27.7148    1.0000 </r>
       <r>  -27.7109    1.0000 </r>
       <r>  -27.7108    1.0000 </r>
       <r>  -27.7057    1.0000 </r>
       <r>  -27.7017    1.0000 </r>
       <r>  -27.6887    1.0000 </r>
       <r>  -27.6874    1.0000 </r>
       <r>  -27.6844    1.0000 </r>
       <r>  -27.6710    1.0000 </r>
       <r>  -27.6675    1.0000 </r>
       <r>  -16.6391    1.0000 </r>
       <r>  -15.2817    1.0000 </r>
       <r>  -15.2111    1.0000 </r>
       <r>  -14.9699    1.0000 </r>
       <r>  -11.1453    1.0000 </r>
       <r>   -9.4441    1.0000 </r>
       <r>   -7.3988    1.0000 </r>
       <r>   -6.2095    1.0000 </r>
       <r>   -5.9924    1.0000 </r>
       <r>   -5.7545    1.0000 </r>
       <r>   -5.7478    1.0000 </r>
       <r>   -4.7560    1.0000 </r>
       <r>   -4.4799    1.0000 </r>
       <r>   -3.9348    1.0000 </r>
       <r>   -3.4468    1.0000 </r>
       <r>   -3.0880    1.0000 </r>
       <r>   -1.1163    0.0000 </r>
       <r>   -0.6239    0.0000 </r>
       <r>    0.7849    0.0000 </r>
       <r>    0.8103    0.0000 </r>
       <r>    1.3301    0.0000 </r>
       <r>    1.7473    0.0000 </r>
      </set>
      <set comment="kpoint 6">
       <r>  -27.7136    1.0000 </r>
       <r>  -27.7106    1.0000 </r>
       <r>  -27.7100    1.0000 </r>
       <r>  -27.7068    1.0000 </r>
       <r>  -27.7010    1.0000 </r>
       <r>  -27.6909    1.0000 </r>
       <r>  -27.6869    1.0000 </r>
       <r>  -27.6846    1.0000 </r>
       <r>  -27.6706    1.0000 </r>
       <r>  -27.6680    1.0000 </r>
       <r>  -16.4908    1.0000 </r>
       <r>  -15.4377    1.0000 </r>
       <r>  -15.2325    1.0000 </r>
       <r>  -14.9980    1.0000 </r>
       <r>  -10.8846    1.0000 </r>
       <r>   -9.6080    1.0000 </r>
       <r>   -7.3487    1.0000 </r>
       <r>   -6.4989    1.0000 </r>
       <r>   -6.0813    1.0000 </r>
       <r>   -5.9270    1.0000 </r>
       <r>   -5.6501    1.0000 </r>
       <r>   -4.8720    1.0000 </r>
       <r>   -4.3792    1.0000 </r>
       <r>   -3.8399    1.0000 </r>
       <r>   -3.6831    1.0000 </r>
       <r>   -3.2352    1.0000 </r>
       <r>   -0.9197    0.0000 </r>
       <r>   -0.3604    0.0000 </r>
       <r>    1.0667    0.0000 </r>
       <r>    1.4403    0.0000 </r>
       <r>    1.4412    0.0000 </r>
       <r>    1.6182    0.0000 </r>
      </set>
      <set comment="kpoint 7">
       <r>  -27.7123    1.0000 </r>
       <r>  -27.7101    1.0000 </r>
       <r>  -27.7096    1.0000 </r>
       <r>  -27.7081    1.0000 </r>
       <r>  -27.6997    1.0000 </r>
       <r>  -27.6932    1.0000 </r>
       <r>  -27.6864    1.0000 </r>
       <r>  -27.6849    1.0000 </r>
       <r>  -27.6701    1.0000 </r>
       <r>  -27.6685    1.0000 </r>
       <r>  -16.3154    1.0000 </r>
       <r>  -15.6707    1.0000 </r>
       <r>  -15.1799    1.0000 </r>
       <r>  -15.0342    1.0000 </r>
       <r>  -10.6081    1.0000 </r>
       <r>   -9.8161    1.0000 </r>
       <r>   -7.2660    1.0000 </r>
       <r>   -6.7570    1.0000 </r>
       <r>   -6.1343    1.0000 </r>
       <r>   -6.0532    1.0000 </r>
       <r>   -5.5151    1.0000 </r>
       <r>   -5.0201    1.0000 </r>
       <r>   -4.2915    1.0000 </r>
       <r>   -3.8917    1.0000 </r>
       <r>   -3.7342    1.0000 </r>
       <r>   -3.3731    1.0000 </r>
       <r>   -0.6876    0.0000 </r>
       <r>   -0.2417    0.0000 </r>
       <r>    1.2824    0.0000 </r>
       <r>    1.4717    0.0000 </r>
       <r>    1.5108    0.0000 </r>
       <r>    1.5843    0.0000 </r>
      </set>
      <set comment="kpoint 8">
       <r>  -27.7109    1.0000 </r>
       <r>  -27.7098    1.0000 </r>
       <r>  -27.7095    1.0000 </r>
       <r>  -27.7095    1.0000 </r>
       <r>  -27.6978    1.0000 </r>
       <r>  -27.6956    1.0000 </r>
       <r>  -27.6859    1.0000 </r>
       <r>  -27.6854    1.0000 </r>
       <r>  -27.6696    1.0000 </r>
       <r>  -27.6690    1.0000 </r>
       <r>  -16.1167    1.0000 </r>
       <r>  -15.8998    1.0000 </r>
       <r>  -15.1272    1.0000 </r>
       <r>  -15.0778    1.0000 </r>
       <r>  -10.3290    1.0000 </r>
       <r>  -10.0605    1.0000 </r>
       <r>   -7.1425    1.0000 </r>
       <r>   -6.9730    1.0000 </r>
       <r>   -6.1503    1.0000 </r>
       <r>   -6.1255    1.0000 </r>
       <r>   -5.3569    1.0000 </r>
       <r>   -5.1870    1.0000 </r>
       <r>   -4.1920    1.0000 </r>
       <r>   -4.0618    1.0000 </r>
       <r>   -3.6209    1.0000 </r>
       <r>   -3.5009    1.0000 </r>
       <r>   -0.4597    0.0000 </r>
       <r>   -0.2893    0.0000 </r>
       <r>    1.4290    0.0000 </r>
       <r>    1.4654    0.0000 </r>
       <r>    1.4692    0.0000 </r>
       <r>    1.5128    0.0000 </r>
      </set>
      <set comment="kpoint 9">
       <r>  -27.7169    1.0000 </r>
       <r>  -27.7131    1.0000 </r>
       <r>  -27.7116    1.0000 </r>
       <r>  -27.7034    1.0000 </r>
       <r>  -27.7022    1.0000 </r>
       <r>  -27.6884    1.0000 </r>
       <r>  -27.6848    1.0000 </r>
       <r>  -27.6841    1.0000 </r>
       <r>  -27.6716    1.0000 </r>
       <r>  -27.6668    1.0000 </r>
       <r>  -16.8937    1.0000 </r>
       <r>  -15.3742    1.0000 </r>
       <r>  -14.9786    1.0000 </r>
       <r>  -14.6905    1.0000 </r>
       <r>  -11.6628    1.0000 </r>
       <r>   -9.2079    1.0000 </r>
       <r>   -7.4315    1.0000 </r>
       <r>   -5.9155    1.0000 </r>
       <r>   -5.4141    1.0000 </r>
       <r>   -5.3866    1.0000 </r>
       <r>   -5.1528    1.0000 </r>
       <r>   -5.0650    1.0000 </r>
       <r>   -4.6398    1.0000 </r>
       <r>   -4.0960    1.0000 </r>
       <r>   -2.7757    1.0000 </r>
       <r>   -2.7561    1.0000 </r>
       <r>   -1.5597    0.0000 </r>
       <r>   -1.3250    0.0000 </r>
       <r>   -0.6084    0.0000 </r>
       <r>    0.1460    0.0000 </r>
       <r>    0.7844    0.0000 </r>
       <r>    2.0312    0.0000 </r>
      </set>
      <set comment="kpoint 10">
       <r>  -27.7167    1.0000 </r>
       <r>  -27.7129    1.0000 </r>
       <r>  -27.7115    1.0000 </r>
       <r>  -27.7036    1.0000 </r>
       <r>  -27.7021    1.0000 </r>
       <r>  -27.6883    1.0000 </r>
       <r>  -27.6851    1.0000 </r>
       <r>  -27.6841    1.0000 </r>
       <r>  -27.6715    1.0000 </r>
       <r>  -27.6668    1.0000 </r>
       <r>  -16.8764    1.0000 </r>
       <r>  -15.3674    1.0000 </r>
       <r>  -14.9840    1.0000 </r>
       <r>  -14.7248    1.0000 </r>
       <r>  -11.6241    1.0000 </r>
       <r>   -9.2229    1.0000 </r>
       <r>   -7.4268    1.0000 </r>
       <r>   -5.9209    1.0000 </r>
       <r>   -5.5296    1.0000 </r>
       <r>   -5.5098    1.0000 </r>
       <r>   -5.1293    1.0000 </r>
       <r>   -4.9526    1.0000 </r>
       <r>   -4.6438    1.0000 </r>
       <r>   -4.0839    1.0000 </r>
       <r>   -2.9157    1.0000 </r>
       <r>   -2.6970    1.0000 </r>
       <r>   -1.5157    0.0000 </r>
       <r>   -1.3201    0.0000 </r>
       <r>   -0.4692    0.0000 </r>
       <r>    0.1980    0.0000 </r>
       <r>    0.8360    0.0000 </r>
       <r>    2.0149    0.0000 </r>
      </set>
      <set comment="kpoint 11">
       <r>  -27.7163    1.0000 </r>
       <r>  -27.7124    1.0000 </r>
       <r>  -27.7114    1.0000 </r>
       <r>  -27.7040    1.0000 </r>
       <r>  -27.7021    1.0000 </r>
       <r>  -27.6881    1.0000 </r>
       <r>  -27.6860    1.0000 </r>
       <r>  -27.6841    1.0000 </r>
       <r>  -27.6714    1.0000 </r>
       <r>  -27.6670    1.0000 </r>
       <r>  -16.8248    1.0000 </r>
       <r>  -15.3476    1.0000 </r>
       <r>  -15.0063    1.0000 </r>
       <r>  -14.8157    1.0000 </r>
       <r>  -11.5133    1.0000 </r>
       <r>   -9.2700    1.0000 </r>
       <r>   -7.4120    1.0000 </r>
       <r>   -5.9472    1.0000 </r>
       <r>   -5.7960    1.0000 </r>
       <r>   -5.6396    1.0000 </r>
       <r>   -5.1923    1.0000 </r>
       <r>   -4.7650    1.0000 </r>
       <r>   -4.6589    1.0000 </r>
       <r>   -4.0473    1.0000 </r>
       <r>   -3.1178    1.0000 </r>
       <r>   -2.7197    1.0000 </r>
       <r>   -1.3586    0.0000 </r>
       <r>   -1.2934    0.0000 </r>
       <r>   -0.1094    0.0000 </r>
       <r>    0.3424    0.0000 </r>
       <r>    0.9787    0.0000 </r>
       <r>    1.9003    0.0000 </r>
      </set>
      <set comment="kpoint 12">
       <r>  -27.7157    1.0000 </r>
       <r>  -27.7116    1.0000 </r>
       <r>  -27.7110    1.0000 </r>
       <r>  -27.7047    1.0000 </r>
       <r>  -27.7020    1.0000 </r>
       <r>  -27.6877    1.0000 </r>
       <r>  -27.6874    1.0000 </r>
       <r>  -27.6842    1.0000 </r>
       <r>  -27.6712    1.0000 </r>
       <r>  -27.6672    1.0000 </r>
       <r>  -16.7399    1.0000 </r>
       <r>  -15.3161    1.0000 </r>
       <r>  -15.0815    1.0000 </r>
       <r>  -14.9131    1.0000 </r>
       <r>  -11.3440    1.0000 </r>
       <r>   -9.3541    1.0000 </r>
       <r>   -7.3856    1.0000 </r>
       <r>   -6.0813    1.0000 </r>
       <r>   -6.0133    1.0000 </r>
       <r>   -5.6936    1.0000 </r>
       <r>   -5.3589    1.0000 </r>
       <r>   -4.7037    1.0000 </r>
       <r>   -4.5963    1.0000 </r>
       <r>   -3.9855    1.0000 </r>
       <r>   -3.3423    1.0000 </r>
       <r>   -2.8158    1.0000 </r>
       <r>   -1.2208    0.0000 </r>
       <r>   -1.0917    0.0000 </r>
       <r>    0.3792    0.0000 </r>
       <r>    0.5520    0.0000 </r>
       <r>    1.1753    0.0000 </r>
       <r>    1.7397    0.0000 </r>
      </set>
      <set comment="kpoint 13">
       <r>  -27.7149    1.0000 </r>
       <r>  -27.7109    1.0000 </r>
       <r>  -27.7106    1.0000 </r>
       <r>  -27.7055    1.0000 </r>
       <r>  -27.7018    1.0000 </r>
       <r>  -27.6891    1.0000 </r>
       <r>  -27.6873    1.0000 </r>
       <r>  -27.6843    1.0000 </r>
       <r>  -27.6709    1.0000 </r>
       <r>  -27.6676    1.0000 </r>
       <r>  -16.6232    1.0000 </r>
       <r>  -15.2753    1.0000 </r>
       <r>  -15.2455    1.0000 </r>
       <r>  -14.9649    1.0000 </r>
       <r>  -11.1312    1.0000 </r>
       <r>   -9.4806    1.0000 </r>
       <r>   -7.3445    1.0000 </r>
       <r>   -6.3478    1.0000 </r>
       <r>   -6.0947    1.0000 </r>
       <r>   -5.6718    1.0000 </r>
       <r>   -5.5722    1.0000 </r>
       <r>   -4.7914    1.0000 </r>
       <r>   -4.4676    1.0000 </r>
       <r>   -3.9002    1.0000 </r>
       <r>   -3.5625    1.0000 </r>
       <r>   -2.9554    1.0000 </r>
       <r>   -1.0874    0.0000 </r>
       <r>   -0.7781    0.0000 </r>
       <r>    0.7933    0.0000 </r>
       <r>    0.9312    0.0000 </r>
       <r>    1.3652    0.0000 </r>
       <r>    1.5979    0.0000 </r>
      </set>
      <set comment="kpoint 14">
       <r>  -27.7139    1.0000 </r>
       <r>  -27.7103    1.0000 </r>
       <r>  -27.7101    1.0000 </r>
       <r>  -27.7064    1.0000 </r>
       <r>  -27.7011    1.0000 </r>
       <r>  -27.6912    1.0000 </r>
       <r>  -27.6868    1.0000 </r>
       <r>  -27.6845    1.0000 </r>
       <r>  -27.6705    1.0000 </r>
       <r>  -27.6680    1.0000 </r>
       <r>  -16.4770    1.0000 </r>
       <r>  -15.4539    1.0000 </r>
       <r>  -15.2279    1.0000 </r>
       <r>  -15.0002    1.0000 </r>
       <r>  -10.8891    1.0000 </r>
       <r>   -9.6515    1.0000 </r>
       <r>   -7.2844    1.0000 </r>
       <r>   -6.5811    1.0000 </r>
       <r>   -6.1529    1.0000 </r>
       <r>   -5.7821    1.0000 </r>
       <r>   -5.6034    1.0000 </r>
       <r>   -4.9182    1.0000 </r>
       <r>   -4.3719    1.0000 </r>
       <r>   -3.7966    1.0000 </r>
       <r>   -3.7619    1.0000 </r>
       <r>   -3.1120    1.0000 </r>
       <r>   -0.8999    0.0000 </r>
       <r>   -0.5044    0.0000 </r>
       <r>    1.0297    0.0000 </r>
       <r>    1.4100    0.0000 </r>
       <r>    1.4891    0.0000 </r>
       <r>    1.5927    0.0000 </r>
      </set>
      <set comment="kpoint 15">
       <r>  -27.7129    1.0000 </r>
       <r>  -27.7103    1.0000 </r>
       <r>  -27.7095    1.0000 </r>
       <r>  -27.7073    1.0000 </r>
       <r>  -27.6998    1.0000 </r>
       <r>  -27.6935    1.0000 </r>
       <r>  -27.6863    1.0000 </r>
       <r>  -27.6849    1.0000 </r>
       <r>  -27.6700    1.0000 </r>
       <r>  -27.6685    1.0000 </r>
       <r>  -16.3044    1.0000 </r>
       <r>  -15.6762    1.0000 </r>
       <r>  -15.1773    1.0000 </r>
       <r>  -15.0372    1.0000 </r>
       <r>  -10.6296    1.0000 </r>
       <r>   -9.8625    1.0000 </r>
       <r>   -7.2003    1.0000 </r>
       <r>   -6.7800    1.0000 </r>
       <r>   -6.1731    1.0000 </r>
       <r>   -5.9563    1.0000 </r>
       <r>   -5.5020    1.0000 </r>
       <r>   -5.0694    1.0000 </r>
       <r>   -4.2879    1.0000 </r>
       <r>   -3.9343    1.0000 </r>
       <r>   -3.6799    1.0000 </r>
       <r>   -3.2681    1.0000 </r>
       <r>   -0.6858    0.0000 </r>
       <r>   -0.3521    0.0000 </r>
       <r>    1.2268    0.0000 </r>
       <r>    1.4463    0.0000 </r>
       <r>    1.5332    0.0000 </r>
       <r>    1.6261    0.0000 </r>
      </set>
      <set comment="kpoint 16">
       <r>  -27.7118    1.0000 </r>
       <r>  -27.7109    1.0000 </r>
       <r>  -27.7088    1.0000 </r>
       <r>  -27.7081    1.0000 </r>
       <r>  -27.6980    1.0000 </r>
       <r>  -27.6958    1.0000 </r>
       <r>  -27.6858    1.0000 </r>
       <r>  -27.6853    1.0000 </r>
       <r>  -27.6695    1.0000 </r>
       <r>  -27.6690    1.0000 </r>
       <r>  -16.1096    1.0000 </r>
       <r>  -15.8979    1.0000 </r>
       <r>  -15.1269    1.0000 </r>
       <r>  -15.0795    1.0000 </r>
       <r>  -10.3641    1.0000 </r>
       <r>  -10.1042    1.0000 </r>
       <r>   -7.0887    1.0000 </r>
       <r>   -6.9486    1.0000 </r>
       <r>   -6.1501    1.0000 </r>
       <r>   -6.0795    1.0000 </r>
       <r>   -5.3741    1.0000 </r>
       <r>   -5.2265    1.0000 </r>
       <r>   -4.1945    1.0000 </r>
       <r>   -4.0783    1.0000 </r>
       <r>   -3.5527    1.0000 </r>
       <r>   -3.4156    1.0000 </r>
       <r>   -0.4869    0.0000 </r>
       <r>   -0.3564    0.0000 </r>
       <r>    1.3706    0.0000 </r>
       <r>    1.4640    0.0000 </r>
       <r>    1.5138    0.0000 </r>
       <r>    1.5255    0.0000 </r>
      </set>
      <set comment="kpoint 17">
       <r>  -27.7165    1.0000 </r>
       <r>  -27.7125    1.0000 </r>
       <r>  -27.7112    1.0000 </r>
       <r>  -27.7033    1.0000 </r>
       <r>  -27.7026    1.0000 </r>
       <r>  -27.6881    1.0000 </r>
       <r>  -27.6859    1.0000 </r>
       <r>  -27.6842    1.0000 </r>
       <r>  -27.6714    1.0000 </r>
       <r>  -27.6670    1.0000 </r>
       <r>  -16.8366    1.0000 </r>
       <r>  -15.3457    1.0000 </r>
       <r>  -15.1221    1.0000 </r>
       <r>  -14.7222    1.0000 </r>
       <r>  -11.4817    1.0000 </r>
       <r>   -9.2569    1.0000 </r>
       <r>   -7.3828    1.0000 </r>
       <r>   -5.9746    1.0000 </r>
       <r>   -5.5517    1.0000 </r>
       <r>   -5.3890    1.0000 </r>
       <r>   -5.3749    1.0000 </r>
       <r>   -4.9732    1.0000 </r>
       <r>   -4.6447    1.0000 </r>
       <r>   -4.0076    1.0000 </r>
       <r>   -2.9383    1.0000 </r>
       <r>   -2.8542    1.0000 </r>
       <r>   -1.2619    0.0000 </r>
       <r>   -1.2439    0.0000 </r>
       <r>   -0.2406    0.0000 </r>
       <r>    0.1929    0.0000 </r>
       <r>    0.8786    0.0000 </r>
       <r>    1.9610    0.0000 </r>
      </set>
      <set comment="kpoint 18">
       <r>  -27.7164    1.0000 </r>
       <r>  -27.7124    1.0000 </r>
       <r>  -27.7111    1.0000 </r>
       <r>  -27.7035    1.0000 </r>
       <r>  -27.7025    1.0000 </r>
       <r>  -27.6880    1.0000 </r>
       <r>  -27.6862    1.0000 </r>
       <r>  -27.6842    1.0000 </r>
       <r>  -27.6714    1.0000 </r>
       <r>  -27.6671    1.0000 </r>
       <r>  -16.8199    1.0000 </r>
       <r>  -15.3396    1.0000 </r>
       <r>  -15.1295    1.0000 </r>
       <r>  -14.7467    1.0000 </r>
       <r>  -11.4543    1.0000 </r>
       <r>   -9.2764    1.0000 </r>
       <r>   -7.3695    1.0000 </r>
       <r>   -5.9963    1.0000 </r>
       <r>   -5.7702    1.0000 </r>
       <r>   -5.4584    1.0000 </r>
       <r>   -5.2152    1.0000 </r>
       <r>   -4.8751    1.0000 </r>
       <r>   -4.6593    1.0000 </r>
       <r>   -3.9970    1.0000 </r>
       <r>   -3.1066    1.0000 </r>
       <r>   -2.7379    1.0000 </r>
       <r>   -1.3162    0.0000 </r>
       <r>   -1.2361    0.0000 </r>
       <r>   -0.0726    0.0000 </r>
       <r>    0.2394    0.0000 </r>
       <r>    0.9270    0.0000 </r>
       <r>    1.8404    0.0000 </r>
      </set>
      <set comment="kpoint 19">
       <r>  -27.7161    1.0000 </r>
       <r>  -27.7120    1.0000 </r>
       <r>  -27.7108    1.0000 </r>
       <r>  -27.7040    1.0000 </r>
       <r>  -27.7023    1.0000 </r>
       <r>  -27.6878    1.0000 </r>
       <r>  -27.6871    1.0000 </r>
       <r>  -27.6841    1.0000 </r>
       <r>  -27.6712    1.0000 </r>
       <r>  -27.6672    1.0000 </r>
       <r>  -16.7701    1.0000 </r>
       <r>  -15.3216    1.0000 </r>
       <r>  -15.1564    1.0000 </r>
       <r>  -14.8118    1.0000 </r>
       <r>  -11.3748    1.0000 </r>
       <r>   -9.3362    1.0000 </r>
       <r>   -7.3303    1.0000 </r>
       <r>   -6.0659    1.0000 </r>
       <r>   -6.0620    1.0000 </r>
       <r>   -5.5462    1.0000 </r>
       <r>   -5.1065    1.0000 </r>
       <r>   -4.7012    1.0000 </r>
       <r>   -4.7011    1.0000 </r>
       <r>   -3.9611    1.0000 </r>
       <r>   -3.3308    1.0000 </r>
       <r>   -2.6625    1.0000 </r>
       <r>   -1.3584    0.0000 </r>
       <r>   -1.2037    0.0000 </r>
       <r>    0.3091    0.0000 </r>
       <r>    0.3671    0.0000 </r>
       <r>    1.0635    0.0000 </r>
       <r>    1.6774    0.0000 </r>
      </set>
      <set comment="kpoint 20">
       <r>  -27.7157    1.0000 </r>
       <r>  -27.7116    1.0000 </r>
       <r>  -27.7104    1.0000 </r>
       <r>  -27.7046    1.0000 </r>
       <r>  -27.7022    1.0000 </r>
       <r>  -27.6885    1.0000 </r>
       <r>  -27.6875    1.0000 </r>
       <r>  -27.6841    1.0000 </r>
       <r>  -27.6710    1.0000 </r>
       <r>  -27.6674    1.0000 </r>
       <r>  -16.6881    1.0000 </r>
       <r>  -15.2932    1.0000 </r>
       <r>  -15.2192    1.0000 </r>
       <r>  -14.8927    1.0000 </r>
       <r>  -11.2500    1.0000 </r>
       <r>   -9.4393    1.0000 </r>
       <r>   -7.2674    1.0000 </r>
       <r>   -6.3277    1.0000 </r>
       <r>   -6.1685    1.0000 </r>
       <r>   -5.5768    1.0000 </r>
       <r>   -5.1398    1.0000 </r>
       <r>   -4.7741    1.0000 </r>
       <r>   -4.5488    1.0000 </r>
       <r>   -3.8917    1.0000 </r>
       <r>   -3.5465    1.0000 </r>
       <r>   -2.6708    1.0000 </r>
       <r>   -1.2731    0.0000 </r>
       <r>   -1.1299    0.0000 </r>
       <r>    0.5486    0.0000 </r>
       <r>    0.7572    0.0000 </r>
       <r>    1.2585    0.0000 </r>
       <r>    1.5382    0.0000 </r>
      </set>
      <set comment="kpoint 21">
       <r>  -27.7152    1.0000 </r>
       <r>  -27.7112    1.0000 </r>
       <r>  -27.7098    1.0000 </r>
       <r>  -27.7051    1.0000 </r>
       <r>  -27.7019    1.0000 </r>
       <r>  -27.6902    1.0000 </r>
       <r>  -27.6870    1.0000 </r>
       <r>  -27.6842    1.0000 </r>
       <r>  -27.6707    1.0000 </r>
       <r>  -27.6677    1.0000 </r>
       <r>  -16.5759    1.0000 </r>
       <r>  -15.3362    1.0000 </r>
       <r>  -15.2566    1.0000 </r>
       <r>  -14.9597    1.0000 </r>
       <r>  -11.0879    1.0000 </r>
       <r>   -9.5863    1.0000 </r>
       <r>   -7.1871    1.0000 </r>
       <r>   -6.5440    1.0000 </r>
       <r>   -6.2597    1.0000 </r>
       <r>   -5.5626    1.0000 </r>
       <r>   -5.2843    1.0000 </r>
       <r>   -4.8909    1.0000 </r>
       <r>   -4.4409    1.0000 </r>
       <r>   -3.7876    1.0000 </r>
       <r>   -3.7321    1.0000 </r>
       <r>   -2.7521    1.0000 </r>
       <r>   -1.0689    0.0000 </r>
       <r>   -1.0073    0.0000 </r>
       <r>    0.7536    0.0000 </r>
       <r>    1.1283    0.0000 </r>
       <r>    1.4578    0.0000 </r>
       <r>    1.5283    0.0000 </r>
      </set>
      <set comment="kpoint 22">
       <r>  -27.7145    1.0000 </r>
       <r>  -27.7111    1.0000 </r>
       <r>  -27.7090    1.0000 </r>
       <r>  -27.7056    1.0000 </r>
       <r>  -27.7012    1.0000 </r>
       <r>  -27.6922    1.0000 </r>
       <r>  -27.6865    1.0000 </r>
       <r>  -27.6843    1.0000 </r>
       <r>  -27.6703    1.0000 </r>
       <r>  -27.6680    1.0000 </r>
       <r>  -16.4360    1.0000 </r>
       <r>  -15.5016    1.0000 </r>
       <r>  -15.2145    1.0000 </r>
       <r>  -15.0069    1.0000 </r>
       <r>  -10.8966    1.0000 </r>
       <r>   -9.7726    1.0000 </r>
       <r>   -7.1011    1.0000 </r>
       <r>   -6.7056    1.0000 </r>
       <r>   -6.2988    1.0000 </r>
       <r>   -5.5236    1.0000 </r>
       <r>   -5.4915    1.0000 </r>
       <r>   -5.0374    1.0000 </r>
       <r>   -4.3642    1.0000 </r>
       <r>   -3.8845    1.0000 </r>
       <r>   -3.6591    1.0000 </r>
       <r>   -2.8823    1.0000 </r>
       <r>   -0.8496    0.0000 </r>
       <r>   -0.8232    0.0000 </r>
       <r>    0.9555    0.0000 </r>
       <r>    1.2259    0.0000 </r>
       <r>    1.5972    0.0000 </r>
       <r>    1.8253    0.0000 </r>
      </set>
      <set comment="kpoint 23">
       <r>  -27.7137    1.0000 </r>
       <r>  -27.7115    1.0000 </r>
       <r>  -27.7083    1.0000 </r>
       <r>  -27.7061    1.0000 </r>
       <r>  -27.7001    1.0000 </r>
       <r>  -27.6943    1.0000 </r>
       <r>  -27.6860    1.0000 </r>
       <r>  -27.6846    1.0000 </r>
       <r>  -27.6698    1.0000 </r>
       <r>  -27.6685    1.0000 </r>
       <r>  -16.2722    1.0000 </r>
       <r>  -15.6934    1.0000 </r>
       <r>  -15.1700    1.0000 </r>
       <r>  -15.0458    1.0000 </r>
       <r>  -10.6832    1.0000 </r>
       <r>   -9.9881    1.0000 </r>
       <r>   -7.0242    1.0000 </r>
       <r>   -6.8193    1.0000 </r>
       <r>   -6.2593    1.0000 </r>
       <r>   -5.7235    1.0000 </r>
       <r>   -5.4687    1.0000 </r>
       <r>   -5.1819    1.0000 </r>
       <r>   -4.2948    1.0000 </r>
       <r>   -4.0122    1.0000 </r>
       <r>   -3.5160    1.0000 </r>
       <r>   -3.0377    1.0000 </r>
       <r>   -0.6898    0.0000 </r>
       <r>   -0.6265    0.0000 </r>
       <r>    1.1366    0.0000 </r>
       <r>    1.2772    0.0000 </r>
       <r>    1.6428    0.0000 </r>
       <r>    1.7623    0.0000 </r>
      </set>
      <set comment="kpoint 24">
       <r>  -27.7129    1.0000 </r>
       <r>  -27.7121    1.0000 </r>
       <r>  -27.7075    1.0000 </r>
       <r>  -27.7067    1.0000 </r>
       <r>  -27.6984    1.0000 </r>
       <r>  -27.6964    1.0000 </r>
       <r>  -27.6855    1.0000 </r>
       <r>  -27.6850    1.0000 </r>
       <r>  -27.6694    1.0000 </r>
       <r>  -27.6689    1.0000 </r>
       <r>  -16.0891    1.0000 </r>
       <r>  -15.8933    1.0000 </r>
       <r>  -15.1261    1.0000 </r>
       <r>  -15.0846    1.0000 </r>
       <r>  -10.4548    1.0000 </r>
       <r>  -10.2197    1.0000 </r>
       <r>   -6.9609    1.0000 </r>
       <r>   -6.8987    1.0000 </r>
       <r>   -6.1363    1.0000 </r>
       <r>   -5.9483    1.0000 </r>
       <r>   -5.3974    1.0000 </r>
       <r>   -5.3035    1.0000 </r>
       <r>   -4.2163    1.0000 </r>
       <r>   -4.1223    1.0000 </r>
       <r>   -3.3624    1.0000 </r>
       <r>   -3.2012    1.0000 </r>
       <r>   -0.5719    0.0000 </r>
       <r>   -0.5403    0.0000 </r>
       <r>    1.2860    0.0000 </r>
       <r>    1.3424    0.0000 </r>
       <r>    1.6137    0.0000 </r>
       <r>    1.6199    0.0000 </r>
      </set>
      <set comment="kpoint 25">
       <r>  -27.7158    1.0000 </r>
       <r>  -27.7119    1.0000 </r>
       <r>  -27.7105    1.0000 </r>
       <r>  -27.7033    1.0000 </r>
       <r>  -27.7029    1.0000 </r>
       <r>  -27.6877    1.0000 </r>
       <r>  -27.6876    1.0000 </r>
       <r>  -27.6844    1.0000 </r>
       <r>  -27.6712    1.0000 </r>
       <r>  -27.6674    1.0000 </r>
       <r>  -16.7426    1.0000 </r>
       <r>  -15.3264    1.0000 </r>
       <r>  -15.2999    1.0000 </r>
       <r>  -14.7727    1.0000 </r>
       <r>  -11.2174    1.0000 </r>
       <r>   -9.3475    1.0000 </r>
       <r>   -7.2987    1.0000 </r>
       <r>   -6.0511    1.0000 </r>
       <r>   -5.7596    1.0000 </r>
       <r>   -5.6642    1.0000 </r>
       <r>   -5.3426    1.0000 </r>
       <r>   -4.8366    1.0000 </r>
       <r>   -4.6813    1.0000 </r>
       <r>   -3.8785    1.0000 </r>
       <r>   -3.1771    1.0000 </r>
       <r>   -2.9568    1.0000 </r>
       <r>   -1.1049    0.0000 </r>
       <r>   -0.8856    0.0000 </r>
       <r>    0.2696    0.0000 </r>
       <r>    0.3005    0.0000 </r>
       <r>    1.0099    0.0000 </r>
       <r>    1.6926    0.0000 </r>
      </set>
      <set comment="kpoint 26">
       <r>  -27.7158    1.0000 </r>
       <r>  -27.7118    1.0000 </r>
       <r>  -27.7104    1.0000 </r>
       <r>  -27.7035    1.0000 </r>
       <r>  -27.7027    1.0000 </r>
       <r>  -27.6879    1.0000 </r>
       <r>  -27.6876    1.0000 </r>
       <r>  -27.6843    1.0000 </r>
       <r>  -27.6711    1.0000 </r>
       <r>  -27.6674    1.0000 </r>
       <r>  -16.7268    1.0000 </r>
       <r>  -15.3317    1.0000 </r>
       <r>  -15.2948    1.0000 </r>
       <r>  -14.7896    1.0000 </r>
       <r>  -11.2051    1.0000 </r>
       <r>   -9.3736    1.0000 </r>
       <r>   -7.2739    1.0000 </r>
       <r>   -6.0798    1.0000 </r>
       <r>   -6.0245    1.0000 </r>
       <r>   -5.4068    1.0000 </r>
       <r>   -5.3975    1.0000 </r>
       <r>   -4.7543    1.0000 </r>
       <r>   -4.7042    1.0000 </r>
       <r>   -3.8660    1.0000 </r>
       <r>   -3.3261    1.0000 </r>
       <r>   -2.8323    1.0000 </r>
       <r>   -1.0946    0.0000 </r>
       <r>   -1.0001    0.0000 </r>
       <r>    0.3065    0.0000 </r>
       <r>    0.4620    0.0000 </r>
       <r>    1.0552    0.0000 </r>
       <r>    1.5976    0.0000 </r>
      </set>
      <set comment="kpoint 27">
       <r>  -27.7158    1.0000 </r>
       <r>  -27.7117    1.0000 </r>
       <r>  -27.7100    1.0000 </r>
       <r>  -27.7039    1.0000 </r>
       <r>  -27.7025    1.0000 </r>
       <r>  -27.6888    1.0000 </r>
       <r>  -27.6874    1.0000 </r>
       <r>  -27.6842    1.0000 </r>
       <r>  -27.6709    1.0000 </r>
       <r>  -27.6675    1.0000 </r>
       <r>  -16.6799    1.0000 </r>
       <r>  -15.3503    1.0000 </r>
       <r>  -15.2799    1.0000 </r>
       <r>  -14.8361    1.0000 </r>
       <r>  -11.1679    1.0000 </r>
       <r>   -9.4515    1.0000 </r>
       <r>   -7.2010    1.0000 </r>
       <r>   -6.3013    1.0000 </r>
       <r>   -6.1668    1.0000 </r>
       <r>   -5.4723    1.0000 </r>
       <r>   -5.1670    1.0000 </r>
       <r>   -4.7727    1.0000 </r>
       <r>   -4.6044    1.0000 </r>
       <r>   -3.8210    1.0000 </r>
       <r>   -3.5397    1.0000 </r>
       <r>   -2.6892    1.0000 </r>
       <r>   -1.1954    0.0000 </r>
       <r>   -1.0593    0.0000 </r>
       <r>    0.4074    0.0000 </r>
       <r>    0.7931    0.0000 </r>
       <r>    1.1855    0.0000 </r>
       <r>    1.4720    0.0000 </r>
      </set>
      <set comment="kpoint 28">
       <r>  -27.7156    1.0000 </r>
       <r>  -27.7116    1.0000 </r>
       <r>  -27.7094    1.0000 </r>
       <r>  -27.7042    1.0000 </r>
       <r>  -27.7023    1.0000 </r>
       <r>  -27.6901    1.0000 </r>
       <r>  -27.6871    1.0000 </r>
       <r>  -27.6841    1.0000 </r>
       <r>  -27.6707    1.0000 </r>
       <r>  -27.6677    1.0000 </r>
       <r>  -16.6031    1.0000 </r>
       <r>  -15.3907    1.0000 </r>
       <r>  -15.2565    1.0000 </r>
       <r>  -14.9003    1.0000 </r>
       <r>  -11.1043    1.0000 </r>
       <r>   -9.5791    1.0000 </r>
       <r>   -7.0856    1.0000 </r>
       <r>   -6.5257    1.0000 </r>
       <r>   -6.2931    1.0000 </r>
       <r>   -5.5001    1.0000 </r>
       <r>   -5.0410    1.0000 </r>
       <r>   -4.8849    1.0000 </r>
       <r>   -4.4832    1.0000 </r>
       <r>   -3.7297    1.0000 </r>
       <r>   -3.7266    1.0000 </r>
       <r>   -2.6106    1.0000 </r>
       <r>   -1.3087    0.0000 </r>
       <r>   -0.9922    0.0000 </r>
       <r>    0.5503    0.0000 </r>
       <r>    1.0562    0.0000 </r>
       <r>    1.3774    0.0000 </r>
       <r>    1.4716    0.0000 </r>
      </set>
      <set comment="kpoint 29">
       <r>  -27.7154    1.0000 </r>
       <r>  -27.7117    1.0000 </r>
       <r>  -27.7086    1.0000 </r>
       <r>  -27.7043    1.0000 </r>
       <r>  -27.7021    1.0000 </r>
       <r>  -27.6918    1.0000 </r>
       <r>  -27.6866    1.0000 </r>
       <r>  -27.6841    1.0000 </r>
       <r>  -27.6703    1.0000 </r>
       <r>  -27.6679    1.0000 </r>
       <r>  -16.4986    1.0000 </r>
       <r>  -15.4647    1.0000 </r>
       <r>  -15.2269    1.0000 </r>
       <r>  -14.9651    1.0000 </r>
       <r>  -11.0129    1.0000 </r>
       <r>   -9.7490    1.0000 </r>
       <r>   -6.9434    1.0000 </r>
       <r>   -6.6881    1.0000 </r>
       <r>   -6.4114    1.0000 </r>
       <r>   -5.4892    1.0000 </r>
       <r>   -5.0580    1.0000 </r>
       <r>   -5.0307    1.0000 </r>
       <r>   -4.4112    1.0000 </r>
       <r>   -3.8730    1.0000 </r>
       <r>   -3.5948    1.0000 </r>
       <r>   -2.6071    1.0000 </r>
       <r>   -1.2836    0.0000 </r>
       <r>   -0.8973    0.0000 </r>
       <r>    0.7160    0.0000 </r>
       <r>    1.0853    0.0000 </r>
       <r>    1.5801    0.0000 </r>
       <r>    1.7225    0.0000 </r>
      </set>
      <set comment="kpoint 30">
       <r>  -27.7150    1.0000 </r>
       <r>  -27.7121    1.0000 </r>
       <r>  -27.7078    1.0000 </r>
       <r>  -27.7045    1.0000 </r>
       <r>  -27.7016    1.0000 </r>
       <r>  -27.6936    1.0000 </r>
       <r>  -27.6861    1.0000 </r>
       <r>  -27.6842    1.0000 </r>
       <r>  -27.6700    1.0000 </r>
       <r>  -27.6681    1.0000 </r>
       <r>  -16.3696    1.0000 </r>
       <r>  -15.5783    1.0000 </r>
       <r>  -15.1935    1.0000 </r>
       <r>  -15.0178    1.0000 </r>
       <r>  -10.8927    1.0000 </r>
       <r>   -9.9482    1.0000 </r>
       <r>   -6.8277    1.0000 </r>
       <r>   -6.7919    1.0000 </r>
       <r>   -6.4452    1.0000 </r>
       <r>   -5.4594    1.0000 </r>
       <r>   -5.2508    1.0000 </r>
       <r>   -5.1345    1.0000 </r>
       <r>   -4.3661    1.0000 </r>
       <r>   -3.9898    1.0000 </r>
       <r>   -3.4358    1.0000 </r>
       <r>   -2.6720    1.0000 </r>
       <r>   -1.1430    0.0000 </r>
       <r>   -0.7966    0.0000 </r>
       <r>    0.8916    0.0000 </r>
       <r>    1.0791    0.0000 </r>
       <r>    1.7240    0.0000 </r>
       <r>    1.9775    0.0000 </r>
      </set>
      <set comment="kpoint 31">
       <r>  -27.7145    1.0000 </r>
       <r>  -27.7126    1.0000 </r>
       <r>  -27.7069    1.0000 </r>
       <r>  -27.7048    1.0000 </r>
       <r>  -27.7005    1.0000 </r>
       <r>  -27.6955    1.0000 </r>
       <r>  -27.6856    1.0000 </r>
       <r>  -27.6844    1.0000 </r>
       <r>  -27.6696    1.0000 </r>
       <r>  -27.6685    1.0000 </r>
       <r>  -16.2206    1.0000 </r>
       <r>  -15.7244    1.0000 </r>
       <r>  -15.1589    1.0000 </r>
       <r>  -15.0581    1.0000 </r>
       <r>  -10.7439    1.0000 </r>
       <r>  -10.1607    1.0000 </r>
       <r>   -6.8463    1.0000 </r>
       <r>   -6.8156    1.0000 </r>
       <r>   -6.3094    1.0000 </r>
       <r>   -5.5078    1.0000 </r>
       <r>   -5.4220    1.0000 </r>
       <r>   -5.2362    1.0000 </r>
       <r>   -4.3210    1.0000 </r>
       <r>   -4.0917    1.0000 </r>
       <r>   -3.2682    1.0000 </r>
       <r>   -2.7882    1.0000 </r>
       <r>   -0.9577    0.0000 </r>
       <r>   -0.7263    0.0000 </r>
       <r>    1.0642    0.0000 </r>
       <r>    1.1269    0.0000 </r>
       <r>    1.7594    0.0000 </r>
       <r>    1.8632    0.0000 </r>
      </set>
      <set comment="kpoint 32">
       <r>  -27.7139    1.0000 </r>
       <r>  -27.7132    1.0000 </r>
       <r>  -27.7061    1.0000 </r>
       <r>  -27.7054    1.0000 </r>
       <r>  -27.6991    1.0000 </r>
       <r>  -27.6973    1.0000 </r>
       <r>  -27.6851    1.0000 </r>
       <r>  -27.6847    1.0000 </r>
       <r>  -27.6692    1.0000 </r>
       <r>  -27.6688    1.0000 </r>
       <r>  -16.0576    1.0000 </r>
       <r>  -15.8887    1.0000 </r>
       <r>  -15.1250    1.0000 </r>
       <r>  -15.0921    1.0000 </r>
       <r>  -10.5686    1.0000 </r>
       <r>  -10.3715    1.0000 </r>
       <r>   -6.8614    1.0000 </r>
       <r>   -6.8459    1.0000 </r>
       <r>   -6.0684    1.0000 </r>
       <r>   -5.7904    1.0000 </r>
       <r>   -5.3774    1.0000 </r>
       <r>   -5.3181    1.0000 </r>
       <r>   -4.2609    1.0000 </r>
       <r>   -4.1831    1.0000 </r>
       <r>   -3.0994    1.0000 </r>
       <r>   -2.9359    1.0000 </r>
       <r>   -0.8019    0.0000 </r>
       <r>   -0.7216    0.0000 </r>
       <r>    1.1989    0.0000 </r>
       <r>    1.2080    0.0000 </r>
       <r>    1.7097    0.0000 </r>
       <r>    1.7278    0.0000 </r>
      </set>
      <set comment="kpoint 33">
       <r>  -27.7150    1.0000 </r>
       <r>  -27.7115    1.0000 </r>
       <r>  -27.7097    1.0000 </r>
       <r>  -27.7042    1.0000 </r>
       <r>  -27.7020    1.0000 </r>
       <r>  -27.6898    1.0000 </r>
       <r>  -27.6872    1.0000 </r>
       <r>  -27.6847    1.0000 </r>
       <r>  -27.6708    1.0000 </r>
       <r>  -27.6679    1.0000 </r>
       <r>  -16.6129    1.0000 </r>
       <r>  -15.5614    1.0000 </r>
       <r>  -15.2389    1.0000 </r>
       <r>  -14.8387    1.0000 </r>
       <r>  -10.9043    1.0000 </r>
       <r>   -9.4894    1.0000 </r>
       <r>   -7.1761    1.0000 </r>
       <r>   -6.1271    1.0000 </r>
       <r>   -5.9758    1.0000 </r>
       <r>   -5.9554    1.0000 </r>
       <r>   -5.2726    1.0000 </r>
       <r>   -4.7502    1.0000 </r>
       <r>   -4.6651    1.0000 </r>
       <r>   -3.7286    1.0000 </r>
       <r>   -3.4434    1.0000 </r>
       <r>   -3.0680    1.0000 </r>
       <r>   -0.9092    0.0000 </r>
       <r>   -0.5230    0.0000 </r>
       <r>    0.3754    0.0000 </r>
       <r>    0.9616    0.0000 </r>
       <r>    1.1439    0.0000 </r>
       <r>    1.4105    0.0000 </r>
      </set>
      <set comment="kpoint 34">
       <r>  -27.7151    1.0000 </r>
       <r>  -27.7116    1.0000 </r>
       <r>  -27.7095    1.0000 </r>
       <r>  -27.7041    1.0000 </r>
       <r>  -27.7020    1.0000 </r>
       <r>  -27.6901    1.0000 </r>
       <r>  -27.6872    1.0000 </r>
       <r>  -27.6846    1.0000 </r>
       <r>  -27.6707    1.0000 </r>
       <r>  -27.6679    1.0000 </r>
       <r>  -16.5986    1.0000 </r>
       <r>  -15.5626    1.0000 </r>
       <r>  -15.2352    1.0000 </r>
       <r>  -14.8500    1.0000 </r>
       <r>  -10.9082    1.0000 </r>
       <r>   -9.5224    1.0000 </r>
       <r>   -7.1411    1.0000 </r>
       <r>   -6.2507    1.0000 </r>
       <r>   -6.1516    1.0000 </r>
       <r>   -5.6536    1.0000 </r>
       <r>   -5.3253    1.0000 </r>
       <r>   -4.7835    1.0000 </r>
       <r>   -4.6002    1.0000 </r>
       <r>   -3.7087    1.0000 </r>
       <r>   -3.5551    1.0000 </r>
       <r>   -2.9530    1.0000 </r>
       <r>   -0.9002    0.0000 </r>
       <r>   -0.6513    0.0000 </r>
       <r>    0.4003    0.0000 </r>
       <r>    1.0636    0.0000 </r>
       <r>    1.1870    0.0000 </r>
       <r>    1.3697    0.0000 </r>
      </set>
      <set comment="kpoint 35">
       <r>  -27.7152    1.0000 </r>
       <r>  -27.7117    1.0000 </r>
       <r>  -27.7090    1.0000 </r>
       <r>  -27.7040    1.0000 </r>
       <r>  -27.7021    1.0000 </r>
       <r>  -27.6909    1.0000 </r>
       <r>  -27.6869    1.0000 </r>
       <r>  -27.6844    1.0000 </r>
       <r>  -27.6705    1.0000 </r>
       <r>  -27.6680    1.0000 </r>
       <r>  -16.5560    1.0000 </r>
       <r>  -15.5682    1.0000 </r>
       <r>  -15.2246    1.0000 </r>
       <r>  -14.8822    1.0000 </r>
       <r>  -10.9161    1.0000 </r>
       <r>   -9.6180    1.0000 </r>
       <r>   -7.0392    1.0000 </r>
       <r>   -6.4844    1.0000 </r>
       <r>   -6.2284    1.0000 </r>
       <r>   -5.4093    1.0000 </r>
       <r>   -5.3522    1.0000 </r>
       <r>   -4.8798    1.0000 </r>
       <r>   -4.4850    1.0000 </r>
       <r>   -3.7289    1.0000 </r>
       <r>   -3.6405    1.0000 </r>
       <r>   -2.7732    1.0000 </r>
       <r>   -0.9191    0.0000 </r>
       <r>   -0.8736    0.0000 </r>
       <r>    0.4700    0.0000 </r>
       <r>    1.1370    0.0000 </r>
       <r>    1.3113    0.0000 </r>
       <r>    1.4540    0.0000 </r>
[...]
       <r>    1.3541    0.0000 </r>
       <r>    1.4799    0.0000 </r>
      </set>
      <set comment="kpoint 54">
       <r>  -27.7150    1.0000 </r>
       <r>  -27.7145    1.0000 </r>
       <r>  -27.7043    1.0000 </r>
       <r>  -27.7034    1.0000 </r>
       <r>  -27.7003    1.0000 </r>
       <r>  -27.6987    1.0000 </r>
       <r>  -27.6848    1.0000 </r>
       <r>  -27.6844    1.0000 </r>
       <r>  -27.6690    1.0000 </r>
       <r>  -27.6687    1.0000 </r>
       <r>  -16.0517    1.0000 </r>
       <r>  -15.9238    1.0000 </r>
       <r>  -15.1070    1.0000 </r>
       <r>  -15.0786    1.0000 </r>
       <r>  -10.6843    1.0000 </r>
       <r>  -10.5342    1.0000 </r>
       <r>   -6.8223    1.0000 </r>
       <r>   -6.7782    1.0000 </r>
       <r>   -5.8088    1.0000 </r>
       <r>   -5.6266    1.0000 </r>
       <r>   -5.2521    1.0000 </r>
       <r>   -5.0705    1.0000 </r>
       <r>   -4.2929    1.0000 </r>
       <r>   -4.2286    1.0000 </r>
       <r>   -2.6862    1.0000 </r>
       <r>   -2.5562    1.0000 </r>
       <r>   -1.2212    0.0000 </r>
       <r>   -1.0303    0.0000 </r>
       <r>    1.1204    0.0000 </r>
       <r>    1.1584    0.0000 </r>
       <r>    1.4063    0.0000 </r>
       <r>    1.4663    0.0000 </r>
      </set>
      <set comment="kpoint 55">
       <r>  -27.7152    1.0000 </r>
       <r>  -27.7149    1.0000 </r>
       <r>  -27.7034    1.0000 </r>
       <r>  -27.7025    1.0000 </r>
       <r>  -27.7010    1.0000 </r>
       <r>  -27.6997    1.0000 </r>
       <r>  -27.6845    1.0000 </r>
       <r>  -27.6843    1.0000 </r>
       <r>  -27.6688    1.0000 </r>
       <r>  -27.6686    1.0000 </r>
       <r>  -15.9907    1.0000 </r>
       <r>  -15.9080    1.0000 </r>
       <r>  -15.1156    1.0000 </r>
       <r>  -15.1010    1.0000 </r>
       <r>  -10.7476    1.0000 </r>
       <r>  -10.6549    1.0000 </r>
       <r>   -6.8472    1.0000 </r>
       <r>   -6.8180    1.0000 </r>
       <r>   -5.7781    1.0000 </r>
       <r>   -5.6860    1.0000 </r>
       <r>   -5.0946    1.0000 </r>
       <r>   -4.9424    1.0000 </r>
       <r>   -4.3203    1.0000 </r>
       <r>   -4.2727    1.0000 </r>
       <r>   -2.5644    1.0000 </r>
       <r>   -2.4916    1.0000 </r>
       <r>   -1.3570    0.0000 </r>
       <r>   -1.2109    0.0000 </r>
       <r>    1.1849    0.0000 </r>
       <r>    1.2275    0.0000 </r>
       <r>    1.4295    0.0000 </r>
       <r>    1.4360    0.0000 </r>
      </set>
      <set comment="kpoint 56">
       <r>  -27.7153    1.0000 </r>
       <r>  -27.7152    1.0000 </r>
       <r>  -27.7027    1.0000 </r>
       <r>  -27.7021    1.0000 </r>
       <r>  -27.7013    1.0000 </r>
       <r>  -27.7006    1.0000 </r>
       <r>  -27.6843    1.0000 </r>
       <r>  -27.6842    1.0000 </r>
       <r>  -27.6687    1.0000 </r>
       <r>  -27.6686    1.0000 </r>
       <r>  -15.9417    1.0000 </r>
       <r>  -15.9129    1.0000 </r>
       <r>  -15.1200    1.0000 </r>
       <r>  -15.1157    1.0000 </r>
       <r>  -10.7658    1.0000 </r>
       <r>  -10.7344    1.0000 </r>
       <r>   -6.8578    1.0000 </r>
       <r>   -6.8479    1.0000 </r>
       <r>   -5.7518    1.0000 </r>
       <r>   -5.7240    1.0000 </r>
       <r>   -4.9654    1.0000 </r>
       <r>   -4.9078    1.0000 </r>
       <r>   -4.3230    1.0000 </r>
       <r>   -4.3039    1.0000 </r>
       <r>   -2.4969    1.0000 </r>
       <r>   -2.4754    1.0000 </r>
       <r>   -1.3952    0.0000 </r>
       <r>   -1.3415    0.0000 </r>
       <r>    1.2278    0.0000 </r>
       <r>    1.2629    0.0000 </r>
       <r>    1.4139    0.0000 </r>
       <r>    1.4319    0.0000 </r>
      </set>
     </set>
    </set>
   </array>
  </eigenvalues>
  <separator name="orbital magnetization" >
   <v name="MAGDIPOLOUT">      0.00000000      0.00000000      0.00000000</v>
  </separator>
  <dos>
   <i name="efermi">     -2.31417372 </i>
   <total>
    <array>
     <dimension dim="1">gridpoints</dimension>
     <dimension dim="2">spin</dimension>
     <field>energy</field>
     <field>total</field>
     <field>integrated</field>
     <set>
      <set comment="spin 1">
       <r>   -29.2070     0.0000     0.0000 </r>
       <r>   -29.0977     0.0000     0.0000 </r>
       <r>   -28.9884     0.0000     0.0000 </r>
       <r>   -28.8792     0.0000     0.0000 </r>
       <r>   -28.7699     0.0000     0.0000 </r>
       <r>   -28.6606     0.0000     0.0000 </r>
       <r>   -28.5514     0.0000     0.0000 </r>
       <r>   -28.4421     0.0000     0.0000 </r>
       <r>   -28.3328     0.0000     0.0000 </r>
       <r>   -28.2236     0.0000     0.0000 </r>
       <r>   -28.1143     0.0000     0.0000 </r>
       <r>   -28.0050     0.0000     0.0000 </r>
       <r>   -27.8958     0.0000     0.0000 </r>
       <r>   -27.7865     0.0000     0.0000 </r>
       <r>   -27.6773   141.9256    15.5075 </r>
       <r>   -27.5680    41.1161    20.0000 </r>
       <r>   -27.4587     0.0000    20.0000 </r>
       <r>   -27.3495     0.0000    20.0000 </r>
       <r>   -27.2402     0.0000    20.0000 </r>
       <r>   -27.1309     0.0000    20.0000 </r>
       <r>   -27.0217     0.0000    20.0000 </r>
       <r>   -26.9124     0.0000    20.0000 </r>
       <r>   -26.8031     0.0000    20.0000 </r>
       <r>   -26.6939     0.0000    20.0000 </r>
       <r>   -26.5846     0.0000    20.0000 </r>
       <r>   -26.4753     0.0000    20.0000 </r>
       <r>   -26.3661     0.0000    20.0000 </r>
       <r>   -26.2568     0.0000    20.0000 </r>
       <r>   -26.1475     0.0000    20.0000 </r>
       <r>   -26.0383     0.0000    20.0000 </r>
       <r>   -25.9290     0.0000    20.0000 </r>
       <r>   -25.8198     0.0000    20.0000 </r>
       <r>   -25.7105     0.0000    20.0000 </r>
       <r>   -25.6012     0.0000    20.0000 </r>
       <r>   -25.4920     0.0000    20.0000 </r>
       <r>   -25.3827     0.0000    20.0000 </r>
       <r>   -25.2734     0.0000    20.0000 </r>
       <r>   -25.1642     0.0000    20.0000 </r>
       <r>   -25.0549     0.0000    20.0000 </r>
       <r>   -24.9456     0.0000    20.0000 </r>
       <r>   -24.8364     0.0000    20.0000 </r>
       <r>   -24.7271     0.0000    20.0000 </r>
       <r>   -24.6178     0.0000    20.0000 </r>
       <r>   -24.5086     0.0000    20.0000 </r>
       <r>   -24.3993     0.0000    20.0000 </r>
       <r>   -24.2900     0.0000    20.0000 </r>
       <r>   -24.1808     0.0000    20.0000 </r>
       <r>   -24.0715     0.0000    20.0000 </r>
       <r>   -23.9623     0.0000    20.0000 </r>
       <r>   -23.8530     0.0000    20.0000 </r>
       <r>   -23.7437     0.0000    20.0000 </r>
       <r>   -23.6345     0.0000    20.0000 </r>
       <r>   -23.5252     0.0000    20.0000 </r>
       <r>   -23.4159     0.0000    20.0000 </r>
       <r>   -23.3067     0.0000    20.0000 </r>
       <r>   -23.1974     0.0000    20.0000 </r>
       <r>   -23.0881     0.0000    20.0000 </r>
       <r>   -22.9789     0.0000    20.0000 </r>
       <r>   -22.8696     0.0000    20.0000 </r>
       <r>   -22.7603     0.0000    20.0000 </r>
       <r>   -22.6511     0.0000    20.0000 </r>
       <r>   -22.5418     0.0000    20.0000 </r>
       <r>   -22.4325     0.0000    20.0000 </r>
       <r>   -22.3233     0.0000    20.0000 </r>
       <r>   -22.2140     0.0000    20.0000 </r>
       <r>   -22.1048     0.0000    20.0000 </r>
       <r>   -21.9955     0.0000    20.0000 </r>
       <r>   -21.8862     0.0000    20.0000 </r>
       <r>   -21.7770     0.0000    20.0000 </r>
       <r>   -21.6677     0.0000    20.0000 </r>
       <r>   -21.5584     0.0000    20.0000 </r>
       <r>   -21.4492     0.0000    20.0000 </r>
       <r>   -21.3399     0.0000    20.0000 </r>
       <r>   -21.2306     0.0000    20.0000 </r>
       <r>   -21.1214     0.0000    20.0000 </r>
       <r>   -21.0121     0.0000    20.0000 </r>
       <r>   -20.9028     0.0000    20.0000 </r>
       <r>   -20.7936     0.0000    20.0000 </r>
       <r>   -20.6843     0.0000    20.0000 </r>
       <r>   -20.5750     0.0000    20.0000 </r>
       <r>   -20.4658     0.0000    20.0000 </r>
       <r>   -20.3565     0.0000    20.0000 </r>
       <r>   -20.2473     0.0000    20.0000 </r>
       <r>   -20.1380     0.0000    20.0000 </r>
       <r>   -20.0287     0.0000    20.0000 </r>
       <r>   -19.9195     0.0000    20.0000 </r>
       <r>   -19.8102     0.0000    20.0000 </r>
       <r>   -19.7009     0.0000    20.0000 </r>
       <r>   -19.5917     0.0000    20.0000 </r>
       <r>   -19.4824     0.0000    20.0000 </r>
       <r>   -19.3731     0.0000    20.0000 </r>
       <r>   -19.2639     0.0000    20.0000 </r>
       <r>   -19.1546     0.0000    20.0000 </r>
       <r>   -19.0453     0.0000    20.0000 </r>
       <r>   -18.9361     0.0000    20.0000 </r>
       <r>   -18.8268     0.0000    20.0000 </r>
       <r>   -18.7175     0.0000    20.0000 </r>
       <r>   -18.6083     0.0000    20.0000 </r>
       <r>   -18.4990     0.0000    20.0000 </r>
       <r>   -18.3897     0.0000    20.0000 </r>
       <r>   -18.2805     0.0000    20.0000 </r>
       <r>   -18.1712     0.0000    20.0000 </r>
       <r>   -18.0620     0.0000    20.0000 </r>
       <r>   -17.9527     0.0000    20.0000 </r>
       <r>   -17.8434     0.0000    20.0000 </r>
       <r>   -17.7342     0.0000    20.0000 </r>
       <r>   -17.6249     0.0000    20.0000 </r>
       <r>   -17.5156     0.0000    20.0000 </r>
       <r>   -17.4064     0.0000    20.0000 </r>
       <r>   -17.2971     0.0000    20.0000 </r>
       <r>   -17.1878     0.0000    20.0000 </r>
       <r>   -17.0786     0.0000    20.0000 </r>
       <r>   -16.9693     0.0000    20.0000 </r>
       <r>   -16.8600     0.8296    20.0906 </r>
       <r>   -16.7508     1.7640    20.2834 </r>
       <r>   -16.6415     1.7524    20.4749 </r>
       <r>   -16.5322     2.1169    20.7062 </r>
       <r>   -16.4230     2.1680    20.9430 </r>
       <r>   -16.3137     1.7952    21.1392 </r>
       <r>   -16.2045     2.7104    21.4354 </r>
       <r>   -16.0952     2.2191    21.6778 </r>
       <r>   -15.9859     3.2805    22.0363 </r>
       <r>   -15.8767     4.2723    22.5031 </r>
       <r>   -15.7674     2.8351    22.8129 </r>
       <r>   -15.6581     1.8468    23.0146 </r>
       <r>   -15.5489     2.0267    23.2361 </r>
       <r>   -15.4396     1.2768    23.3756 </r>
       <r>   -15.3303     3.4478    23.7523 </r>
       <r>   -15.2211     6.0918    24.4179 </r>
       <r>   -15.1118    10.5724    25.5731 </r>
       <r>   -15.0025    11.1272    26.7889 </r>
       <r>   -14.8933     6.5803    27.5080 </r>
       <r>   -14.7840     2.8046    27.8144 </r>
       <r>   -14.6747     1.6395    27.9936 </r>
       <r>   -14.5655     0.0590    28.0000 </r>
       <r>   -14.4562     0.0000    28.0000 </r>
       <r>   -14.3470     0.0000    28.0000 </r>
       <r>   -14.2377     0.0000    28.0000 </r>
       <r>   -14.1284     0.0000    28.0000 </r>
       <r>   -14.0192     0.0000    28.0000 </r>
       <r>   -13.9099     0.0000    28.0000 </r>
       <r>   -13.8006     0.0000    28.0000 </r>
       <r>   -13.6914     0.0000    28.0000 </r>
       <r>   -13.5821     0.0000    28.0000 </r>
       <r>   -13.4728     0.0000    28.0000 </r>
       <r>   -13.3636     0.0000    28.0000 </r>
       <r>   -13.2543     0.0000    28.0000 </r>
       <r>   -13.1450     0.0000    28.0000 </r>
       <r>   -13.0358     0.0000    28.0000 </r>
       <r>   -12.9265     0.0000    28.0000 </r>
       <r>   -12.8172     0.0000    28.0000 </r>
       <r>   -12.7080     0.0000    28.0000 </r>
       <r>   -12.5987     0.0000    28.0000 </r>
       <r>   -12.4895     0.0000    28.0000 </r>
       <r>   -12.3802     0.0000    28.0000 </r>
       <r>   -12.2709     0.0000    28.0000 </r>
       <r>   -12.1617     0.0000    28.0000 </r>
       <r>   -12.0524     0.0000    28.0000 </r>
       <r>   -11.9431     0.0000    28.0000 </r>
       <r>   -11.8339     0.0000    28.0000 </r>
       <r>   -11.7246     0.0563    28.0062 </r>
       <r>   -11.6153     0.6877    28.0813 </r>
       <r>   -11.5061     0.5581    28.1423 </r>
       <r>   -11.3968     0.7061    28.2194 </r>
       <r>   -11.2875     0.9032    28.3181 </r>
       <r>   -11.1783     1.0146    28.4290 </r>
       <r>   -11.0690     1.5759    28.6012 </r>
       <r>   -10.9597     0.4129    28.6463 </r>
       <r>   -10.8505     3.2975    29.0066 </r>
       <r>   -10.7412     2.7096    29.3027 </r>
       <r>   -10.6320     3.3916    29.6732 </r>
       <r>   -10.5227     2.4959    29.9460 </r>
       <r>   -10.4134     1.2542    30.0830 </r>
       <r>   -10.3042     2.4313    30.3487 </r>
       <r>   -10.1949     1.3097    30.4918 </r>
       <r>   -10.0856     1.6394    30.6709 </r>
       <r>    -9.9764     1.2857    30.8114 </r>
       <r>    -9.8671     1.3528    30.9592 </r>
       <r>    -9.7578     1.4914    31.1222 </r>
       <r>    -9.6486     1.2181    31.2553 </r>
       <r>    -9.5393     1.5079    31.4200 </r>
       <r>    -9.4300     1.6842    31.6040 </r>
       <r>    -9.3208     1.5241    31.7706 </r>
       <r>    -9.2115     1.6988    31.9562 </r>
       <r>    -9.1022     0.4009    32.0000 </r>
       <r>    -8.9930     0.0000    32.0000 </r>
       <r>    -8.8837     0.0000    32.0000 </r>
       <r>    -8.7745     0.0000    32.0000 </r>
       <r>    -8.6652     0.0000    32.0000 </r>
       <r>    -8.5559     0.0000    32.0000 </r>
       <r>    -8.4467     0.0000    32.0000 </r>
       <r>    -8.3374     0.0000    32.0000 </r>
       <r>    -8.2281     0.0000    32.0000 </r>
       <r>    -8.1189     0.0000    32.0000 </r>
       <r>    -8.0096     0.0000    32.0000 </r>
       <r>    -7.9003     0.0000    32.0000 </r>
       <r>    -7.7911     0.0000    32.0000 </r>
       <r>    -7.6818     0.0000    32.0000 </r>
       <r>    -7.5725     0.0000    32.0000 </r>
       <r>    -7.4633     0.0468    32.0051 </r>
       <r>    -7.3540     2.7933    32.3103 </r>
       <r>    -7.2447     2.2821    32.5597 </r>
       <r>    -7.1355     1.7320    32.7489 </r>
       <r>    -7.0262     1.8185    32.9476 </r>
       <r>    -6.9170     2.1450    33.1820 </r>
       <r>    -6.8077     8.0004    34.0562 </r>
       <r>    -6.6984     7.0145    34.8226 </r>
       <r>    -6.5892     3.0365    35.1544 </r>
       <r>    -6.4799     1.9708    35.3697 </r>
       <r>    -6.3706     1.7829    35.5645 </r>
       <r>    -6.2614     3.2521    35.9199 </r>
       <r>    -6.1521     5.7164    36.5445 </r>
       <r>    -6.0428     6.0636    37.2070 </r>
       <r>    -5.9336     4.0743    37.6522 </r>
       <r>    -5.8243     3.2020    38.0021 </r>
       <r>    -5.7150     4.5361    38.4977 </r>
       <r>    -5.6058     4.4142    38.9800 </r>
       <r>    -5.4965     5.8020    39.6140 </r>
       <r>    -5.3872     6.9950    40.3783 </r>
       <r>    -5.2780     7.3717    41.1837 </r>
       <r>    -5.1687     5.9104    41.8295 </r>
       <r>    -5.0595     6.1175    42.4980 </r>
       <r>    -4.9502     5.4788    43.0966 </r>
       <r>    -4.8409     4.3184    43.5685 </r>
       <r>    -4.7317     2.9903    43.8952 </r>
       <r>    -4.6224     4.0894    44.3421 </r>
       <r>    -4.5131     1.6718    44.5247 </r>
       <r>    -4.4039     2.6821    44.8178 </r>
       <r>    -4.2946     7.3565    45.6216 </r>
       <r>    -4.1853     5.7954    46.2548 </r>
       <r>    -4.0761     4.0752    46.7001 </r>
       <r>    -3.9668     4.7825    47.2227 </r>
       <r>    -3.8575     3.7191    47.6290 </r>
       <r>    -3.7483     2.3904    47.8902 </r>
       <r>    -3.6390     3.4503    48.2672 </r>
       <r>    -3.5297     3.0695    48.6026 </r>
       <r>    -3.4205     2.3711    48.8617 </r>
       <r>    -3.3112     2.7745    49.1648 </r>
       <r>    -3.2019     2.5797    49.4467 </r>
       <r>    -3.0927     2.6478    49.7360 </r>
       <r>    -2.9834     2.4728    50.0062 </r>
       <r>    -2.8742     3.3757    50.3751 </r>
       <r>    -2.7649     3.4038    50.7470 </r>
       <r>    -2.6556     5.2359    51.3191 </r>
       <r>    -2.5464     3.6348    51.7162 </r>
       <r>    -2.4371     2.5957    51.9999 </r>
       <r>    -2.3278     0.0013    52.0000 </r>
       <r>    -2.2186     0.0000    52.0000 </r>
       <r>    -2.1093     0.0000    52.0000 </r>
       <r>    -2.0000     0.0000    52.0000 </r>
       <r>    -1.8908     0.0000    52.0000 </r>
       <r>    -1.7815     0.0000    52.0000 </r>
       <r>    -1.6722     0.0655    52.0072 </r>
       <r>    -1.5630     0.2576    52.0353 </r>
       <r>    -1.4537     0.5217    52.0923 </r>
       <r>    -1.3444     2.4233    52.3571 </r>
       <r>    -1.2352     5.4793    52.9558 </r>
       <r>    -1.1259     3.8974    53.3816 </r>
       <r>    -1.0167     3.3760    53.7505 </r>
       <r>    -0.9074     3.8119    54.1670 </r>
       <r>    -0.7981     4.4804    54.6566 </r>
       <r>    -0.6889     3.7105    55.0620 </r>
       <r>    -0.5796     3.5283    55.4475 </r>
       <r>    -0.4703     2.5283    55.7238 </r>
       <r>    -0.3611     1.6257    55.9014 </r>
       <r>    -0.2518     1.7562    56.0933 </r>
       <r>    -0.1425     0.3699    56.1337 </r>
       <r>    -0.0333     0.7463    56.2153 </r>
       <r>     0.0760     0.0010    56.2154 </r>
       <r>     0.1853     0.5781    56.2786 </r>
       <r>     0.2945     1.3929    56.4308 </r>
       <r>     0.4038     2.6058    56.7155 </r>
       <r>     0.5131     1.3103    56.8586 </r>
       <r>     0.6223     2.4672    57.1282 </r>
       <r>     0.7316     1.6681    57.3105 </r>
       <r>     0.8408     3.4701    57.6897 </r>
       <r>     0.9501     3.0271    58.0204 </r>
       <r>     1.0594     5.8242    58.6568 </r>
       <r>     1.1686     8.9704    59.6370 </r>
       <r>     1.2779     5.3492    60.2214 </r>
       <r>     1.3872     5.8451    60.8601 </r>
       <r>     1.4964     8.6575    61.8061 </r>
       <r>     1.6057     5.2239    62.3769 </r>
       <r>     1.7150     5.8740    63.0187 </r>
       <r>     1.8242     4.3643    63.4956 </r>
       <r>     1.9335     3.0022    63.8236 </r>
       <r>     2.0428     1.3254    63.9684 </r>
       <r>     2.1520     0.2891    64.0000 </r>
       <r>     2.2613     0.0000    64.0000 </r>
       <r>     2.3706     0.0000    64.0000 </r>
       <r>     2.4798     0.0000    64.0000 </r>
       <r>     2.5891     0.0000    64.0000 </r>
       <r>     2.6983     0.0000    64.0000 </r>
       <r>     2.8076     0.0000    64.0000 </r>
       <r>     2.9169     0.0000    64.0000 </r>
       <r>     3.0261     0.0000    64.0000 </r>
       <r>     3.1354     0.0000    64.0000 </r>
       <r>     3.2447     0.0000    64.0000 </r>
       <r>     3.3539     0.0000    64.0000 </r>
       <r>     3.4632     0.0000    64.0000 </r>
       <r>     3.5725     0.0000    64.0000 </r>
      </set>
     </set>
    </array>
   </total>
  </dos>
 </calculation>
 <structure name="finalpos" >
  <crystal>
   <varray name="basis" >
    <v>       4.80695400       0.00000000       0.00000000 </v>
    <v>       0.00000000       5.57120200       0.00000000 </v>
    <v>       0.00000000       0.00000000      18.07929100 </v>
   </varray>
   <i name="volume">    484.17266485 </i>
   <varray name="rec_basis" >
    <v>       0.20803195       0.00000000       0.00000000 </v>
    <v>       0.00000000       0.17949448       0.00000000 </v>
    <v>       0.00000000       0.00000000       0.05531190 </v>
   </varray>
  </crystal>
  <varray name="positions" >
   <v>       0.50000000       0.50000000       0.50000000 </v>
   <v>       0.00000000      -0.00000000       0.50000000 </v>
   <v>       0.25000000       0.25000000       0.41456221 </v>
   <v>       0.75000000       0.75000000       0.41456221 </v>
   <v>       0.75000000       0.25000000       0.58543779 </v>
   <v>       0.25000000       0.75000000       0.58543779 </v>
  </varray>
 </structure>
</modeling>
