<?xml version="1.0" encoding="ISO-8859-1"?>
<modeling>
 <generator>
  <i name="program" type="string">vasp </i>
  <i name="version" type="string">5.4.1  </i>
  <i name="subversion" type="string">24Jun15 (build Nov 20 2020 10:29:34) complex                          parallel </i>
  <i name="platform" type="string">IFC91_ompi </i>
  <i name="date" type="string">2021 09 09 </i>
  <i name="time" type="string">14:57:19 </i>
 </generator>
 <incar>
  <i type="string" name="PREC">a</i>
  <i type="string" name="ALGO"> Normal</i>
  <i type="int" name="ISPIN">     1</i>
  <i type="int" name="ICHARG">     2</i>
  <i type="int" name="NELM">   250</i>
  <i type="int" name="NELMDL">    -5</i>
  <i type="int" name="NELMIN">     6</i>
  <i type="int" name="IBRION">     2</i>
  <i name="EDIFF">      0.00001000</i>
  <i name="EDIFFG">     -0.01000000</i>
  <i type="int" name="NSW">   200</i>
  <i type="int" name="ISIF">     2</i>
  <i name="ENCUT">    520.00000000</i>
  <i name="POTIM">      0.30000000</i>
  <i type="logical" name="LREAL"> F  </i>
  <i type="int" name="ISMEAR">     0</i>
  <i name="SIGMA">      0.02000000</i>
  <i type="logical" name="LWAVE"> F  </i>
  <i type="logical" name="LCHARG"> F  </i>
  <i type="logical" name="LAECHG"> F  </i>
  <v type="int" name="KPOINT_BSE">    -1     0     0     0</v>
  <i type="int" name="NELM">   250</i>
 </incar>
 <kpoints>
  <generation param="Gamma">
   <v type="int" name="divisions">      15       13        1 </v>
   <v name="usershift">      0.00000000       0.00000000       0.00000000 </v>
   <v name="genvec1">      0.06666667       0.00000000       0.00000000 </v>
   <v name="genvec2">      0.00000000       0.07692308       0.00000000 </v>
   <v name="genvec3">      0.00000000       0.00000000       1.00000000 </v>
   <v name="shift">      0.00000000       0.00000000       0.00000000 </v>
  </generation>
  <varray name="kpointlist" >
   <v>       0.00000000       0.00000000       0.00000000 </v>
   <v>       0.06666667       0.00000000       0.00000000 </v>
   <v>       0.13333333       0.00000000       0.00000000 </v>
   <v>       0.20000000       0.00000000       0.00000000 </v>
   <v>       0.26666667       0.00000000       0.00000000 </v>
   <v>       0.33333333       0.00000000       0.00000000 </v>
   <v>       0.40000000       0.00000000       0.00000000 </v>
   <v>       0.46666667       0.00000000       0.00000000 </v>
   <v>       0.00000000       0.07692308       0.00000000 </v>
   <v>       0.06666667       0.07692308       0.00000000 </v>
   <v>       0.13333333       0.07692308       0.00000000 </v>
   <v>       0.20000000       0.07692308       0.00000000 </v>
   <v>       0.26666667       0.07692308       0.00000000 </v>
   <v>       0.33333333       0.07692308       0.00000000 </v>
   <v>       0.40000000       0.07692308       0.00000000 </v>
   <v>       0.46666667       0.07692308       0.00000000 </v>
   <v>       0.00000000       0.15384615       0.00000000 </v>
   <v>       0.06666667       0.15384615       0.00000000 </v>
   <v>       0.13333333       0.15384615       0.00000000 </v>
   <v>       0.20000000       0.15384615       0.00000000 </v>
   <v>       0.26666667       0.15384615       0.00000000 </v>
   <v>       0.33333333       0.15384615       0.00000000 </v>
   <v>       0.40000000       0.15384615       0.00000000 </v>
   <v>       0.46666667       0.15384615       0.00000000 </v>
   <v>       0.00000000       0.23076923       0.00000000 </v>
   <v>       0.06666667       0.23076923       0.00000000 </v>
   <v>       0.13333333       0.23076923       0.00000000 </v>
   <v>       0.20000000       0.23076923       0.00000000 </v>
   <v>       0.26666667       0.23076923       0.00000000 </v>
   <v>       0.33333333       0.23076923       0.00000000 </v>
   <v>       0.40000000       0.23076923       0.00000000 </v>
   <v>       0.46666667       0.23076923       0.00000000 </v>
   <v>       0.00000000       0.30769231       0.00000000 </v>
   <v>       0.06666667       0.30769231       0.00000000 </v>
   <v>       0.13333333       0.30769231       0.00000000 </v>
   <v>       0.20000000       0.30769231       0.00000000 </v>
   <v>       0.26666667       0.30769231       0.00000000 </v>
   <v>       0.33333333       0.30769231       0.00000000 </v>
   <v>       0.40000000       0.30769231       0.00000000 </v>
   <v>       0.46666667       0.30769231       0.00000000 </v>
   <v>       0.00000000       0.38461538       0.00000000 </v>
   <v>       0.06666667       0.38461538       0.00000000 </v>
   <v>       0.13333333       0.38461538       0.00000000 </v>
   <v>       0.20000000       0.38461538       0.00000000 </v>
   <v>       0.26666667       0.38461538       0.00000000 </v>
   <v>       0.33333333       0.38461538       0.00000000 </v>
   <v>       0.40000000       0.38461538       0.00000000 </v>
   <v>       0.46666667       0.38461538       0.00000000 </v>
   <v>       0.00000000       0.46153846       0.00000000 </v>
   <v>       0.06666667       0.46153846       0.00000000 </v>
   <v>       0.13333333       0.46153846       0.00000000 </v>
   <v>       0.20000000       0.46153846       0.00000000 </v>
   <v>       0.26666667       0.46153846       0.00000000 </v>
   <v>       0.33333333       0.46153846       0.00000000 </v>
   <v>       0.40000000       0.46153846       0.00000000 </v>
   <v>       0.46666667       0.46153846       0.00000000 </v>
  </varray>
  <varray name="weights" >
   <v>       0.00512821 </v>
   <v>       0.01025641 </v>
   <v>       0.01025641 </v>
   <v>       0.01025641 </v>
   <v>       0.01025641 </v>
   <v>       0.01025641 </v>
   <v>       0.01025641 </v>
   <v>       0.01025641 </v>
   <v>       0.01025641 </v>
   <v>       0.02051282 </v>
   <v>       0.02051282 </v>
   <v>       0.02051282 </v>
   <v>       0.02051282 </v>
   <v>       0.02051282 </v>
   <v>       0.02051282 </v>
   <v>       0.02051282 </v>
   <v>       0.01025641 </v>
   <v>       0.02051282 </v>
   <v>       0.02051282 </v>
   <v>       0.02051282 </v>
   <v>       0.02051282 </v>
   <v>       0.02051282 </v>
   <v>       0.02051282 </v>
   <v>       0.02051282 </v>
   <v>       0.01025641 </v>
   <v>       0.02051282 </v>
   <v>       0.02051282 </v>
   <v>       0.02051282 </v>
   <v>       0.02051282 </v>
   <v>       0.02051282 </v>
   <v>       0.02051282 </v>
   <v>       0.02051282 </v>
   <v>       0.01025641 </v>
   <v>       0.02051282 </v>
   <v>       0.02051282 </v>
   <v>       0.02051282 </v>
   <v>       0.02051282 </v>
   <v>       0.02051282 </v>
   <v>       0.02051282 </v>
   <v>       0.02051282 </v>
   <v>       0.01025641 </v>
   <v>       0.02051282 </v>
   <v>       0.02051282 </v>
   <v>       0.02051282 </v>
   <v>       0.02051282 </v>
   <v>       0.02051282 </v>
   <v>       0.02051282 </v>
   <v>       0.02051282 </v>
   <v>       0.01025641 </v>
   <v>       0.02051282 </v>
   <v>       0.02051282 </v>
   <v>       0.02051282 </v>
   <v>       0.02051282 </v>
   <v>       0.02051282 </v>
   <v>       0.02051282 </v>
   <v>       0.02051282 </v>
  </varray>
 </kpoints>
 <parameters>
  <separator name="general" >
   <i type="string" name="SYSTEM">unknown system</i>
   <i type="logical" name="LCOMPAT"> F  </i>
  </separator>
  <separator name="electronic" >
   <i type="string" name="PREC">a</i>
   <i name="ENMAX">    520.00000000</i>
   <i name="ENAUG">    531.35600000</i>
   <i name="EDIFF">      0.00001000</i>
   <i type="int" name="IALGO">    38</i>
   <i type="int" name="IWAVPR">    11</i>
   <i type="int" name="NBANDS">    32</i>
   <i name="NELECT">     52.00000000</i>
   <i type="int" name="TURBO">     0</i>
   <i type="int" name="IRESTART">     0</i>
   <i type="int" name="NREBOOT">     0</i>
   <i type="int" name="NMIN">     0</i>
   <i name="EREF">      0.00000000</i>
   <separator name="electronic smearing" >
    <i type="int" name="ISMEAR">     0</i>
    <i name="SIGMA">      0.02000000</i>
    <i name="KSPACING">      0.50000000</i>
    <i type="logical" name="KGAMMA"> T  </i>
   </separator>
   <separator name="electronic projectors" >
    <i type="logical" name="LREAL"> F  </i>
    <v name="ROPT">      0.00000000      0.00000000</v>
    <i type="int" name="LMAXPAW">  -100</i>
    <i type="int" name="LMAXMIX">     2</i>
    <i type="logical" name="NLSPLINE"> F  </i>
   </separator>
   <separator name="electronic startup" >
    <i type="int" name="ISTART">     0</i>
    <i type="int" name="ICHARG">     2</i>
    <i type="int" name="INIWAV">     1</i>
   </separator>
   <separator name="electronic spin" >
    <i type="int" name="ISPIN">     1</i>
    <i type="logical" name="LNONCOLLINEAR"> F  </i>
    <v name="MAGMOM">      1.00000000      1.00000000      1.00000000      1.00000000      1.00000000      1.00000000</v>
    <i name="NUPDOWN">     -1.00000000</i>
    <i type="logical" name="LSORBIT"> F  </i>
    <v name="SAXIS">      0.00000000      0.00000000      1.00000000</v>
    <i type="logical" name="LSPIRAL"> F  </i>
    <v name="QSPIRAL">      0.00000000      0.00000000      0.00000000</v>
    <i type="logical" name="LZEROZ"> F  </i>
   </separator>
   <separator name="electronic exchange-correlation" >
    <i type="logical" name="LASPH"> F  </i>
    <i type="logical" name="LMETAGGA"> F  </i>
   </separator>
   <separator name="electronic convergence" >
    <i type="int" name="NELM">   250</i>
    <i type="int" name="NELMDL">    -5</i>
    <i type="int" name="NELMIN">     6</i>
    <i name="ENINI">    520.00000000</i>
    <separator name="electronic convergence detail" >
     <i type="logical" name="LDIAG"> T  </i>
     <i type="logical" name="LSUBROT"> F  </i>
     <i name="WEIMIN">      0.00100000</i>
     <i name="EBREAK">      0.00000008</i>
     <i name="DEPER">      0.30000000</i>
     <i type="int" name="NRMM">     4</i>
     <i name="TIME">      0.40000000</i>
    </separator>
   </separator>
   <separator name="electronic mixer" >
    <i name="AMIX">      0.40000000</i>
    <i name="BMIX">      1.00000000</i>
    <i name="AMIN">      0.10000000</i>
    <i name="AMIX_MAG">      1.60000000</i>
    <i name="BMIX_MAG">      1.00000000</i>
    <separator name="electronic mixer details" >
     <i type="int" name="IMIX">     4</i>
     <i type="logical" name="MIXFIRST"> F  </i>
     <i type="int" name="MAXMIX">   -45</i>
     <i name="WC">    100.00000000</i>
     <i type="int" name="INIMIX">     1</i>
     <i type="int" name="MIXPRE">     1</i>
     <i type="int" name="MREMOVE">     5</i>
    </separator>
   </separator>
   <separator name="electronic dipolcorrection" >
    <i type="logical" name="LDIPOL"> F  </i>
    <i type="logical" name="LMONO"> F  </i>
    <i type="int" name="IDIPOL">     0</i>
    <i name="EPSILON">      1.00000000</i>
    <v name="DIPOL">   -100.00000000   -100.00000000   -100.00000000</v>
    <i name="EFIELD">      0.00000000</i>
   </separator>
  </separator>
  <separator name="grids" >
   <i type="int" name="NGX">    36</i>
   <i type="int" name="NGY">    42</i>
   <i type="int" name="NGZ">   140</i>
   <i type="int" name="NGXF">    72</i>
   <i type="int" name="NGYF">    84</i>
   <i type="int" name="NGZF">   280</i>
   <i type="logical" name="ADDGRID"> F  </i>
  </separator>
  <separator name="ionic" >
   <i type="int" name="NSW">   200</i>
   <i type="int" name="IBRION">     2</i>
   <i type="int" name="ISIF">     2</i>
   <i name="PSTRESS">      0.00000000</i>
   <i name="EDIFFG">     -0.01000000</i>
   <i type="int" name="NFREE">     1</i>
   <i name="POTIM">      0.30000000</i>
   <i name="SMASS">     -3.00000000</i>
   <i name="SCALEE">      1.00000000</i>
  </separator>
  <separator name="ionic md" >
   <i name="TEBEG">      0.00010000</i>
   <i name="TEEND">      0.00010000</i>
   <i type="int" name="NBLOCK">     1</i>
   <i type="int" name="KBLOCK">   200</i>
   <i type="int" name="NPACO">   256</i>
   <i name="APACO">     16.00000000</i>
  </separator>
  <separator name="symmetry" >
   <i type="int" name="ISYM">     2</i>
   <i name="SYMPREC">      0.00001000</i>
  </separator>
  <separator name="dos" >
   <i type="logical" name="LORBIT"> F  </i>
   <v name="RWIGS">     -1.00000000     -1.00000000</v>
   <i type="int" name="NEDOS">   301</i>
   <i name="EMIN">     10.00000000</i>
   <i name="EMAX">    -10.00000000</i>
   <i name="EFERMI">      0.00000000</i>
  </separator>
  <separator name="writing" >
   <i type="int" name="NWRITE">     2</i>
   <i type="logical" name="LWAVE"> F  </i>
   <i type="logical" name="LCHARG"> F  </i>
   <i type="logical" name="LPARD"> F  </i>
   <i type="logical" name="LVTOT"> F  </i>
   <i type="logical" name="LVHAR"> F  </i>
   <i type="logical" name="LELF"> F  </i>
   <i type="logical" name="LOPTICS"> F  </i>
   <v name="STM">      0.00000000      0.00000000      0.00000000      0.00000000      0.00000000      0.00000000      0.00000000</v>
  </separator>
  <separator name="performance" >
   <i type="int" name="NPAR">     4</i>
   <i type="int" name="NSIM">     4</i>
   <i type="int" name="NBLK">    -1</i>
   <i type="logical" name="LPLANE"> T  </i>
   <i type="logical" name="LSCALAPACK"> T  </i>
   <i type="logical" name="LSCAAWARE"> F  </i>
   <i type="logical" name="LSCALU"> F  </i>
   <i type="logical" name="LASYNC"> F  </i>
   <i type="logical" name="LORBITALREAL"> F  </i>
  </separator>
  <separator name="miscellaneous" >
   <i type="int" name="IDIOT">     3</i>
   <i type="logical" name="LMUSIC"> F  </i>
   <v name="POMASS">     72.61000000     78.96000000</v>
   <v name="DARWINR">      0.00000000      0.00000000</v>
   <v name="DARWINV">      1.00000000      1.00000000</v>
   <i type="logical" name="LCORR"> T  </i>
  </separator>
  <i type="logical" name="GGA_COMPAT"> T  </i>
  <i type="logical" name="LBERRY"> F  </i>
  <i type="int" name="ICORELEVEL">     0</i>
  <i type="logical" name="LDAU"> F  </i>
  <i type="int" name="I_CONSTRAINED_M">     0</i>
  <separator name="electronic exchange-correlation" >
   <i type="string" name="GGA">--</i>
   <i type="int" name="VOSKOWN">     0</i>
   <i type="logical" name="LHFCALC"> F  </i>
   <i type="string" name="PRECFOCK"></i>
   <i type="logical" name="LSYMGRAD"> F  </i>
   <i type="logical" name="LHFONE"> F  </i>
   <i type="logical" name="LRHFCALC"> F  </i>
   <i type="logical" name="LTHOMAS"> F  </i>
   <i type="logical" name="LMODELHF"> F  </i>
   <i name="ENCUT4O">     -1.00000000</i>
   <i type="int" name="EXXOEP">     0</i>
   <i type="int" name="FOURORBIT">     0</i>
   <i name="AEXX">      0.00000000</i>
   <i name="HFALPHA">      0.00000000</i>
   <i name="MCALPHA">      0.00000000</i>
   <i name="ALDAX">      1.00000000</i>
   <i name="AGGAX">      1.00000000</i>
   <i name="ALDAC">      1.00000000</i>
   <i name="AGGAC">      1.00000000</i>
   <i type="int" name="NKREDX">     1</i>
   <i type="int" name="NKREDY">     1</i>
   <i type="int" name="NKREDZ">     1</i>
   <i type="logical" name="SHIFTRED"> F  </i>
   <i type="logical" name="ODDONLY"> F  </i>
   <i type="logical" name="EVENONLY"> F  </i>
   <i type="int" name="LMAXFOCK">     0</i>
   <i type="int" name="NMAXFOCKAE">     0</i>
   <i type="logical" name="LFOCKAEDFT"> F  </i>
   <i name="HFSCREEN">      0.00000000</i>
   <i name="HFSCREENC">      0.00000000</i>
   <i type="int" name="NBANDSGWLOW">     0</i>
  </separator>
  <separator name="vdW DFT" >
   <i type="logical" name="LUSE_VDW"> F  </i>
   <i name="Zab_VDW">     -0.84910000</i>
   <i name="PARAM1">      0.12340000</i>
   <i name="PARAM2">      1.00000000</i>
   <i name="PARAM3">      0.00000000</i>
  </separator>
  <separator name="model GW" >
   <i type="int" name="MODEL_GW">     0</i>
   <i name="MODEL_EPS0">     49.90737528</i>
   <i name="MODEL_ALPHA">      1.00000000</i>
  </separator>
  <separator name="linear response parameters" >
   <i type="logical" name="LEPSILON"> F  </i>
   <i type="logical" name="LRPA"> F  </i>
   <i type="logical" name="LNABLA"> F  </i>
   <i type="logical" name="LVEL"> F  </i>
   <i type="int" name="KINTER">     0</i>
   <i name="CSHIFT">      0.10000000</i>
   <i name="OMEGAMAX">     -1.00000000</i>
   <i name="DEG_THRESHOLD">      0.00200000</i>
  </separator>
  <separator name="orbital magnetization" >
   <i type="logical" name="NUCIND"> F  </i>
   <v name="MAGPOS">      0.00000000      0.00000000      0.00000000</v>
   <i type="logical" name="LNICSALL"> T  </i>
   <i type="logical" name="ORBITALMAG"> F  </i>
   <i type="logical" name="LMAGBLOCH"> F  </i>
   <i type="logical" name="LCHIMAG"> F  </i>
   <i type="logical" name="LGAUGE"> T  </i>
   <i type="int" name="MAGATOM">     0</i>
   <v name="MAGDIPOL">      0.00000000      0.00000000      0.00000000</v>
   <v name="AVECCONST">      0.00000000      0.00000000      0.00000000</v>
  </separator>
  <separator name="response functions" >
   <i type="logical" name="LADDER"> F  </i>
   <i type="logical" name="LFXC"> F  </i>
   <i type="logical" name="LHARTREE"> T  </i>
   <i type="int" name="IBSE">     0</i>
   <v type="int" name="KPOINT">    -1     0     0     0</v>
   <i type="logical" name="LTCTE"> F  </i>
   <i type="logical" name="LTETE"> F  </i>
   <i type="logical" name="LTRIPLET"> F  </i>
   <i type="logical" name="LFXCEPS"> F  </i>
   <i type="logical" name="LFXHEG"> F  </i>
   <i type="int" name="NATURALO">     0</i>
   <i type="logical" name="L2ORDER"> F  </i>
   <i type="logical" name="LUSEW"> F  </i>
   <i name="ENCUTGW">     -2.00000000</i>
   <i name="ENCUTGWSOFT">     -2.00000000</i>
   <i name="ENCUTLF">     -1.00000000</i>
   <i type="int" name="LMAXMP2">    -1</i>
   <i name="SCISSOR">      0.00000000</i>
   <i type="int" name="NOMEGA">     0</i>
   <i type="int" name="NOMEGAR">     0</i>
   <i type="int" name="NBANDSGW">    -1</i>
   <i type="int" name="NBANDSO">    -1</i>
   <i type="int" name="NBANDSV">    -1</i>
   <i type="int" name="NELM">   250</i>
   <i type="int" name="NELMHF">     1</i>
   <i type="int" name="DIM">     3</i>
   <i type="int" name="ANTIRES">     0</i>
   <i name="OMEGAMAX">    -30.00000000</i>
   <i name="OMEGAMIN">    -30.00000000</i>
   <i name="OMEGATL">   -200.00000000</i>
   <i type="int" name="OMEGAGRID">     0</i>
   <i name="CSHIFT">     -0.10000000</i>
   <i type="logical" name="SELFENERGY"> F  </i>
   <i type="logical" name="LSPECTRAL"> F  </i>
   <i type="logical" name="LSPECTRALGW"> F  </i>
   <i type="logical" name="LSINGLES"> F  </i>
   <i type="logical" name="LFERMIGW"> F  </i>
   <i type="logical" name="ODDONLYGW"> F  </i>
   <i type="logical" name="EVENONLYGW"> F  </i>
   <i type="int" name="NKREDLFX">     1</i>
   <i type="int" name="NKREDLFY">     1</i>
   <i type="int" name="NKREDLFZ">     1</i>
   <i type="int" name="MAXMEM">  1800</i>
   <i type="int" name="TELESCOPE">     0</i>
   <i type="int" name="TAUPAR">     1</i>
   <i type="int" name="OMEGAPAR">    -1</i>
   <i name="LAMBDA">      1.00000000</i>
  </separator>
  <separator name="External order field" >
   <i name="OFIELD_KAPPA">      0.00000000</i>
   <v name="OFIELD_K">      0.00000000      0.00000000      0.00000000</v>
   <i name="OFIELD_Q6_NEAR">      0.00000000</i>
   <i name="OFIELD_Q6_FAR">      0.00000000</i>
   <i name="OFIELD_A">      0.00000000</i>
  </separator>
 </parameters>
 <atominfo>
  <atoms>       6 </atoms>
  <types>       2 </types>
  <array name="atoms" >
   <dimension dim="1">ion</dimension>
   <field type="string">element</field>
   <field type="int">atomtype</field>
   <set>
    <rc><c>Ge</c><c>   1</c></rc>
    <rc><c>Ge</c><c>   1</c></rc>
    <rc><c>Se</c><c>   2</c></rc>
    <rc><c>Se</c><c>   2</c></rc>
    <rc><c>Se</c><c>   2</c></rc>
    <rc><c>Se</c><c>   2</c></rc>
   </set>
  </array>
  <array name="atomtypes" >
   <dimension dim="1">type</dimension>
   <field type="int">atomspertype</field>
   <field type="string">element</field>
   <field>mass</field>
   <field>valence</field>
   <field type="string">pseudopotential</field>
   <set>
    <rc><c>   2</c><c>Ge</c><c>     72.61000000</c><c>     14.00000000</c><c>  PAW_PBE Ge_d 03Jul2007                </c></rc>
    <rc><c>   4</c><c>Se</c><c>     78.96000000</c><c>      6.00000000</c><c>  PAW_PBE Se 06Sep2000                  </c></rc>
   </set>
  </array>
 </atominfo>
 <structure name="initialpos" >
  <crystal>
   <varray name="basis" >
    <v>       4.90607700       0.00000000       0.00000000 </v>
    <v>       0.00000000       5.62663800       0.00000000 </v>
    <v>       0.00000000       0.00000000      18.07929100 </v>
   </varray>
   <i name="volume">    499.07375282 </i>
   <varray name="rec_basis" >
    <v>       0.20382884       0.00000000       0.00000000 </v>
    <v>       0.00000000       0.17772602       0.00000000 </v>
    <v>       0.00000000       0.00000000       0.05531190 </v>
   </varray>
  </crystal>
  <varray name="positions" >
   <v>       0.50000000       0.50000000       0.50000000 </v>
   <v>       0.00000000       0.00000000       0.50000000 </v>
   <v>       0.25000000       0.25000000       0.41502600 </v>
   <v>       0.75000000       0.75000000       0.41502600 </v>
   <v>       0.75000000       0.25000000       0.58497400 </v>
   <v>       0.25000000       0.75000000       0.58497400 </v>
  </varray>
 </structure>
 <calculation>
  <scstep>
   <time name="dav">    1.65    1.65</time>
   <time name="total">    1.69    1.69</time>
   <energy>
    <i name="alphaZ">     46.02734027 </i>
    <i name="ewald">   4910.00857212 </i>
    <i name="hartreedc">  -9696.57667747 </i>
    <i name="XCdc">    142.32813787 </i>
    <i name="pawpsdc">   4514.43351212 </i>
    <i name="pawaedc">  -5329.26418529 </i>
    <i name="eentropy">     -0.00095110 </i>
    <i name="bandstr">   -369.14481622 </i>
    <i name="atom">   6220.98622430 </i>
    <i name="e_fr_energy">    438.79715660 </i>
    <i name="e_wo_entrp">    438.79810770 </i>
    <i name="e_0_energy">    438.79763215 </i>
   </energy>
  </scstep>
  <scstep>
   <time name="dav">    1.77    1.77</time>
   <time name="total">    1.77    1.77</time>
   <energy>
    <i name="e_fr_energy">     45.43812923 </i>
    <i name="e_wo_entrp">     45.43839815 </i>
    <i name="e_0_energy">     45.43826369 </i>
   </energy>
  </scstep>
  <scstep>
   <time name="dav">    1.87    1.87</time>
   <time name="total">    1.87    1.88</time>
   <energy>
    <i name="e_fr_energy">    -21.56434940 </i>
    <i name="e_wo_entrp">    -21.56434940 </i>
    <i name="e_0_energy">    -21.56434940 </i>
   </energy>
  </scstep>
  <scstep>
   <time name="dav">    1.69    1.69</time>
   <time name="total">    1.69    1.69</time>
   <energy>
    <i name="e_fr_energy">    -24.75217957 </i>
    <i name="e_wo_entrp">    -24.75217957 </i>
    <i name="e_0_energy">    -24.75217957 </i>
   </energy>
  </scstep>
  <scstep>
   <time name="dav">    2.02    2.02</time>
   <time name="total">    2.11    2.11</time>
   <energy>
    <i name="e_fr_energy">    -24.86169789 </i>
    <i name="e_wo_entrp">    -24.86169789 </i>
    <i name="e_0_energy">    -24.86169789 </i>
   </energy>
  </scstep>
  <scstep>
   <time name="dav">    1.93    1.93</time>
   <time name="total">    2.05    2.06</time>
   <energy>
    <i name="e_fr_energy">    -24.35919255 </i>
    <i name="e_wo_entrp">    -24.35919255 </i>
    <i name="e_0_energy">    -24.35919255 </i>
   </energy>
  </scstep>
  <scstep>
   <time name="dav">    1.75    1.75</time>
   <time name="total">    1.87    1.87</time>
   <energy>
    <i name="e_fr_energy">    -24.26599494 </i>
    <i name="e_wo_entrp">    -24.26599494 </i>
    <i name="e_0_energy">    -24.26599494 </i>
   </energy>
  </scstep>
  <scstep>
   <time name="dav">    1.85    1.85</time>
   <time name="total">    1.97    1.97</time>
   <energy>
    <i name="e_fr_energy">    -24.26036156 </i>
    <i name="e_wo_entrp">    -24.26036156 </i>
    <i name="e_0_energy">    -24.26036156 </i>
   </energy>
  </scstep>
  <scstep>
   <time name="dav">    1.87    1.87</time>
   <time name="total">    1.99    2.00</time>
   <energy>
    <i name="e_fr_energy">    -24.25990197 </i>
    <i name="e_wo_entrp">    -24.25990197 </i>
    <i name="e_0_energy">    -24.25990197 </i>
   </energy>
  </scstep>
  <scstep>
   <time name="dav">    1.95    1.95</time>
   <time name="total">    2.07    2.08</time>
   <energy>
    <i name="e_fr_energy">    -24.25969296 </i>
    <i name="e_wo_entrp">    -24.25969296 </i>
    <i name="e_0_energy">    -24.25969296 </i>
   </energy>
  </scstep>
  <scstep>
   <time name="dav">    1.60    1.60</time>
   <time name="total">    1.72    1.72</time>
   <energy>
    <i name="e_fr_energy">    -24.25950950 </i>
    <i name="e_wo_entrp">    -24.25950950 </i>
    <i name="e_0_energy">    -24.25950950 </i>
   </energy>
  </scstep>
  <scstep>
   <time name="dav">    1.56    1.56</time>
   <time name="total">    1.68    1.68</time>
   <energy>
    <i name="e_fr_energy">    -24.25964239 </i>
    <i name="e_wo_entrp">    -24.25964239 </i>
    <i name="e_0_energy">    -24.25964239 </i>
   </energy>
  </scstep>
  <scstep>
   <time name="dav">    1.53    1.53</time>
   <time name="total">    1.65    1.65</time>
   <energy>
    <i name="e_fr_energy">    -24.25990182 </i>
    <i name="e_wo_entrp">    -24.25990182 </i>
    <i name="e_0_energy">    -24.25990182 </i>
   </energy>
  </scstep>
  <scstep>
   <time name="dav">    1.46    1.46</time>
   <time name="total">    1.58    1.58</time>
   <energy>
    <i name="e_fr_energy">    -24.26000424 </i>
    <i name="e_wo_entrp">    -24.26000424 </i>
    <i name="e_0_energy">    -24.26000424 </i>
   </energy>
  </scstep>
  <scstep>
   <time name="dav">    1.41    1.41</time>
   <time name="total">    1.53    1.53</time>
   <energy>
    <i name="e_fr_energy">    -24.26005970 </i>
    <i name="e_wo_entrp">    -24.26005970 </i>
    <i name="e_0_energy">    -24.26005970 </i>
   </energy>
  </scstep>
  <scstep>
   <time name="dav">    1.39    1.39</time>
   <time name="total">    1.51    1.51</time>
   <energy>
    <i name="e_fr_energy">    -24.26012155 </i>
    <i name="e_wo_entrp">    -24.26012155 </i>
    <i name="e_0_energy">    -24.26012155 </i>
   </energy>
  </scstep>
  <scstep>
   <time name="dav">    1.28    1.28</time>
   <time name="total">    1.40    1.40</time>
   <energy>
    <i name="e_fr_energy">    -24.26016807 </i>
    <i name="e_wo_entrp">    -24.26016807 </i>
    <i name="e_0_energy">    -24.26016807 </i>
   </energy>
  </scstep>
  <scstep>
   <time name="dav">    1.33    1.33</time>
   <time name="total">    1.45    1.45</time>
   <energy>
    <i name="e_fr_energy">    -24.26019591 </i>
    <i name="e_wo_entrp">    -24.26019591 </i>
    <i name="e_0_energy">    -24.26019591 </i>
   </energy>
  </scstep>
  <scstep>
   <time name="dav">    1.36    1.36</time>
   <time name="total">    1.39    1.39</time>
   <energy>
    <i name="alphaZ">     46.02734027 </i>
    <i name="ewald">   4910.00857212 </i>
    <i name="hartreedc">  -9700.21011332 </i>
    <i name="XCdc">    142.85733112 </i>
    <i name="pawpsdc">   5728.90447912 </i>
    <i name="pawaedc">  -6548.81039909 </i>
    <i name="eentropy">     -0.00000000 </i>
    <i name="bandstr">   -824.02363560 </i>
    <i name="atom">   6220.98622430 </i>
    <i name="e_fr_energy">    -24.26020108 </i>
    <i name="e_wo_entrp">    -24.26020108 </i>
    <i name="e_0_energy">    -24.26020108 </i>
   </energy>
  </scstep>
  <structure>
   <crystal>
    <varray name="basis" >
     <v>       4.90607700       0.00000000       0.00000000 </v>
     <v>       0.00000000       5.62663800       0.00000000 </v>
     <v>       0.00000000       0.00000000      18.07929100 </v>
    </varray>
    <i name="volume">    499.07375282 </i>
    <varray name="rec_basis" >
     <v>       0.20382884       0.00000000       0.00000000 </v>
     <v>       0.00000000       0.17772602       0.00000000 </v>
     <v>       0.00000000       0.00000000       0.05531190 </v>
    </varray>
   </crystal>
   <varray name="positions" >
    <v>       0.50000000       0.50000000       0.50000000 </v>
    <v>       0.00000000       0.00000000       0.50000000 </v>
    <v>       0.25000000       0.25000000       0.41502600 </v>
    <v>       0.75000000       0.75000000       0.41502600 </v>
    <v>       0.75000000       0.25000000       0.58497400 </v>
    <v>       0.25000000       0.75000000       0.58497400 </v>
   </varray>
  </structure>
  <varray name="forces" >
   <v>       0.00000000      -0.00000000       0.00000000 </v>
   <v>       0.00000000      -0.00000000       0.00000000 </v>
   <v>      -0.00000000      -0.00000000       0.05469701 </v>
   <v>      -0.00000000       0.00000000       0.05469701 </v>
   <v>      -0.00000000      -0.00000000      -0.05469701 </v>
   <v>      -0.00000000       0.00000000      -0.05469701 </v>
  </varray>
  <varray name="stress" >
   <v>      -1.59117785       0.00000000       0.00000000 </v>
   <v>       0.00000000      -2.41275534       0.00000000 </v>
   <v>       0.00000000       0.00000000      -1.12966563 </v>
  </varray>
  <energy>
   <i name="e_fr_energy">    -24.26020108 </i>
   <i name="e_wo_entrp">    -24.26020108 </i>
   <i name="e_0_energy">     -0.00000000 </i>
  </energy>
  <time name="totalsc">   34.19   34.23</time>
 </calculation>
 <calculation>
  <scstep>
   <time name="dav">    1.38    1.38</time>
   <time name="total">    1.51    1.51</time>
   <energy>
    <i name="alphaZ">     46.02734027 </i>
    <i name="ewald">   4913.57765488 </i>
    <i name="hartreedc">  -9703.66620360 </i>
    <i name="XCdc">    142.87171254 </i>
    <i name="pawpsdc">   5728.88805192 </i>
    <i name="pawaedc">  -6548.79390053 </i>
    <i name="eentropy">     -0.00000000 </i>
    <i name="bandstr">   -824.15132961 </i>
    <i name="atom">   6220.98622430 </i>
    <i name="e_fr_energy">    -24.26044985 </i>
    <i name="e_wo_entrp">    -24.26044985 </i>
    <i name="e_0_energy">    -24.26044985 </i>
   </energy>
  </scstep>
  <scstep>
   <time name="dav">    1.59    1.60</time>
   <time name="total">    1.71    1.72</time>
   <energy>
    <i name="e_fr_energy">    -24.26049464 </i>
    <i name="e_wo_entrp">    -24.26049464 </i>
    <i name="e_0_energy">    -24.26049464 </i>
   </energy>
  </scstep>
  <scstep>
   <time name="dav">    1.29    1.29</time>
   <time name="total">    1.41    1.41</time>
   <energy>
    <i name="e_fr_energy">    -24.26049455 </i>
    <i name="e_wo_entrp">    -24.26049455 </i>
    <i name="e_0_energy">    -24.26049455 </i>
   </energy>
  </scstep>
  <scstep>
   <time name="dav">    1.19    1.19</time>
   <time name="total">    1.31    1.31</time>
   <energy>
    <i name="e_fr_energy">    -24.26049565 </i>
    <i name="e_wo_entrp">    -24.26049565 </i>
    <i name="e_0_energy">    -24.26049565 </i>
   </energy>
  </scstep>
  <scstep>
   <time name="dav">    1.19    1.19</time>
   <time name="total">    1.31    1.32</time>
   <energy>
    <i name="e_fr_energy">    -24.26049639 </i>
    <i name="e_wo_entrp">    -24.26049639 </i>
    <i name="e_0_energy">    -24.26049639 </i>
   </energy>
  </scstep>
  <scstep>
   <time name="dav">    1.09    1.09</time>
   <time name="total">    1.12    1.12</time>
   <energy>
    <i name="alphaZ">     46.02734027 </i>
    <i name="ewald">   4913.57765488 </i>
    <i name="hartreedc">  -9703.66556029 </i>
    <i name="XCdc">    142.86985956 </i>
    <i name="pawpsdc">   5732.54624462 </i>
    <i name="pawaedc">  -6552.47649375 </i>
    <i name="eentropy">     -0.00000000 </i>
    <i name="bandstr">   -824.12576612 </i>
    <i name="atom">   6220.98622430 </i>
    <i name="e_fr_energy">    -24.26049654 </i>
    <i name="e_wo_entrp">    -24.26049654 </i>
    <i name="e_0_energy">    -24.26049654 </i>
   </energy>
  </scstep>
  <structure>
   <crystal>
    <varray name="basis" >
     <v>       4.90607700       0.00000000       0.00000000 </v>
     <v>       0.00000000       5.62663800       0.00000000 </v>
     <v>       0.00000000       0.00000000      18.07929100 </v>
    </varray>
    <i name="volume">    499.07375282 </i>
    <varray name="rec_basis" >
     <v>       0.20382884       0.00000000       0.00000000 </v>
     <v>       0.00000000       0.17772602       0.00000000 </v>
     <v>       0.00000000       0.00000000       0.05531190 </v>
    </varray>
   </crystal>
   <varray name="positions" >
    <v>       0.50000000       0.50000000       0.50000000 </v>
    <v>       0.00000000      -0.00000000       0.50000000 </v>
    <v>       0.25000000       0.25000000       0.41511357 </v>
    <v>       0.75000000       0.75000000       0.41511357 </v>
    <v>       0.75000000       0.25000000       0.58488643 </v>
    <v>       0.25000000       0.75000000       0.58488643 </v>
   </varray>
  </structure>
  <varray name="forces" >
   <v>       0.00000000       0.00000000       0.00000000 </v>
   <v>      -0.00000000       0.00000000       0.00000000 </v>
   <v>      -0.00000000       0.00000000       0.03695655 </v>
   <v>       0.00000000       0.00000000       0.03695655 </v>
   <v>       0.00000000      -0.00000000      -0.03695655 </v>
   <v>      -0.00000000      -0.00000000      -0.03695655 </v>
  </varray>
  <varray name="stress" >
   <v>      -1.50593152       0.00000000       0.00000000 </v>
   <v>       0.00000000      -2.31242111       0.00000000 </v>
   <v>       0.00000000       0.00000000      -0.79476386 </v>
  </varray>
  <energy>
   <i name="e_fr_energy">    -24.26049654 </i>
   <i name="e_wo_entrp">    -24.26049654 </i>
   <i name="e_0_energy">     -0.00000000 </i>
  </energy>
  <time name="totalsc">    9.57    9.59</time>
 </calculation>
 <calculation>
  <scstep>
   <time name="dav">    1.48    1.48</time>
   <time name="total">    1.60    1.61</time>
   <energy>
    <i name="alphaZ">     46.02734027 </i>
    <i name="ewald">   4921.01286561 </i>
    <i name="hartreedc">  -9710.85691142 </i>
    <i name="XCdc">    142.89981543 </i>
    <i name="pawpsdc">   5732.57083018 </i>
    <i name="pawaedc">  -6552.50112362 </i>
    <i name="eentropy">     -0.00000000 </i>
    <i name="bandstr">   -824.39959288 </i>
    <i name="atom">   6220.98622430 </i>
    <i name="e_fr_energy">    -24.26055213 </i>
    <i name="e_wo_entrp">    -24.26055213 </i>
    <i name="e_0_energy">    -24.26055213 </i>
   </energy>
  </scstep>
  <scstep>
   <time name="dav">    1.69    1.69</time>
   <time name="total">    1.81    1.81</time>
   <energy>
    <i name="e_fr_energy">    -24.26074489 </i>
    <i name="e_wo_entrp">    -24.26074489 </i>
    <i name="e_0_energy">    -24.26074489 </i>
   </energy>
  </scstep>
  <scstep>
   <time name="dav">    1.51    1.51</time>
   <time name="total">    1.62    1.63</time>
   <energy>
    <i name="e_fr_energy">    -24.26074191 </i>
    <i name="e_wo_entrp">    -24.26074191 </i>
    <i name="e_0_energy">    -24.26074191 </i>
   </energy>
  </scstep>
  <scstep>
   <time name="dav">    1.31    1.31</time>
   <time name="total">    1.43    1.43</time>
   <energy>
    <i name="e_fr_energy">    -24.26074296 </i>
    <i name="e_wo_entrp">    -24.26074296 </i>
    <i name="e_0_energy">    -24.26074296 </i>
   </energy>
  </scstep>
  <scstep>
   <time name="dav">    1.18    1.18</time>
   <time name="total">    1.30    1.30</time>
   <energy>
    <i name="e_fr_energy">    -24.26074449 </i>
    <i name="e_wo_entrp">    -24.26074449 </i>
    <i name="e_0_energy">    -24.26074449 </i>
   </energy>
  </scstep>
  <scstep>
   <time name="dav">    1.12    1.12</time>
   <time name="total">    1.15    1.15</time>
   <energy>
    <i name="alphaZ">     46.02734027 </i>
    <i name="ewald">   4921.01286561 </i>
    <i name="hartreedc">  -9710.85100941 </i>
    <i name="XCdc">    142.89591248 </i>
    <i name="pawpsdc">   5740.24021705 </i>
    <i name="pawaedc">  -6560.22088680 </i>
    <i name="eentropy">     -0.00000000 </i>
    <i name="bandstr">   -824.35140814 </i>
    <i name="atom">   6220.98622430 </i>
    <i name="e_fr_energy">    -24.26074464 </i>
    <i name="e_wo_entrp">    -24.26074464 </i>
    <i name="e_0_energy">    -24.26074464 </i>
   </energy>
  </scstep>
  <structure>
   <crystal>
    <varray name="basis" >
     <v>       4.90607700       0.00000000       0.00000000 </v>
     <v>       0.00000000       5.62663800       0.00000000 </v>
     <v>       0.00000000       0.00000000      18.07929100 </v>
    </varray>
    <i name="volume">    499.07375282 </i>
    <varray name="rec_basis" >
     <v>       0.20382884       0.00000000       0.00000000 </v>
     <v>       0.00000000       0.17772602       0.00000000 </v>
     <v>       0.00000000       0.00000000       0.05531190 </v>
    </varray>
   </crystal>
   <varray name="positions" >
    <v>       0.50000000       0.50000000       0.50000000 </v>
    <v>       0.00000000      -0.00000000       0.50000000 </v>
    <v>       0.25000000       0.25000000       0.41529600 </v>
    <v>       0.75000000       0.75000000       0.41529600 </v>
    <v>       0.75000000       0.25000000       0.58470400 </v>
    <v>       0.25000000       0.75000000       0.58470400 </v>
   </varray>
  </structure>
  <varray name="forces" >
   <v>       0.00000000       0.00000000      -0.00000000 </v>
   <v>       0.00000000       0.00000000      -0.00000000 </v>
   <v>      -0.00000000       0.00000000      -0.00027161 </v>
   <v>      -0.00000000      -0.00000000      -0.00027161 </v>
   <v>      -0.00000000      -0.00000000       0.00027161 </v>
   <v>      -0.00000000       0.00000000       0.00027161 </v>
  </varray>
  <varray name="stress" >
   <v>      -1.31438887       0.00000000       0.00000000 </v>
   <v>       0.00000000      -2.09015547       0.00000000 </v>
   <v>       0.00000000       0.00000000      -0.07614549 </v>
  </varray>
  <energy>
   <i name="e_fr_energy">    -24.26074464 </i>
   <i name="e_wo_entrp">    -24.26074464 </i>
   <i name="e_0_energy">     -0.00000000 </i>
  </energy>
  <time name="totalsc">   10.02   10.04</time>
  <eigenvalues>
   <array>
    <dimension dim="1">band</dimension>
    <dimension dim="2">kpoint</dimension>
    <dimension dim="3">spin</dimension>
    <field>eigene</field>
    <field>occ</field>
    <set>
     <set comment="spin 1">
      <set comment="kpoint 1">
       <r>  -27.8341    1.0000 </r>
       <r>  -27.8302    1.0000 </r>
       <r>  -27.8269    1.0000 </r>
       <r>  -27.8223    1.0000 </r>
       <r>  -27.8215    1.0000 </r>
       <r>  -27.8091    1.0000 </r>
       <r>  -27.8045    1.0000 </r>
       <r>  -27.8012    1.0000 </r>
       <r>  -27.7879    1.0000 </r>
       <r>  -27.7829    1.0000 </r>
       <r>  -16.9011    1.0000 </r>
       <r>  -15.3987    1.0000 </r>
       <r>  -15.0155    1.0000 </r>
       <r>  -14.7924    1.0000 </r>
       <r>  -11.8272    1.0000 </r>
       <r>   -9.2277    1.0000 </r>
       <r>   -7.4643    1.0000 </r>
       <r>   -5.9219    1.0000 </r>
       <r>   -5.5154    1.0000 </r>
       <r>   -5.5015    1.0000 </r>
       <r>   -5.2727    1.0000 </r>
       <r>   -5.1399    1.0000 </r>
       <r>   -4.6465    1.0000 </r>
       <r>   -4.1559    1.0000 </r>
       <r>   -2.8931    1.0000 </r>
       <r>   -2.8516    1.0000 </r>
       <r>   -1.9258    0.0000 </r>
       <r>   -1.3993    0.0000 </r>
       <r>   -0.9845    0.0000 </r>
       <r>    0.1085    0.0000 </r>
       <r>    0.6764    0.0000 </r>
       <r>    1.9272    0.0000 </r>
      </set>
      <set comment="kpoint 2">
       <r>  -27.8340    1.0000 </r>
       <r>  -27.8302    1.0000 </r>
       <r>  -27.8268    1.0000 </r>
       <r>  -27.8224    1.0000 </r>
       <r>  -27.8215    1.0000 </r>
       <r>  -27.8090    1.0000 </r>
       <r>  -27.8045    1.0000 </r>
       <r>  -27.8015    1.0000 </r>
       <r>  -27.7879    1.0000 </r>
       <r>  -27.7829    1.0000 </r>
       <r>  -16.8846    1.0000 </r>
       <r>  -15.3928    1.0000 </r>
       <r>  -15.0175    1.0000 </r>
       <r>  -14.8305    1.0000 </r>
       <r>  -11.7851    1.0000 </r>
       <r>   -9.2442    1.0000 </r>
       <r>   -7.4632    1.0000 </r>
       <r>   -5.9151    1.0000 </r>
       <r>   -5.5960    1.0000 </r>
       <r>   -5.5913    1.0000 </r>
       <r>   -5.3316    1.0000 </r>
       <r>   -5.0374    1.0000 </r>
       <r>   -4.6441    1.0000 </r>
       <r>   -4.1425    1.0000 </r>
       <r>   -2.9515    1.0000 </r>
       <r>   -2.8804    1.0000 </r>
       <r>   -1.8279    0.0000 </r>
       <r>   -1.3954    0.0000 </r>
       <r>   -0.8764    0.0000 </r>
       <r>    0.1563    0.0000 </r>
       <r>    0.7246    0.0000 </r>
       <r>    1.9532    0.0000 </r>
      </set>
      <set comment="kpoint 3">
       <r>  -27.8336    1.0000 </r>
       <r>  -27.8300    1.0000 </r>
       <r>  -27.8266    1.0000 </r>
       <r>  -27.8228    1.0000 </r>
       <r>  -27.8212    1.0000 </r>
       <r>  -27.8088    1.0000 </r>
       <r>  -27.8046    1.0000 </r>
       <r>  -27.8023    1.0000 </r>
       <r>  -27.7877    1.0000 </r>
       <r>  -27.7831    1.0000 </r>
       <r>  -16.8355    1.0000 </r>
       <r>  -15.3754    1.0000 </r>
       <r>  -15.0237    1.0000 </r>
       <r>  -14.9381    1.0000 </r>
       <r>  -11.6652    1.0000 </r>
       <r>   -9.2953    1.0000 </r>
       <r>   -7.4588    1.0000 </r>
       <r>   -5.8922    1.0000 </r>
       <r>   -5.7876    1.0000 </r>
       <r>   -5.7549    1.0000 </r>
       <r>   -5.4834    1.0000 </r>
       <r>   -4.8586    1.0000 </r>
       <r>   -4.6525    1.0000 </r>
       <r>   -4.1036    1.0000 </r>
       <r>   -3.1027    1.0000 </r>
       <r>   -2.9587    1.0000 </r>
       <r>   -1.5744    0.0000 </r>
       <r>   -1.3726    0.0000 </r>
       <r>   -0.5721    0.0000 </r>
       <r>    0.2899    0.0000 </r>
       <r>    0.8581    0.0000 </r>
       <r>    1.9735    0.0000 </r>
      </set>
      <set comment="kpoint 4">
       <r>  -27.8330    1.0000 </r>
       <r>  -27.8298    1.0000 </r>
       <r>  -27.8264    1.0000 </r>
       <r>  -27.8234    1.0000 </r>
       <r>  -27.8205    1.0000 </r>
       <r>  -27.8085    1.0000 </r>
       <r>  -27.8048    1.0000 </r>
       <r>  -27.8035    1.0000 </r>
       <r>  -27.7874    1.0000 </r>
       <r>  -27.7833    1.0000 </r>
       <r>  -16.7546    1.0000 </r>
       <r>  -15.3480    1.0000 </r>
       <r>  -15.0989    1.0000 </r>
       <r>  -15.0349    1.0000 </r>
       <r>  -11.4827    1.0000 </r>
       <r>   -9.3855    1.0000 </r>
       <r>   -7.4476    1.0000 </r>
       <r>   -6.0473    1.0000 </r>
       <r>   -5.9017    1.0000 </r>
       <r>   -5.8468    1.0000 </r>
       <r>   -5.6757    1.0000 </r>
       <r>   -4.6937    1.0000 </r>
       <r>   -4.6887    1.0000 </r>
       <r>   -4.0424    1.0000 </r>
       <r>   -3.3068    1.0000 </r>
       <r>   -3.0690    1.0000 </r>
       <r>   -1.3077    0.0000 </r>
       <r>   -1.2404    0.0000 </r>
       <r>   -0.1156    0.0000 </r>
       <r>    0.4854    0.0000 </r>
       <r>    1.0422    0.0000 </r>
       <r>    1.8236    0.0000 </r>
      </set>
      <set comment="kpoint 5">
       <r>  -27.8322    1.0000 </r>
       <r>  -27.8294    1.0000 </r>
       <r>  -27.8264    1.0000 </r>
       <r>  -27.8243    1.0000 </r>
       <r>  -27.8195    1.0000 </r>
       <r>  -27.8081    1.0000 </r>
       <r>  -27.8051    1.0000 </r>
       <r>  -27.8051    1.0000 </r>
       <r>  -27.7871    1.0000 </r>
       <r>  -27.7836    1.0000 </r>
       <r>  -16.6432    1.0000 </r>
       <r>  -15.3123    1.0000 </r>
       <r>  -15.2947    1.0000 </r>
       <r>  -15.0518    1.0000 </r>
       <r>  -11.2547    1.0000 </r>
       <r>   -9.5191    1.0000 </r>
       <r>   -7.4233    1.0000 </r>
       <r>   -6.3254    1.0000 </r>
       <r>   -6.0205    1.0000 </r>
       <r>   -5.8616    1.0000 </r>
       <r>   -5.7732    1.0000 </r>
       <r>   -4.7761    1.0000 </r>
       <r>   -4.5494    1.0000 </r>
       <r>   -3.9630    1.0000 </r>
       <r>   -3.5308    1.0000 </r>
       <r>   -3.1927    1.0000 </r>
       <r>   -1.1848    0.0000 </r>
       <r>   -0.8978    0.0000 </r>
       <r>    0.4472    0.0000 </r>
       <r>    0.7132    0.0000 </r>
       <r>    1.2220    0.0000 </r>
       <r>    1.6602    0.0000 </r>
      </set>
      <set comment="kpoint 6">
       <r>  -27.8312    1.0000 </r>
       <r>  -27.8290    1.0000 </r>
       <r>  -27.8266    1.0000 </r>
       <r>  -27.8253    1.0000 </r>
       <r>  -27.8179    1.0000 </r>
       <r>  -27.8077    1.0000 </r>
       <r>  -27.8071    1.0000 </r>
       <r>  -27.8054    1.0000 </r>
       <r>  -27.7866    1.0000 </r>
       <r>  -27.7841    1.0000 </r>
       <r>  -16.5034    1.0000 </r>
       <r>  -15.5090    1.0000 </r>
       <r>  -15.2709    1.0000 </r>
       <r>  -15.0752    1.0000 </r>
       <r>  -10.9967    1.0000 </r>
       <r>   -9.6978    1.0000 </r>
       <r>   -7.3776    1.0000 </r>
       <r>   -6.5927    1.0000 </r>
       <r>   -6.1075    1.0000 </r>
       <r>   -6.0119    1.0000 </r>
       <r>   -5.6689    1.0000 </r>
       <r>   -4.8973    1.0000 </r>
       <r>   -4.4391    1.0000 </r>
       <r>   -3.8702    1.0000 </r>
       <r>   -3.7494    1.0000 </r>
       <r>   -3.3169    1.0000 </r>
       <r>   -1.0072    0.0000 </r>
       <r>   -0.6164    0.0000 </r>
       <r>    0.9392    0.0000 </r>
       <r>    1.0743    0.0000 </r>
       <r>    1.3421    0.0000 </r>
       <r>    1.5433    0.0000 </r>
      </set>
      <set comment="kpoint 7">
       <r>  -27.8301    1.0000 </r>
       <r>  -27.8285    1.0000 </r>
       <r>  -27.8270    1.0000 </r>
       <r>  -27.8264    1.0000 </r>
       <r>  -27.8160    1.0000 </r>
       <r>  -27.8092    1.0000 </r>
       <r>  -27.8072    1.0000 </r>
       <r>  -27.8058    1.0000 </r>
       <r>  -27.7861    1.0000 </r>
       <r>  -27.7845    1.0000 </r>
       <r>  -16.3380    1.0000 </r>
       <r>  -15.7293    1.0000 </r>
       <r>  -15.2268    1.0000 </r>
       <r>  -15.1052    1.0000 </r>
       <r>  -10.7217    1.0000 </r>
       <r>   -9.9177    1.0000 </r>
       <r>   -7.3015    1.0000 </r>
       <r>   -6.8312    1.0000 </r>
       <r>   -6.1624    1.0000 </r>
       <r>   -6.1150    1.0000 </r>
       <r>   -5.5360    1.0000 </r>
       <r>   -5.0478    1.0000 </r>
       <r>   -4.3419    1.0000 </r>
       <r>   -3.9448    1.0000 </r>
       <r>   -3.7683    1.0000 </r>
       <r>   -3.4361    1.0000 </r>
       <r>   -0.7984    0.0000 </r>
       <r>   -0.4620    0.0000 </r>
       <r>    1.1277    0.0000 </r>
       <r>    1.3879    0.0000 </r>
       <r>    1.4159    0.0000 </r>
       <r>    1.4257    0.0000 </r>
      </set>
      <set comment="kpoint 8">
       <r>  -27.8289    1.0000 </r>
       <r>  -27.8280    1.0000 </r>
       <r>  -27.8276    1.0000 </r>
       <r>  -27.8274    1.0000 </r>
       <r>  -27.8138    1.0000 </r>
       <r>  -27.8115    1.0000 </r>
       <r>  -27.8067    1.0000 </r>
       <r>  -27.8062    1.0000 </r>
       <r>  -27.7856    1.0000 </r>
       <r>  -27.7851    1.0000 </r>
       <r>  -16.1506    1.0000 </r>
       <r>  -15.9457    1.0000 </r>
       <r>  -15.1827    1.0000 </r>
       <r>  -15.1415    1.0000 </r>
       <r>  -10.4420    1.0000 </r>
       <r>  -10.1697    1.0000 </r>
       <r>   -7.1874    1.0000 </r>
       <r>   -7.0308    1.0000 </r>
       <r>   -6.1846    1.0000 </r>
       <r>   -6.1707    1.0000 </r>
       <r>   -5.3810    1.0000 </r>
       <r>   -5.2139    1.0000 </r>
       <r>   -4.2371    1.0000 </r>
       <r>   -4.1076    1.0000 </r>
       <r>   -3.6610    1.0000 </r>
       <r>   -3.5503    1.0000 </r>
       <r>   -0.5994    0.0000 </r>
       <r>   -0.4663    0.0000 </r>
       <r>    1.2557    0.0000 </r>
       <r>    1.3348    0.0000 </r>
       <r>    1.3925    0.0000 </r>
       <r>    1.3981    0.0000 </r>
      </set>
      <set comment="kpoint 9">
       <r>  -27.8340    1.0000 </r>
       <r>  -27.8301    1.0000 </r>
       <r>  -27.8269    1.0000 </r>
       <r>  -27.8221    1.0000 </r>
       <r>  -27.8217    1.0000 </r>
       <r>  -27.8090    1.0000 </r>
       <r>  -27.8046    1.0000 </r>
       <r>  -27.8016    1.0000 </r>
       <r>  -27.7878    1.0000 </r>
       <r>  -27.7829    1.0000 </r>
       <r>  -16.8828    1.0000 </r>
       <r>  -15.3902    1.0000 </r>
       <r>  -15.0643    1.0000 </r>
       <r>  -14.8014    1.0000 </r>
       <r>  -11.7652    1.0000 </r>
       <r>   -9.2471    1.0000 </r>
       <r>   -7.4506    1.0000 </r>
       <r>   -5.9445    1.0000 </r>
       <r>   -5.5720    1.0000 </r>
       <r>   -5.4925    1.0000 </r>
       <r>   -5.3537    1.0000 </r>
       <r>   -5.1066    1.0000 </r>
       <r>   -4.6436    1.0000 </r>
       <r>   -4.1267    1.0000 </r>
       <r>   -2.9211    1.0000 </r>
       <r>   -2.9203    1.0000 </r>
       <r>   -1.8108    0.0000 </r>
       <r>   -1.3760    0.0000 </r>
       <r>   -0.8578    0.0000 </r>
       <r>    0.1254    0.0000 </r>
       <r>    0.7083    0.0000 </r>
       <r>    1.9517    0.0000 </r>
      </set>
      <set comment="kpoint 10">
       <r>  -27.8339    1.0000 </r>
       <r>  -27.8300    1.0000 </r>
       <r>  -27.8268    1.0000 </r>
       <r>  -27.8222    1.0000 </r>
       <r>  -27.8216    1.0000 </r>
       <r>  -27.8089    1.0000 </r>
       <r>  -27.8046    1.0000 </r>
       <r>  -27.8018    1.0000 </r>
       <r>  -27.7878    1.0000 </r>
       <r>  -27.7830    1.0000 </r>
       <r>  -16.8665    1.0000 </r>
       <r>  -15.3845    1.0000 </r>
       <r>  -15.0693    1.0000 </r>
       <r>  -14.8337    1.0000 </r>
       <r>  -11.7270    1.0000 </r>
       <r>   -9.2650    1.0000 </r>
       <r>   -7.4466    1.0000 </r>
       <r>   -5.9490    1.0000 </r>
       <r>   -5.6991    1.0000 </r>
       <r>   -5.5713    1.0000 </r>
       <r>   -5.3329    1.0000 </r>
       <r>   -5.0098    1.0000 </r>
       <r>   -4.6483    1.0000 </r>
       <r>   -4.1143    1.0000 </r>
       <r>   -3.0535    1.0000 </r>
       <r>   -2.8583    1.0000 </r>
       <r>   -1.7687    0.0000 </r>
       <r>   -1.3711    0.0000 </r>
       <r>   -0.7276    0.0000 </r>
       <r>    0.1715    0.0000 </r>
       <r>    0.7554    0.0000 </r>
       <r>    1.9161    0.0000 </r>
      </set>
      <set comment="kpoint 11">
       <r>  -27.8336    1.0000 </r>
       <r>  -27.8298    1.0000 </r>
       <r>  -27.8267    1.0000 </r>
       <r>  -27.8225    1.0000 </r>
       <r>  -27.8213    1.0000 </r>
       <r>  -27.8087    1.0000 </r>
       <r>  -27.8048    1.0000 </r>
       <r>  -27.8025    1.0000 </r>
       <r>  -27.7876    1.0000 </r>
       <r>  -27.7831    1.0000 </r>
       <r>  -16.8179    1.0000 </r>
       <r>  -15.3677    1.0000 </r>
       <r>  -15.0911    1.0000 </r>
       <r>  -14.9184    1.0000 </r>
       <r>  -11.6177    1.0000 </r>
       <r>   -9.3205    1.0000 </r>
       <r>   -7.4339    1.0000 </r>
       <r>   -5.9728    1.0000 </r>
       <r>   -5.9385    1.0000 </r>
       <r>   -5.6832    1.0000 </r>
       <r>   -5.3845    1.0000 </r>
       <r>   -4.8354    1.0000 </r>
       <r>   -4.6680    1.0000 </r>
       <r>   -4.0771    1.0000 </r>
       <r>   -3.2330    1.0000 </r>
       <r>   -2.8755    1.0000 </r>
       <r>   -1.6197    0.0000 </r>
       <r>   -1.3460    0.0000 </r>
       <r>   -0.3874    0.0000 </r>
       <r>    0.2995    0.0000 </r>
       <r>    0.8869    0.0000 </r>
       <r>    1.7905    0.0000 </r>
      </set>
      <set comment="kpoint 12">
       <r>  -27.8330    1.0000 </r>
       <r>  -27.8295    1.0000 </r>
       <r>  -27.8267    1.0000 </r>
       <r>  -27.8230    1.0000 </r>
       <r>  -27.8206    1.0000 </r>
       <r>  -27.8084    1.0000 </r>
       <r>  -27.8051    1.0000 </r>
       <r>  -27.8035    1.0000 </r>
       <r>  -27.7874    1.0000 </r>
       <r>  -27.7834    1.0000 </r>
       <r>  -16.7380    1.0000 </r>
       <r>  -15.3412    1.0000 </r>
       <r>  -15.1666    1.0000 </r>
       <r>  -15.0051    1.0000 </r>
       <r>  -11.4500    1.0000 </r>
       <r>   -9.4169    1.0000 </r>
       <r>   -7.4108    1.0000 </r>
       <r>   -6.1959    1.0000 </r>
       <r>   -6.0353    1.0000 </r>
       <r>   -5.7261    1.0000 </r>
       <r>   -5.5275    1.0000 </r>
       <r>   -4.7189    1.0000 </r>
       <r>   -4.6696    1.0000 </r>
       <r>   -4.0157    1.0000 </r>
       <r>   -3.4331    1.0000 </r>
       <r>   -2.9568    1.0000 </r>
       <r>   -1.3635    0.0000 </r>
       <r>   -1.2801    0.0000 </r>
       <r>    0.0800    0.0000 </r>
       <r>    0.4850    0.0000 </r>
       <r>    1.0713    0.0000 </r>
       <r>    1.6344    0.0000 </r>
      </set>
      <set comment="kpoint 13">
       <r>  -27.8323    1.0000 </r>
       <r>  -27.8291    1.0000 </r>
       <r>  -27.8269    1.0000 </r>
       <r>  -27.8237    1.0000 </r>
       <r>  -27.8195    1.0000 </r>
       <r>  -27.8080    1.0000 </r>
       <r>  -27.8060    1.0000 </r>
       <r>  -27.8045    1.0000 </r>
       <r>  -27.7870    1.0000 </r>
       <r>  -27.7837    1.0000 </r>
       <r>  -16.6280    1.0000 </r>
       <r>  -15.3254    1.0000 </r>
       <r>  -15.3069    1.0000 </r>
       <r>  -15.0484    1.0000 </r>
       <r>  -11.2389    1.0000 </r>
       <r>   -9.5574    1.0000 </r>
       <r>   -7.3738    1.0000 </r>
       <r>   -6.4378    1.0000 </r>
       <r>   -6.1136    1.0000 </r>
       <r>   -5.7121    1.0000 </r>
       <r>   -5.6987    1.0000 </r>
       <r>   -4.8119    1.0000 </r>
       <r>   -4.5351    1.0000 </r>
       <r>   -3.9324    1.0000 </r>
       <r>   -3.6318    1.0000 </r>
       <r>   -3.0757    1.0000 </r>
       <r>   -1.1598    0.0000 </r>
       <r>   -1.0534    0.0000 </r>
       <r>    0.6144    0.0000 </r>
       <r>    0.6972    0.0000 </r>
       <r>    1.2571    0.0000 </r>
       <r>    1.4957    0.0000 </r>
      </set>
      <set comment="kpoint 14">
       <r>  -27.8315    1.0000 </r>
       <r>  -27.8285    1.0000 </r>
       <r>  -27.8273    1.0000 </r>
       <r>  -27.8245    1.0000 </r>
       <r>  -27.8180    1.0000 </r>
       <r>  -27.8076    1.0000 </r>
       <r>  -27.8076    1.0000 </r>
       <r>  -27.8051    1.0000 </r>
       <r>  -27.7866    1.0000 </r>
       <r>  -27.7841    1.0000 </r>
       <r>  -16.4902    1.0000 </r>
       <r>  -15.5237    1.0000 </r>
       <r>  -15.2672    1.0000 </r>
       <r>  -15.0779    1.0000 </r>
       <r>  -10.9981    1.0000 </r>
       <r>   -9.7411    1.0000 </r>
       <r>   -7.3183    1.0000 </r>
       <r>   -6.6525    1.0000 </r>
       <r>   -6.1727    1.0000 </r>
       <r>   -5.8918    1.0000 </r>
       <r>   -5.6276    1.0000 </r>
       <r>   -4.9421    1.0000 </r>
       <r>   -4.4294    1.0000 </r>
       <r>   -3.8325    1.0000 </r>
       <r>   -3.8155    1.0000 </r>
       <r>   -3.2099    1.0000 </r>
       <r>   -0.9909    0.0000 </r>
       <r>   -0.7657    0.0000 </r>
       <r>    0.9035    0.0000 </r>
       <r>    1.1500    0.0000 </r>
       <r>    1.3893    0.0000 </r>
       <r>    1.4223    0.0000 </r>
      </set>
      <set comment="kpoint 15">
       <r>  -27.8306    1.0000 </r>
       <r>  -27.8280    1.0000 </r>
       <r>  -27.8278    1.0000 </r>
       <r>  -27.8254    1.0000 </r>
       <r>  -27.8161    1.0000 </r>
       <r>  -27.8096    1.0000 </r>
       <r>  -27.8071    1.0000 </r>
       <r>  -27.8056    1.0000 </r>
       <r>  -27.7861    1.0000 </r>
       <r>  -27.7845    1.0000 </r>
       <r>  -16.3275    1.0000 </r>
       <r>  -15.7342    1.0000 </r>
       <r>  -15.2250    1.0000 </r>
       <r>  -15.1086    1.0000 </r>
       <r>  -10.7391    1.0000 </r>
       <r>   -9.9620    1.0000 </r>
       <r>   -7.2393    1.0000 </r>
       <r>   -6.8391    1.0000 </r>
       <r>   -6.1991    1.0000 </r>
       <r>   -6.0372    1.0000 </r>
       <r>   -5.5250    1.0000 </r>
       <r>   -5.0941    1.0000 </r>
       <r>   -4.3360    1.0000 </r>
       <r>   -3.9787    1.0000 </r>
       <r>   -3.7212    1.0000 </r>
       <r>   -3.3456    1.0000 </r>
       <r>   -0.7998    0.0000 </r>
       <r>   -0.5783    0.0000 </r>
       <r>    1.0747    0.0000 </r>
       <r>    1.3101    0.0000 </r>
       <r>    1.4456    0.0000 </r>
       <r>    1.4936    0.0000 </r>
      </set>
      <set comment="kpoint 16">
       <r>  -27.8297    1.0000 </r>
       <r>  -27.8288    1.0000 </r>
       <r>  -27.8270    1.0000 </r>
       <r>  -27.8262    1.0000 </r>
       <r>  -27.8140    1.0000 </r>
       <r>  -27.8118    1.0000 </r>
       <r>  -27.8066    1.0000 </r>
       <r>  -27.8061    1.0000 </r>
       <r>  -27.7856    1.0000 </r>
       <r>  -27.7850    1.0000 </r>
       <r>  -16.1437    1.0000 </r>
       <r>  -15.9438    1.0000 </r>
       <r>  -15.1830    1.0000 </r>
       <r>  -15.1437    1.0000 </r>
       <r>  -10.4727    1.0000 </r>
       <r>  -10.2098    1.0000 </r>
       <r>   -7.1333    1.0000 </r>
       <r>   -6.9996    1.0000 </r>
       <r>   -6.1883    1.0000 </r>
       <r>   -6.1359    1.0000 </r>
       <r>   -5.3972    1.0000 </r>
       <r>   -5.2505    1.0000 </r>
       <r>   -4.2367    1.0000 </r>
       <r>   -4.1192    1.0000 </r>
       <r>   -3.6021    1.0000 </r>
       <r>   -3.4768    1.0000 </r>
       <r>   -0.6300    0.0000 </r>
       <r>   -0.5379    0.0000 </r>
       <r>    1.1994    0.0000 </r>
       <r>    1.2829    0.0000 </r>
       <r>    1.4377    0.0000 </r>
       <r>    1.4459    0.0000 </r>
      </set>
      <set comment="kpoint 17">
       <r>  -27.8336    1.0000 </r>
       <r>  -27.8297    1.0000 </r>
       <r>  -27.8269    1.0000 </r>
       <r>  -27.8221    1.0000 </r>
       <r>  -27.8215    1.0000 </r>
       <r>  -27.8088    1.0000 </r>
       <r>  -27.8047    1.0000 </r>
       <r>  -27.8025    1.0000 </r>
       <r>  -27.7876    1.0000 </r>
       <r>  -27.7832    1.0000 </r>
       <r>  -16.8282    1.0000 </r>
       <r>  -15.3652    1.0000 </r>
       <r>  -15.1985    1.0000 </r>
       <r>  -14.8281    1.0000 </r>
       <r>  -11.5921    1.0000 </r>
       <r>   -9.3077    1.0000 </r>
       <r>   -7.4084    1.0000 </r>
       <r>   -6.0028    1.0000 </r>
       <r>   -5.7166    1.0000 </r>
       <r>   -5.5602    1.0000 </r>
       <r>   -5.4642    1.0000 </r>
       <r>   -5.0152    1.0000 </r>
       <r>   -4.6536    1.0000 </r>
       <r>   -4.0446    1.0000 </r>
       <r>   -3.0890    1.0000 </r>
       <r>   -2.9913    1.0000 </r>
       <r>   -1.5225    0.0000 </r>
       <r>   -1.3042    0.0000 </r>
       <r>   -0.5069    0.0000 </r>
       <r>    0.1749    0.0000 </r>
       <r>    0.7957    0.0000 </r>
       <r>    1.8456    0.0000 </r>
      </set>
      <set comment="kpoint 18">
       <r>  -27.8336    1.0000 </r>
       <r>  -27.8296    1.0000 </r>
       <r>  -27.8269    1.0000 </r>
       <r>  -27.8219    1.0000 </r>
       <r>  -27.8215    1.0000 </r>
       <r>  -27.8087    1.0000 </r>
       <r>  -27.8048    1.0000 </r>
       <r>  -27.8027    1.0000 </r>
       <r>  -27.7876    1.0000 </r>
       <r>  -27.7832    1.0000 </r>
       <r>  -16.8124    1.0000 </r>
       <r>  -15.3600    1.0000 </r>
       <r>  -15.2056    1.0000 </r>
       <r>  -14.8511    1.0000 </r>
       <r>  -11.5641    1.0000 </r>
       <r>   -9.3298    1.0000 </r>
       <r>   -7.3964    1.0000 </r>
       <r>   -6.0238    1.0000 </r>
       <r>   -5.9142    1.0000 </r>
       <r>   -5.5186    1.0000 </r>
       <r>   -5.4137    1.0000 </r>
       <r>   -4.9306    1.0000 </r>
       <r>   -4.6687    1.0000 </r>
       <r>   -4.0336    1.0000 </r>
       <r>   -3.2304    1.0000 </r>
       <r>   -2.8941    1.0000 </r>
       <r>   -1.5738    0.0000 </r>
       <r>   -1.2967    0.0000 </r>
       <r>   -0.3447    0.0000 </r>
       <r>    0.2156    0.0000 </r>
       <r>    0.8405    0.0000 </r>
       <r>    1.7291    0.0000 </r>
      </set>
      <set comment="kpoint 19">
       <r>  -27.8334    1.0000 </r>
       <r>  -27.8293    1.0000 </r>
       <r>  -27.8271    1.0000 </r>
       <r>  -27.8218    1.0000 </r>
       <r>  -27.8215    1.0000 </r>
       <r>  -27.8085    1.0000 </r>
       <r>  -27.8052    1.0000 </r>
       <r>  -27.8031    1.0000 </r>
       <r>  -27.7874    1.0000 </r>
       <r>  -27.7833    1.0000 </r>
       <r>  -16.7655    1.0000 </r>
       <r>  -15.3451    1.0000 </r>
       <r>  -15.2322    1.0000 </r>
       <r>  -14.9121    1.0000 </r>
       <r>  -11.4830    1.0000 </r>
       <r>   -9.3970    1.0000 </r>
       <r>   -7.3608    1.0000 </r>
       <r>   -6.1751    1.0000 </r>
       <r>   -6.0895    1.0000 </r>
       <r>   -5.5899    1.0000 </r>
       <r>   -5.3111    1.0000 </r>
       <r>   -4.7694    1.0000 </r>
       <r>   -4.7132    1.0000 </r>
       <r>   -3.9978    1.0000 </r>
       <r>   -3.4273    1.0000 </r>
       <r>   -2.8239    1.0000 </r>
       <r>   -1.6157    0.0000 </r>
       <r>   -1.2670    0.0000 </r>
       <r>    0.0294    0.0000 </r>
       <r>    0.3270    0.0000 </r>
       <r>    0.9677    0.0000 </r>
       <r>    1.5732    0.0000 </r>
      </set>
      <set comment="kpoint 20">
       <r>  -27.8331    1.0000 </r>
       <r>  -27.8289    1.0000 </r>
       <r>  -27.8274    1.0000 </r>
       <r>  -27.8222    1.0000 </r>
       <r>  -27.8208    1.0000 </r>
       <r>  -27.8082    1.0000 </r>
       <r>  -27.8059    1.0000 </r>
       <r>  -27.8037    1.0000 </r>
       <r>  -27.7872    1.0000 </r>
       <r>  -27.7835    1.0000 </r>
       <r>  -16.6884    1.0000 </r>
       <r>  -15.3214    1.0000 </r>
       <r>  -15.2940    1.0000 </r>
       <r>  -14.9861    1.0000 </r>
       <r>  -11.3558    1.0000 </r>
       <r>   -9.5101    1.0000 </r>
       <r>   -7.3037    1.0000 </r>
       <r>   -6.4108    1.0000 </r>
       <r>   -6.1844    1.0000 </r>
       <r>   -5.6129    1.0000 </r>
       <r>   -5.3331    1.0000 </r>
       <r>   -4.7919    1.0000 </r>
       <r>   -4.6180    1.0000 </r>
       <r>   -3.9313    1.0000 </r>
       <r>   -3.6175    1.0000 </r>
       <r>   -2.8263    1.0000 </r>
       <r>   -1.5374    0.0000 </r>
       <r>   -1.2006    0.0000 </r>
       <r>    0.4800    0.0000 </r>
       <r>    0.4844    0.0000 </r>
       <r>    1.1531    0.0000 </r>
       <r>    1.4377    0.0000 </r>
      </set>
      <set comment="kpoint 21">
       <r>  -27.8326    1.0000 </r>
       <r>  -27.8282    1.0000 </r>
       <r>  -27.8278    1.0000 </r>
       <r>  -27.8227    1.0000 </r>
       <r>  -27.8196    1.0000 </r>
       <r>  -27.8078    1.0000 </r>
       <r>  -27.8071    1.0000 </r>
       <r>  -27.8042    1.0000 </r>
       <r>  -27.7868    1.0000 </r>
       <r>  -27.7838    1.0000 </r>
       <r>  -16.5828    1.0000 </r>
       <r>  -15.4082    1.0000 </r>
       <r>  -15.2911    1.0000 </r>
       <r>  -15.0451    1.0000 </r>
       <r>  -11.1912    1.0000 </r>
       <r>   -9.6671    1.0000 </r>
       <r>   -7.2297    1.0000 </r>
       <r>   -6.6023    1.0000 </r>
       <r>   -6.2691    1.0000 </r>
       <r>   -5.5957    1.0000 </r>
       <r>   -5.4568    1.0000 </r>
       <r>   -4.9114    1.0000 </r>
       <r>   -4.5020    1.0000 </r>
       <r>   -3.8333    1.0000 </r>
       <r>   -3.7830    1.0000 </r>
       <r>   -2.8936    1.0000 </r>
       <r>   -1.3395    0.0000 </r>
       <r>   -1.0911    0.0000 </r>
       <r>    0.6598    0.0000 </r>
       <r>    0.9040    0.0000 </r>
       <r>    1.3503    0.0000 </r>
       <r>    1.3833    0.0000 </r>
      </set>
      <set comment="kpoint 22">
       <r>  -27.8321    1.0000 </r>
       <r>  -27.8285    1.0000 </r>
       <r>  -27.8275    1.0000 </r>
       <r>  -27.8233    1.0000 </r>
       <r>  -27.8182    1.0000 </r>
       <r>  -27.8087    1.0000 </r>
       <r>  -27.8073    1.0000 </r>
       <r>  -27.8047    1.0000 </r>
       <r>  -27.7864    1.0000 </r>
       <r>  -27.7842    1.0000 </r>
       <r>  -16.4511    1.0000 </r>
       <r>  -15.5671    1.0000 </r>
       <r>  -15.2563    1.0000 </r>
       <r>  -15.0854    1.0000 </r>
       <r>  -10.9975    1.0000 </r>
       <r>   -9.8613    1.0000 </r>
       <r>   -7.1478    1.0000 </r>
       <r>   -6.7468    1.0000 </r>
       <r>   -6.3094    1.0000 </r>
       <r>   -5.6378    1.0000 </r>
       <r>   -5.5549    1.0000 </r>
       <r>   -5.0574    1.0000 </r>
       <r>   -4.4143    1.0000 </r>
       <r>   -3.9232    1.0000 </r>
       <r>   -3.7120    1.0000 </r>
       <r>   -3.0054    1.0000 </r>
       <r>   -1.0875    0.0000 </r>
       <r>   -0.9513    0.0000 </r>
       <r>    0.8300    0.0000 </r>
       <r>    1.1005    0.0000 </r>
       <r>    1.4987    0.0000 </r>
       <r>    1.5853    0.0000 </r>
      </set>
      <set comment="kpoint 23">
       <r>  -27.8315    1.0000 </r>
       <r>  -27.8292    1.0000 </r>
       <r>  -27.8266    1.0000 </r>
       <r>  -27.8241    1.0000 </r>
       <r>  -27.8165    1.0000 </r>
       <r>  -27.8106    1.0000 </r>
       <r>  -27.8067    1.0000 </r>
       <r>  -27.8051    1.0000 </r>
       <r>  -27.7859    1.0000 </r>
       <r>  -27.7846    1.0000 </r>
       <r>  -16.2967    1.0000 </r>
       <r>  -15.7497    1.0000 </r>
       <r>  -15.2198    1.0000 </r>
       <r>  -15.1179    1.0000 </r>
       <r>  -10.7823    1.0000 </r>
       <r>  -10.0816    1.0000 </r>
       <r>   -7.0690    1.0000 </r>
       <r>   -6.8521    1.0000 </r>
       <r>   -6.2839    1.0000 </r>
       <r>   -5.8390    1.0000 </r>
       <r>   -5.4975    1.0000 </r>
       <r>   -5.2021    1.0000 </r>
       <r>   -4.3358    1.0000 </r>
       <r>   -4.0456    1.0000 </r>
       <r>   -3.5773    1.0000 </r>
       <r>   -3.1416    1.0000 </r>
       <r>   -0.8636    0.0000 </r>
       <r>   -0.8143    0.0000 </r>
       <r>    0.9812    0.0000 </r>
       <r>    1.1473    0.0000 </r>
       <r>    1.5562    0.0000 </r>
       <r>    1.6261    0.0000 </r>
      </set>
      <set comment="kpoint 24">
       <r>  -27.8307    1.0000 </r>
       <r>  -27.8300    1.0000 </r>
       <r>  -27.8258    1.0000 </r>
       <r>  -27.8249    1.0000 </r>
       <r>  -27.8146    1.0000 </r>
       <r>  -27.8126    1.0000 </r>
       <r>  -27.8062    1.0000 </r>
       <r>  -27.8056    1.0000 </r>
       <r>  -27.7855    1.0000 </r>
       <r>  -27.7850    1.0000 </r>
       <r>  -16.1240    1.0000 </r>
       <r>  -15.9390    1.0000 </r>
       <r>  -15.1837    1.0000 </r>
       <r>  -15.1497    1.0000 </r>
       <r>  -10.5524    1.0000 </r>
       <r>  -10.3158    1.0000 </r>
       <r>   -6.9989    1.0000 </r>
       <r>   -6.9312    1.0000 </r>
       <r>   -6.1868    1.0000 </r>
       <r>   -6.0308    1.0000 </r>
       <r>   -5.4229    1.0000 </r>
       <r>   -5.3257    1.0000 </r>
       <r>   -4.2514    1.0000 </r>
       <r>   -4.1549    1.0000 </r>
       <r>   -3.4346    1.0000 </r>
       <r>   -3.2877    1.0000 </r>
       <r>   -0.7355    0.0000 </r>
       <r>   -0.7269    0.0000 </r>
       <r>    1.1061    0.0000 </r>
       <r>    1.1709    0.0000 </r>
       <r>    1.5240    0.0000 </r>
       <r>    1.5340    0.0000 </r>
      </set>
      <set comment="kpoint 25">
       <r>  -27.8331    1.0000 </r>
       <r>  -27.8292    1.0000 </r>
       <r>  -27.8272    1.0000 </r>
       <r>  -27.8227    1.0000 </r>
       <r>  -27.8202    1.0000 </r>
       <r>  -27.8084    1.0000 </r>
       <r>  -27.8050    1.0000 </r>
       <r>  -27.8041    1.0000 </r>
       <r>  -27.7873    1.0000 </r>
       <r>  -27.7835    1.0000 </r>
       <r>  -16.7381    1.0000 </r>
       <r>  -15.3905    1.0000 </r>
       <r>  -15.3249    1.0000 </r>
       <r>  -14.8707    1.0000 </r>
       <r>  -11.3373    1.0000 </r>
       <r>   -9.4160    1.0000 </r>
       <r>   -7.3348    1.0000 </r>
       <r>   -6.0782    1.0000 </r>
       <r>   -5.8959    1.0000 </r>
       <r>   -5.8313    1.0000 </r>
       <r>   -5.4135    1.0000 </r>
       <r>   -4.8812    1.0000 </r>
       <r>   -4.6968    1.0000 </r>
       <r>   -3.9241    1.0000 </r>
       <r>   -3.3111    1.0000 </r>
       <r>   -3.0809    1.0000 </r>
       <r>   -1.1797    0.0000 </r>
       <r>   -1.1523    0.0000 </r>
       <r>    0.0110    0.0000 </r>
       <r>    0.2540    0.0000 </r>
       <r>    0.9159    0.0000 </r>
       <r>    1.5847    0.0000 </r>
      </set>
      <set comment="kpoint 26">
       <r>  -27.8331    1.0000 </r>
       <r>  -27.8290    1.0000 </r>
       <r>  -27.8273    1.0000 </r>
       <r>  -27.8225    1.0000 </r>
       <r>  -27.8203    1.0000 </r>
       <r>  -27.8083    1.0000 </r>
       <r>  -27.8053    1.0000 </r>
       <r>  -27.8040    1.0000 </r>
       <r>  -27.7873    1.0000 </r>
       <r>  -27.7835    1.0000 </r>
       <r>  -16.7233    1.0000 </r>
       <r>  -15.3958    1.0000 </r>
       <r>  -15.3208    1.0000 </r>
       <r>  -14.8868    1.0000 </r>
       <r>  -11.3231    1.0000 </r>
       <r>   -9.4440    1.0000 </r>
       <r>   -7.3118    1.0000 </r>
       <r>   -6.1414    1.0000 </r>
       <r>   -6.1064    1.0000 </r>
       <r>   -5.5892    1.0000 </r>
       <r>   -5.4557    1.0000 </r>
       <r>   -4.8094    1.0000 </r>
       <r>   -4.7207    1.0000 </r>
       <r>   -3.9120    1.0000 </r>
       <r>   -3.4339    1.0000 </r>
       <r>   -2.9774    1.0000 </r>
       <r>   -1.2639    0.0000 </r>
       <r>   -1.1705    0.0000 </r>
       <r>    0.1759    0.0000 </r>
       <r>    0.2854    0.0000 </r>
       <r>    0.9586    0.0000 </r>
       <r>    1.4940    0.0000 </r>
      </set>
      <set comment="kpoint 27">
       <r>  -27.8331    1.0000 </r>
       <r>  -27.8286    1.0000 </r>
       <r>  -27.8277    1.0000 </r>
       <r>  -27.8221    1.0000 </r>
       <r>  -27.8204    1.0000 </r>
       <r>  -27.8081    1.0000 </r>
       <r>  -27.8061    1.0000 </r>
       <r>  -27.8039    1.0000 </r>
       <r>  -27.7871    1.0000 </r>
       <r>  -27.7836    1.0000 </r>
       <r>  -16.6792    1.0000 </r>
       <r>  -15.4145    1.0000 </r>
       <r>  -15.3087    1.0000 </r>
       <r>  -14.9309    1.0000 </r>
       <r>  -11.2806    1.0000 </r>
       <r>   -9.5269    1.0000 </r>
       <r>   -7.2443    1.0000 </r>
       <r>   -6.3859    1.0000 </r>
       <r>   -6.1894    1.0000 </r>
       <r>   -5.5146    1.0000 </r>
       <r>   -5.3684    1.0000 </r>
       <r>   -4.7915    1.0000 </r>
       <r>   -4.6697    1.0000 </r>
       <r>   -3.8697    1.0000 </r>
       <r>   -3.6180    1.0000 </r>
       <r>   -2.8490    1.0000 </r>
       <r>   -1.4545    0.0000 </r>
       <r>   -1.1392    0.0000 </r>
       <r>    0.3701    0.0000 </r>
       <r>    0.5245    0.0000 </r>
       <r>    1.0827    0.0000 </r>
       <r>    1.3725    0.0000 </r>
      </set>
      <set comment="kpoint 28">
       <r>  -27.8330    1.0000 </r>
       <r>  -27.8282    1.0000 </r>
       <r>  -27.8279    1.0000 </r>
       <r>  -27.8217    1.0000 </r>
       <r>  -27.8203    1.0000 </r>
       <r>  -27.8078    1.0000 </r>
       <r>  -27.8072    1.0000 </r>
       <r>  -27.8040    1.0000 </r>
       <r>  -27.7868    1.0000 </r>
       <r>  -27.7838    1.0000 </r>
       <r>  -16.6071    1.0000 </r>
       <r>  -15.4549    1.0000 </r>
       <r>  -15.2899    1.0000 </r>
       <r>  -14.9909    1.0000 </r>
       <r>  -11.2096    1.0000 </r>
       <r>   -9.6600    1.0000 </r>
       <r>   -7.1375    1.0000 </r>
       <r>   -6.5815    1.0000 </r>
       <r>   -6.3063    1.0000 </r>
       <r>   -5.5356    1.0000 </r>
       <r>   -5.2472    1.0000 </r>
       <r>   -4.9054    1.0000 </r>
       <r>   -4.5464    1.0000 </r>
       <r>   -3.7861    1.0000 </r>
       <r>   -3.7813    1.0000 </r>
       <r>   -2.7739    1.0000 </r>
       <r>   -1.5668    0.0000 </r>
       <r>   -1.0805    0.0000 </r>
       <r>    0.4884    0.0000 </r>
       <r>    0.8600    0.0000 </r>
       <r>    1.2691    0.0000 </r>
       <r>    1.3301    0.0000 </r>
      </set>
      <set comment="kpoint 29">
       <r>  -27.8329    1.0000 </r>
       <r>  -27.8288    1.0000 </r>
       <r>  -27.8272    1.0000 </r>
       <r>  -27.8218    1.0000 </r>
       <r>  -27.8196    1.0000 </r>
       <r>  -27.8086    1.0000 </r>
       <r>  -27.8073    1.0000 </r>
       <r>  -27.8041    1.0000 </r>
       <r>  -27.7865    1.0000 </r>
       <r>  -27.7840    1.0000 </r>
       <r>  -16.5090    1.0000 </r>
       <r>  -15.5277    1.0000 </r>
       <r>  -15.2661    1.0000 </r>
       <r>  -15.0500    1.0000 </r>
       <r>  -11.1105    1.0000 </r>
       <r>   -9.8337    1.0000 </r>
       <r>   -7.0054    1.0000 </r>
       <r>   -6.7218    1.0000 </r>
       <r>   -6.4143    1.0000 </r>
       <r>   -5.5239    1.0000 </r>
       <r>   -5.2516    1.0000 </r>
       <r>   -5.0522    1.0000 </r>
       <r>   -4.4640    1.0000 </r>
       <r>   -3.9123    1.0000 </r>
       <r>   -3.6619    1.0000 </r>
       <r>   -2.7645    1.0000 </r>
       <r>   -1.5439    0.0000 </r>
       <r>   -0.9988    0.0000 </r>
       <r>    0.6233    0.0000 </r>
       <r>    0.9825    0.0000 </r>
       <r>    1.4738    0.0000 </r>
       <r>    1.5194    0.0000 </r>
      </set>
      <set comment="kpoint 30">
       <r>  -27.8326    1.0000 </r>
       <r>  -27.8296    1.0000 </r>
       <r>  -27.8263    1.0000 </r>
       <r>  -27.8223    1.0000 </r>
       <r>  -27.8184    1.0000 </r>
       <r>  -27.8101    1.0000 </r>
       <r>  -27.8068    1.0000 </r>
       <r>  -27.8044    1.0000 </r>
       <r>  -27.7861    1.0000 </r>
       <r>  -27.7843    1.0000 </r>
       <r>  -16.3877    1.0000 </r>
       <r>  -15.6379    1.0000 </r>
       <r>  -15.2395    1.0000 </r>
       <r>  -15.0966    1.0000 </r>
       <r>  -10.9837    1.0000 </r>
       <r>  -10.0342    1.0000 </r>
       <r>   -6.8882    1.0000 </r>
       <r>   -6.8112    1.0000 </r>
       <r>   -6.4524    1.0000 </r>
       <r>   -5.4958    1.0000 </r>
       <r>   -5.3841    1.0000 </r>
       <r>   -5.1924    1.0000 </r>
       <r>   -4.4076    1.0000 </r>
       <r>   -4.0210    1.0000 </r>
       <r>   -3.5133    1.0000 </r>
       <r>   -2.8173    1.0000 </r>
       <r>   -1.4013    0.0000 </r>
       <r>   -0.9164    0.0000 </r>
       <r>    0.7653    0.0000 </r>
       <r>    0.9925    0.0000 </r>
       <r>    1.6301    0.0000 </r>
       <r>    1.7987    0.0000 </r>
      </set>
      <set comment="kpoint 31">
       <r>  -27.8322    1.0000 </r>
       <r>  -27.8303    1.0000 </r>
       <r>  -27.8254    1.0000 </r>
       <r>  -27.8229    1.0000 </r>
       <r>  -27.8169    1.0000 </r>
       <r>  -27.8118    1.0000 </r>
       <r>  -27.8062    1.0000 </r>
       <r>  -27.8047    1.0000 </r>
       <r>  -27.7857    1.0000 </r>
       <r>  -27.7846    1.0000 </r>
       <r>  -16.2475    1.0000 </r>
       <r>  -15.7779    1.0000 </r>
       <r>  -15.2120    1.0000 </r>
       <r>  -15.1309    1.0000 </r>
       <r>  -10.8304    1.0000 </r>
       <r>  -10.2461    1.0000 </r>
       <r>   -6.8586    1.0000 </r>
       <r>   -6.8502    1.0000 </r>
       <r>   -6.3494    1.0000 </r>
       <r>   -5.6146    1.0000 </r>
       <r>   -5.4610    1.0000 </r>
       <r>   -5.2931    1.0000 </r>
       <r>   -4.3540    1.0000 </r>
       <r>   -4.1193    1.0000 </r>
       <r>   -3.3561    1.0000 </r>
       <r>   -2.9181    1.0000 </r>
       <r>   -1.2009    0.0000 </r>
       <r>   -0.8707    0.0000 </r>
       <r>    0.9074    0.0000 </r>
       <r>    1.0235    0.0000 </r>
       <r>    1.6748    0.0000 </r>
       <r>    1.7128    0.0000 </r>
      </set>
      <set comment="kpoint 32">
       <r>  -27.8316    1.0000 </r>
       <r>  -27.8310    1.0000 </r>
       <r>  -27.8245    1.0000 </r>
       <r>  -27.8237    1.0000 </r>
       <r>  -27.8153    1.0000 </r>
       <r>  -27.8136    1.0000 </r>
       <r>  -27.8057    1.0000 </r>
       <r>  -27.8052    1.0000 </r>
       <r>  -27.7853    1.0000 </r>
       <r>  -27.7849    1.0000 </r>
       <r>  -16.0938    1.0000 </r>
       <r>  -15.9340    1.0000 </r>
       <r>  -15.1850    1.0000 </r>
       <r>  -15.1587    1.0000 </r>
       <r>  -10.6530    1.0000 </r>
       <r>  -10.4559    1.0000 </r>
       <r>   -6.8729    1.0000 </r>
       <r>   -6.8635    1.0000 </r>
       <r>   -6.1363    1.0000 </r>
       <r>   -5.8788    1.0000 </r>
       <r>   -5.4199    1.0000 </r>
       <r>   -5.3665    1.0000 </r>
       <r>   -4.2891    1.0000 </r>
       <r>   -4.2098    1.0000 </r>
       <r>   -3.1993    1.0000 </r>
       <r>   -3.0500    1.0000 </r>
       <r>   -1.0153    0.0000 </r>
       <r>   -0.8985    0.0000 </r>
       <r>    1.0271    0.0000 </r>
       <r>    1.0641    0.0000 </r>
       <r>    1.6066    0.0000 </r>
       <r>    1.6183    0.0000 </r>
      </set>
      <set comment="kpoint 33">
       <r>  -27.8323    1.0000 </r>
       <r>  -27.8284    1.0000 </r>
       <r>  -27.8278    1.0000 </r>
       <r>  -27.8235    1.0000 </r>
       <r>  -27.8185    1.0000 </r>
       <r>  -27.8080    1.0000 </r>
       <r>  -27.8061    1.0000 </r>
       <r>  -27.8054    1.0000 </r>
       <r>  -27.7869    1.0000 </r>
       <r>  -27.7840    1.0000 </r>
       <r>  -16.6140    1.0000 </r>
       <r>  -15.6125    1.0000 </r>
       <r>  -15.2715    1.0000 </r>
       <r>  -14.9266    1.0000 </r>
       <r>  -11.0325    1.0000 </r>
       <r>   -9.5787    1.0000 </r>
       <r>   -7.2261    1.0000 </r>
       <r>   -6.1538    1.0000 </r>
       <r>   -6.1229    1.0000 </r>
       <r>   -6.0601    1.0000 </r>
       <r>   -5.3385    1.0000 </r>
       <r>   -4.7753    1.0000 </r>
       <r>   -4.7150    1.0000 </r>
       <r>   -3.7834    1.0000 </r>
       <r>   -3.5600    1.0000 </r>
       <r>   -3.1768    1.0000 </r>
       <r>   -1.0037    0.0000 </r>
       <r>   -0.7855    0.0000 </r>
       <r>    0.3599    0.0000 </r>
       <r>    0.6456    0.0000 </r>
       <r>    1.0346    0.0000 </r>
       <r>    1.3213    0.0000 </r>
      </set>
      <set comment="kpoint 34">
       <r>  -27.8324    1.0000 </r>
       <r>  -27.8282    1.0000 </r>
       <r>  -27.8280    1.0000 </r>
       <r>  -27.8233    1.0000 </r>
       <r>  -27.8185    1.0000 </r>
       <r>  -27.8079    1.0000 </r>
       <r>  -27.8067    1.0000 </r>
       <r>  -27.8050    1.0000 </r>
       <r>  -27.7868    1.0000 </r>
       <r>  -27.7840    1.0000 </r>
       <r>  -16.6006    1.0000 </r>
       <r>  -15.6140    1.0000 </r>
       <r>  -15.2687    1.0000 </r>
       <r>  -14.9376    1.0000 </r>
       <r>  -11.0332    1.0000 </r>
       <r>   -9.6123    1.0000 </r>
       <r>   -7.1929    1.0000 </r>
       <r>   -6.3441    1.0000 </r>
       <r>   -6.1789    1.0000 </r>
       <r>   -5.8105    1.0000 </r>
       <r>   -5.3806    1.0000 </r>
       <r>   -4.8091    1.0000 </r>
       <r>   -4.6569    1.0000 </r>
       <r>   -3.7656    1.0000 </r>
       <r>   -3.6484    1.0000 </r>
       <r>   -3.0823    1.0000 </r>
       <r>   -0.9963    0.0000 </r>
       <r>   -0.9142    0.0000 </r>
       <r>    0.3791    0.0000 </r>
       <r>    0.7707    0.0000 </r>
       <r>    1.0765    0.0000 </r>
       <r>    1.2727    0.0000 </r>
      </set>
      <set comment="kpoint 35">
       <r>  -27.8326    1.0000 </r>
       <r>  -27.8285    1.0000 </r>
       <r>  -27.8276    1.0000 </r>
       <r>  -27.8227    1.0000 </r>
       <r>  -27.8187    1.0000 </r>
       <r>  -27.8077    1.0000 </r>
       <r>  -27.8076    1.0000 </r>
       <r>  -27.8046    1.0000 </r>
       <r>  -27.7867    1.0000 </r>
       <r>  -27.7840    1.0000 </r>
       <r>  -16.5607    1.0000 </r>
       <r>  -15.6204    1.0000 </r>
       <r>  -15.2608    1.0000 </r>
       <r>  -14.9689    1.0000 </r>
       <r>  -11.0325    1.0000 </r>
       <r>   -9.7088    1.0000 </r>
       <r>   -7.0959    1.0000 </r>
       <r>   -6.5456    1.0000 </r>
       <r>   -6.2548    1.0000 </r>
       <r>   -5.5371    1.0000 </r>
       <r>   -5.4491    1.0000 </r>
       <r>   -4.9054    1.0000 </r>
       <r>   -4.5472    1.0000 </r>
       <r>   -3.7934    1.0000 </r>
       <r>   -3.7052    1.0000 </r>
       <r>   -2.9243    1.0000 </r>
       <r>   -1.1790    0.0000 </r>
       <r>   -0.9751    0.0000 </r>
       <r>    0.4324    0.0000 </r>
       <r>    0.9679    0.0000 </r>
       <r>    1.1977    0.0000 </r>
       <r>    1.2748    0.0000 </r>
[...]
       <r>    1.1862    0.0000 </r>
       <r>    1.3430    0.0000 </r>
      </set>
      <set comment="kpoint 54">
       <r>  -27.8326    1.0000 </r>
       <r>  -27.8321    1.0000 </r>
       <r>  -27.8230    1.0000 </r>
       <r>  -27.8221    1.0000 </r>
       <r>  -27.8162    1.0000 </r>
       <r>  -27.8148    1.0000 </r>
       <r>  -27.8052    1.0000 </r>
       <r>  -27.8047    1.0000 </r>
       <r>  -27.7852    1.0000 </r>
       <r>  -27.7849    1.0000 </r>
       <r>  -16.0847    1.0000 </r>
       <r>  -15.9633    1.0000 </r>
       <r>  -15.1706    1.0000 </r>
       <r>  -15.1480    1.0000 </r>
       <r>  -10.7584    1.0000 </r>
       <r>  -10.6092    1.0000 </r>
       <r>   -6.8154    1.0000 </r>
       <r>   -6.7690    1.0000 </r>
       <r>   -5.8755    1.0000 </r>
       <r>   -5.6505    1.0000 </r>
       <r>   -5.3573    1.0000 </r>
       <r>   -5.2374    1.0000 </r>
       <r>   -4.3284    1.0000 </r>
       <r>   -4.2648    1.0000 </r>
       <r>   -2.8366    1.0000 </r>
       <r>   -2.7186    1.0000 </r>
       <r>   -1.4481    0.0000 </r>
       <r>   -1.2375    0.0000 </r>
       <r>    1.0023    0.0000 </r>
       <r>    1.0978    0.0000 </r>
       <r>    1.2546    0.0000 </r>
       <r>    1.3496    0.0000 </r>
      </set>
      <set comment="kpoint 55">
       <r>  -27.8328    1.0000 </r>
       <r>  -27.8325    1.0000 </r>
       <r>  -27.8222    1.0000 </r>
       <r>  -27.8216    1.0000 </r>
       <r>  -27.8167    1.0000 </r>
       <r>  -27.8157    1.0000 </r>
       <r>  -27.8048    1.0000 </r>
       <r>  -27.8046    1.0000 </r>
       <r>  -27.7850    1.0000 </r>
       <r>  -27.7849    1.0000 </r>
       <r>  -16.0283    1.0000 </r>
       <r>  -15.9499    1.0000 </r>
       <r>  -15.1815    1.0000 </r>
       <r>  -15.1705    1.0000 </r>
       <r>  -10.8121    1.0000 </r>
       <r>  -10.7203    1.0000 </r>
       <r>   -6.8335    1.0000 </r>
       <r>   -6.8021    1.0000 </r>
       <r>   -5.8100    1.0000 </r>
       <r>   -5.6947    1.0000 </r>
       <r>   -5.2404    1.0000 </r>
       <r>   -5.1207    1.0000 </r>
       <r>   -4.3565    1.0000 </r>
       <r>   -4.3132    1.0000 </r>
       <r>   -2.7219    1.0000 </r>
       <r>   -2.6558    1.0000 </r>
       <r>   -1.5870    0.0000 </r>
       <r>   -1.4307    0.0000 </r>
       <r>    1.1048    0.0000 </r>
       <r>    1.1219    0.0000 </r>
       <r>    1.3051    0.0000 </r>
       <r>    1.3395    0.0000 </r>
      </set>
      <set comment="kpoint 56">
       <r>  -27.8329    1.0000 </r>
       <r>  -27.8328    1.0000 </r>
       <r>  -27.8217    1.0000 </r>
       <r>  -27.8214    1.0000 </r>
       <r>  -27.8167    1.0000 </r>
       <r>  -27.8164    1.0000 </r>
       <r>  -27.8046    1.0000 </r>
       <r>  -27.8045    1.0000 </r>
       <r>  -27.7849    1.0000 </r>
       <r>  -27.7849    1.0000 </r>
       <r>  -15.9827    1.0000 </r>
       <r>  -15.9554    1.0000 </r>
       <r>  -15.1877    1.0000 </r>
       <r>  -15.1846    1.0000 </r>
       <r>  -10.8255    1.0000 </r>
       <r>  -10.7945    1.0000 </r>
       <r>   -6.8400    1.0000 </r>
       <r>   -6.8294    1.0000 </r>
       <r>   -5.7659    1.0000 </r>
       <r>   -5.7311    1.0000 </r>
       <r>   -5.1304    1.0000 </r>
       <r>   -5.0817    1.0000 </r>
       <r>   -4.3640    1.0000 </r>
       <r>   -4.3480    1.0000 </r>
       <r>   -2.6582    1.0000 </r>
       <r>   -2.6388    1.0000 </r>
       <r>   -1.6259    0.0000 </r>
       <r>   -1.5692    0.0000 </r>
       <r>    1.1512    0.0000 </r>
       <r>    1.1565    0.0000 </r>
       <r>    1.3251    0.0000 </r>
       <r>    1.3300    0.0000 </r>
      </set>
     </set>
    </set>
   </array>
  </eigenvalues>
  <separator name="orbital magnetization" >
   <v name="MAGDIPOLOUT">      0.00000000      0.00000000      0.00000000</v>
  </separator>
  <dos>
   <i name="efermi">     -2.51996934 </i>
   <total>
    <array>
     <dimension dim="1">gridpoints</dimension>
     <dimension dim="2">spin</dimension>
     <field>energy</field>
     <field>total</field>
     <field>integrated</field>
     <set>
      <set comment="spin 1">
       <r>   -29.3245     0.0000     0.0000 </r>
       <r>   -29.2152     0.0000     0.0000 </r>
       <r>   -29.1059     0.0000     0.0000 </r>
       <r>   -28.9966     0.0000     0.0000 </r>
       <r>   -28.8873     0.0000     0.0000 </r>
       <r>   -28.7780     0.0000     0.0000 </r>
       <r>   -28.6687     0.0000     0.0000 </r>
       <r>   -28.5594     0.0000     0.0000 </r>
       <r>   -28.4501     0.0000     0.0000 </r>
       <r>   -28.3408     0.0000     0.0000 </r>
       <r>   -28.2315     0.0000     0.0000 </r>
       <r>   -28.1223     0.0000     0.0000 </r>
       <r>   -28.0130     0.0000     0.0000 </r>
       <r>   -27.9037     0.0000     0.0000 </r>
       <r>   -27.7944   143.7084    15.7066 </r>
       <r>   -27.6851    39.2831    20.0000 </r>
       <r>   -27.5758     0.0000    20.0000 </r>
       <r>   -27.4665     0.0000    20.0000 </r>
       <r>   -27.3572     0.0000    20.0000 </r>
       <r>   -27.2479     0.0000    20.0000 </r>
       <r>   -27.1386     0.0000    20.0000 </r>
       <r>   -27.0293     0.0000    20.0000 </r>
       <r>   -26.9200     0.0000    20.0000 </r>
       <r>   -26.8107     0.0000    20.0000 </r>
       <r>   -26.7014     0.0000    20.0000 </r>
       <r>   -26.5921     0.0000    20.0000 </r>
       <r>   -26.4828     0.0000    20.0000 </r>
       <r>   -26.3735     0.0000    20.0000 </r>
       <r>   -26.2642     0.0000    20.0000 </r>
       <r>   -26.1549     0.0000    20.0000 </r>
       <r>   -26.0457     0.0000    20.0000 </r>
       <r>   -25.9364     0.0000    20.0000 </r>
       <r>   -25.8271     0.0000    20.0000 </r>
       <r>   -25.7178     0.0000    20.0000 </r>
       <r>   -25.6085     0.0000    20.0000 </r>
       <r>   -25.4992     0.0000    20.0000 </r>
       <r>   -25.3899     0.0000    20.0000 </r>
       <r>   -25.2806     0.0000    20.0000 </r>
       <r>   -25.1713     0.0000    20.0000 </r>
       <r>   -25.0620     0.0000    20.0000 </r>
       <r>   -24.9527     0.0000    20.0000 </r>
       <r>   -24.8434     0.0000    20.0000 </r>
       <r>   -24.7341     0.0000    20.0000 </r>
       <r>   -24.6248     0.0000    20.0000 </r>
       <r>   -24.5155     0.0000    20.0000 </r>
       <r>   -24.4062     0.0000    20.0000 </r>
       <r>   -24.2969     0.0000    20.0000 </r>
       <r>   -24.1876     0.0000    20.0000 </r>
       <r>   -24.0784     0.0000    20.0000 </r>
       <r>   -23.9691     0.0000    20.0000 </r>
       <r>   -23.8598     0.0000    20.0000 </r>
       <r>   -23.7505     0.0000    20.0000 </r>
       <r>   -23.6412     0.0000    20.0000 </r>
       <r>   -23.5319     0.0000    20.0000 </r>
       <r>   -23.4226     0.0000    20.0000 </r>
       <r>   -23.3133     0.0000    20.0000 </r>
       <r>   -23.2040     0.0000    20.0000 </r>
       <r>   -23.0947     0.0000    20.0000 </r>
       <r>   -22.9854     0.0000    20.0000 </r>
       <r>   -22.8761     0.0000    20.0000 </r>
       <r>   -22.7668     0.0000    20.0000 </r>
       <r>   -22.6575     0.0000    20.0000 </r>
       <r>   -22.5482     0.0000    20.0000 </r>
       <r>   -22.4389     0.0000    20.0000 </r>
       <r>   -22.3296     0.0000    20.0000 </r>
       <r>   -22.2203     0.0000    20.0000 </r>
       <r>   -22.1110     0.0000    20.0000 </r>
       <r>   -22.0018     0.0000    20.0000 </r>
       <r>   -21.8925     0.0000    20.0000 </r>
       <r>   -21.7832     0.0000    20.0000 </r>
       <r>   -21.6739     0.0000    20.0000 </r>
       <r>   -21.5646     0.0000    20.0000 </r>
       <r>   -21.4553     0.0000    20.0000 </r>
       <r>   -21.3460     0.0000    20.0000 </r>
       <r>   -21.2367     0.0000    20.0000 </r>
       <r>   -21.1274     0.0000    20.0000 </r>
       <r>   -21.0181     0.0000    20.0000 </r>
       <r>   -20.9088     0.0000    20.0000 </r>
       <r>   -20.7995     0.0000    20.0000 </r>
       <r>   -20.6902     0.0000    20.0000 </r>
       <r>   -20.5809     0.0000    20.0000 </r>
       <r>   -20.4716     0.0000    20.0000 </r>
       <r>   -20.3623     0.0000    20.0000 </r>
       <r>   -20.2530     0.0000    20.0000 </r>
       <r>   -20.1437     0.0000    20.0000 </r>
       <r>   -20.0344     0.0000    20.0000 </r>
       <r>   -19.9252     0.0000    20.0000 </r>
       <r>   -19.8159     0.0000    20.0000 </r>
       <r>   -19.7066     0.0000    20.0000 </r>
       <r>   -19.5973     0.0000    20.0000 </r>
       <r>   -19.4880     0.0000    20.0000 </r>
       <r>   -19.3787     0.0000    20.0000 </r>
       <r>   -19.2694     0.0000    20.0000 </r>
       <r>   -19.1601     0.0000    20.0000 </r>
       <r>   -19.0508     0.0000    20.0000 </r>
       <r>   -18.9415     0.0000    20.0000 </r>
       <r>   -18.8322     0.0000    20.0000 </r>
       <r>   -18.7229     0.0000    20.0000 </r>
       <r>   -18.6136     0.0000    20.0000 </r>
       <r>   -18.5043     0.0000    20.0000 </r>
       <r>   -18.3950     0.0000    20.0000 </r>
       <r>   -18.2857     0.0000    20.0000 </r>
       <r>   -18.1764     0.0000    20.0000 </r>
       <r>   -18.0671     0.0000    20.0000 </r>
       <r>   -17.9578     0.0000    20.0000 </r>
       <r>   -17.8486     0.0000    20.0000 </r>
       <r>   -17.7393     0.0000    20.0000 </r>
       <r>   -17.6300     0.0000    20.0000 </r>
       <r>   -17.5207     0.0000    20.0000 </r>
       <r>   -17.4114     0.0000    20.0000 </r>
       <r>   -17.3021     0.0000    20.0000 </r>
       <r>   -17.1928     0.0000    20.0000 </r>
       <r>   -17.0835     0.0000    20.0000 </r>
       <r>   -16.9742     0.0000    20.0000 </r>
       <r>   -16.8649     0.6433    20.0703 </r>
       <r>   -16.7556     1.7646    20.2632 </r>
       <r>   -16.6463     1.9282    20.4739 </r>
       <r>   -16.5370     2.1326    20.7070 </r>
       <r>   -16.4277     2.2920    20.9575 </r>
       <r>   -16.3184     1.9943    21.1755 </r>
       <r>   -16.2091     2.6481    21.4649 </r>
       <r>   -16.0998     2.7058    21.7606 </r>
       <r>   -15.9905     3.3964    22.1318 </r>
       <r>   -15.8812     3.8410    22.5516 </r>
       <r>   -15.7720     2.9204    22.8708 </r>
       <r>   -15.6627     1.7200    23.0588 </r>
       <r>   -15.5534     2.0944    23.2877 </r>
       <r>   -15.4441     1.2813    23.4278 </r>
       <r>   -15.3348     4.3338    23.9014 </r>
       <r>   -15.2255     7.7350    24.7468 </r>
       <r>   -15.1162    15.2129    26.4095 </r>
       <r>   -15.0069     8.7543    27.3663 </r>
       <r>   -14.8976     3.8236    27.7842 </r>
       <r>   -14.7883     1.9040    27.9923 </r>
       <r>   -14.6790     0.0704    28.0000 </r>
       <r>   -14.5697     0.0000    28.0000 </r>
       <r>   -14.4604     0.0000    28.0000 </r>
       <r>   -14.3511     0.0000    28.0000 </r>
       <r>   -14.2418     0.0000    28.0000 </r>
       <r>   -14.1325     0.0000    28.0000 </r>
       <r>   -14.0232     0.0000    28.0000 </r>
       <r>   -13.9139     0.0000    28.0000 </r>
       <r>   -13.8046     0.0000    28.0000 </r>
       <r>   -13.6954     0.0000    28.0000 </r>
       <r>   -13.5861     0.0000    28.0000 </r>
       <r>   -13.4768     0.0000    28.0000 </r>
       <r>   -13.3675     0.0000    28.0000 </r>
       <r>   -13.2582     0.0000    28.0000 </r>
       <r>   -13.1489     0.0000    28.0000 </r>
       <r>   -13.0396     0.0000    28.0000 </r>
       <r>   -12.9303     0.0000    28.0000 </r>
       <r>   -12.8210     0.0000    28.0000 </r>
       <r>   -12.7117     0.0000    28.0000 </r>
       <r>   -12.6024     0.0000    28.0000 </r>
       <r>   -12.4931     0.0000    28.0000 </r>
       <r>   -12.3838     0.0000    28.0000 </r>
       <r>   -12.2745     0.0000    28.0000 </r>
       <r>   -12.1652     0.0000    28.0000 </r>
       <r>   -12.0559     0.0000    28.0000 </r>
       <r>   -11.9466     0.0000    28.0000 </r>
       <r>   -11.8373     0.0222    28.0024 </r>
       <r>   -11.7280     0.6229    28.0705 </r>
       <r>   -11.6188     0.5688    28.1327 </r>
       <r>   -11.5095     0.7737    28.2172 </r>
       <r>   -11.4002     0.9217    28.3180 </r>
       <r>   -11.2909     1.0224    28.4297 </r>
       <r>   -11.1816     1.5026    28.5939 </r>
       <r>   -11.0723     0.4790    28.6463 </r>
       <r>   -10.9630     3.0003    28.9742 </r>
       <r>   -10.8537     1.3873    29.1258 </r>
       <r>   -10.7444     4.1250    29.5767 </r>
       <r>   -10.6351     2.7213    29.8741 </r>
       <r>   -10.5258     1.8914    30.0808 </r>
       <r>   -10.4165     2.3208    30.3345 </r>
       <r>   -10.3072     1.3124    30.4779 </r>
       <r>   -10.1979     1.7219    30.6661 </r>
       <r>   -10.0886     1.0567    30.7816 </r>
       <r>    -9.9793     1.5236    30.9481 </r>
       <r>    -9.8700     1.0629    31.0643 </r>
       <r>    -9.7607     1.5534    31.2341 </r>
       <r>    -9.6514     1.5074    31.3988 </r>
       <r>    -9.5422     1.1031    31.5194 </r>
       <r>    -9.4329     1.2924    31.6606 </r>
       <r>    -9.3236     1.5700    31.8322 </r>
       <r>    -9.2143     1.5137    31.9977 </r>
       <r>    -9.1050     0.0212    32.0000 </r>
       <r>    -8.9957     0.0000    32.0000 </r>
       <r>    -8.8864     0.0000    32.0000 </r>
       <r>    -8.7771     0.0000    32.0000 </r>
       <r>    -8.6678     0.0000    32.0000 </r>
       <r>    -8.5585     0.0000    32.0000 </r>
       <r>    -8.4492     0.0000    32.0000 </r>
       <r>    -8.3399     0.0000    32.0000 </r>
       <r>    -8.2306     0.0000    32.0000 </r>
       <r>    -8.1213     0.0000    32.0000 </r>
       <r>    -8.0120     0.0000    32.0000 </r>
       <r>    -7.9027     0.0000    32.0000 </r>
       <r>    -7.7934     0.0000    32.0000 </r>
       <r>    -7.6841     0.0000    32.0000 </r>
       <r>    -7.5748     0.0000    32.0000 </r>
       <r>    -7.4656     0.2690    32.0294 </r>
       <r>    -7.3563     3.2107    32.3803 </r>
       <r>    -7.2470     2.0062    32.5996 </r>
       <r>    -7.1377     2.1678    32.8365 </r>
       <r>    -7.0284     1.9035    33.0446 </r>
       <r>    -6.9191     2.2551    33.2910 </r>
       <r>    -6.8098     8.2089    34.1882 </r>
       <r>    -6.7005     6.9681    34.9498 </r>
       <r>    -6.5912     2.8708    35.2636 </r>
       <r>    -6.4819     1.9337    35.4749 </r>
       <r>    -6.3726     2.2270    35.7183 </r>
       <r>    -6.2633     3.7345    36.1265 </r>
       <r>    -6.1540     7.3813    36.9332 </r>
       <r>    -6.0447     4.1648    37.3884 </r>
       <r>    -5.9354     4.8198    37.9152 </r>
       <r>    -5.8261     3.8184    38.3325 </r>
       <r>    -5.7168     4.1075    38.7814 </r>
       <r>    -5.6075     4.8271    39.3090 </r>
       <r>    -5.4983     7.1038    40.0854 </r>
       <r>    -5.3890     8.1561    40.9768 </r>
       <r>    -5.2797     8.2222    41.8755 </r>
       <r>    -5.1704     6.0467    42.5364 </r>
       <r>    -5.0611     4.2615    43.0021 </r>
       <r>    -4.9518     2.6904    43.2962 </r>
       <r>    -4.8425     2.9776    43.6216 </r>
       <r>    -4.7332     3.0759    43.9578 </r>
       <r>    -4.6239     4.8611    44.4891 </r>
       <r>    -4.5146     1.7921    44.6850 </r>
       <r>    -4.4053     3.2638    45.0417 </r>
       <r>    -4.2960     7.3627    45.8464 </r>
       <r>    -4.1867     4.8625    46.3778 </r>
       <r>    -4.0774     4.5862    46.8791 </r>
       <r>    -3.9681     3.9352    47.3092 </r>
       <r>    -3.8588     3.8533    47.7303 </r>
       <r>    -3.7495     3.8071    48.1464 </r>
       <r>    -3.6402     2.3269    48.4008 </r>
       <r>    -3.5309     3.3169    48.7633 </r>
       <r>    -3.4217     3.3024    49.1242 </r>
       <r>    -3.3124     2.6765    49.4168 </r>
       <r>    -3.2031     2.8552    49.7288 </r>
       <r>    -3.0938     2.8635    50.0418 </r>
       <r>    -2.9845     3.9298    50.4713 </r>
       <r>    -2.8752     4.2306    50.9337 </r>
       <r>    -2.7659     4.7640    51.4543 </r>
       <r>    -2.6566     4.1331    51.9061 </r>
       <r>    -2.5473     0.8594    52.0000 </r>
       <r>    -2.4380     0.0000    52.0000 </r>
       <r>    -2.3287     0.0000    52.0000 </r>
       <r>    -2.2194     0.0000    52.0000 </r>
       <r>    -2.1101     0.0000    52.0000 </r>
       <r>    -2.0008     0.0000    52.0000 </r>
       <r>    -1.8915     0.0931    52.0102 </r>
       <r>    -1.7822     0.4355    52.0578 </r>
       <r>    -1.6729     0.3162    52.0923 </r>
       <r>    -1.5636     3.7741    52.5048 </r>
       <r>    -1.4543     2.6066    52.7897 </r>
       <r>    -1.3451     3.9363    53.2199 </r>
       <r>    -1.2358     3.1426    53.5634 </r>
       <r>    -1.1265     4.2870    54.0320 </r>
       <r>    -1.0172     2.6952    54.3265 </r>
       <r>    -0.9079     5.2660    54.9021 </r>
       <r>    -0.7986     4.1051    55.3508 </r>
       <r>    -0.6893     3.0151    55.6803 </r>
       <r>    -0.5800     1.9888    55.8977 </r>
       <r>    -0.4707     1.7360    56.0874 </r>
       <r>    -0.3614     0.8280    56.1779 </r>
       <r>    -0.2521     0.3429    56.2154 </r>
       <r>    -0.1428     0.0051    56.2159 </r>
       <r>    -0.0335     0.1827    56.2359 </r>
       <r>     0.0758     0.7075    56.3132 </r>
       <r>     0.1851     1.4359    56.4702 </r>
       <r>     0.2944     1.2975    56.6120 </r>
       <r>     0.4037     1.7095    56.7988 </r>
       <r>     0.5130     3.0024    57.1270 </r>
       <r>     0.6223     1.9768    57.3430 </r>
       <r>     0.7315     3.3420    57.7083 </r>
       <r>     0.8408     3.0461    58.0412 </r>
       <r>     0.9501     5.1497    58.6040 </r>
       <r>     1.0594     8.8788    59.5744 </r>
       <r>     1.1687     8.6355    60.5183 </r>
       <r>     1.2780     5.2710    61.0944 </r>
       <r>     1.3873     6.7126    61.8280 </r>
       <r>     1.4966     5.7816    62.4599 </r>
       <r>     1.6059     5.6993    63.0828 </r>
       <r>     1.7152     4.8185    63.6095 </r>
       <r>     1.8245     2.2586    63.8563 </r>
       <r>     1.9338     0.7174    63.9347 </r>
       <r>     2.0431     0.5972    64.0000 </r>
       <r>     2.1524     0.0000    64.0000 </r>
       <r>     2.2617     0.0000    64.0000 </r>
       <r>     2.3710     0.0000    64.0000 </r>
       <r>     2.4803     0.0000    64.0000 </r>
       <r>     2.5896     0.0000    64.0000 </r>
       <r>     2.6989     0.0000    64.0000 </r>
       <r>     2.8081     0.0000    64.0000 </r>
       <r>     2.9174     0.0000    64.0000 </r>
       <r>     3.0267     0.0000    64.0000 </r>
       <r>     3.1360     0.0000    64.0000 </r>
       <r>     3.2453     0.0000    64.0000 </r>
       <r>     3.3546     0.0000    64.0000 </r>
       <r>     3.4639     0.0000    64.0000 </r>
      </set>
     </set>
    </array>
   </total>
  </dos>
 </calculation>
 <structure name="finalpos" >
  <crystal>
   <varray name="basis" >
    <v>       4.90607700       0.00000000       0.00000000 </v>
    <v>       0.00000000       5.62663800       0.00000000 </v>
    <v>       0.00000000       0.00000000      18.07929100 </v>
   </varray>
   <i name="volume">    499.07375282 </i>
   <varray name="rec_basis" >
    <v>       0.20382884       0.00000000       0.00000000 </v>
    <v>       0.00000000       0.17772602       0.00000000 </v>
    <v>       0.00000000       0.00000000       0.05531190 </v>
   </varray>
  </crystal>
  <varray name="positions" >
   <v>       0.50000000       0.50000000       0.50000000 </v>
   <v>       0.00000000      -0.00000000       0.50000000 </v>
   <v>       0.25000000       0.25000000       0.41529600 </v>
   <v>       0.75000000       0.75000000       0.41529600 </v>
   <v>       0.75000000       0.25000000       0.58470400 </v>
   <v>       0.25000000       0.75000000       0.58470400 </v>
  </varray>
 </structure>
</modeling>
