<?xml version="1.0" encoding="ISO-8859-1"?>
<modeling>
 <generator>
  <i name="program" type="string">vasp </i>
  <i name="version" type="string">5.4.1  </i>
  <i name="subversion" type="string">24Jun15 (build Nov 20 2020 10:29:34) complex                          parallel </i>
  <i name="platform" type="string">IFC91_ompi </i>
  <i name="date" type="string">2021 09 09 </i>
  <i name="time" type="string">14:57:45 </i>
 </generator>
 <incar>
  <i type="string" name="PREC">a</i>
  <i type="string" name="ALGO"> Normal</i>
  <i type="int" name="ISPIN">     1</i>
  <i type="int" name="ICHARG">     2</i>
  <i type="int" name="NELM">   250</i>
  <i type="int" name="NELMDL">    -5</i>
  <i type="int" name="NELMIN">     6</i>
  <i type="int" name="IBRION">     2</i>
  <i name="EDIFF">      0.00001000</i>
  <i name="EDIFFG">     -0.01000000</i>
  <i type="int" name="NSW">   200</i>
  <i type="int" name="ISIF">     2</i>
  <i name="ENCUT">    520.00000000</i>
  <i name="POTIM">      0.30000000</i>
  <i type="logical" name="LREAL"> F  </i>
  <i type="int" name="ISMEAR">     0</i>
  <i name="SIGMA">      0.02000000</i>
  <i type="logical" name="LWAVE"> F  </i>
  <i type="logical" name="LCHARG"> F  </i>
  <i type="logical" name="LAECHG"> F  </i>
  <v type="int" name="KPOINT_BSE">    -1     0     0     0</v>
  <i type="int" name="NELM">   250</i>
 </incar>
 <kpoints>
  <generation param="Gamma">
   <v type="int" name="divisions">      15       13        1 </v>
   <v name="usershift">      0.00000000       0.00000000       0.00000000 </v>
   <v name="genvec1">      0.06666667       0.00000000       0.00000000 </v>
   <v name="genvec2">      0.00000000       0.07692308       0.00000000 </v>
   <v name="genvec3">      0.00000000       0.00000000       1.00000000 </v>
   <v name="shift">      0.00000000       0.00000000       0.00000000 </v>
  </generation>
  <varray name="kpointlist" >
   <v>       0.00000000       0.00000000       0.00000000 </v>
   <v>       0.06666667       0.00000000       0.00000000 </v>
   <v>       0.13333333       0.00000000       0.00000000 </v>
   <v>       0.20000000       0.00000000       0.00000000 </v>
   <v>       0.26666667       0.00000000       0.00000000 </v>
   <v>       0.33333333       0.00000000       0.00000000 </v>
   <v>       0.40000000       0.00000000       0.00000000 </v>
   <v>       0.46666667       0.00000000       0.00000000 </v>
   <v>       0.00000000       0.07692308       0.00000000 </v>
   <v>       0.06666667       0.07692308       0.00000000 </v>
   <v>       0.13333333       0.07692308       0.00000000 </v>
   <v>       0.20000000       0.07692308       0.00000000 </v>
   <v>       0.26666667       0.07692308       0.00000000 </v>
   <v>       0.33333333       0.07692308       0.00000000 </v>
   <v>       0.40000000       0.07692308       0.00000000 </v>
   <v>       0.46666667       0.07692308       0.00000000 </v>
   <v>       0.00000000       0.15384615       0.00000000 </v>
   <v>       0.06666667       0.15384615       0.00000000 </v>
   <v>       0.13333333       0.15384615       0.00000000 </v>
   <v>       0.20000000       0.15384615       0.00000000 </v>
   <v>       0.26666667       0.15384615       0.00000000 </v>
   <v>       0.33333333       0.15384615       0.00000000 </v>
   <v>       0.40000000       0.15384615       0.00000000 </v>
   <v>       0.46666667       0.15384615       0.00000000 </v>
   <v>       0.00000000       0.23076923       0.00000000 </v>
   <v>       0.06666667       0.23076923       0.00000000 </v>
   <v>       0.13333333       0.23076923       0.00000000 </v>
   <v>       0.20000000       0.23076923       0.00000000 </v>
   <v>       0.26666667       0.23076923       0.00000000 </v>
   <v>       0.33333333       0.23076923       0.00000000 </v>
   <v>       0.40000000       0.23076923       0.00000000 </v>
   <v>       0.46666667       0.23076923       0.00000000 </v>
   <v>       0.00000000       0.30769231       0.00000000 </v>
   <v>       0.06666667       0.30769231       0.00000000 </v>
   <v>       0.13333333       0.30769231       0.00000000 </v>
   <v>       0.20000000       0.30769231       0.00000000 </v>
   <v>       0.26666667       0.30769231       0.00000000 </v>
   <v>       0.33333333       0.30769231       0.00000000 </v>
   <v>       0.40000000       0.30769231       0.00000000 </v>
   <v>       0.46666667       0.30769231       0.00000000 </v>
   <v>       0.00000000       0.38461538       0.00000000 </v>
   <v>       0.06666667       0.38461538       0.00000000 </v>
   <v>       0.13333333       0.38461538       0.00000000 </v>
   <v>       0.20000000       0.38461538       0.00000000 </v>
   <v>       0.26666667       0.38461538       0.00000000 </v>
   <v>       0.33333333       0.38461538       0.00000000 </v>
   <v>       0.40000000       0.38461538       0.00000000 </v>
   <v>       0.46666667       0.38461538       0.00000000 </v>
   <v>       0.00000000       0.46153846       0.00000000 </v>
   <v>       0.06666667       0.46153846       0.00000000 </v>
   <v>       0.13333333       0.46153846       0.00000000 </v>
   <v>       0.20000000       0.46153846       0.00000000 </v>
   <v>       0.26666667       0.46153846       0.00000000 </v>
   <v>       0.33333333       0.46153846       0.00000000 </v>
   <v>       0.40000000       0.46153846       0.00000000 </v>
   <v>       0.46666667       0.46153846       0.00000000 </v>
  </varray>
  <varray name="weights" >
   <v>       0.00512821 </v>
   <v>       0.01025641 </v>
   <v>       0.01025641 </v>
   <v>       0.01025641 </v>
   <v>       0.01025641 </v>
   <v>       0.01025641 </v>
   <v>       0.01025641 </v>
   <v>       0.01025641 </v>
   <v>       0.01025641 </v>
   <v>       0.02051282 </v>
   <v>       0.02051282 </v>
   <v>       0.02051282 </v>
   <v>       0.02051282 </v>
   <v>       0.02051282 </v>
   <v>       0.02051282 </v>
   <v>       0.02051282 </v>
   <v>       0.01025641 </v>
   <v>       0.02051282 </v>
   <v>       0.02051282 </v>
   <v>       0.02051282 </v>
   <v>       0.02051282 </v>
   <v>       0.02051282 </v>
   <v>       0.02051282 </v>
   <v>       0.02051282 </v>
   <v>       0.01025641 </v>
   <v>       0.02051282 </v>
   <v>       0.02051282 </v>
   <v>       0.02051282 </v>
   <v>       0.02051282 </v>
   <v>       0.02051282 </v>
   <v>       0.02051282 </v>
   <v>       0.02051282 </v>
   <v>       0.01025641 </v>
   <v>       0.02051282 </v>
   <v>       0.02051282 </v>
   <v>       0.02051282 </v>
   <v>       0.02051282 </v>
   <v>       0.02051282 </v>
   <v>       0.02051282 </v>
   <v>       0.02051282 </v>
   <v>       0.01025641 </v>
   <v>       0.02051282 </v>
   <v>       0.02051282 </v>
   <v>       0.02051282 </v>
   <v>       0.02051282 </v>
   <v>       0.02051282 </v>
   <v>       0.02051282 </v>
   <v>       0.02051282 </v>
   <v>       0.01025641 </v>
   <v>       0.02051282 </v>
   <v>       0.02051282 </v>
   <v>       0.02051282 </v>
   <v>       0.02051282 </v>
   <v>       0.02051282 </v>
   <v>       0.02051282 </v>
   <v>       0.02051282 </v>
  </varray>
 </kpoints>
 <parameters>
  <separator name="general" >
   <i type="string" name="SYSTEM">unknown system</i>
   <i type="logical" name="LCOMPAT"> F  </i>
  </separator>
  <separator name="electronic" >
   <i type="string" name="PREC">a</i>
   <i name="ENMAX">    520.00000000</i>
   <i name="ENAUG">    531.35600000</i>
   <i name="EDIFF">      0.00001000</i>
   <i type="int" name="IALGO">    38</i>
   <i type="int" name="IWAVPR">    11</i>
   <i type="int" name="NBANDS">    32</i>
   <i name="NELECT">     52.00000000</i>
   <i type="int" name="TURBO">     0</i>
   <i type="int" name="IRESTART">     0</i>
   <i type="int" name="NREBOOT">     0</i>
   <i type="int" name="NMIN">     0</i>
   <i name="EREF">      0.00000000</i>
   <separator name="electronic smearing" >
    <i type="int" name="ISMEAR">     0</i>
    <i name="SIGMA">      0.02000000</i>
    <i name="KSPACING">      0.50000000</i>
    <i type="logical" name="KGAMMA"> T  </i>
   </separator>
   <separator name="electronic projectors" >
    <i type="logical" name="LREAL"> F  </i>
    <v name="ROPT">      0.00000000      0.00000000</v>
    <i type="int" name="LMAXPAW">  -100</i>
    <i type="int" name="LMAXMIX">     2</i>
    <i type="logical" name="NLSPLINE"> F  </i>
   </separator>
   <separator name="electronic startup" >
    <i type="int" name="ISTART">     0</i>
    <i type="int" name="ICHARG">     2</i>
    <i type="int" name="INIWAV">     1</i>
   </separator>
   <separator name="electronic spin" >
    <i type="int" name="ISPIN">     1</i>
    <i type="logical" name="LNONCOLLINEAR"> F  </i>
    <v name="MAGMOM">      1.00000000      1.00000000      1.00000000      1.00000000      1.00000000      1.00000000</v>
    <i name="NUPDOWN">     -1.00000000</i>
    <i type="logical" name="LSORBIT"> F  </i>
    <v name="SAXIS">      0.00000000      0.00000000      1.00000000</v>
    <i type="logical" name="LSPIRAL"> F  </i>
    <v name="QSPIRAL">      0.00000000      0.00000000      0.00000000</v>
    <i type="logical" name="LZEROZ"> F  </i>
   </separator>
   <separator name="electronic exchange-correlation" >
    <i type="logical" name="LASPH"> F  </i>
    <i type="logical" name="LMETAGGA"> F  </i>
   </separator>
   <separator name="electronic convergence" >
    <i type="int" name="NELM">   250</i>
    <i type="int" name="NELMDL">    -5</i>
    <i type="int" name="NELMIN">     6</i>
    <i name="ENINI">    520.00000000</i>
    <separator name="electronic convergence detail" >
     <i type="logical" name="LDIAG"> T  </i>
     <i type="logical" name="LSUBROT"> F  </i>
     <i name="WEIMIN">      0.00100000</i>
     <i name="EBREAK">      0.00000008</i>
     <i name="DEPER">      0.30000000</i>
     <i type="int" name="NRMM">     4</i>
     <i name="TIME">      0.40000000</i>
    </separator>
   </separator>
   <separator name="electronic mixer" >
    <i name="AMIX">      0.40000000</i>
    <i name="BMIX">      1.00000000</i>
    <i name="AMIN">      0.10000000</i>
    <i name="AMIX_MAG">      1.60000000</i>
    <i name="BMIX_MAG">      1.00000000</i>
    <separator name="electronic mixer details" >
     <i type="int" name="IMIX">     4</i>
     <i type="logical" name="MIXFIRST"> F  </i>
     <i type="int" name="MAXMIX">   -45</i>
     <i name="WC">    100.00000000</i>
     <i type="int" name="INIMIX">     1</i>
     <i type="int" name="MIXPRE">     1</i>
     <i type="int" name="MREMOVE">     5</i>
    </separator>
   </separator>
   <separator name="electronic dipolcorrection" >
    <i type="logical" name="LDIPOL"> F  </i>
    <i type="logical" name="LMONO"> F  </i>
    <i type="int" name="IDIPOL">     0</i>
    <i name="EPSILON">      1.00000000</i>
    <v name="DIPOL">   -100.00000000   -100.00000000   -100.00000000</v>
    <i name="EFIELD">      0.00000000</i>
   </separator>
  </separator>
  <separator name="grids" >
   <i type="int" name="NGX">    36</i>
   <i type="int" name="NGY">    42</i>
   <i type="int" name="NGZ">   140</i>
   <i type="int" name="NGXF">    72</i>
   <i type="int" name="NGYF">    84</i>
   <i type="int" name="NGZF">   280</i>
   <i type="logical" name="ADDGRID"> F  </i>
  </separator>
  <separator name="ionic" >
   <i type="int" name="NSW">   200</i>
   <i type="int" name="IBRION">     2</i>
   <i type="int" name="ISIF">     2</i>
   <i name="PSTRESS">      0.00000000</i>
   <i name="EDIFFG">     -0.01000000</i>
   <i type="int" name="NFREE">     1</i>
   <i name="POTIM">      0.30000000</i>
   <i name="SMASS">     -3.00000000</i>
   <i name="SCALEE">      1.00000000</i>
  </separator>
  <separator name="ionic md" >
   <i name="TEBEG">      0.00010000</i>
   <i name="TEEND">      0.00010000</i>
   <i type="int" name="NBLOCK">     1</i>
   <i type="int" name="KBLOCK">   200</i>
   <i type="int" name="NPACO">   256</i>
   <i name="APACO">     16.00000000</i>
  </separator>
  <separator name="symmetry" >
   <i type="int" name="ISYM">     2</i>
   <i name="SYMPREC">      0.00001000</i>
  </separator>
  <separator name="dos" >
   <i type="logical" name="LORBIT"> F  </i>
   <v name="RWIGS">     -1.00000000     -1.00000000</v>
   <i type="int" name="NEDOS">   301</i>
   <i name="EMIN">     10.00000000</i>
   <i name="EMAX">    -10.00000000</i>
   <i name="EFERMI">      0.00000000</i>
  </separator>
  <separator name="writing" >
   <i type="int" name="NWRITE">     2</i>
   <i type="logical" name="LWAVE"> F  </i>
   <i type="logical" name="LCHARG"> F  </i>
   <i type="logical" name="LPARD"> F  </i>
   <i type="logical" name="LVTOT"> F  </i>
   <i type="logical" name="LVHAR"> F  </i>
   <i type="logical" name="LELF"> F  </i>
   <i type="logical" name="LOPTICS"> F  </i>
   <v name="STM">      0.00000000      0.00000000      0.00000000      0.00000000      0.00000000      0.00000000      0.00000000</v>
  </separator>
  <separator name="performance" >
   <i type="int" name="NPAR">     4</i>
   <i type="int" name="NSIM">     4</i>
   <i type="int" name="NBLK">    -1</i>
   <i type="logical" name="LPLANE"> T  </i>
   <i type="logical" name="LSCALAPACK"> T  </i>
   <i type="logical" name="LSCAAWARE"> F  </i>
   <i type="logical" name="LSCALU"> F  </i>
   <i type="logical" name="LASYNC"> F  </i>
   <i type="logical" name="LORBITALREAL"> F  </i>
  </separator>
  <separator name="miscellaneous" >
   <i type="int" name="IDIOT">     3</i>
   <i type="logical" name="LMUSIC"> F  </i>
   <v name="POMASS">     72.61000000     78.96000000</v>
   <v name="DARWINR">      0.00000000      0.00000000</v>
   <v name="DARWINV">      1.00000000      1.00000000</v>
   <i type="logical" name="LCORR"> T  </i>
  </separator>
  <i type="logical" name="GGA_COMPAT"> T  </i>
  <i type="logical" name="LBERRY"> F  </i>
  <i type="int" name="ICORELEVEL">     0</i>
  <i type="logical" name="LDAU"> F  </i>
  <i type="int" name="I_CONSTRAINED_M">     0</i>
  <separator name="electronic exchange-correlation" >
   <i type="string" name="GGA">--</i>
   <i type="int" name="VOSKOWN">     0</i>
   <i type="logical" name="LHFCALC"> F  </i>
   <i type="string" name="PRECFOCK"></i>
   <i type="logical" name="LSYMGRAD"> F  </i>
   <i type="logical" name="LHFONE"> F  </i>
   <i type="logical" name="LRHFCALC"> F  </i>
   <i type="logical" name="LTHOMAS"> F  </i>
   <i type="logical" name="LMODELHF"> F  </i>
   <i name="ENCUT4O">     -1.00000000</i>
   <i type="int" name="EXXOEP">     0</i>
   <i type="int" name="FOURORBIT">     0</i>
   <i name="AEXX">      0.00000000</i>
   <i name="HFALPHA">      0.00000000</i>
   <i name="MCALPHA">      0.00000000</i>
   <i name="ALDAX">      1.00000000</i>
   <i name="AGGAX">      1.00000000</i>
   <i name="ALDAC">      1.00000000</i>
   <i name="AGGAC">      1.00000000</i>
   <i type="int" name="NKREDX">     1</i>
   <i type="int" name="NKREDY">     1</i>
   <i type="int" name="NKREDZ">     1</i>
   <i type="logical" name="SHIFTRED"> F  </i>
   <i type="logical" name="ODDONLY"> F  </i>
   <i type="logical" name="EVENONLY"> F  </i>
   <i type="int" name="LMAXFOCK">     0</i>
   <i type="int" name="NMAXFOCKAE">     0</i>
   <i type="logical" name="LFOCKAEDFT"> F  </i>
   <i name="HFSCREEN">      0.00000000</i>
   <i name="HFSCREENC">      0.00000000</i>
   <i type="int" name="NBANDSGWLOW">     0</i>
  </separator>
  <separator name="vdW DFT" >
   <i type="logical" name="LUSE_VDW"> F  </i>
   <i name="Zab_VDW">     -0.84910000</i>
   <i name="PARAM1">      0.12340000</i>
   <i name="PARAM2">      1.00000000</i>
   <i name="PARAM3">      0.00000000</i>
  </separator>
  <separator name="model GW" >
   <i type="int" name="MODEL_GW">     0</i>
   <i name="MODEL_EPS0">     48.91900994</i>
   <i name="MODEL_ALPHA">      1.00000000</i>
  </separator>
  <separator name="linear response parameters" >
   <i type="logical" name="LEPSILON"> F  </i>
   <i type="logical" name="LRPA"> F  </i>
   <i type="logical" name="LNABLA"> F  </i>
   <i type="logical" name="LVEL"> F  </i>
   <i type="int" name="KINTER">     0</i>
   <i name="CSHIFT">      0.10000000</i>
   <i name="OMEGAMAX">     -1.00000000</i>
   <i name="DEG_THRESHOLD">      0.00200000</i>
  </separator>
  <separator name="orbital magnetization" >
   <i type="logical" name="NUCIND"> F  </i>
   <v name="MAGPOS">      0.00000000      0.00000000      0.00000000</v>
   <i type="logical" name="LNICSALL"> T  </i>
   <i type="logical" name="ORBITALMAG"> F  </i>
   <i type="logical" name="LMAGBLOCH"> F  </i>
   <i type="logical" name="LCHIMAG"> F  </i>
   <i type="logical" name="LGAUGE"> T  </i>
   <i type="int" name="MAGATOM">     0</i>
   <v name="MAGDIPOL">      0.00000000      0.00000000      0.00000000</v>
   <v name="AVECCONST">      0.00000000      0.00000000      0.00000000</v>
  </separator>
  <separator name="response functions" >
   <i type="logical" name="LADDER"> F  </i>
   <i type="logical" name="LFXC"> F  </i>
   <i type="logical" name="LHARTREE"> T  </i>
   <i type="int" name="IBSE">     0</i>
   <v type="int" name="KPOINT">    -1     0     0     0</v>
   <i type="logical" name="LTCTE"> F  </i>
   <i type="logical" name="LTETE"> F  </i>
   <i type="logical" name="LTRIPLET"> F  </i>
   <i type="logical" name="LFXCEPS"> F  </i>
   <i type="logical" name="LFXHEG"> F  </i>
   <i type="int" name="NATURALO">     0</i>
   <i type="logical" name="L2ORDER"> F  </i>
   <i type="logical" name="LUSEW"> F  </i>
   <i name="ENCUTGW">     -2.00000000</i>
   <i name="ENCUTGWSOFT">     -2.00000000</i>
   <i name="ENCUTLF">     -1.00000000</i>
   <i type="int" name="LMAXMP2">    -1</i>
   <i name="SCISSOR">      0.00000000</i>
   <i type="int" name="NOMEGA">     0</i>
   <i type="int" name="NOMEGAR">     0</i>
   <i type="int" name="NBANDSGW">    -1</i>
   <i type="int" name="NBANDSO">    -1</i>
   <i type="int" name="NBANDSV">    -1</i>
   <i type="int" name="NELM">   250</i>
   <i type="int" name="NELMHF">     1</i>
   <i type="int" name="DIM">     3</i>
   <i type="int" name="ANTIRES">     0</i>
   <i name="OMEGAMAX">    -30.00000000</i>
   <i name="OMEGAMIN">    -30.00000000</i>
   <i name="OMEGATL">   -200.00000000</i>
   <i type="int" name="OMEGAGRID">     0</i>
   <i name="CSHIFT">     -0.10000000</i>
   <i type="logical" name="SELFENERGY"> F  </i>
   <i type="logical" name="LSPECTRAL"> F  </i>
   <i type="logical" name="LSPECTRALGW"> F  </i>
   <i type="logical" name="LSINGLES"> F  </i>
   <i type="logical" name="LFERMIGW"> F  </i>
   <i type="logical" name="ODDONLYGW"> F  </i>
   <i type="logical" name="EVENONLYGW"> F  </i>
   <i type="int" name="NKREDLFX">     1</i>
   <i type="int" name="NKREDLFY">     1</i>
   <i type="int" name="NKREDLFZ">     1</i>
   <i type="int" name="MAXMEM">  1800</i>
   <i type="int" name="TELESCOPE">     0</i>
   <i type="int" name="TAUPAR">     1</i>
   <i type="int" name="OMEGAPAR">    -1</i>
   <i name="LAMBDA">      1.00000000</i>
  </separator>
  <separator name="External order field" >
   <i name="OFIELD_KAPPA">      0.00000000</i>
   <v name="OFIELD_K">      0.00000000      0.00000000      0.00000000</v>
   <i name="OFIELD_Q6_NEAR">      0.00000000</i>
   <i name="OFIELD_Q6_FAR">      0.00000000</i>
   <i name="OFIELD_A">      0.00000000</i>
  </separator>
 </parameters>
 <atominfo>
  <atoms>       6 </atoms>
  <types>       2 </types>
  <array name="atoms" >
   <dimension dim="1">ion</dimension>
   <field type="string">element</field>
   <field type="int">atomtype</field>
   <set>
    <rc><c>Ge</c><c>   1</c></rc>
    <rc><c>Ge</c><c>   1</c></rc>
    <rc><c>Se</c><c>   2</c></rc>
    <rc><c>Se</c><c>   2</c></rc>
    <rc><c>Se</c><c>   2</c></rc>
    <rc><c>Se</c><c>   2</c></rc>
   </set>
  </array>
  <array name="atomtypes" >
   <dimension dim="1">type</dimension>
   <field type="int">atomspertype</field>
   <field type="string">element</field>
   <field>mass</field>
   <field>valence</field>
   <field type="string">pseudopotential</field>
   <set>
    <rc><c>   2</c><c>Ge</c><c>     72.61000000</c><c>     14.00000000</c><c>  PAW_PBE Ge_d 03Jul2007                </c></rc>
    <rc><c>   4</c><c>Se</c><c>     78.96000000</c><c>      6.00000000</c><c>  PAW_PBE Se 06Sep2000                  </c></rc>
   </set>
  </array>
 </atominfo>
 <structure name="initialpos" >
  <crystal>
   <varray name="basis" >
    <v>       4.85676800       0.00000000       0.00000000 </v>
    <v>       0.00000000       5.57120200       0.00000000 </v>
    <v>       0.00000000       0.00000000      18.07929100 </v>
   </varray>
   <i name="volume">    489.19009941 </i>
   <varray name="rec_basis" >
    <v>       0.20589824       0.00000000       0.00000000 </v>
    <v>       0.00000000       0.17949448       0.00000000 </v>
    <v>       0.00000000       0.00000000       0.05531190 </v>
   </varray>
  </crystal>
  <varray name="positions" >
   <v>       0.50000000       0.50000000       0.50000000 </v>
   <v>       0.00000000       0.00000000       0.50000000 </v>
   <v>       0.25000000       0.25000000       0.41502600 </v>
   <v>       0.75000000       0.75000000       0.41502600 </v>
   <v>       0.75000000       0.25000000       0.58497400 </v>
   <v>       0.25000000       0.75000000       0.58497400 </v>
  </varray>
 </structure>
 <calculation>
  <scstep>
   <time name="dav">    1.63    1.63</time>
   <time name="total">    1.66    1.67</time>
   <energy>
    <i name="alphaZ">     46.95728198 </i>
    <i name="ewald">   5054.27111772 </i>
    <i name="hartreedc">  -9842.52903229 </i>
    <i name="XCdc">    142.55273040 </i>
    <i name="pawpsdc">   4514.43351212 </i>
    <i name="pawaedc">  -5329.26418529 </i>
    <i name="eentropy">     -0.00060615 </i>
    <i name="bandstr">   -365.36598596 </i>
    <i name="atom">   6220.98622430 </i>
    <i name="e_fr_energy">    442.04105682 </i>
    <i name="e_wo_entrp">    442.04166297 </i>
    <i name="e_0_energy">    442.04135990 </i>
   </energy>
  </scstep>
  <scstep>
   <time name="dav">    1.74    1.74</time>
   <time name="total">    1.74    1.74</time>
   <energy>
    <i name="e_fr_energy">     46.78583297 </i>
    <i name="e_wo_entrp">     46.78624487 </i>
    <i name="e_0_energy">     46.78603892 </i>
   </energy>
  </scstep>
  <scstep>
   <time name="dav">    1.85    1.85</time>
   <time name="total">    1.85    1.85</time>
   <energy>
    <i name="e_fr_energy">    -21.27959111 </i>
    <i name="e_wo_entrp">    -21.27959111 </i>
    <i name="e_0_energy">    -21.27959111 </i>
   </energy>
  </scstep>
  <scstep>
   <time name="dav">    1.67    1.67</time>
   <time name="total">    1.67    1.67</time>
   <energy>
    <i name="e_fr_energy">    -24.74416341 </i>
    <i name="e_wo_entrp">    -24.74416341 </i>
    <i name="e_0_energy">    -24.74416341 </i>
   </energy>
  </scstep>
  <scstep>
   <time name="dav">    1.98    1.98</time>
   <time name="total">    2.08    2.08</time>
   <energy>
    <i name="e_fr_energy">    -24.85738102 </i>
    <i name="e_wo_entrp">    -24.85738102 </i>
    <i name="e_0_energy">    -24.85738102 </i>
   </energy>
  </scstep>
  <scstep>
   <time name="dav">    1.90    1.90</time>
   <time name="total">    2.03    2.03</time>
   <energy>
    <i name="e_fr_energy">    -24.36317362 </i>
    <i name="e_wo_entrp">    -24.36317362 </i>
    <i name="e_0_energy">    -24.36317362 </i>
   </energy>
  </scstep>
  <scstep>
   <time name="dav">    1.73    1.73</time>
   <time name="total">    1.85    1.85</time>
   <energy>
    <i name="e_fr_energy">    -24.26702308 </i>
    <i name="e_wo_entrp">    -24.26702308 </i>
    <i name="e_0_energy">    -24.26702308 </i>
   </energy>
  </scstep>
  <scstep>
   <time name="dav">    1.82    1.82</time>
   <time name="total">    1.94    1.94</time>
   <energy>
    <i name="e_fr_energy">    -24.26094675 </i>
    <i name="e_wo_entrp">    -24.26094675 </i>
    <i name="e_0_energy">    -24.26094675 </i>
   </energy>
  </scstep>
  <scstep>
   <time name="dav">    1.84    1.84</time>
   <time name="total">    1.96    1.97</time>
   <energy>
    <i name="e_fr_energy">    -24.26036311 </i>
    <i name="e_wo_entrp">    -24.26036311 </i>
    <i name="e_0_energy">    -24.26036311 </i>
   </energy>
  </scstep>
  <scstep>
   <time name="dav">    1.93    1.93</time>
   <time name="total">    2.05    2.05</time>
   <energy>
    <i name="e_fr_energy">    -24.26012161 </i>
    <i name="e_wo_entrp">    -24.26012161 </i>
    <i name="e_0_energy">    -24.26012161 </i>
   </energy>
  </scstep>
  <scstep>
   <time name="dav">    1.58    1.58</time>
   <time name="total">    1.70    1.70</time>
   <energy>
    <i name="e_fr_energy">    -24.25990080 </i>
    <i name="e_wo_entrp">    -24.25990080 </i>
    <i name="e_0_energy">    -24.25990080 </i>
   </energy>
  </scstep>
  <scstep>
   <time name="dav">    1.54    1.54</time>
   <time name="total">    1.66    1.66</time>
   <energy>
    <i name="e_fr_energy">    -24.26003324 </i>
    <i name="e_wo_entrp">    -24.26003324 </i>
    <i name="e_0_energy">    -24.26003324 </i>
   </energy>
  </scstep>
  <scstep>
   <time name="dav">    1.52    1.52</time>
   <time name="total">    1.64    1.64</time>
   <energy>
    <i name="e_fr_energy">    -24.26030229 </i>
    <i name="e_wo_entrp">    -24.26030229 </i>
    <i name="e_0_energy">    -24.26030229 </i>
   </energy>
  </scstep>
  <scstep>
   <time name="dav">    1.42    1.42</time>
   <time name="total">    1.54    1.55</time>
   <energy>
    <i name="e_fr_energy">    -24.26040347 </i>
    <i name="e_wo_entrp">    -24.26040347 </i>
    <i name="e_0_energy">    -24.26040347 </i>
   </energy>
  </scstep>
  <scstep>
   <time name="dav">    1.42    1.42</time>
   <time name="total">    1.54    1.54</time>
   <energy>
    <i name="e_fr_energy">    -24.26045953 </i>
    <i name="e_wo_entrp">    -24.26045953 </i>
    <i name="e_0_energy">    -24.26045953 </i>
   </energy>
  </scstep>
  <scstep>
   <time name="dav">    1.34    1.34</time>
   <time name="total">    1.46    1.47</time>
   <energy>
    <i name="e_fr_energy">    -24.26052585 </i>
    <i name="e_wo_entrp">    -24.26052585 </i>
    <i name="e_0_energy">    -24.26052585 </i>
   </energy>
  </scstep>
  <scstep>
   <time name="dav">    1.26    1.26</time>
   <time name="total">    1.38    1.38</time>
   <energy>
    <i name="e_fr_energy">    -24.26057315 </i>
    <i name="e_wo_entrp">    -24.26057315 </i>
    <i name="e_0_energy">    -24.26057315 </i>
   </energy>
  </scstep>
  <scstep>
   <time name="dav">    1.31    1.31</time>
   <time name="total">    1.43    1.43</time>
   <energy>
    <i name="e_fr_energy">    -24.26060324 </i>
    <i name="e_wo_entrp">    -24.26060324 </i>
    <i name="e_0_energy">    -24.26060324 </i>
   </energy>
  </scstep>
  <scstep>
   <time name="dav">    1.33    1.33</time>
   <time name="total">    1.36    1.36</time>
   <energy>
    <i name="alphaZ">     46.95728198 </i>
    <i name="ewald">   5054.27111772 </i>
    <i name="hartreedc">  -9847.61491423 </i>
    <i name="XCdc">    143.09117500 </i>
    <i name="pawpsdc">   5786.32255629 </i>
    <i name="pawaedc">  -6606.60672743 </i>
    <i name="eentropy">     -0.00000000 </i>
    <i name="bandstr">   -821.66732190 </i>
    <i name="atom">   6220.98622430 </i>
    <i name="e_fr_energy">    -24.26060828 </i>
    <i name="e_wo_entrp">    -24.26060828 </i>
    <i name="e_0_energy">    -24.26060828 </i>
   </energy>
  </scstep>
  <structure>
   <crystal>
    <varray name="basis" >
     <v>       4.85676800       0.00000000       0.00000000 </v>
     <v>       0.00000000       5.57120200       0.00000000 </v>
     <v>       0.00000000       0.00000000      18.07929100 </v>
    </varray>
    <i name="volume">    489.19009941 </i>
    <varray name="rec_basis" >
     <v>       0.20589824       0.00000000       0.00000000 </v>
     <v>       0.00000000       0.17949448       0.00000000 </v>
     <v>       0.00000000       0.00000000       0.05531190 </v>
    </varray>
   </crystal>
   <varray name="positions" >
    <v>       0.50000000       0.50000000       0.50000000 </v>
    <v>       0.00000000       0.00000000       0.50000000 </v>
    <v>       0.25000000       0.25000000       0.41502600 </v>
    <v>       0.75000000       0.75000000       0.41502600 </v>
    <v>       0.75000000       0.25000000       0.58497400 </v>
    <v>       0.25000000       0.75000000       0.58497400 </v>
   </varray>
  </structure>
  <varray name="forces" >
   <v>       0.00000000       0.00000000      -0.00000000 </v>
   <v>       0.00000000       0.00000000      -0.00000000 </v>
   <v>       0.00000000       0.00000000      -0.04836094 </v>
   <v>       0.00000000      -0.00000000      -0.04836094 </v>
   <v>       0.00000000       0.00000000       0.04836094 </v>
   <v>       0.00000000      -0.00000000       0.04836094 </v>
  </varray>
  <varray name="stress" >
   <v>       1.73637130       0.00000000       0.00000000 </v>
   <v>       0.00000000       1.95643803       0.00000000 </v>
   <v>       0.00000000       0.00000000       0.92956687 </v>
  </varray>
  <energy>
   <i name="e_fr_energy">    -24.26060828 </i>
   <i name="e_wo_entrp">    -24.26060828 </i>
   <i name="e_0_energy">     -0.00000000 </i>
  </energy>
  <time name="totalsc">   33.71   33.76</time>
 </calculation>
 <calculation>
  <scstep>
   <time name="dav">    1.37    1.37</time>
   <time name="total">    1.49    1.50</time>
   <energy>
    <i name="alphaZ">     46.95728198 </i>
    <i name="ewald">   5051.04249576 </i>
    <i name="hartreedc">  -9844.49102348 </i>
    <i name="XCdc">    143.07817342 </i>
    <i name="pawpsdc">   5786.30670205 </i>
    <i name="pawaedc">  -6606.59098314 </i>
    <i name="eentropy">     -0.00000000 </i>
    <i name="bandstr">   -821.54967189 </i>
    <i name="atom">   6220.98622430 </i>
    <i name="e_fr_energy">    -24.26080101 </i>
    <i name="e_wo_entrp">    -24.26080101 </i>
    <i name="e_0_energy">    -24.26080101 </i>
   </energy>
  </scstep>
  <scstep>
   <time name="dav">    1.57    1.57</time>
   <time name="total">    1.69    1.69</time>
   <energy>
    <i name="e_fr_energy">    -24.26083521 </i>
    <i name="e_wo_entrp">    -24.26083521 </i>
    <i name="e_0_energy">    -24.26083521 </i>
   </energy>
  </scstep>
  <scstep>
   <time name="dav">    1.30    1.30</time>
   <time name="total">    1.42    1.42</time>
   <energy>
    <i name="e_fr_energy">    -24.26083336 </i>
    <i name="e_wo_entrp">    -24.26083336 </i>
    <i name="e_0_energy">    -24.26083336 </i>
   </energy>
  </scstep>
  <scstep>
   <time name="dav">    1.22    1.22</time>
   <time name="total">    1.34    1.35</time>
   <energy>
    <i name="e_fr_energy">    -24.26083235 </i>
    <i name="e_wo_entrp">    -24.26083235 </i>
    <i name="e_0_energy">    -24.26083235 </i>
   </energy>
  </scstep>
  <scstep>
   <time name="dav">    1.14    1.14</time>
   <time name="total">    1.26    1.26</time>
   <energy>
    <i name="e_fr_energy">    -24.26083196 </i>
    <i name="e_wo_entrp">    -24.26083196 </i>
    <i name="e_0_energy">    -24.26083196 </i>
   </energy>
  </scstep>
  <scstep>
   <time name="dav">    1.11    1.11</time>
   <time name="total">    1.14    1.14</time>
   <energy>
    <i name="alphaZ">     46.95728198 </i>
    <i name="ewald">   5051.04249576 </i>
    <i name="hartreedc">  -9844.49038273 </i>
    <i name="XCdc">    143.07984704 </i>
    <i name="pawpsdc">   5782.87883951 </i>
    <i name="pawaedc">  -6603.14055145 </i>
    <i name="eentropy">     -0.00000000 </i>
    <i name="bandstr">   -821.57458628 </i>
    <i name="atom">   6220.98622430 </i>
    <i name="e_fr_energy">    -24.26083188 </i>
    <i name="e_wo_entrp">    -24.26083188 </i>
    <i name="e_0_energy">    -24.26083188 </i>
   </energy>
  </scstep>
  <structure>
   <crystal>
    <varray name="basis" >
     <v>       4.85676800       0.00000000       0.00000000 </v>
     <v>       0.00000000       5.57120200       0.00000000 </v>
     <v>       0.00000000       0.00000000      18.07929100 </v>
    </varray>
    <i name="volume">    489.19009941 </i>
    <varray name="rec_basis" >
     <v>       0.20589824       0.00000000       0.00000000 </v>
     <v>       0.00000000       0.17949448       0.00000000 </v>
     <v>       0.00000000       0.00000000       0.05531190 </v>
    </varray>
   </crystal>
   <varray name="positions" >
    <v>       0.50000000       0.50000000       0.50000000 </v>
    <v>       0.00000000       0.00000000       0.50000000 </v>
    <v>       0.25000000       0.25000000       0.41494857 </v>
    <v>       0.75000000       0.75000000       0.41494857 </v>
    <v>       0.75000000       0.25000000       0.58505143 </v>
    <v>       0.25000000       0.75000000       0.58505143 </v>
   </varray>
  </structure>
  <varray name="forces" >
   <v>      -0.00000000       0.00000000      -0.00000000 </v>
   <v>      -0.00000000       0.00000000       0.00000000 </v>
   <v>      -0.00000000       0.00000000      -0.03201231 </v>
   <v>       0.00000000       0.00000000      -0.03201231 </v>
   <v>       0.00000000       0.00000000       0.03201231 </v>
   <v>      -0.00000000       0.00000000       0.03201231 </v>
  </varray>
  <varray name="stress" >
   <v>       1.64839680       0.00000000       0.00000000 </v>
   <v>       0.00000000       1.85339242       0.00000000 </v>
   <v>       0.00000000       0.00000000       0.60479299 </v>
  </varray>
  <energy>
   <i name="e_fr_energy">    -24.26083188 </i>
   <i name="e_wo_entrp">    -24.26083188 </i>
   <i name="e_0_energy">     -0.00000000 </i>
  </energy>
  <time name="totalsc">    9.52    9.53</time>
 </calculation>
 <calculation>
  <scstep>
   <time name="dav">    1.48    1.48</time>
   <time name="total">    1.60    1.60</time>
   <energy>
    <i name="alphaZ">     46.95728198 </i>
    <i name="ewald">   5044.72072099 </i>
    <i name="hartreedc">  -9838.37832261 </i>
    <i name="XCdc">    143.05445138 </i>
    <i name="pawpsdc">   5782.86549032 </i>
    <i name="pawaedc">  -6603.12725548 </i>
    <i name="eentropy">     -0.00000000 </i>
    <i name="bandstr">   -821.33946772 </i>
    <i name="atom">   6220.98622430 </i>
    <i name="e_fr_energy">    -24.26087685 </i>
    <i name="e_wo_entrp">    -24.26087685 </i>
    <i name="e_0_energy">    -24.26087685 </i>
   </energy>
  </scstep>
  <scstep>
   <time name="dav">    1.69    1.69</time>
   <time name="total">    1.81    1.81</time>
   <energy>
    <i name="e_fr_energy">    -24.26100917 </i>
    <i name="e_wo_entrp">    -24.26100917 </i>
    <i name="e_0_energy">    -24.26100917 </i>
   </energy>
  </scstep>
  <scstep>
   <time name="dav">    1.51    1.51</time>
   <time name="total">    1.63    1.63</time>
   <energy>
    <i name="e_fr_energy">    -24.26100359 </i>
    <i name="e_wo_entrp">    -24.26100359 </i>
    <i name="e_0_energy">    -24.26100359 </i>
   </energy>
  </scstep>
  <scstep>
   <time name="dav">    1.25    1.25</time>
   <time name="total">    1.37    1.37</time>
   <energy>
    <i name="e_fr_energy">    -24.26100106 </i>
    <i name="e_wo_entrp">    -24.26100106 </i>
    <i name="e_0_energy">    -24.26100106 </i>
   </energy>
  </scstep>
  <scstep>
   <time name="dav">    1.17    1.17</time>
   <time name="total">    1.29    1.29</time>
   <energy>
    <i name="e_fr_energy">    -24.26099993 </i>
    <i name="e_wo_entrp">    -24.26099993 </i>
    <i name="e_0_energy">    -24.26099993 </i>
   </energy>
  </scstep>
  <scstep>
   <time name="dav">    1.08    1.08</time>
   <time name="total">    1.11    1.11</time>
   <energy>
    <i name="alphaZ">     46.95728198 </i>
    <i name="ewald">   5044.72072099 </i>
    <i name="hartreedc">  -9838.38341968 </i>
    <i name="XCdc">    143.05775034 </i>
    <i name="pawpsdc">   5776.22636563 </i>
    <i name="pawaedc">  -6596.44445344 </i>
    <i name="eentropy">     -0.00000000 </i>
    <i name="bandstr">   -821.38146998 </i>
    <i name="atom">   6220.98622430 </i>
    <i name="e_fr_energy">    -24.26099986 </i>
    <i name="e_wo_entrp">    -24.26099986 </i>
    <i name="e_0_energy">    -24.26099986 </i>
   </energy>
  </scstep>
  <structure>
   <crystal>
    <varray name="basis" >
     <v>       4.85676800       0.00000000       0.00000000 </v>
     <v>       0.00000000       5.57120200       0.00000000 </v>
     <v>       0.00000000       0.00000000      18.07929100 </v>
    </varray>
    <i name="volume">    489.19009941 </i>
    <varray name="rec_basis" >
     <v>       0.20589824       0.00000000       0.00000000 </v>
     <v>       0.00000000       0.17949448       0.00000000 </v>
     <v>       0.00000000       0.00000000       0.05531190 </v>
    </varray>
   </crystal>
   <varray name="positions" >
    <v>       0.50000000       0.50000000       0.50000000 </v>
    <v>       0.00000000       0.00000000       0.50000000 </v>
    <v>       0.25000000       0.25000000       0.41479696 </v>
    <v>       0.75000000       0.75000000       0.41479696 </v>
    <v>       0.75000000       0.25000000       0.58520304 </v>
    <v>       0.25000000       0.75000000       0.58520304 </v>
   </varray>
  </structure>
  <varray name="forces" >
   <v>      -0.00000000       0.00000000       0.00000000 </v>
   <v>       0.00000000       0.00000000       0.00000000 </v>
   <v>       0.00000000       0.00000000      -0.00001818 </v>
   <v>      -0.00000000      -0.00000000      -0.00001818 </v>
   <v>       0.00000000       0.00000000       0.00001818 </v>
   <v>       0.00000000      -0.00000000       0.00001818 </v>
  </varray>
  <varray name="stress" >
   <v>       1.47852066       0.00000000       0.00000000 </v>
   <v>       0.00000000       1.65697498       0.00000000 </v>
   <v>       0.00000000       0.00000000      -0.02887295 </v>
  </varray>
  <energy>
   <i name="e_fr_energy">    -24.26099986 </i>
   <i name="e_wo_entrp">    -24.26099986 </i>
   <i name="e_0_energy">     -0.00000000 </i>
  </energy>
  <time name="totalsc">    9.90    9.91</time>
  <eigenvalues>
   <array>
    <dimension dim="1">band</dimension>
    <dimension dim="2">kpoint</dimension>
    <dimension dim="3">spin</dimension>
    <field>eigene</field>
    <field>occ</field>
    <set>
     <set comment="spin 1">
      <set comment="kpoint 1">
       <r>  -27.7565    1.0000 </r>
       <r>  -27.7518    1.0000 </r>
       <r>  -27.7517    1.0000 </r>
       <r>  -27.7435    1.0000 </r>
       <r>  -27.7423    1.0000 </r>
       <r>  -27.7290    1.0000 </r>
       <r>  -27.7244    1.0000 </r>
       <r>  -27.7238    1.0000 </r>
       <r>  -27.7111    1.0000 </r>
       <r>  -27.7057    1.0000 </r>
       <r>  -16.9094    1.0000 </r>
       <r>  -15.3892    1.0000 </r>
       <r>  -14.9492    1.0000 </r>
       <r>  -14.7217    1.0000 </r>
       <r>  -11.7612    1.0000 </r>
       <r>   -9.2040    1.0000 </r>
       <r>   -7.4538    1.0000 </r>
       <r>   -5.8941    1.0000 </r>
       <r>   -5.4623    1.0000 </r>
       <r>   -5.3848    1.0000 </r>
       <r>   -5.1430    1.0000 </r>
       <r>   -5.1169    1.0000 </r>
       <r>   -4.6489    1.0000 </r>
       <r>   -4.1426    1.0000 </r>
       <r>   -2.7938    1.0000 </r>
       <r>   -2.7386    1.0000 </r>
       <r>   -1.7589    0.0000 </r>
       <r>   -1.3638    0.0000 </r>
       <r>   -0.8271    0.0000 </r>
       <r>    0.1344    0.0000 </r>
       <r>    0.7082    0.0000 </r>
       <r>    1.9750    0.0000 </r>
      </set>
      <set comment="kpoint 2">
       <r>  -27.7564    1.0000 </r>
       <r>  -27.7518    1.0000 </r>
       <r>  -27.7516    1.0000 </r>
       <r>  -27.7437    1.0000 </r>
       <r>  -27.7423    1.0000 </r>
       <r>  -27.7290    1.0000 </r>
       <r>  -27.7244    1.0000 </r>
       <r>  -27.7241    1.0000 </r>
       <r>  -27.7110    1.0000 </r>
       <r>  -27.7058    1.0000 </r>
       <r>  -16.8924    1.0000 </r>
       <r>  -15.3826    1.0000 </r>
       <r>  -14.9516    1.0000 </r>
       <r>  -14.7614    1.0000 </r>
       <r>  -11.7183    1.0000 </r>
       <r>   -9.2185    1.0000 </r>
       <r>   -7.4523    1.0000 </r>
       <r>   -5.8882    1.0000 </r>
       <r>   -5.5636    1.0000 </r>
       <r>   -5.4663    1.0000 </r>
       <r>   -5.2073    1.0000 </r>
       <r>   -5.0080    1.0000 </r>
       <r>   -4.6444    1.0000 </r>
       <r>   -4.1287    1.0000 </r>
       <r>   -2.8560    1.0000 </r>
       <r>   -2.7706    1.0000 </r>
       <r>   -1.6572    0.0000 </r>
       <r>   -1.3598    0.0000 </r>
       <r>   -0.7134    0.0000 </r>
       <r>    0.1855    0.0000 </r>
       <r>    0.7582    0.0000 </r>
       <r>    2.0053    0.0000 </r>
      </set>
      <set comment="kpoint 3">
       <r>  -27.7559    1.0000 </r>
       <r>  -27.7516    1.0000 </r>
       <r>  -27.7511    1.0000 </r>
       <r>  -27.7441    1.0000 </r>
       <r>  -27.7423    1.0000 </r>
       <r>  -27.7288    1.0000 </r>
       <r>  -27.7249    1.0000 </r>
       <r>  -27.7245    1.0000 </r>
       <r>  -27.7108    1.0000 </r>
       <r>  -27.7060    1.0000 </r>
       <r>  -16.8415    1.0000 </r>
       <r>  -15.3632    1.0000 </r>
       <r>  -14.9593    1.0000 </r>
       <r>  -14.8736    1.0000 </r>
       <r>  -11.5960    1.0000 </r>
       <r>   -9.2638    1.0000 </r>
       <r>   -7.4464    1.0000 </r>
       <r>   -5.8675    1.0000 </r>
       <r>   -5.7291    1.0000 </r>
       <r>   -5.6750    1.0000 </r>
       <r>   -5.3733    1.0000 </r>
       <r>   -4.8239    1.0000 </r>
       <r>   -4.6493    1.0000 </r>
       <r>   -4.0882    1.0000 </r>
       <r>   -3.0167    1.0000 </r>
       <r>   -2.8580    1.0000 </r>
       <r>   -1.3959    0.0000 </r>
       <r>   -1.3357    0.0000 </r>
       <r>   -0.3943    0.0000 </r>
       <r>    0.3279    0.0000 </r>
       <r>    0.8963    0.0000 </r>
       <r>    2.0526    0.0000 </r>
      </set>
      <set comment="kpoint 4">
       <r>  -27.7553    1.0000 </r>
       <r>  -27.7513    1.0000 </r>
       <r>  -27.7504    1.0000 </r>
       <r>  -27.7448    1.0000 </r>
       <r>  -27.7421    1.0000 </r>
       <r>  -27.7285    1.0000 </r>
       <r>  -27.7262    1.0000 </r>
       <r>  -27.7246    1.0000 </r>
       <r>  -27.7106    1.0000 </r>
       <r>  -27.7062    1.0000 </r>
       <r>  -16.7577    1.0000 </r>
       <r>  -15.3324    1.0000 </r>
       <r>  -15.0410    1.0000 </r>
       <r>  -14.9727    1.0000 </r>
       <r>  -11.4105    1.0000 </r>
       <r>   -9.3450    1.0000 </r>
       <r>   -7.4329    1.0000 </r>
       <r>   -5.9492    1.0000 </r>
       <r>   -5.8801    1.0000 </r>
       <r>   -5.8247    1.0000 </r>
       <r>   -5.5842    1.0000 </r>
       <r>   -4.6864    1.0000 </r>
       <r>   -4.6527    1.0000 </r>
       <r>   -4.0246    1.0000 </r>
       <r>   -3.2328    1.0000 </r>
       <r>   -2.9816    1.0000 </r>
       <r>   -1.2662    0.0000 </r>
       <r>   -1.0554    0.0000 </r>
       <r>    0.0821    0.0000 </r>
       <r>    0.5367    0.0000 </r>
       <r>    1.0854    0.0000 </r>
       <r>    1.8823    0.0000 </r>
      </set>
      <set comment="kpoint 5">
       <r>  -27.7544    1.0000 </r>
       <r>  -27.7510    1.0000 </r>
       <r>  -27.7497    1.0000 </r>
       <r>  -27.7457    1.0000 </r>
       <r>  -27.7416    1.0000 </r>
       <r>  -27.7280    1.0000 </r>
       <r>  -27.7280    1.0000 </r>
       <r>  -27.7248    1.0000 </r>
       <r>  -27.7102    1.0000 </r>
       <r>  -27.7066    1.0000 </r>
       <r>  -16.6423    1.0000 </r>
       <r>  -15.2923    1.0000 </r>
       <r>  -15.2443    1.0000 </r>
       <r>  -14.9929    1.0000 </r>
       <r>  -11.1795    1.0000 </r>
       <r>   -9.4682    1.0000 </r>
       <r>   -7.4055    1.0000 </r>
       <r>   -6.2420    1.0000 </r>
       <r>   -6.0011    1.0000 </r>
       <r>   -5.7897    1.0000 </r>
       <r>   -5.7530    1.0000 </r>
       <r>   -4.7640    1.0000 </r>
       <r>   -4.5151    1.0000 </r>
       <r>   -3.9423    1.0000 </r>
       <r>   -3.4693    1.0000 </r>
       <r>   -3.1203    1.0000 </r>
       <r>   -1.1346    0.0000 </r>
       <r>   -0.7125    0.0000 </r>
       <r>    0.6670    0.0000 </r>
       <r>    0.7808    0.0000 </r>
       <r>    1.2666    0.0000 </r>
       <r>    1.7158    0.0000 </r>
      </set>
      <set comment="kpoint 6">
       <r>  -27.7533    1.0000 </r>
       <r>  -27.7506    1.0000 </r>
       <r>  -27.7492    1.0000 </r>
       <r>  -27.7468    1.0000 </r>
       <r>  -27.7406    1.0000 </r>
       <r>  -27.7300    1.0000 </r>
       <r>  -27.7275    1.0000 </r>
       <r>  -27.7251    1.0000 </r>
       <r>  -27.7098    1.0000 </r>
       <r>  -27.7070    1.0000 </r>
       <r>  -16.4976    1.0000 </r>
       <r>  -15.4668    1.0000 </r>
       <r>  -15.2455    1.0000 </r>
       <r>  -15.0204    1.0000 </r>
       <r>  -10.9192    1.0000 </r>
       <r>   -9.6365    1.0000 </r>
       <r>   -7.3554    1.0000 </r>
       <r>   -6.5233    1.0000 </r>
       <r>   -6.0887    1.0000 </r>
       <r>   -5.9578    1.0000 </r>
       <r>   -5.6495    1.0000 </r>
       <r>   -4.8808    1.0000 </r>
       <r>   -4.4077    1.0000 </r>
       <r>   -3.8462    1.0000 </r>
       <r>   -3.6992    1.0000 </r>
       <r>   -3.2586    1.0000 </r>
       <r>   -0.9445    0.0000 </r>
       <r>   -0.4412    0.0000 </r>
       <r>    1.0245    0.0000 </r>
       <r>    1.3157    0.0000 </r>
       <r>    1.3832    0.0000 </r>
       <r>    1.5864    0.0000 </r>
      </set>
      <set comment="kpoint 7">
       <r>  -27.7521    1.0000 </r>
       <r>  -27.7501    1.0000 </r>
       <r>  -27.7491    1.0000 </r>
       <r>  -27.7481    1.0000 </r>
       <r>  -27.7390    1.0000 </r>
       <r>  -27.7323    1.0000 </r>
       <r>  -27.7270    1.0000 </r>
       <r>  -27.7255    1.0000 </r>
       <r>  -27.7093    1.0000 </r>
       <r>  -27.7076    1.0000 </r>
       <r>  -16.3262    1.0000 </r>
       <r>  -15.6953    1.0000 </r>
       <r>  -15.1954    1.0000 </r>
       <r>  -15.0556    1.0000 </r>
       <r>  -10.6430    1.0000 </r>
       <r>   -9.8480    1.0000 </r>
       <r>   -7.2734    1.0000 </r>
       <r>   -6.7747    1.0000 </r>
       <r>   -6.1424    1.0000 </r>
       <r>   -6.0751    1.0000 </r>
       <r>   -5.5164    1.0000 </r>
       <r>   -5.0285    1.0000 </r>
       <r>   -4.3125    1.0000 </r>
       <r>   -3.9042    1.0000 </r>
       <r>   -3.7406    1.0000 </r>
       <r>   -3.3893    1.0000 </r>
       <r>   -0.7199    0.0000 </r>
       <r>   -0.3090    0.0000 </r>
       <r>    1.2294    0.0000 </r>
       <r>    1.4243    0.0000 </r>
       <r>    1.4799    0.0000 </r>
       <r>    1.5259    0.0000 </r>
      </set>
      <set comment="kpoint 8">
       <r>  -27.7507    1.0000 </r>
       <r>  -27.7497    1.0000 </r>
       <r>  -27.7494    1.0000 </r>
       <r>  -27.7493    1.0000 </r>
       <r>  -27.7370    1.0000 </r>
       <r>  -27.7347    1.0000 </r>
       <r>  -27.7265    1.0000 </r>
       <r>  -27.7260    1.0000 </r>
       <r>  -27.7087    1.0000 </r>
       <r>  -27.7081    1.0000 </r>
       <r>  -16.1320    1.0000 </r>
       <r>  -15.9196    1.0000 </r>
       <r>  -15.1451    1.0000 </r>
       <r>  -15.0977    1.0000 </r>
       <r>  -10.3638    1.0000 </r>
       <r>  -10.0944    1.0000 </r>
       <r>   -7.1517    1.0000 </r>
       <r>   -6.9857    1.0000 </r>
       <r>   -6.1611    1.0000 </r>
       <r>   -6.1409    1.0000 </r>
       <r>   -5.3608    1.0000 </r>
       <r>   -5.1935    1.0000 </r>
       <r>   -4.2071    1.0000 </r>
       <r>   -4.0738    1.0000 </r>
       <r>   -3.6287    1.0000 </r>
       <r>   -3.5120    1.0000 </r>
       <r>   -0.5007    0.0000 </r>
       <r>   -0.3419    0.0000 </r>
       <r>    1.3688    0.0000 </r>
       <r>    1.4274    0.0000 </r>
       <r>    1.4370    0.0000 </r>
       <r>    1.4505    0.0000 </r>
      </set>
      <set comment="kpoint 9">
       <r>  -27.7564    1.0000 </r>
       <r>  -27.7517    1.0000 </r>
       <r>  -27.7516    1.0000 </r>
       <r>  -27.7435    1.0000 </r>
       <r>  -27.7425    1.0000 </r>
       <r>  -27.7290    1.0000 </r>
       <r>  -27.7244    1.0000 </r>
       <r>  -27.7242    1.0000 </r>
       <r>  -27.7110    1.0000 </r>
       <r>  -27.7058    1.0000 </r>
       <r>  -16.8905    1.0000 </r>
       <r>  -15.3800    1.0000 </r>
       <r>  -15.0006    1.0000 </r>
       <r>  -14.7318    1.0000 </r>
       <r>  -11.6972    1.0000 </r>
       <r>   -9.2207    1.0000 </r>
       <r>   -7.4391    1.0000 </r>
       <r>   -5.9175    1.0000 </r>
       <r>   -5.4541    1.0000 </r>
       <r>   -5.4466    1.0000 </r>
       <r>   -5.2298    1.0000 </r>
       <r>   -5.0828    1.0000 </r>
       <r>   -4.6435    1.0000 </r>
       <r>   -4.1118    1.0000 </r>
       <r>   -2.8240    1.0000 </r>
       <r>   -2.8110    1.0000 </r>
       <r>   -1.6405    0.0000 </r>
       <r>   -1.3390    0.0000 </r>
       <r>   -0.6955    0.0000 </r>
       <r>    0.1515    0.0000 </r>
       <r>    0.7423    0.0000 </r>
       <r>    2.0026    0.0000 </r>
      </set>
      <set comment="kpoint 10">
       <r>  -27.7562    1.0000 </r>
       <r>  -27.7516    1.0000 </r>
       <r>  -27.7514    1.0000 </r>
       <r>  -27.7437    1.0000 </r>
       <r>  -27.7424    1.0000 </r>
       <r>  -27.7289    1.0000 </r>
       <r>  -27.7246    1.0000 </r>
       <r>  -27.7242    1.0000 </r>
       <r>  -27.7109    1.0000 </r>
       <r>  -27.7059    1.0000 </r>
       <r>  -16.8736    1.0000 </r>
       <r>  -15.3736    1.0000 </r>
       <r>  -15.0062    1.0000 </r>
       <r>  -14.7653    1.0000 </r>
       <r>  -11.6584    1.0000 </r>
       <r>   -9.2367    1.0000 </r>
       <r>   -7.4344    1.0000 </r>
       <r>   -5.9233    1.0000 </r>
       <r>   -5.5860    1.0000 </r>
       <r>   -5.5387    1.0000 </r>
       <r>   -5.2045    1.0000 </r>
       <r>   -4.9801    1.0000 </r>
       <r>   -4.6477    1.0000 </r>
       <r>   -4.0989    1.0000 </r>
       <r>   -2.9613    1.0000 </r>
       <r>   -2.7502    1.0000 </r>
       <r>   -1.5977    0.0000 </r>
       <r>   -1.3338    0.0000 </r>
       <r>   -0.5592    0.0000 </r>
       <r>    0.2007    0.0000 </r>
       <r>    0.7911    0.0000 </r>
       <r>    1.9830    0.0000 </r>
      </set>
      <set comment="kpoint 11">
       <r>  -27.7559    1.0000 </r>
       <r>  -27.7514    1.0000 </r>
       <r>  -27.7510    1.0000 </r>
       <r>  -27.7441    1.0000 </r>
       <r>  -27.7424    1.0000 </r>
       <r>  -27.7287    1.0000 </r>
       <r>  -27.7254    1.0000 </r>
       <r>  -27.7243    1.0000 </r>
       <r>  -27.7108    1.0000 </r>
       <r>  -27.7060    1.0000 </r>
       <r>  -16.8233    1.0000 </r>
       <r>  -15.3548    1.0000 </r>
       <r>  -15.0302    1.0000 </r>
       <r>  -14.8531    1.0000 </r>
       <r>  -11.5475    1.0000 </r>
       <r>   -9.2865    1.0000 </r>
       <r>   -7.4198    1.0000 </r>
       <r>   -5.9513    1.0000 </r>
       <r>   -5.8432    1.0000 </r>
       <r>   -5.6553    1.0000 </r>
       <r>   -5.2610    1.0000 </r>
       <r>   -4.8006    1.0000 </r>
       <r>   -4.6643    1.0000 </r>
       <r>   -4.0601    1.0000 </r>
       <r>   -3.1550    1.0000 </r>
       <r>   -2.7700    1.0000 </r>
       <r>   -1.4442    0.0000 </r>
       <r>   -1.3071    0.0000 </r>
       <r>   -0.2061    0.0000 </r>
       <r>    0.3376    0.0000 </r>
       <r>    0.9268    0.0000 </r>
       <r>    1.8652    0.0000 </r>
      </set>
      <set comment="kpoint 12">
       <r>  -27.7553    1.0000 </r>
       <r>  -27.7511    1.0000 </r>
       <r>  -27.7504    1.0000 </r>
       <r>  -27.7447    1.0000 </r>
       <r>  -27.7422    1.0000 </r>
       <r>  -27.7284    1.0000 </r>
       <r>  -27.7267    1.0000 </r>
       <r>  -27.7245    1.0000 </r>
       <r>  -27.7105    1.0000 </r>
       <r>  -27.7063    1.0000 </r>
       <r>  -16.7405    1.0000 </r>
       <r>  -15.3250    1.0000 </r>
       <r>  -15.1107    1.0000 </r>
       <r>  -14.9428    1.0000 </r>
       <r>  -11.3780    1.0000 </r>
       <r>   -9.3746    1.0000 </r>
       <r>   -7.3937    1.0000 </r>
       <r>   -6.1179    1.0000 </r>
       <r>   -6.0187    1.0000 </r>
       <r>   -5.7002    1.0000 </r>
       <r>   -5.4176    1.0000 </r>
       <r>   -4.7108    1.0000 </r>
       <r>   -4.6337    1.0000 </r>
       <r>   -3.9959    1.0000 </r>
       <r>   -3.3701    1.0000 </r>
       <r>   -2.8599    1.0000 </r>
       <r>   -1.2363    0.0000 </r>
       <r>   -1.1810    0.0000 </r>
       <r>    0.2752    0.0000 </r>
       <r>    0.5362    0.0000 </r>
       <r>    1.1156    0.0000 </r>
       <r>    1.7048    0.0000 </r>
      </set>
      <set comment="kpoint 13">
       <r>  -27.7545    1.0000 </r>
       <r>  -27.7506    1.0000 </r>
       <r>  -27.7499    1.0000 </r>
       <r>  -27.7454    1.0000 </r>
       <r>  -27.7417    1.0000 </r>
       <r>  -27.7284    1.0000 </r>
       <r>  -27.7279    1.0000 </r>
       <r>  -27.7247    1.0000 </r>
       <r>  -27.7102    1.0000 </r>
       <r>  -27.7066    1.0000 </r>
       <r>  -16.6266    1.0000 </r>
       <r>  -15.2862    1.0000 </r>
       <r>  -15.2763    1.0000 </r>
       <r>  -14.9896    1.0000 </r>
       <r>  -11.1651    1.0000 </r>
       <r>   -9.5054    1.0000 </r>
       <r>   -7.3528    1.0000 </r>
       <r>   -6.3747    1.0000 </r>
       <r>   -6.0992    1.0000 </r>
       <r>   -5.6750    1.0000 </r>
       <r>   -5.6198    1.0000 </r>
       <r>   -4.7996    1.0000 </r>
       <r>   -4.5015    1.0000 </r>
       <r>   -3.9088    1.0000 </r>
       <r>   -3.5820    1.0000 </r>
       <r>   -2.9912    1.0000 </r>
       <r>   -1.1073    0.0000 </r>
       <r>   -0.8676    0.0000 </r>
       <r>    0.7645    0.0000 </r>
       <r>    0.8215    0.0000 </r>
       <r>    1.3028    0.0000 </r>
       <r>    1.5625    0.0000 </r>
      </set>
      <set comment="kpoint 14">
       <r>  -27.7536    1.0000 </r>
       <r>  -27.7501    1.0000 </r>
       <r>  -27.7497    1.0000 </r>
       <r>  -27.7463    1.0000 </r>
       <r>  -27.7407    1.0000 </r>
       <r>  -27.7304    1.0000 </r>
       <r>  -27.7274    1.0000 </r>
       <r>  -27.7250    1.0000 </r>
       <r>  -27.7097    1.0000 </r>
       <r>  -27.7071    1.0000 </r>
       <r>  -16.4839    1.0000 </r>
       <r>  -15.4820    1.0000 </r>
       <r>  -15.2412    1.0000 </r>
       <r>  -15.0232    1.0000 </r>
       <r>  -10.9229    1.0000 </r>
       <r>   -9.6801    1.0000 </r>
       <r>   -7.2927    1.0000 </r>
       <r>   -6.6002    1.0000 </r>
       <r>   -6.1574    1.0000 </r>
       <r>   -5.8189    1.0000 </r>
       <r>   -5.6061    1.0000 </r>
       <r>   -4.9267    1.0000 </r>
       <r>   -4.3991    1.0000 </r>
       <r>   -3.8044    1.0000 </r>
       <r>   -3.7757    1.0000 </r>
       <r>   -3.1391    1.0000 </r>
       <r>   -0.9260    0.0000 </r>
       <r>   -0.5873    0.0000 </r>
       <r>    0.9878    0.0000 </r>
       <r>    1.3323    0.0000 </r>
       <r>    1.4324    0.0000 </r>
       <r>    1.5228    0.0000 </r>
      </set>
      <set comment="kpoint 15">
       <r>  -27.7526    1.0000 </r>
       <r>  -27.7500    1.0000 </r>
       <r>  -27.7494    1.0000 </r>
       <r>  -27.7471    1.0000 </r>
       <r>  -27.7391    1.0000 </r>
       <r>  -27.7327    1.0000 </r>
       <r>  -27.7269    1.0000 </r>
       <r>  -27.7254    1.0000 </r>
       <r>  -27.7092    1.0000 </r>
       <r>  -27.7076    1.0000 </r>
       <r>  -16.3153    1.0000 </r>
       <r>  -15.7004    1.0000 </r>
       <r>  -15.1931    1.0000 </r>
       <r>  -15.0589    1.0000 </r>
       <r>  -10.6634    1.0000 </r>
       <r>   -9.8940    1.0000 </r>
       <r>   -7.2089    1.0000 </r>
       <r>   -6.7940    1.0000 </r>
       <r>   -6.1798    1.0000 </r>
       <r>   -5.9830    1.0000 </r>
       <r>   -5.5053    1.0000 </r>
       <r>   -5.0770    1.0000 </r>
       <r>   -4.3080    1.0000 </r>
       <r>   -3.9454    1.0000 </r>
       <r>   -3.6880    1.0000 </r>
       <r>   -3.2876    1.0000 </r>
       <r>   -0.7191    0.0000 </r>
       <r>   -0.4214    0.0000 </r>
       <r>    1.1742    0.0000 </r>
       <r>    1.4004    0.0000 </r>
       <r>    1.4863    0.0000 </r>
       <r>    1.5783    0.0000 </r>
      </set>
      <set comment="kpoint 16">
       <r>  -27.7516    1.0000 </r>
       <r>  -27.7507    1.0000 </r>
       <r>  -27.7487    1.0000 </r>
       <r>  -27.7480    1.0000 </r>
       <r>  -27.7372    1.0000 </r>
       <r>  -27.7350    1.0000 </r>
       <r>  -27.7264    1.0000 </r>
       <r>  -27.7259    1.0000 </r>
       <r>  -27.7087    1.0000 </r>
       <r>  -27.7081    1.0000 </r>
       <r>  -16.1249    1.0000 </r>
       <r>  -15.9177    1.0000 </r>
       <r>  -15.1450    1.0000 </r>
       <r>  -15.0996    1.0000 </r>
       <r>  -10.3977    1.0000 </r>
       <r>  -10.1372    1.0000 </r>
       <r>   -7.0980    1.0000 </r>
       <r>   -6.9595    1.0000 </r>
       <r>   -6.1614    1.0000 </r>
       <r>   -6.0975    1.0000 </r>
       <r>   -5.3787    1.0000 </r>
       <r>   -5.2326    1.0000 </r>
       <r>   -4.2091    1.0000 </r>
       <r>   -4.0898    1.0000 </r>
       <r>   -3.5627    1.0000 </r>
       <r>   -3.4293    1.0000 </r>
       <r>   -0.5290    0.0000 </r>
       <r>   -0.4104    0.0000 </r>
       <r>    1.3118    0.0000 </r>
       <r>    1.4033    0.0000 </r>
       <r>    1.4785    0.0000 </r>
       <r>    1.4859    0.0000 </r>
      </set>
      <set comment="kpoint 17">
       <r>  -27.7560    1.0000 </r>
       <r>  -27.7513    1.0000 </r>
       <r>  -27.7511    1.0000 </r>
       <r>  -27.7433    1.0000 </r>
       <r>  -27.7429    1.0000 </r>
       <r>  -27.7287    1.0000 </r>
       <r>  -27.7252    1.0000 </r>
       <r>  -27.7246    1.0000 </r>
       <r>  -27.7108    1.0000 </r>
       <r>  -27.7061    1.0000 </r>
       <r>  -16.8340    1.0000 </r>
       <r>  -15.3527    1.0000 </r>
       <r>  -15.1414    1.0000 </r>
       <r>  -14.7615    1.0000 </r>
       <r>  -11.5188    1.0000 </r>
       <r>   -9.2738    1.0000 </r>
       <r>   -7.3938    1.0000 </r>
       <r>   -5.9777    1.0000 </r>
       <r>   -5.6055    1.0000 </r>
       <r>   -5.4477    1.0000 </r>
       <r>   -5.4278    1.0000 </r>
       <r>   -4.9893    1.0000 </r>
       <r>   -4.6502    1.0000 </r>
       <r>   -4.0252    1.0000 </r>
       <r>   -2.9887    1.0000 </r>
       <r>   -2.9007    1.0000 </r>
       <r>   -1.3451    0.0000 </r>
       <r>   -1.2621    0.0000 </r>
       <r>   -0.3315    0.0000 </r>
       <r>    0.2014    0.0000 </r>
       <r>    0.8364    0.0000 </r>
       <r>    1.9278    0.0000 </r>
      </set>
      <set comment="kpoint 18">
       <r>  -27.7559    1.0000 </r>
       <r>  -27.7512    1.0000 </r>
       <r>  -27.7510    1.0000 </r>
       <r>  -27.7435    1.0000 </r>
       <r>  -27.7428    1.0000 </r>
       <r>  -27.7286    1.0000 </r>
       <r>  -27.7256    1.0000 </r>
       <r>  -27.7244    1.0000 </r>
       <r>  -27.7107    1.0000 </r>
       <r>  -27.7061    1.0000 </r>
       <r>  -16.8177    1.0000 </r>
       <r>  -15.3469    1.0000 </r>
       <r>  -15.1492    1.0000 </r>
       <r>  -14.7852    1.0000 </r>
       <r>  -11.4911    1.0000 </r>
       <r>   -9.2941    1.0000 </r>
       <r>   -7.3806    1.0000 </r>
       <r>   -6.0005    1.0000 </r>
       <r>   -5.8206    1.0000 </r>
       <r>   -5.4865    1.0000 </r>
       <r>   -5.2878    1.0000 </r>
       <r>   -4.8999    1.0000 </r>
       <r>   -4.6649    1.0000 </r>
       <r>   -4.0137    1.0000 </r>
       <r>   -3.1483    1.0000 </r>
       <r>   -2.7895    1.0000 </r>
       <r>   -1.3991    0.0000 </r>
       <r>   -1.2541    0.0000 </r>
       <r>   -0.1652    0.0000 </r>
       <r>    0.2452    0.0000 </r>
       <r>    0.8824    0.0000 </r>
       <r>    1.8067    0.0000 </r>
      </set>
      <set comment="kpoint 19">
       <r>  -27.7557    1.0000 </r>
       <r>  -27.7509    1.0000 </r>
       <r>  -27.7508    1.0000 </r>
       <r>  -27.7439    1.0000 </r>
       <r>  -27.7426    1.0000 </r>
       <r>  -27.7284    1.0000 </r>
       <r>  -27.7266    1.0000 </r>
       <r>  -27.7243    1.0000 </r>
       <r>  -27.7106    1.0000 </r>
       <r>  -27.7062    1.0000 </r>
       <r>  -16.7691    1.0000 </r>
       <r>  -15.3299    1.0000 </r>
       <r>  -15.1777    1.0000 </r>
       <r>  -14.8480    1.0000 </r>
       <r>  -11.4106    1.0000 </r>
       <r>   -9.3564    1.0000 </r>
       <r>   -7.3417    1.0000 </r>
       <r>   -6.1016    1.0000 </r>
       <r>   -6.0714    1.0000 </r>
       <r>   -5.5615    1.0000 </r>
       <r>   -5.1788    1.0000 </r>
       <r>   -4.7342    1.0000 </r>
       <r>   -4.7075    1.0000 </r>
       <r>   -3.9759    1.0000 </r>
       <r>   -3.3628    1.0000 </r>
       <r>   -2.7141    1.0000 </r>
       <r>   -1.4422    0.0000 </r>
       <r>   -1.2219    0.0000 </r>
       <r>    0.2141    0.0000 </r>
       <r>    0.3653    0.0000 </r>
       <r>    1.0126    0.0000 </r>
       <r>    1.6442    0.0000 </r>
      </set>
      <set comment="kpoint 20">
       <r>  -27.7553    1.0000 </r>
       <r>  -27.7505    1.0000 </r>
       <r>  -27.7504    1.0000 </r>
       <r>  -27.7443    1.0000 </r>
       <r>  -27.7424    1.0000 </r>
       <r>  -27.7281    1.0000 </r>
       <r>  -27.7279    1.0000 </r>
       <r>  -27.7244    1.0000 </r>
       <r>  -27.7103    1.0000 </r>
       <r>  -27.7065    1.0000 </r>
       <r>  -16.6893    1.0000 </r>
       <r>  -15.3031    1.0000 </r>
       <r>  -15.2432    1.0000 </r>
       <r>  -14.9246    1.0000 </r>
       <r>  -11.2844    1.0000 </r>
       <r>   -9.4627    1.0000 </r>
       <r>   -7.2795    1.0000 </r>
       <r>   -6.3560    1.0000 </r>
       <r>   -6.1726    1.0000 </r>
       <r>   -5.5856    1.0000 </r>
       <r>   -5.2054    1.0000 </r>
       <r>   -4.7824    1.0000 </r>
       <r>   -4.5832    1.0000 </r>
       <r>   -3.9048    1.0000 </r>
       <r>   -3.5693    1.0000 </r>
       <r>   -2.7184    1.0000 </r>
       <r>   -1.3597    0.0000 </r>
       <r>   -1.1500    0.0000 </r>
       <r>    0.5356    0.0000 </r>
       <r>    0.6628    0.0000 </r>
       <r>    1.2009    0.0000 </r>
       <r>    1.5043    0.0000 </r>
      </set>
      <set comment="kpoint 21">
       <r>  -27.7548    1.0000 </r>
       <r>  -27.7504    1.0000 </r>
       <r>  -27.7498    1.0000 </r>
       <r>  -27.7447    1.0000 </r>
       <r>  -27.7419    1.0000 </r>
       <r>  -27.7295    1.0000 </r>
       <r>  -27.7277    1.0000 </r>
       <r>  -27.7245    1.0000 </r>
       <r>  -27.7099    1.0000 </r>
       <r>  -27.7068    1.0000 </r>
       <r>  -16.5798    1.0000 </r>
       <r>  -15.3623    1.0000 </r>
       <r>  -15.2685    1.0000 </r>
       <r>  -14.9869    1.0000 </r>
       <r>  -11.1209    1.0000 </r>
       <r>   -9.6129    1.0000 </r>
       <r>   -7.1998    1.0000 </r>
       <r>   -6.5626    1.0000 </r>
       <r>   -6.2613    1.0000 </r>
       <r>   -5.5696    1.0000 </r>
       <r>   -5.3407    1.0000 </r>
       <r>   -4.8994    1.0000 </r>
       <r>   -4.4712    1.0000 </r>
       <r>   -3.8002    1.0000 </r>
       <r>   -3.7476    1.0000 </r>
       <r>   -2.7933    1.0000 </r>
       <r>   -1.1570    0.0000 </r>
       <r>   -1.0315    0.0000 </r>
       <r>    0.7272    0.0000 </r>
       <r>    1.0541    0.0000 </r>
       <r>    1.3983    0.0000 </r>
       <r>    1.4753    0.0000 </r>
      </set>
      <set comment="kpoint 22">
       <r>  -27.7542    1.0000 </r>
       <r>  -27.7507    1.0000 </r>
       <r>  -27.7490    1.0000 </r>
       <r>  -27.7452    1.0000 </r>
       <r>  -27.7409    1.0000 </r>
       <r>  -27.7314    1.0000 </r>
       <r>  -27.7271    1.0000 </r>
       <r>  -27.7248    1.0000 </r>
       <r>  -27.7095    1.0000 </r>
       <r>  -27.7071    1.0000 </r>
       <r>  -16.4433    1.0000 </r>
       <r>  -15.5273    1.0000 </r>
       <r>  -15.2287    1.0000 </r>
       <r>  -15.0311    1.0000 </r>
       <r>  -10.9284    1.0000 </r>
       <r>   -9.8015    1.0000 </r>
       <r>   -7.1136    1.0000 </r>
       <r>   -6.7171    1.0000 </r>
       <r>   -6.2999    1.0000 </r>
       <r>   -5.5376    1.0000 </r>
       <r>   -5.5306    1.0000 </r>
       <r>   -5.0448    1.0000 </r>
       <r>   -4.3881    1.0000 </r>
       <r>   -3.8958    1.0000 </r>
       <r>   -3.6717    1.0000 </r>
       <r>   -2.9157    1.0000 </r>
       <r>   -0.9074    0.0000 </r>
       <r>   -0.8794    0.0000 </r>
       <r>    0.9156    0.0000 </r>
       <r>    1.1820    0.0000 </r>
       <r>    1.5432    0.0000 </r>
       <r>    1.7431    0.0000 </r>
      </set>
      <set comment="kpoint 23">
       <r>  -27.7535    1.0000 </r>
       <r>  -27.7512    1.0000 </r>
       <r>  -27.7482    1.0000 </r>
       <r>  -27.7458    1.0000 </r>
       <r>  -27.7395    1.0000 </r>
       <r>  -27.7335    1.0000 </r>
       <r>  -27.7266    1.0000 </r>
       <r>  -27.7251    1.0000 </r>
       <r>  -27.7091    1.0000 </r>
       <r>  -27.7076    1.0000 </r>
       <r>  -16.2833    1.0000 </r>
       <r>  -15.7164    1.0000 </r>
       <r>  -15.1866    1.0000 </r>
       <r>  -15.0681    1.0000 </r>
       <r>  -10.7143    1.0000 </r>
       <r>  -10.0182    1.0000 </r>
       <r>   -7.0348    1.0000 </r>
       <r>   -6.8267    1.0000 </r>
       <r>   -6.2645    1.0000 </r>
       <r>   -5.7585    1.0000 </r>
       <r>   -5.4762    1.0000 </r>
       <r>   -5.1888    1.0000 </r>
       <r>   -4.3126    1.0000 </r>
       <r>   -4.0221    1.0000 </r>
       <r>   -3.5293    1.0000 </r>
       <r>   -3.0637    1.0000 </r>
       <r>   -0.7265    0.0000 </r>
       <r>   -0.6998    0.0000 </r>
       <r>    1.0857    0.0000 </r>
       <r>    1.2320    0.0000 </r>
       <r>    1.5974    0.0000 </r>
       <r>    1.7156    0.0000 </r>
      </set>
      <set comment="kpoint 24">
       <r>  -27.7527    1.0000 </r>
       <r>  -27.7519    1.0000 </r>
       <r>  -27.7474    1.0000 </r>
       <r>  -27.7466    1.0000 </r>
       <r>  -27.7377    1.0000 </r>
       <r>  -27.7356    1.0000 </r>
       <r>  -27.7261    1.0000 </r>
       <r>  -27.7256    1.0000 </r>
       <r>  -27.7086    1.0000 </r>
       <r>  -27.7081    1.0000 </r>
       <r>  -16.1044    1.0000 </r>
       <r>  -15.9126    1.0000 </r>
       <r>  -15.1448    1.0000 </r>
       <r>  -15.1052    1.0000 </r>
       <r>  -10.4855    1.0000 </r>
       <r>  -10.2502    1.0000 </r>
       <r>   -6.9687    1.0000 </r>
       <r>   -6.9050    1.0000 </r>
       <r>   -6.1497    1.0000 </r>
       <r>   -5.9721    1.0000 </r>
       <r>   -5.4048    1.0000 </r>
       <r>   -5.3105    1.0000 </r>
       <r>   -4.2295    1.0000 </r>
       <r>   -4.1328    1.0000 </r>
       <r>   -3.3780    1.0000 </r>
       <r>   -3.2211    1.0000 </r>
       <r>   -0.6178    0.0000 </r>
       <r>   -0.5990    0.0000 </r>
       <r>    1.2283    0.0000 </r>
       <r>    1.2875    0.0000 </r>
       <r>    1.5737    0.0000 </r>
       <r>    1.5784    0.0000 </r>
      </set>
      <set comment="kpoint 25">
       <r>  -27.7554    1.0000 </r>
       <r>  -27.7507    1.0000 </r>
       <r>  -27.7507    1.0000 </r>
       <r>  -27.7436    1.0000 </r>
       <r>  -27.7427    1.0000 </r>
       <r>  -27.7283    1.0000 </r>
       <r>  -27.7269    1.0000 </r>
       <r>  -27.7248    1.0000 </r>
       <r>  -27.7105    1.0000 </r>
       <r>  -27.7065    1.0000 </r>
       <r>  -16.7409    1.0000 </r>
       <r>  -15.3423    1.0000 </r>
       <r>  -15.3088    1.0000 </r>
       <r>  -14.8088    1.0000 </r>
       <r>  -11.2580    1.0000 </r>
       <r>   -9.3705    1.0000 </r>
       <r>   -7.3149    1.0000 </r>
       <r>   -6.0550    1.0000 </r>
       <r>   -5.8042    1.0000 </r>
       <r>   -5.7319    1.0000 </r>
       <r>   -5.3795    1.0000 </r>
       <r>   -4.8520    1.0000 </r>
       <r>   -4.6895    1.0000 </r>
       <r>   -3.8987    1.0000 </r>
       <r>   -3.2221    1.0000 </r>
       <r>   -3.0002    1.0000 </r>
       <r>   -1.1290    0.0000 </r>
       <r>   -0.9697    0.0000 </r>
       <r>    0.2044    0.0000 </r>
       <r>    0.2817    0.0000 </r>
       <r>    0.9673    0.0000 </r>
       <r>    1.6641    0.0000 </r>
      </set>
      <set comment="kpoint 26">
       <r>  -27.7554    1.0000 </r>
       <r>  -27.7507    1.0000 </r>
       <r>  -27.7505    1.0000 </r>
       <r>  -27.7436    1.0000 </r>
       <r>  -27.7427    1.0000 </r>
       <r>  -27.7283    1.0000 </r>
       <r>  -27.7272    1.0000 </r>
       <r>  -27.7247    1.0000 </r>
       <r>  -27.7104    1.0000 </r>
       <r>  -27.7065    1.0000 </r>
       <r>  -16.7255    1.0000 </r>
       <r>  -15.3480    1.0000 </r>
       <r>  -15.3040    1.0000 </r>
       <r>  -14.8252    1.0000 </r>
       <r>  -11.2450    1.0000 </r>
       <r>   -9.3973    1.0000 </r>
       <r>   -7.2902    1.0000 </r>
       <r>   -6.0849    1.0000 </r>
       <r>   -6.0675    1.0000 </r>
       <r>   -5.4739    1.0000 </r>
       <r>   -5.4254    1.0000 </r>
       <r>   -4.7768    1.0000 </r>
       <r>   -4.7127    1.0000 </r>
       <r>   -3.8855    1.0000 </r>
       <r>   -3.3629    1.0000 </r>
       <r>   -2.8812    1.0000 </r>
       <r>   -1.1188    0.0000 </r>
       <r>   -1.0835    0.0000 </r>
       <r>    0.3160    0.0000 </r>
       <r>    0.3672    0.0000 </r>
       <r>    1.0106    0.0000 </r>
       <r>    1.5678    0.0000 </r>
      </set>
      <set comment="kpoint 27">
       <r>  -27.7553    1.0000 </r>
       <r>  -27.7508    1.0000 </r>
       <r>  -27.7501    1.0000 </r>
       <r>  -27.7436    1.0000 </r>
       <r>  -27.7427    1.0000 </r>
       <r>  -27.7282    1.0000 </r>
       <r>  -27.7280    1.0000 </r>
       <r>  -27.7245    1.0000 </r>
       <r>  -27.7102    1.0000 </r>
       <r>  -27.7066    1.0000 </r>
       <r>  -16.6799    1.0000 </r>
       <r>  -15.3679    1.0000 </r>
       <r>  -15.2900    1.0000 </r>
       <r>  -14.8703    1.0000 </r>
       <r>  -11.2057    1.0000 </r>
       <r>   -9.4770    1.0000 </r>
       <r>   -7.2178    1.0000 </r>
       <r>   -6.3326    1.0000 </r>
       <r>   -6.1729    1.0000 </r>
       <r>   -5.4881    1.0000 </r>
       <r>   -5.2385    1.0000 </r>
       <r>   -4.7819    1.0000 </r>
       <r>   -4.6343    1.0000 </r>
       <r>   -3.8393    1.0000 </r>
       <r>   -3.5665    1.0000 </r>
       <r>   -2.7404    1.0000 </r>
       <r>   -1.2781    0.0000 </r>
       <r>   -1.0841    0.0000 </r>
       <r>    0.4092    0.0000 </r>
       <r>    0.7041    0.0000 </r>
       <r>    1.1359    0.0000 </r>
       <r>    1.4408    0.0000 </r>
      </set>
      <set comment="kpoint 28">
       <r>  -27.7552    1.0000 </r>
       <r>  -27.7509    1.0000 </r>
       <r>  -27.7495    1.0000 </r>
       <r>  -27.7436    1.0000 </r>
       <r>  -27.7426    1.0000 </r>
       <r>  -27.7295    1.0000 </r>
       <r>  -27.7277    1.0000 </r>
       <r>  -27.7244    1.0000 </r>
       <r>  -27.7100    1.0000 </r>
       <r>  -27.7067    1.0000 </r>
       <r>  -16.6051    1.0000 </r>
       <r>  -15.4103    1.0000 </r>
       <r>  -15.2682    1.0000 </r>
       <r>  -14.9320    1.0000 </r>
       <r>  -11.1392    1.0000 </r>
       <r>   -9.6065    1.0000 </r>
       <r>   -7.1035    1.0000 </r>
       <r>   -6.5461    1.0000 </r>
       <r>   -6.2972    1.0000 </r>
       <r>   -5.5099    1.0000 </r>
       <r>   -5.1112    1.0000 </r>
       <r>   -4.8944    1.0000 </r>
       <r>   -4.5139    1.0000 </r>
       <r>   -3.7478    1.0000 </r>
       <r>   -3.7453    1.0000 </r>
       <r>   -2.6601    1.0000 </r>
       <r>   -1.3918    0.0000 </r>
       <r>   -1.0190    0.0000 </r>
       <r>    0.5408    0.0000 </r>
       <r>    0.9924    0.0000 </r>
       <r>    1.3228    0.0000 </r>
       <r>    1.4232    0.0000 </r>
      </set>
      <set comment="kpoint 29">
       <r>  -27.7550    1.0000 </r>
       <r>  -27.7512    1.0000 </r>
       <r>  -27.7487    1.0000 </r>
       <r>  -27.7437    1.0000 </r>
       <r>  -27.7422    1.0000 </r>
       <r>  -27.7311    1.0000 </r>
       <r>  -27.7272    1.0000 </r>
       <r>  -27.7244    1.0000 </r>
       <r>  -27.7096    1.0000 </r>
       <r>  -27.7070    1.0000 </r>
       <r>  -16.5033    1.0000 </r>
       <r>  -15.4863    1.0000 </r>
       <r>  -15.2405    1.0000 </r>
       <r>  -14.9935    1.0000 </r>
       <r>  -11.0449    1.0000 </r>
       <r>   -9.7775    1.0000 </r>
       <r>   -6.9626    1.0000 </r>
       <r>   -6.6998    1.0000 </r>
       <r>   -6.4117    1.0000 </r>
       <r>   -5.4978    1.0000 </r>
       <r>   -5.1196    1.0000 </r>
       <r>   -5.0411    1.0000 </r>
       <r>   -4.4376    1.0000 </r>
       <r>   -3.8865    1.0000 </r>
       <r>   -3.6137    1.0000 </r>
       <r>   -2.6520    1.0000 </r>
       <r>   -1.3678    0.0000 </r>
       <r>   -0.9277    0.0000 </r>
       <r>    0.6930    0.0000 </r>
       <r>    1.0488    0.0000 </r>
       <r>    1.5245    0.0000 </r>
       <r>    1.6561    0.0000 </r>
      </set>
      <set comment="kpoint 30">
       <r>  -27.7547    1.0000 </r>
       <r>  -27.7517    1.0000 </r>
       <r>  -27.7478    1.0000 </r>
       <r>  -27.7440    1.0000 </r>
       <r>  -27.7413    1.0000 </r>
       <r>  -27.7328    1.0000 </r>
       <r>  -27.7267    1.0000 </r>
       <r>  -27.7246    1.0000 </r>
       <r>  -27.7092    1.0000 </r>
       <r>  -27.7073    1.0000 </r>
       <r>  -16.3776    1.0000 </r>
       <r>  -15.6007    1.0000 </r>
       <r>  -15.2092    1.0000 </r>
       <r>  -15.0433    1.0000 </r>
       <r>  -10.9222    1.0000 </r>
       <r>   -9.9769    1.0000 </r>
       <r>   -6.8448    1.0000 </r>
       <r>   -6.7976    1.0000 </r>
       <r>   -6.4457    1.0000 </r>
       <r>   -5.4692    1.0000 </r>
       <r>   -5.2833    1.0000 </r>
       <r>   -5.1626    1.0000 </r>
       <r>   -4.3868    1.0000 </r>
       <r>   -4.0006    1.0000 </r>
       <r>   -3.4554    1.0000 </r>
       <r>   -2.7109    1.0000 </r>
       <r>   -1.2257    0.0000 </r>
       <r>   -0.8324    0.0000 </r>
       <r>    0.8554    0.0000 </r>
       <r>    1.0470    0.0000 </r>
       <r>    1.6736    0.0000 </r>
       <r>    1.9269    0.0000 </r>
      </set>
      <set comment="kpoint 31">
       <r>  -27.7542    1.0000 </r>
       <r>  -27.7523    1.0000 </r>
       <r>  -27.7469    1.0000 </r>
       <r>  -27.7446    1.0000 </r>
       <r>  -27.7400    1.0000 </r>
       <r>  -27.7347    1.0000 </r>
       <r>  -27.7262    1.0000 </r>
       <r>  -27.7248    1.0000 </r>
       <r>  -27.7088    1.0000 </r>
       <r>  -27.7076    1.0000 </r>
       <r>  -16.2322    1.0000 </r>
       <r>  -15.7456    1.0000 </r>
       <r>  -15.1766    1.0000 </r>
       <r>  -15.0813    1.0000 </r>
       <r>  -10.7717    1.0000 </r>
       <r>  -10.1889    1.0000 </r>
       <r>   -6.8486    1.0000 </r>
       <r>   -6.8235    1.0000 </r>
       <r>   -6.3190    1.0000 </r>
       <r>   -5.5352    1.0000 </r>
       <r>   -5.4339    1.0000 </r>
       <r>   -5.2584    1.0000 </r>
       <r>   -4.3366    1.0000 </r>
       <r>   -4.1016    1.0000 </r>
       <r>   -3.2888    1.0000 </r>
       <r>   -2.8208    1.0000 </r>
       <r>   -1.0339    0.0000 </r>
       <r>   -0.7693    0.0000 </r>
       <r>    1.0183    0.0000 </r>
       <r>    1.0913    0.0000 </r>
       <r>    1.7150    0.0000 </r>
       <r>    1.8170    0.0000 </r>
      </set>
      <set comment="kpoint 32">
       <r>  -27.7537    1.0000 </r>
       <r>  -27.7530    1.0000 </r>
       <r>  -27.7461    1.0000 </r>
       <r>  -27.7453    1.0000 </r>
       <r>  -27.7384    1.0000 </r>
       <r>  -27.7366    1.0000 </r>
       <r>  -27.7257    1.0000 </r>
       <r>  -27.7252    1.0000 </r>
       <r>  -27.7084    1.0000 </r>
       <r>  -27.7080    1.0000 </r>
       <r>  -16.0729    1.0000 </r>
       <r>  -15.9074    1.0000 </r>
       <r>  -15.1446    1.0000 </r>
       <r>  -15.1135    1.0000 </r>
       <r>  -10.5958    1.0000 </r>
       <r>  -10.3989    1.0000 </r>
       <r>   -6.8626    1.0000 </r>
       <r>   -6.8486    1.0000 </r>
       <r>   -6.0854    1.0000 </r>
       <r>   -5.8129    1.0000 </r>
       <r>   -5.3916    1.0000 </r>
       <r>   -5.3353    1.0000 </r>
       <r>   -4.2729    1.0000 </r>
       <r>   -4.1934    1.0000 </r>
       <r>   -3.1223    1.0000 </r>
       <r>   -2.9629    1.0000 </r>
       <r>   -0.8671    0.0000 </r>
       <r>   -0.7747    0.0000 </r>
       <r>    1.1498    0.0000 </r>
       <r>    1.1647    0.0000 </r>
       <r>    1.6657    0.0000 </r>
       <r>    1.6811    0.0000 </r>
      </set>
      <set comment="kpoint 33">
       <r>  -27.7546    1.0000 </r>
       <r>  -27.7507    1.0000 </r>
       <r>  -27.7498    1.0000 </r>
       <r>  -27.7444    1.0000 </r>
       <r>  -27.7414    1.0000 </r>
       <r>  -27.7290    1.0000 </r>
       <r>  -27.7278    1.0000 </r>
       <r>  -27.7251    1.0000 </r>
       <r>  -27.7100    1.0000 </r>
       <r>  -27.7070    1.0000 </r>
       <r>  -16.6126    1.0000 </r>
       <r>  -15.5738    1.0000 </r>
       <r>  -15.2504    1.0000 </r>
       <r>  -14.8708    1.0000 </r>
       <r>  -10.9480    1.0000 </r>
       <r>   -9.5197    1.0000 </r>
       <r>   -7.1990    1.0000 </r>
       <r>   -6.1318    1.0000 </r>
       <r>   -6.0372    1.0000 </r>
       <r>   -5.9895    1.0000 </r>
       <r>   -5.3070    1.0000 </r>
       <r>   -4.7627    1.0000 </r>
       <r>   -4.6814    1.0000 </r>
       <r>   -3.7516    1.0000 </r>
       <r>   -3.4828    1.0000 </r>
       <r>   -3.1074    1.0000 </r>
       <r>   -0.9403    0.0000 </r>
       <r>   -0.6047    0.0000 </r>
       <r>    0.3900    0.0000 </r>
       <r>    0.8599    0.0000 </r>
       <r>    1.1002    0.0000 </r>
       <r>    1.3908    0.0000 </r>
      </set>
      <set comment="kpoint 34">
       <r>  -27.7547    1.0000 </r>
       <r>  -27.7508    1.0000 </r>
       <r>  -27.7496    1.0000 </r>
       <r>  -27.7443    1.0000 </r>
       <r>  -27.7415    1.0000 </r>
       <r>  -27.7294    1.0000 </r>
       <r>  -27.7278    1.0000 </r>
       <r>  -27.7250    1.0000 </r>
       <r>  -27.7100    1.0000 </r>
       <r>  -27.7070    1.0000 </r>
       <r>  -16.5986    1.0000 </r>
       <r>  -15.5754    1.0000 </r>
       <r>  -15.2471    1.0000 </r>
       <r>  -14.8819    1.0000 </r>
       <r>  -10.9508    1.0000 </r>
       <r>   -9.5530    1.0000 </r>
       <r>   -7.1639    1.0000 </r>
       <r>   -6.2870    1.0000 </r>
       <r>   -6.1574    1.0000 </r>
       <r>   -5.7113    1.0000 </r>
       <r>   -5.3526    1.0000 </r>
       <r>   -4.7961    1.0000 </r>
       <r>   -4.6215    1.0000 </r>
       <r>   -3.7316    1.0000 </r>
       <r>   -3.5871    1.0000 </r>
       <r>   -2.9979    1.0000 </r>
       <r>   -0.9315    0.0000 </r>
       <r>   -0.7330    0.0000 </r>
       <r>    0.4121    0.0000 </r>
       <r>    0.9700    0.0000 </r>
       <r>    1.1419    0.0000 </r>
       <r>    1.3437    0.0000 </r>
      </set>
      <set comment="kpoint 35">
       <r>  -27.7548    1.0000 </r>
       <r>  -27.7511    1.0000 </r>
       <r>  -27.7491    1.0000 </r>
       <r>  -27.7440    1.0000 </r>
       <r>  -27.7417    1.0000 </r>
       <r>  -27.7302    1.0000 </r>
       <r>  -27.7275    1.0000 </r>
       <r>  -27.7248    1.0000 </r>
       <r>  -27.7098    1.0000 </r>
       <r>  -27.7070    1.0000 </r>
       <r>  -16.5573    1.0000 </r>
       <r>  -15.5822    1.0000 </r>
       <r>  -15.2374    1.0000 </r>
       <r>  -14.9135    1.0000 </r>
       <r>  -10.9557    1.0000 </r>
       <r>   -9.6491    1.0000 </r>
       <r>   -7.0621    1.0000 </r>
       <r>   -6.5087    1.0000 </r>
       <r>   -6.2359    1.0000 </r>
       <r>   -5.4256    1.0000 </r>
       <r>   -5.4181    1.0000 </r>
       <r>   -4.8922    1.0000 </r>
       <r>   -4.5119    1.0000 </r>
       <r>   -3.7515    1.0000 </r>
       <r>   -3.6638    1.0000 </r>
       <r>   -2.8226    1.0000 </r>
       <r>   -0.9999    0.0000 </r>
       <r>   -0.9059    0.0000 </r>
       <r>    0.4743    0.0000 </r>
       <r>    1.0868    0.0000 </r>
       <r>    1.2627    0.0000 </r>
       <r>    1.3953    0.0000 </r>
[...]
       <r>    1.3072    0.0000 </r>
       <r>    1.4284    0.0000 </r>
      </set>
      <set comment="kpoint 54">
       <r>  -27.7547    1.0000 </r>
       <r>  -27.7542    1.0000 </r>
       <r>  -27.7443    1.0000 </r>
       <r>  -27.7434    1.0000 </r>
       <r>  -27.7395    1.0000 </r>
       <r>  -27.7379    1.0000 </r>
       <r>  -27.7252    1.0000 </r>
       <r>  -27.7248    1.0000 </r>
       <r>  -27.7082    1.0000 </r>
       <r>  -27.7079    1.0000 </r>
       <r>  -16.0635    1.0000 </r>
       <r>  -15.9377    1.0000 </r>
       <r>  -15.1289    1.0000 </r>
       <r>  -15.1024    1.0000 </r>
       <r>  -10.7103    1.0000 </r>
       <r>  -10.5607    1.0000 </r>
       <r>   -6.8204    1.0000 </r>
       <r>   -6.7753    1.0000 </r>
       <r>   -5.8306    1.0000 </r>
       <r>   -5.6365    1.0000 </r>
       <r>   -5.2824    1.0000 </r>
       <r>   -5.1195    1.0000 </r>
       <r>   -4.3122    1.0000 </r>
       <r>   -4.2475    1.0000 </r>
       <r>   -2.7270    1.0000 </r>
       <r>   -2.5992    1.0000 </r>
       <r>   -1.2918    0.0000 </r>
       <r>   -1.0931    0.0000 </r>
       <r>    1.1034    0.0000 </r>
       <r>    1.1422    0.0000 </r>
       <r>    1.3728    0.0000 </r>
       <r>    1.4240    0.0000 </r>
      </set>
      <set comment="kpoint 55">
       <r>  -27.7550    1.0000 </r>
       <r>  -27.7546    1.0000 </r>
       <r>  -27.7435    1.0000 </r>
       <r>  -27.7426    1.0000 </r>
       <r>  -27.7401    1.0000 </r>
       <r>  -27.7389    1.0000 </r>
       <r>  -27.7249    1.0000 </r>
       <r>  -27.7247    1.0000 </r>
       <r>  -27.7080    1.0000 </r>
       <r>  -27.7079    1.0000 </r>
       <r>  -16.0049    1.0000 </r>
       <r>  -15.9236    1.0000 </r>
       <r>  -15.1379    1.0000 </r>
       <r>  -15.1245    1.0000 </r>
       <r>  -10.7703    1.0000 </r>
       <r>  -10.6780    1.0000 </r>
       <r>   -6.8423    1.0000 </r>
       <r>   -6.8123    1.0000 </r>
       <r>   -5.7894    1.0000 </r>
       <r>   -5.6912    1.0000 </r>
       <r>   -5.1339    1.0000 </r>
       <r>   -4.9907    1.0000 </r>
       <r>   -4.3406    1.0000 </r>
       <r>   -4.2945    1.0000 </r>
       <r>   -2.6036    1.0000 </r>
       <r>   -2.5309    1.0000 </r>
       <r>   -1.4310    0.0000 </r>
       <r>   -1.2795    0.0000 </r>
       <r>    1.1688    0.0000 </r>
       <r>    1.2104    0.0000 </r>
       <r>    1.4004    0.0000 </r>
       <r>    1.4126    0.0000 </r>
      </set>
      <set comment="kpoint 56">
       <r>  -27.7550    1.0000 </r>
       <r>  -27.7549    1.0000 </r>
       <r>  -27.7427    1.0000 </r>
       <r>  -27.7424    1.0000 </r>
       <r>  -27.7403    1.0000 </r>
       <r>  -27.7397    1.0000 </r>
       <r>  -27.7247    1.0000 </r>
       <r>  -27.7246    1.0000 </r>
       <r>  -27.7079    1.0000 </r>
       <r>  -27.7079    1.0000 </r>
       <r>  -15.9576    1.0000 </r>
       <r>  -15.9293    1.0000 </r>
       <r>  -15.1426    1.0000 </r>
       <r>  -15.1387    1.0000 </r>
       <r>  -10.7868    1.0000 </r>
       <r>  -10.7556    1.0000 </r>
       <r>   -6.8512    1.0000 </r>
       <r>   -6.8410    1.0000 </r>
       <r>   -5.7581    1.0000 </r>
       <r>   -5.7285    1.0000 </r>
       <r>   -5.0078    1.0000 </r>
       <r>   -4.9524    1.0000 </r>
       <r>   -4.3456    1.0000 </r>
       <r>   -4.3277    1.0000 </r>
       <r>   -2.5341    1.0000 </r>
       <r>   -2.5124    1.0000 </r>
       <r>   -1.4707    0.0000 </r>
       <r>   -1.4150    0.0000 </r>
       <r>    1.2118    0.0000 </r>
       <r>    1.2455    0.0000 </r>
       <r>    1.3957    0.0000 </r>
       <r>    1.4146    0.0000 </r>
      </set>
     </set>
    </set>
   </array>
  </eigenvalues>
  <separator name="orbital magnetization" >
   <v name="MAGDIPOLOUT">      0.00000000      0.00000000      0.00000000</v>
  </separator>
  <dos>
   <i name="efermi">     -2.34551155 </i>
   <total>
    <array>
     <dimension dim="1">gridpoints</dimension>
     <dimension dim="2">spin</dimension>
     <field>energy</field>
     <field>total</field>
     <field>integrated</field>
     <set>
      <set comment="spin 1">
       <r>   -29.2469     0.0000     0.0000 </r>
       <r>   -29.1376     0.0000     0.0000 </r>
       <r>   -29.0283     0.0000     0.0000 </r>
       <r>   -28.9190     0.0000     0.0000 </r>
       <r>   -28.8097     0.0000     0.0000 </r>
       <r>   -28.7004     0.0000     0.0000 </r>
       <r>   -28.5911     0.0000     0.0000 </r>
       <r>   -28.4818     0.0000     0.0000 </r>
       <r>   -28.3725     0.0000     0.0000 </r>
       <r>   -28.2632     0.0000     0.0000 </r>
       <r>   -28.1539     0.0000     0.0000 </r>
       <r>   -28.0446     0.0000     0.0000 </r>
       <r>   -27.9353     0.0000     0.0000 </r>
       <r>   -27.8260     0.0000     0.0000 </r>
       <r>   -27.7167   142.4673    15.5717 </r>
       <r>   -27.6074    40.5155    20.0000 </r>
       <r>   -27.4981     0.0000    20.0000 </r>
       <r>   -27.3888     0.0000    20.0000 </r>
       <r>   -27.2795     0.0000    20.0000 </r>
       <r>   -27.1702     0.0000    20.0000 </r>
       <r>   -27.0609     0.0000    20.0000 </r>
       <r>   -26.9516     0.0000    20.0000 </r>
       <r>   -26.8423     0.0000    20.0000 </r>
       <r>   -26.7330     0.0000    20.0000 </r>
       <r>   -26.6237     0.0000    20.0000 </r>
       <r>   -26.5144     0.0000    20.0000 </r>
       <r>   -26.4051     0.0000    20.0000 </r>
       <r>   -26.2958     0.0000    20.0000 </r>
       <r>   -26.1865     0.0000    20.0000 </r>
       <r>   -26.0772     0.0000    20.0000 </r>
       <r>   -25.9679     0.0000    20.0000 </r>
       <r>   -25.8586     0.0000    20.0000 </r>
       <r>   -25.7493     0.0000    20.0000 </r>
       <r>   -25.6400     0.0000    20.0000 </r>
       <r>   -25.5307     0.0000    20.0000 </r>
       <r>   -25.4214     0.0000    20.0000 </r>
       <r>   -25.3121     0.0000    20.0000 </r>
       <r>   -25.2028     0.0000    20.0000 </r>
       <r>   -25.0935     0.0000    20.0000 </r>
       <r>   -24.9842     0.0000    20.0000 </r>
       <r>   -24.8749     0.0000    20.0000 </r>
       <r>   -24.7656     0.0000    20.0000 </r>
       <r>   -24.6563     0.0000    20.0000 </r>
       <r>   -24.5470     0.0000    20.0000 </r>
       <r>   -24.4377     0.0000    20.0000 </r>
       <r>   -24.3285     0.0000    20.0000 </r>
       <r>   -24.2192     0.0000    20.0000 </r>
       <r>   -24.1099     0.0000    20.0000 </r>
       <r>   -24.0006     0.0000    20.0000 </r>
       <r>   -23.8913     0.0000    20.0000 </r>
       <r>   -23.7820     0.0000    20.0000 </r>
       <r>   -23.6727     0.0000    20.0000 </r>
       <r>   -23.5634     0.0000    20.0000 </r>
       <r>   -23.4541     0.0000    20.0000 </r>
       <r>   -23.3448     0.0000    20.0000 </r>
       <r>   -23.2355     0.0000    20.0000 </r>
       <r>   -23.1262     0.0000    20.0000 </r>
       <r>   -23.0169     0.0000    20.0000 </r>
       <r>   -22.9076     0.0000    20.0000 </r>
       <r>   -22.7983     0.0000    20.0000 </r>
       <r>   -22.6890     0.0000    20.0000 </r>
       <r>   -22.5797     0.0000    20.0000 </r>
       <r>   -22.4704     0.0000    20.0000 </r>
       <r>   -22.3611     0.0000    20.0000 </r>
       <r>   -22.2518     0.0000    20.0000 </r>
       <r>   -22.1425     0.0000    20.0000 </r>
       <r>   -22.0332     0.0000    20.0000 </r>
       <r>   -21.9239     0.0000    20.0000 </r>
       <r>   -21.8146     0.0000    20.0000 </r>
       <r>   -21.7053     0.0000    20.0000 </r>
       <r>   -21.5960     0.0000    20.0000 </r>
       <r>   -21.4867     0.0000    20.0000 </r>
       <r>   -21.3774     0.0000    20.0000 </r>
       <r>   -21.2681     0.0000    20.0000 </r>
       <r>   -21.1588     0.0000    20.0000 </r>
       <r>   -21.0495     0.0000    20.0000 </r>
       <r>   -20.9402     0.0000    20.0000 </r>
       <r>   -20.8309     0.0000    20.0000 </r>
       <r>   -20.7216     0.0000    20.0000 </r>
       <r>   -20.6123     0.0000    20.0000 </r>
       <r>   -20.5030     0.0000    20.0000 </r>
       <r>   -20.3937     0.0000    20.0000 </r>
       <r>   -20.2844     0.0000    20.0000 </r>
       <r>   -20.1751     0.0000    20.0000 </r>
       <r>   -20.0658     0.0000    20.0000 </r>
       <r>   -19.9565     0.0000    20.0000 </r>
       <r>   -19.8472     0.0000    20.0000 </r>
       <r>   -19.7379     0.0000    20.0000 </r>
       <r>   -19.6286     0.0000    20.0000 </r>
       <r>   -19.5193     0.0000    20.0000 </r>
       <r>   -19.4100     0.0000    20.0000 </r>
       <r>   -19.3007     0.0000    20.0000 </r>
       <r>   -19.1914     0.0000    20.0000 </r>
       <r>   -19.0821     0.0000    20.0000 </r>
       <r>   -18.9728     0.0000    20.0000 </r>
       <r>   -18.8635     0.0000    20.0000 </r>
       <r>   -18.7542     0.0000    20.0000 </r>
       <r>   -18.6449     0.0000    20.0000 </r>
       <r>   -18.5356     0.0000    20.0000 </r>
       <r>   -18.4263     0.0000    20.0000 </r>
       <r>   -18.3170     0.0000    20.0000 </r>
       <r>   -18.2077     0.0000    20.0000 </r>
       <r>   -18.0984     0.0000    20.0000 </r>
       <r>   -17.9891     0.0000    20.0000 </r>
       <r>   -17.8798     0.0000    20.0000 </r>
       <r>   -17.7705     0.0000    20.0000 </r>
       <r>   -17.6612     0.0000    20.0000 </r>
       <r>   -17.5519     0.0000    20.0000 </r>
       <r>   -17.4426     0.0000    20.0000 </r>
       <r>   -17.3333     0.0000    20.0000 </r>
       <r>   -17.2240     0.0000    20.0000 </r>
       <r>   -17.1147     0.0000    20.0000 </r>
       <r>   -17.0054     0.0000    20.0000 </r>
       <r>   -16.8961     0.2386    20.0261 </r>
       <r>   -16.7868     1.7688    20.2194 </r>
       <r>   -16.6775     1.9784    20.4356 </r>
       <r>   -16.5682     2.1119    20.6665 </r>
       <r>   -16.4589     1.8098    20.8643 </r>
       <r>   -16.3496     2.1082    21.0947 </r>
       <r>   -16.2403     2.5166    21.3698 </r>
       <r>   -16.1310     2.1792    21.6080 </r>
       <r>   -16.0217     3.1563    21.9529 </r>
       <r>   -15.9124     4.1146    22.4027 </r>
       <r>   -15.8031     2.8047    22.7092 </r>
       <r>   -15.6938     2.5267    22.9854 </r>
       <r>   -15.5845     1.6964    23.1708 </r>
       <r>   -15.4752     1.7161    23.3584 </r>
       <r>   -15.3659     2.0266    23.5799 </r>
       <r>   -15.2566     6.1572    24.2529 </r>
       <r>   -15.1473     9.8235    25.3266 </r>
       <r>   -15.0380    12.3733    26.6790 </r>
       <r>   -14.9287     7.3999    27.4878 </r>
       <r>   -14.8194     2.9977    27.8155 </r>
       <r>   -14.7101     1.6572    27.9966 </r>
       <r>   -14.6008     0.0309    28.0000 </r>
       <r>   -14.4915     0.0000    28.0000 </r>
       <r>   -14.3822     0.0000    28.0000 </r>
       <r>   -14.2729     0.0000    28.0000 </r>
       <r>   -14.1636     0.0000    28.0000 </r>
       <r>   -14.0543     0.0000    28.0000 </r>
       <r>   -13.9450     0.0000    28.0000 </r>
       <r>   -13.8357     0.0000    28.0000 </r>
       <r>   -13.7264     0.0000    28.0000 </r>
       <r>   -13.6171     0.0000    28.0000 </r>
       <r>   -13.5078     0.0000    28.0000 </r>
       <r>   -13.3985     0.0000    28.0000 </r>
       <r>   -13.2892     0.0000    28.0000 </r>
       <r>   -13.1799     0.0000    28.0000 </r>
       <r>   -13.0706     0.0000    28.0000 </r>
       <r>   -12.9613     0.0000    28.0000 </r>
       <r>   -12.8520     0.0000    28.0000 </r>
       <r>   -12.7427     0.0000    28.0000 </r>
       <r>   -12.6334     0.0000    28.0000 </r>
       <r>   -12.5241     0.0000    28.0000 </r>
       <r>   -12.4148     0.0000    28.0000 </r>
       <r>   -12.3055     0.0000    28.0000 </r>
       <r>   -12.1962     0.0000    28.0000 </r>
       <r>   -12.0869     0.0000    28.0000 </r>
       <r>   -11.9776     0.0000    28.0000 </r>
       <r>   -11.8683     0.0000    28.0000 </r>
       <r>   -11.7590     0.0533    28.0058 </r>
       <r>   -11.6497     0.6903    28.0813 </r>
       <r>   -11.5404     0.5612    28.1426 </r>
       <r>   -11.4311     0.7073    28.2199 </r>
       <r>   -11.3218     0.8984    28.3181 </r>
       <r>   -11.2125     1.0530    28.4332 </r>
       <r>   -11.1032     1.5316    28.6006 </r>
       <r>   -10.9939     0.4194    28.6465 </r>
       <r>   -10.8846     3.2358    29.0001 </r>
       <r>   -10.7753     2.2979    29.2513 </r>
       <r>   -10.6660     3.7746    29.6639 </r>
       <r>   -10.5567     2.3395    29.9196 </r>
       <r>   -10.4474     1.4906    30.0825 </r>
       <r>   -10.3381     2.4602    30.3514 </r>
       <r>   -10.2288     1.2690    30.4901 </r>
       <r>   -10.1195     1.7059    30.6765 </r>
       <r>   -10.0102     1.2666    30.8150 </r>
       <r>    -9.9009     1.2976    30.9568 </r>
       <r>    -9.7916     1.4171    31.1117 </r>
       <r>    -9.6823     1.2581    31.2492 </r>
       <r>    -9.5730     1.5457    31.4182 </r>
       <r>    -9.4637     1.5179    31.5841 </r>
       <r>    -9.3544     1.4760    31.7454 </r>
       <r>    -9.2451     1.5809    31.9182 </r>
       <r>    -9.1358     0.7486    32.0000 </r>
       <r>    -9.0265     0.0000    32.0000 </r>
       <r>    -8.9172     0.0000    32.0000 </r>
       <r>    -8.8079     0.0000    32.0000 </r>
       <r>    -8.6986     0.0000    32.0000 </r>
       <r>    -8.5893     0.0000    32.0000 </r>
       <r>    -8.4800     0.0000    32.0000 </r>
       <r>    -8.3707     0.0000    32.0000 </r>
       <r>    -8.2614     0.0000    32.0000 </r>
       <r>    -8.1521     0.0000    32.0000 </r>
       <r>    -8.0428     0.0000    32.0000 </r>
       <r>    -7.9335     0.0000    32.0000 </r>
       <r>    -7.8242     0.0000    32.0000 </r>
       <r>    -7.7149     0.0000    32.0000 </r>
       <r>    -7.6056     0.0000    32.0000 </r>
       <r>    -7.4963     0.0003    32.0000 </r>
       <r>    -7.3870     2.2730    32.2485 </r>
       <r>    -7.2777     2.4783    32.5193 </r>
       <r>    -7.1684     1.8786    32.7247 </r>
       <r>    -7.0591     1.7915    32.9205 </r>
       <r>    -6.9498     2.1751    33.1582 </r>
       <r>    -6.8405     5.0142    33.7063 </r>
       <r>    -6.7312     9.1498    34.7064 </r>
       <r>    -6.6219     3.8389    35.1260 </r>
       <r>    -6.5126     1.8664    35.3300 </r>
       <r>    -6.4033     1.9997    35.5485 </r>
       <r>    -6.2940     2.7668    35.8509 </r>
       <r>    -6.1847     4.7737    36.3727 </r>
       <r>    -6.0754     7.0985    37.1486 </r>
       <r>    -5.9661     3.8881    37.5735 </r>
       <r>    -5.8568     3.6577    37.9733 </r>
       <r>    -5.7475     3.9950    38.4100 </r>
       <r>    -5.6382     4.7482    38.9290 </r>
       <r>    -5.5289     5.2253    39.5001 </r>
       <r>    -5.4196     7.6528    40.3365 </r>
       <r>    -5.3103     7.5325    41.1598 </r>
       <r>    -5.2010     6.5756    41.8786 </r>
       <r>    -5.0917     6.1933    42.5555 </r>
       <r>    -4.9824     5.3685    43.1423 </r>
       <r>    -4.8731     3.6378    43.5399 </r>
       <r>    -4.7638     2.9380    43.8610 </r>
       <r>    -4.6545     3.4802    44.2414 </r>
       <r>    -4.5452     2.5877    44.5242 </r>
       <r>    -4.4359     2.4847    44.7958 </r>
       <r>    -4.3266     6.5502    45.5118 </r>
       <r>    -4.2173     6.1296    46.1817 </r>
       <r>    -4.1080     3.6175    46.5771 </r>
       <r>    -3.9987     5.1947    47.1449 </r>
       <r>    -3.8894     3.7316    47.5528 </r>
       <r>    -3.7801     2.7104    47.8490 </r>
       <r>    -3.6708     3.5269    48.2345 </r>
       <r>    -3.5615     2.9455    48.5564 </r>
       <r>    -3.4522     2.5423    48.8343 </r>
       <r>    -3.3429     3.0404    49.1666 </r>
       <r>    -3.2336     2.4874    49.4385 </r>
       <r>    -3.1243     2.8083    49.7455 </r>
       <r>    -3.0150     2.4692    50.0153 </r>
       <r>    -2.9057     3.5653    50.4050 </r>
       <r>    -2.7964     3.6277    50.8015 </r>
       <r>    -2.6871     5.0751    51.3562 </r>
       <r>    -2.5778     3.6233    51.7523 </r>
       <r>    -2.4685     2.2660    52.0000 </r>
       <r>    -2.3592     0.0004    52.0000 </r>
       <r>    -2.2499     0.0000    52.0000 </r>
       <r>    -2.1406     0.0000    52.0000 </r>
       <r>    -2.0313     0.0000    52.0000 </r>
       <r>    -1.9220     0.0000    52.0000 </r>
       <r>    -1.8127     0.0000    52.0000 </r>
       <r>    -1.7034     0.0939    52.0103 </r>
       <r>    -1.5941     0.6005    52.0759 </r>
       <r>    -1.4848     0.2184    52.0998 </r>
       <r>    -1.3755     4.5953    52.6020 </r>
       <r>    -1.2662     4.2782    53.0696 </r>
       <r>    -1.1569     3.4500    53.4467 </r>
       <r>    -1.0476     3.8632    53.8690 </r>
       <r>    -0.9383     2.9615    54.1927 </r>
       <r>    -0.8290     5.1214    54.7524 </r>
       <r>    -0.7197     3.9360    55.1826 </r>
       <r>    -0.6104     2.7471    55.4829 </r>
       <r>    -0.5011     2.6438    55.7719 </r>
       <r>    -0.3918     1.9799    55.9883 </r>
       <r>    -0.2825     1.3202    56.1326 </r>
       <r>    -0.1732     0.4857    56.1857 </r>
       <r>    -0.0639     0.2720    56.2154 </r>
       <r>     0.0454     0.0009    56.2155 </r>
       <r>     0.1547     0.3876    56.2578 </r>
       <r>     0.2640     1.8355    56.4585 </r>
       <r>     0.3733     1.9784    56.6747 </r>
       <r>     0.4826     1.4175    56.8296 </r>
       <r>     0.5919     2.6434    57.1186 </r>
       <r>     0.7012     2.0153    57.3389 </r>
       <r>     0.8105     3.2900    57.6984 </r>
       <r>     0.9198     3.1934    58.0475 </r>
       <r>     1.0291     6.2976    58.7358 </r>
       <r>     1.1384     8.4135    59.6554 </r>
       <r>     1.2477     6.2395    60.3374 </r>
       <r>     1.3570     5.9422    60.9869 </r>
       <r>     1.4663     8.1800    61.8810 </r>
       <r>     1.5756     5.1421    62.4430 </r>
       <r>     1.6849     6.0464    63.1039 </r>
       <r>     1.7942     4.1359    63.5559 </r>
       <r>     1.9035     2.4803    63.8270 </r>
       <r>     2.0128     1.2883    63.9678 </r>
       <r>     2.1221     0.2942    64.0000 </r>
       <r>     2.2314     0.0000    64.0000 </r>
       <r>     2.3407     0.0000    64.0000 </r>
       <r>     2.4500     0.0000    64.0000 </r>
       <r>     2.5593     0.0000    64.0000 </r>
       <r>     2.6686     0.0000    64.0000 </r>
       <r>     2.7779     0.0000    64.0000 </r>
       <r>     2.8872     0.0000    64.0000 </r>
       <r>     2.9965     0.0000    64.0000 </r>
       <r>     3.1058     0.0000    64.0000 </r>
       <r>     3.2151     0.0000    64.0000 </r>
       <r>     3.3244     0.0000    64.0000 </r>
       <r>     3.4337     0.0000    64.0000 </r>
       <r>     3.5430     0.0000    64.0000 </r>
      </set>
     </set>
    </array>
   </total>
  </dos>
 </calculation>
 <structure name="finalpos" >
  <crystal>
   <varray name="basis" >
    <v>       4.85676800       0.00000000       0.00000000 </v>
    <v>       0.00000000       5.57120200       0.00000000 </v>
    <v>       0.00000000       0.00000000      18.07929100 </v>
   </varray>
   <i name="volume">    489.19009941 </i>
   <varray name="rec_basis" >
    <v>       0.20589824       0.00000000       0.00000000 </v>
    <v>       0.00000000       0.17949448       0.00000000 </v>
    <v>       0.00000000       0.00000000       0.05531190 </v>
   </varray>
  </crystal>
  <varray name="positions" >
   <v>       0.50000000       0.50000000       0.50000000 </v>
   <v>       0.00000000       0.00000000       0.50000000 </v>
   <v>       0.25000000       0.25000000       0.41479696 </v>
   <v>       0.75000000       0.75000000       0.41479696 </v>
   <v>       0.75000000       0.25000000       0.58520304 </v>
   <v>       0.25000000       0.75000000       0.58520304 </v>
  </varray>
 </structure>
</modeling>
