 running on   48 total cores
 distrk:  each k-point on   48 cores,    1 groups
 distr:  one band on    8 cores,    6 groups
 using from now: INCAR     
 vasp.5.4.1 24Jun15 (build Nov 20 2020 10:29:34) complex                        
  
 POSCAR found type information on POSCAR  C 
 POSCAR found :  1 types and       2 ions
 scaLAPACK will be used

 ----------------------------------------------------------------------------- 
|                                                                             |
|  ADVICE TO THIS USER RUNNING 'VASP/VAMP'   (HEAR YOUR MASTER'S VOICE ...):  |
|                                                                             |
|      You have a (more or less) 'small supercell' and for smaller cells      |
|      it is recommended  to use the reciprocal-space projection scheme!      |
|      The real space optimization is not  efficient for small cells and it   |
|      is also less accurate ...                                              |
|      Therefore set LREAL=.FALSE. in the  INCAR file                         |
|                                                                             |
 ----------------------------------------------------------------------------- 

 LDA part: xc-table for Pade appr. of Perdew
 POSCAR, INCAR and KPOINTS ok, starting setup
 WARNING: small aliasing (wrap around) errors must be expected
 FFT: planning ...
 WAVECAR not read
 entering main loop
       N       E                     dE             d eps       ncg     rms          rms(c)
DAV:   1     0.352715016167E+02    0.35272E+02   -0.37421E+03  3768   0.495E+02
DAV:   2    -0.180679383985E+02   -0.53339E+02   -0.47511E+02  5160   0.999E+01
DAV:   3    -0.197427667369E+02   -0.16748E+01   -0.16748E+01  5604   0.235E+01
DAV:   4    -0.197495106032E+02   -0.67439E-02   -0.67439E-02  5496   0.148E+00
DAV:   5    -0.197495164630E+02   -0.58598E-05   -0.58590E-05  5424   0.472E-02    0.637E+00
DAV:   6    -0.188156654562E+02    0.93385E+00   -0.91134E-01  4812   0.458E+00    0.375E+00
DAV:   7    -0.184558905612E+02    0.35977E+00   -0.11883E+00  5448   0.512E+00    0.958E-01
DAV:   8    -0.184480891581E+02    0.78014E-02   -0.97047E-03  5196   0.648E-01    0.930E-02
DAV:   9    -0.184461605063E+02    0.19287E-02   -0.12783E-03  4896   0.139E-01    0.726E-02
DAV:  10    -0.184445516287E+02    0.16089E-02   -0.26522E-03  4284   0.169E-01    0.378E-02
DAV:  11    -0.184447998193E+02   -0.24819E-03   -0.17282E-04  4128   0.578E-02    0.574E-02
DAV:  12    -0.184450080208E+02   -0.20820E-03   -0.36048E-05  4332   0.296E-02    0.102E-02
DAV:  13    -0.184457344434E+02   -0.72642E-03   -0.19655E-04  4260   0.371E-02    0.491E-03
DAV:  14    -0.184457882073E+02   -0.53764E-04   -0.68548E-07  5028   0.379E-03    0.294E-03
DAV:  15    -0.184458902559E+02   -0.10205E-03   -0.88672E-06  4116   0.768E-03    0.752E-04
DAV:  16    -0.184458973686E+02   -0.71128E-05   -0.12729E-07  4272   0.168E-03
   1 F= -.18445897E+02 E0= -.18445897E+02  d E =-.749128E-07
