<?xml version="1.0" encoding="ISO-8859-1"?>
<modeling>
 <generator>
  <i name="program" type="string">vasp </i>
  <i name="version" type="string">5.4.1  </i>
  <i name="subversion" type="string">24Jun15 (build Nov 20 2020 10:29:34) complex                          parallel </i>
  <i name="platform" type="string">IFC91_ompi </i>
  <i name="date" type="string">2021 09 14 </i>
  <i name="time" type="string">00:25:15 </i>
 </generator>
 <incar>
  <i type="int" name="ISTART">     1</i>
  <i type="string" name="PREC">a</i>
  <i type="string" name="ALGO"> Normal</i>
  <i type="int" name="ISPIN">     1</i>
  <i type="int" name="ICHARG">     2</i>
  <i type="int" name="NELM">   250</i>
  <i type="int" name="NELMDL">    -5</i>
  <i type="int" name="NELMIN">     6</i>
  <i type="int" name="IBRION">     2</i>
  <i name="EDIFF">      0.00001000</i>
  <i name="EDIFFG">     -0.00500000</i>
  <i type="int" name="NSW">     0</i>
  <i type="int" name="ISIF">     2</i>
  <i name="ENCUT">    520.00000000</i>
  <i name="POTIM">      0.25000000</i>
  <v name="MAGMOM">      0.60000000      0.60000000</v>
  <i type="string" name="LREAL"> Auto</i>
  <i type="int" name="ISMEAR">     0</i>
  <i name="SIGMA">      0.02000000</i>
  <i type="logical" name="LWAVE"> F  </i>
  <i type="logical" name="LCHARG"> F  </i>
  <i type="logical" name="LVHAR"> F  </i>
  <v type="int" name="KPOINT_BSE">    -1     0     0     0</v>
  <i type="int" name="NELM">   250</i>
 </incar>
 <kpoints>
  <generation param="Gamma">
   <v type="int" name="divisions">      24       24        1 </v>
   <v name="usershift">      0.00000000       0.00000000       0.00000000 </v>
   <v name="genvec1">      0.04166667       0.00000000       0.00000000 </v>
   <v name="genvec2">      0.00000000       0.04166667       0.00000000 </v>
   <v name="genvec3">      0.00000000       0.00000000       1.00000000 </v>
   <v name="shift">      0.00000000       0.00000000       0.00000000 </v>
  </generation>
  <varray name="kpointlist" >
   <v>       0.00000000       0.00000000       0.00000000 </v>
   <v>       0.04166667       0.00000000       0.00000000 </v>
   <v>       0.08333333      -0.00000000       0.00000000 </v>
   <v>       0.12500000      -0.00000000       0.00000000 </v>
   <v>       0.16666667       0.00000000       0.00000000 </v>
   <v>       0.20833333       0.00000000       0.00000000 </v>
   <v>       0.25000000      -0.00000000       0.00000000 </v>
   <v>       0.29166667       0.00000000       0.00000000 </v>
   <v>       0.33333333      -0.00000000       0.00000000 </v>
   <v>       0.37500000       0.00000000       0.00000000 </v>
   <v>       0.41666667      -0.00000000       0.00000000 </v>
   <v>       0.45833333      -0.00000000       0.00000000 </v>
   <v>       0.50000000      -0.00000000       0.00000000 </v>
   <v>       0.00000000       0.04166667       0.00000000 </v>
   <v>       0.04166667       0.04166667       0.00000000 </v>
   <v>       0.08333333       0.04166667       0.00000000 </v>
   <v>       0.12500000       0.04166667       0.00000000 </v>
   <v>       0.16666667       0.04166667       0.00000000 </v>
   <v>       0.20833333       0.04166667       0.00000000 </v>
   <v>       0.25000000       0.04166667       0.00000000 </v>
   <v>       0.29166667       0.04166667       0.00000000 </v>
   <v>       0.33333333       0.04166667       0.00000000 </v>
   <v>       0.37500000       0.04166667       0.00000000 </v>
   <v>       0.41666667       0.04166667       0.00000000 </v>
   <v>       0.45833333       0.04166667       0.00000000 </v>
   <v>       0.50000000       0.04166667       0.00000000 </v>
   <v>      -0.45833333       0.04166667       0.00000000 </v>
   <v>      -0.41666667       0.04166667       0.00000000 </v>
   <v>      -0.37500000       0.04166667       0.00000000 </v>
   <v>      -0.33333333       0.04166667       0.00000000 </v>
   <v>      -0.29166667       0.04166667       0.00000000 </v>
   <v>      -0.25000000       0.04166667       0.00000000 </v>
   <v>      -0.20833333       0.04166667       0.00000000 </v>
   <v>      -0.16666667       0.04166667       0.00000000 </v>
   <v>      -0.12500000       0.04166667       0.00000000 </v>
   <v>      -0.08333333       0.04166667       0.00000000 </v>
   <v>       0.00000000       0.08333333       0.00000000 </v>
   <v>       0.04166667       0.08333333       0.00000000 </v>
   <v>       0.08333333       0.08333333       0.00000000 </v>
   <v>       0.12500000       0.08333333       0.00000000 </v>
   <v>       0.16666667       0.08333333       0.00000000 </v>
   <v>       0.20833333       0.08333333       0.00000000 </v>
   <v>       0.25000000       0.08333333       0.00000000 </v>
   <v>       0.29166667       0.08333333       0.00000000 </v>
   <v>       0.33333333       0.08333333       0.00000000 </v>
   <v>       0.37500000       0.08333333       0.00000000 </v>
   <v>       0.41666667       0.08333333       0.00000000 </v>
   <v>       0.45833333       0.08333333       0.00000000 </v>
   <v>       0.50000000       0.08333333       0.00000000 </v>
   <v>      -0.45833333       0.08333333       0.00000000 </v>
   <v>      -0.41666667       0.08333333       0.00000000 </v>
   <v>      -0.37500000       0.08333333       0.00000000 </v>
   <v>      -0.33333333       0.08333333       0.00000000 </v>
   <v>      -0.29166667       0.08333333       0.00000000 </v>
   <v>      -0.25000000       0.08333333       0.00000000 </v>
   <v>      -0.20833333       0.08333333       0.00000000 </v>
   <v>      -0.16666667       0.08333333       0.00000000 </v>
   <v>       0.00000000       0.12500000       0.00000000 </v>
   <v>       0.04166667       0.12500000       0.00000000 </v>
   <v>       0.08333333       0.12500000       0.00000000 </v>
   <v>       0.12500000       0.12500000       0.00000000 </v>
   <v>       0.16666667       0.12500000       0.00000000 </v>
   <v>       0.20833333       0.12500000       0.00000000 </v>
   <v>       0.25000000       0.12500000       0.00000000 </v>
   <v>       0.29166667       0.12500000       0.00000000 </v>
   <v>       0.33333333       0.12500000       0.00000000 </v>
   <v>       0.37500000       0.12500000       0.00000000 </v>
   <v>       0.41666667       0.12500000       0.00000000 </v>
   <v>       0.45833333       0.12500000       0.00000000 </v>
   <v>       0.50000000       0.12500000       0.00000000 </v>
   <v>      -0.45833333       0.12500000       0.00000000 </v>
   <v>      -0.41666667       0.12500000       0.00000000 </v>
   <v>      -0.37500000       0.12500000       0.00000000 </v>
   <v>      -0.33333333       0.12500000       0.00000000 </v>
   <v>      -0.29166667       0.12500000       0.00000000 </v>
   <v>      -0.25000000       0.12500000       0.00000000 </v>
   <v>       0.00000000       0.16666667       0.00000000 </v>
   <v>       0.04166667       0.16666667       0.00000000 </v>
   <v>       0.08333333       0.16666667       0.00000000 </v>
   <v>       0.12500000       0.16666667       0.00000000 </v>
   <v>       0.16666667       0.16666667       0.00000000 </v>
   <v>       0.20833333       0.16666667       0.00000000 </v>
   <v>       0.25000000       0.16666667       0.00000000 </v>
   <v>       0.29166667       0.16666667       0.00000000 </v>
   <v>       0.33333333       0.16666667       0.00000000 </v>
   <v>       0.37500000       0.16666667       0.00000000 </v>
   <v>       0.41666667       0.16666667       0.00000000 </v>
   <v>       0.45833333       0.16666667       0.00000000 </v>
   <v>       0.50000000       0.16666667       0.00000000 </v>
   <v>      -0.45833333       0.16666667       0.00000000 </v>
   <v>      -0.41666667       0.16666667       0.00000000 </v>
   <v>      -0.37500000       0.16666667       0.00000000 </v>
   <v>      -0.33333333       0.16666667       0.00000000 </v>
   <v>       0.00000000       0.20833333       0.00000000 </v>
   <v>       0.04166667       0.20833333       0.00000000 </v>
   <v>       0.08333333       0.20833333       0.00000000 </v>
   <v>       0.12500000       0.20833333       0.00000000 </v>
   <v>       0.16666667       0.20833333       0.00000000 </v>
   <v>       0.20833333       0.20833333       0.00000000 </v>
   <v>       0.25000000       0.20833333       0.00000000 </v>
   <v>       0.29166667       0.20833333       0.00000000 </v>
   <v>       0.33333333       0.20833333       0.00000000 </v>
   <v>       0.37500000       0.20833333       0.00000000 </v>
   <v>       0.41666667       0.20833333       0.00000000 </v>
   <v>       0.45833333       0.20833333       0.00000000 </v>
   <v>       0.50000000       0.20833333       0.00000000 </v>
   <v>      -0.45833333       0.20833333       0.00000000 </v>
   <v>      -0.41666667       0.20833333       0.00000000 </v>
   <v>       0.00000000       0.25000000       0.00000000 </v>
   <v>       0.04166667       0.25000000       0.00000000 </v>
   <v>       0.08333333       0.25000000       0.00000000 </v>
   <v>       0.12500000       0.25000000       0.00000000 </v>
   <v>       0.16666667       0.25000000       0.00000000 </v>
   <v>       0.20833333       0.25000000       0.00000000 </v>
   <v>       0.25000000       0.25000000       0.00000000 </v>
   <v>       0.29166667       0.25000000       0.00000000 </v>
   <v>       0.33333333       0.25000000       0.00000000 </v>
   <v>       0.37500000       0.25000000       0.00000000 </v>
   <v>       0.41666667       0.25000000       0.00000000 </v>
   <v>       0.45833333       0.25000000       0.00000000 </v>
   <v>       0.50000000       0.25000000       0.00000000 </v>
   <v>       0.00000000       0.29166667       0.00000000 </v>
   <v>       0.04166667       0.29166667       0.00000000 </v>
   <v>       0.08333333       0.29166667       0.00000000 </v>
   <v>       0.12500000       0.29166667       0.00000000 </v>
   <v>       0.16666667       0.29166667       0.00000000 </v>
   <v>       0.20833333       0.29166667       0.00000000 </v>
   <v>       0.25000000       0.29166667       0.00000000 </v>
   <v>       0.29166667       0.29166667       0.00000000 </v>
   <v>       0.33333333       0.29166667       0.00000000 </v>
   <v>       0.37500000       0.29166667       0.00000000 </v>
   <v>       0.41666667       0.29166667       0.00000000 </v>
   <v>       0.00000000       0.33333333       0.00000000 </v>
   <v>       0.04166667       0.33333333       0.00000000 </v>
   <v>       0.08333333       0.33333333       0.00000000 </v>
   <v>       0.12500000       0.33333333       0.00000000 </v>
   <v>       0.16666667       0.33333333       0.00000000 </v>
   <v>       0.20833333       0.33333333       0.00000000 </v>
   <v>       0.25000000       0.33333333       0.00000000 </v>
   <v>       0.29166667       0.33333333       0.00000000 </v>
   <v>       0.33333333       0.33333333       0.00000000 </v>
   <v>       0.00000000       0.37500000       0.00000000 </v>
   <v>       0.04166667       0.37500000       0.00000000 </v>
   <v>       0.08333333       0.37500000       0.00000000 </v>
   <v>       0.12500000       0.37500000       0.00000000 </v>
   <v>       0.16666667       0.37500000       0.00000000 </v>
   <v>       0.20833333       0.37500000       0.00000000 </v>
   <v>       0.25000000       0.37500000       0.00000000 </v>
   <v>       0.00000000       0.41666667       0.00000000 </v>
   <v>       0.04166667       0.41666667       0.00000000 </v>
   <v>       0.08333333       0.41666667       0.00000000 </v>
   <v>       0.12500000       0.41666667       0.00000000 </v>
   <v>       0.16666667       0.41666667       0.00000000 </v>
   <v>       0.00000000       0.45833333       0.00000000 </v>
   <v>       0.04166667       0.45833333       0.00000000 </v>
   <v>       0.08333333       0.45833333       0.00000000 </v>
   <v>       0.00000000       0.50000000       0.00000000 </v>
  </varray>
  <varray name="weights" >
   <v>       0.00173611 </v>
   <v>       0.00694444 </v>
   <v>       0.00694444 </v>
   <v>       0.00694444 </v>
   <v>       0.00694444 </v>
   <v>       0.00694444 </v>
   <v>       0.00694444 </v>
   <v>       0.00694444 </v>
   <v>       0.00694444 </v>
   <v>       0.00694444 </v>
   <v>       0.00694444 </v>
   <v>       0.00694444 </v>
   <v>       0.00347222 </v>
   <v>       0.00347222 </v>
   <v>       0.00694444 </v>
   <v>       0.00694444 </v>
   <v>       0.00694444 </v>
   <v>       0.00694444 </v>
   <v>       0.00694444 </v>
   <v>       0.00694444 </v>
   <v>       0.00694444 </v>
   <v>       0.00694444 </v>
   <v>       0.00694444 </v>
   <v>       0.00694444 </v>
   <v>       0.00694444 </v>
   <v>       0.00694444 </v>
   <v>       0.00694444 </v>
   <v>       0.00694444 </v>
   <v>       0.00694444 </v>
   <v>       0.00694444 </v>
   <v>       0.00694444 </v>
   <v>       0.00694444 </v>
   <v>       0.00694444 </v>
   <v>       0.00694444 </v>
   <v>       0.00694444 </v>
   <v>       0.00347222 </v>
   <v>       0.00347222 </v>
   <v>       0.00694444 </v>
   <v>       0.00694444 </v>
   <v>       0.00694444 </v>
   <v>       0.00694444 </v>
   <v>       0.00694444 </v>
   <v>       0.00694444 </v>
   <v>       0.00694444 </v>
   <v>       0.00694444 </v>
   <v>       0.00694444 </v>
   <v>       0.00694444 </v>
   <v>       0.00694444 </v>
   <v>       0.00694444 </v>
   <v>       0.00694444 </v>
   <v>       0.00694444 </v>
   <v>       0.00694444 </v>
   <v>       0.00694444 </v>
   <v>       0.00694444 </v>
   <v>       0.00694444 </v>
   <v>       0.00694444 </v>
   <v>       0.00347222 </v>
   <v>       0.00347222 </v>
   <v>       0.00694444 </v>
   <v>       0.00694444 </v>
   <v>       0.00694444 </v>
   <v>       0.00694444 </v>
   <v>       0.00694444 </v>
   <v>       0.00694444 </v>
   <v>       0.00694444 </v>
   <v>       0.00694444 </v>
   <v>       0.00694444 </v>
   <v>       0.00694444 </v>
   <v>       0.00694444 </v>
   <v>       0.00694444 </v>
   <v>       0.00694444 </v>
   <v>       0.00694444 </v>
   <v>       0.00694444 </v>
   <v>       0.00694444 </v>
   <v>       0.00694444 </v>
   <v>       0.00347222 </v>
   <v>       0.00347222 </v>
   <v>       0.00694444 </v>
   <v>       0.00694444 </v>
   <v>       0.00694444 </v>
   <v>       0.00694444 </v>
   <v>       0.00694444 </v>
   <v>       0.00694444 </v>
   <v>       0.00694444 </v>
   <v>       0.00694444 </v>
   <v>       0.00694444 </v>
   <v>       0.00694444 </v>
   <v>       0.00694444 </v>
   <v>       0.00694444 </v>
   <v>       0.00694444 </v>
   <v>       0.00694444 </v>
   <v>       0.00694444 </v>
   <v>       0.00347222 </v>
   <v>       0.00347222 </v>
   <v>       0.00694444 </v>
   <v>       0.00694444 </v>
   <v>       0.00694444 </v>
   <v>       0.00694444 </v>
   <v>       0.00694444 </v>
   <v>       0.00694444 </v>
   <v>       0.00694444 </v>
   <v>       0.00694444 </v>
   <v>       0.00694444 </v>
   <v>       0.00694444 </v>
   <v>       0.00694444 </v>
   <v>       0.00694444 </v>
   <v>       0.00694444 </v>
   <v>       0.00347222 </v>
   <v>       0.00347222 </v>
   <v>       0.00694444 </v>
   <v>       0.00694444 </v>
   <v>       0.00694444 </v>
   <v>       0.00694444 </v>
   <v>       0.00694444 </v>
   <v>       0.00694444 </v>
   <v>       0.00694444 </v>
   <v>       0.00694444 </v>
   <v>       0.00694444 </v>
   <v>       0.00694444 </v>
   <v>       0.00694444 </v>
   <v>       0.00347222 </v>
   <v>       0.00347222 </v>
   <v>       0.00694444 </v>
   <v>       0.00694444 </v>
   <v>       0.00694444 </v>
   <v>       0.00694444 </v>
   <v>       0.00694444 </v>
   <v>       0.00694444 </v>
   <v>       0.00694444 </v>
   <v>       0.00694444 </v>
   <v>       0.00694444 </v>
   <v>       0.00347222 </v>
   <v>       0.00347222 </v>
   <v>       0.00694444 </v>
   <v>       0.00694444 </v>
   <v>       0.00694444 </v>
   <v>       0.00694444 </v>
   <v>       0.00694444 </v>
   <v>       0.00694444 </v>
   <v>       0.00694444 </v>
   <v>       0.00347222 </v>
   <v>       0.00347222 </v>
   <v>       0.00694444 </v>
   <v>       0.00694444 </v>
   <v>       0.00694444 </v>
   <v>       0.00694444 </v>
   <v>       0.00694444 </v>
   <v>       0.00347222 </v>
   <v>       0.00347222 </v>
   <v>       0.00694444 </v>
   <v>       0.00694444 </v>
   <v>       0.00694444 </v>
   <v>       0.00347222 </v>
   <v>       0.00347222 </v>
   <v>       0.00694444 </v>
   <v>       0.00347222 </v>
   <v>       0.00173611 </v>
  </varray>
 </kpoints>
 <parameters>
  <separator name="general" >
   <i type="string" name="SYSTEM">unknown system</i>
   <i type="logical" name="LCOMPAT"> F  </i>
  </separator>
  <separator name="electronic" >
   <i type="string" name="PREC">a</i>
   <i name="ENMAX">    520.00000000</i>
   <i name="ENAUG">    644.87300000</i>
   <i name="EDIFF">      0.00001000</i>
   <i type="int" name="IALGO">    38</i>
   <i type="int" name="IWAVPR">    10</i>
   <i type="int" name="NBANDS">    12</i>
   <i name="NELECT">      8.00000000</i>
   <i type="int" name="TURBO">     0</i>
   <i type="int" name="IRESTART">     0</i>
   <i type="int" name="NREBOOT">     0</i>
   <i type="int" name="NMIN">     0</i>
   <i name="EREF">      0.00000000</i>
   <separator name="electronic smearing" >
    <i type="int" name="ISMEAR">     0</i>
    <i name="SIGMA">      0.02000000</i>
    <i name="KSPACING">      0.50000000</i>
    <i type="logical" name="KGAMMA"> T  </i>
   </separator>
   <separator name="electronic projectors" >
    <i type="logical" name="LREAL"> T  </i>
    <v name="ROPT">     -0.00025000</v>
    <i type="int" name="LMAXPAW">  -100</i>
    <i type="int" name="LMAXMIX">     2</i>
    <i type="logical" name="NLSPLINE"> F  </i>
   </separator>
   <separator name="electronic startup" >
    <i type="int" name="ISTART">     0</i>
    <i type="int" name="ICHARG">     2</i>
    <i type="int" name="INIWAV">     1</i>
   </separator>
   <separator name="electronic spin" >
    <i type="int" name="ISPIN">     1</i>
    <i type="logical" name="LNONCOLLINEAR"> F  </i>
    <v name="MAGMOM">      0.60000000      0.60000000</v>
    <i name="NUPDOWN">     -1.00000000</i>
    <i type="logical" name="LSORBIT"> F  </i>
    <v name="SAXIS">      0.00000000      0.00000000      1.00000000</v>
    <i type="logical" name="LSPIRAL"> F  </i>
    <v name="QSPIRAL">      0.00000000      0.00000000      0.00000000</v>
    <i type="logical" name="LZEROZ"> F  </i>
   </separator>
   <separator name="electronic exchange-correlation" >
    <i type="logical" name="LASPH"> F  </i>
    <i type="logical" name="LMETAGGA"> F  </i>
   </separator>
   <separator name="electronic convergence" >
    <i type="int" name="NELM">   250</i>
    <i type="int" name="NELMDL">    -5</i>
    <i type="int" name="NELMIN">     6</i>
    <i name="ENINI">    520.00000000</i>
    <separator name="electronic convergence detail" >
     <i type="logical" name="LDIAG"> T  </i>
     <i type="logical" name="LSUBROT"> F  </i>
     <i name="WEIMIN">      0.00000000</i>
     <i name="EBREAK">      0.00000021</i>
     <i name="DEPER">      0.30000000</i>
     <i type="int" name="NRMM">     4</i>
     <i name="TIME">      0.40000000</i>
    </separator>
   </separator>
   <separator name="electronic mixer" >
    <i name="AMIX">      0.40000000</i>
    <i name="BMIX">      1.00000000</i>
    <i name="AMIN">      0.10000000</i>
    <i name="AMIX_MAG">      1.60000000</i>
    <i name="BMIX_MAG">      1.00000000</i>
    <separator name="electronic mixer details" >
     <i type="int" name="IMIX">     4</i>
     <i type="logical" name="MIXFIRST"> F  </i>
     <i type="int" name="MAXMIX">   -45</i>
     <i name="WC">    100.00000000</i>
     <i type="int" name="INIMIX">     1</i>
     <i type="int" name="MIXPRE">     1</i>
     <i type="int" name="MREMOVE">     5</i>
    </separator>
   </separator>
   <separator name="electronic dipolcorrection" >
    <i type="logical" name="LDIPOL"> F  </i>
    <i type="logical" name="LMONO"> F  </i>
    <i type="int" name="IDIPOL">     0</i>
    <i name="EPSILON">      1.00000000</i>
    <v name="DIPOL">   -100.00000000   -100.00000000   -100.00000000</v>
    <i name="EFIELD">      0.00000000</i>
   </separator>
  </separator>
  <separator name="grids" >
   <i type="int" name="NGX">    18</i>
   <i type="int" name="NGY">    18</i>
   <i type="int" name="NGZ">   112</i>
   <i type="int" name="NGXF">    36</i>
   <i type="int" name="NGYF">    36</i>
   <i type="int" name="NGZF">   224</i>
   <i type="logical" name="ADDGRID"> F  </i>
  </separator>
  <separator name="ionic" >
   <i type="int" name="NSW">     0</i>
   <i type="int" name="IBRION">    -1</i>
   <i type="int" name="ISIF">     2</i>
   <i name="PSTRESS">      0.00000000</i>
   <i name="EDIFFG">     -0.00500000</i>
   <i type="int" name="NFREE">     1</i>
   <i name="POTIM">      0.25000000</i>
   <i name="SMASS">     -3.00000000</i>
   <i name="SCALEE">      1.00000000</i>
  </separator>
  <separator name="ionic md" >
   <i name="TEBEG">      0.00010000</i>
   <i name="TEEND">      0.00010000</i>
   <i type="int" name="NBLOCK">     1</i>
   <i type="int" name="KBLOCK">     1</i>
   <i type="int" name="NPACO">   256</i>
   <i name="APACO">     16.00000000</i>
  </separator>
  <separator name="symmetry" >
   <i type="int" name="ISYM">     2</i>
   <i name="SYMPREC">      0.00001000</i>
  </separator>
  <separator name="dos" >
   <i type="logical" name="LORBIT"> F  </i>
   <v name="RWIGS">     -1.00000000</v>
   <i type="int" name="NEDOS">   301</i>
   <i name="EMIN">     10.00000000</i>
   <i name="EMAX">    -10.00000000</i>
   <i name="EFERMI">      0.00000000</i>
  </separator>
  <separator name="writing" >
   <i type="int" name="NWRITE">     2</i>
   <i type="logical" name="LWAVE"> F  </i>
   <i type="logical" name="LCHARG"> F  </i>
   <i type="logical" name="LPARD"> F  </i>
   <i type="logical" name="LVTOT"> F  </i>
   <i type="logical" name="LVHAR"> F  </i>
   <i type="logical" name="LELF"> F  </i>
   <i type="logical" name="LOPTICS"> F  </i>
   <v name="STM">      0.00000000      0.00000000      0.00000000      0.00000000      0.00000000      0.00000000      0.00000000</v>
  </separator>
  <separator name="performance" >
   <i type="int" name="NPAR">     6</i>
   <i type="int" name="NSIM">     4</i>
   <i type="int" name="NBLK">    -1</i>
   <i type="logical" name="LPLANE"> T  </i>
   <i type="logical" name="LSCALAPACK"> T  </i>
   <i type="logical" name="LSCAAWARE"> F  </i>
   <i type="logical" name="LSCALU"> F  </i>
   <i type="logical" name="LASYNC"> F  </i>
   <i type="logical" name="LORBITALREAL"> F  </i>
  </separator>
  <separator name="miscellaneous" >
   <i type="int" name="IDIOT">     3</i>
   <i type="logical" name="LMUSIC"> F  </i>
   <v name="POMASS">     12.01100000</v>
   <v name="DARWINR">      0.00000000</v>
   <v name="DARWINV">      1.00000000</v>
   <i type="logical" name="LCORR"> T  </i>
  </separator>
  <i type="logical" name="GGA_COMPAT"> T  </i>
  <i type="logical" name="LBERRY"> F  </i>
  <i type="int" name="ICORELEVEL">     0</i>
  <i type="logical" name="LDAU"> F  </i>
  <i type="int" name="I_CONSTRAINED_M">     0</i>
  <separator name="electronic exchange-correlation" >
   <i type="string" name="GGA">--</i>
   <i type="int" name="VOSKOWN">     0</i>
   <i type="logical" name="LHFCALC"> F  </i>
   <i type="string" name="PRECFOCK"></i>
   <i type="logical" name="LSYMGRAD"> F  </i>
   <i type="logical" name="LHFONE"> F  </i>
   <i type="logical" name="LRHFCALC"> F  </i>
   <i type="logical" name="LTHOMAS"> F  </i>
   <i type="logical" name="LMODELHF"> F  </i>
   <i name="ENCUT4O">     -1.00000000</i>
   <i type="int" name="EXXOEP">     0</i>
   <i type="int" name="FOURORBIT">     0</i>
   <i name="AEXX">      0.00000000</i>
   <i name="HFALPHA">      0.00000000</i>
   <i name="MCALPHA">      0.00000000</i>
   <i name="ALDAX">      1.00000000</i>
   <i name="AGGAX">      1.00000000</i>
   <i name="ALDAC">      1.00000000</i>
   <i name="AGGAC">      1.00000000</i>
   <i type="int" name="NKREDX">     1</i>
   <i type="int" name="NKREDY">     1</i>
   <i type="int" name="NKREDZ">     1</i>
   <i type="logical" name="SHIFTRED"> F  </i>
   <i type="logical" name="ODDONLY"> F  </i>
   <i type="logical" name="EVENONLY"> F  </i>
   <i type="int" name="LMAXFOCK">     0</i>
   <i type="int" name="NMAXFOCKAE">     0</i>
   <i type="logical" name="LFOCKAEDFT"> F  </i>
   <i name="HFSCREEN">      0.00000000</i>
   <i name="HFSCREENC">      0.00000000</i>
   <i type="int" name="NBANDSGWLOW">     0</i>
  </separator>
  <separator name="vdW DFT" >
   <i type="logical" name="LUSE_VDW"> F  </i>
   <i name="Zab_VDW">     -0.84910000</i>
   <i name="PARAM1">      0.12340000</i>
   <i name="PARAM2">      1.00000000</i>
   <i name="PARAM3">      0.00000000</i>
  </separator>
  <separator name="model GW" >
   <i type="int" name="MODEL_GW">     0</i>
   <i name="MODEL_EPS0">     23.58881582</i>
   <i name="MODEL_ALPHA">      1.00000000</i>
  </separator>
  <separator name="linear response parameters" >
   <i type="logical" name="LEPSILON"> F  </i>
   <i type="logical" name="LRPA"> F  </i>
   <i type="logical" name="LNABLA"> F  </i>
   <i type="logical" name="LVEL"> F  </i>
   <i type="int" name="KINTER">     0</i>
   <i name="CSHIFT">      0.10000000</i>
   <i name="OMEGAMAX">     -1.00000000</i>
   <i name="DEG_THRESHOLD">      0.00200000</i>
  </separator>
  <separator name="orbital magnetization" >
   <i type="logical" name="NUCIND"> F  </i>
   <v name="MAGPOS">      0.00000000      0.00000000      0.00000000</v>
   <i type="logical" name="LNICSALL"> T  </i>
   <i type="logical" name="ORBITALMAG"> F  </i>
   <i type="logical" name="LMAGBLOCH"> F  </i>
   <i type="logical" name="LCHIMAG"> F  </i>
   <i type="logical" name="LGAUGE"> T  </i>
   <i type="int" name="MAGATOM">     0</i>
   <v name="MAGDIPOL">      0.00000000      0.00000000      0.00000000</v>
   <v name="AVECCONST">      0.00000000      0.00000000      0.00000000</v>
  </separator>
  <separator name="response functions" >
   <i type="logical" name="LADDER"> F  </i>
   <i type="logical" name="LFXC"> F  </i>
   <i type="logical" name="LHARTREE"> T  </i>
   <i type="int" name="IBSE">     0</i>
   <v type="int" name="KPOINT">    -1     0     0     0</v>
   <i type="logical" name="LTCTE"> F  </i>
   <i type="logical" name="LTETE"> F  </i>
   <i type="logical" name="LTRIPLET"> F  </i>
   <i type="logical" name="LFXCEPS"> F  </i>
   <i type="logical" name="LFXHEG"> F  </i>
   <i type="int" name="NATURALO">     0</i>
   <i type="logical" name="L2ORDER"> F  </i>
   <i type="logical" name="LUSEW"> F  </i>
   <i name="ENCUTGW">     -2.00000000</i>
   <i name="ENCUTGWSOFT">     -2.00000000</i>
   <i name="ENCUTLF">     -1.00000000</i>
   <i type="int" name="LMAXMP2">    -1</i>
   <i name="SCISSOR">      0.00000000</i>
   <i type="int" name="NOMEGA">     0</i>
   <i type="int" name="NOMEGAR">     0</i>
   <i type="int" name="NBANDSGW">    -1</i>
   <i type="int" name="NBANDSO">    -1</i>
   <i type="int" name="NBANDSV">    -1</i>
   <i type="int" name="NELM">   250</i>
   <i type="int" name="NELMHF">     1</i>
   <i type="int" name="DIM">     3</i>
   <i type="int" name="ANTIRES">     0</i>
   <i name="OMEGAMAX">    -30.00000000</i>
   <i name="OMEGAMIN">    -30.00000000</i>
   <i name="OMEGATL">   -200.00000000</i>
   <i type="int" name="OMEGAGRID">     0</i>
   <i name="CSHIFT">     -0.10000000</i>
   <i type="logical" name="SELFENERGY"> F  </i>
   <i type="logical" name="LSPECTRAL"> F  </i>
   <i type="logical" name="LSPECTRALGW"> F  </i>
   <i type="logical" name="LSINGLES"> F  </i>
   <i type="logical" name="LFERMIGW"> F  </i>
   <i type="logical" name="ODDONLYGW"> F  </i>
   <i type="logical" name="EVENONLYGW"> F  </i>
   <i type="int" name="NKREDLFX">     1</i>
   <i type="int" name="NKREDLFY">     1</i>
   <i type="int" name="NKREDLFZ">     1</i>
   <i type="int" name="MAXMEM">  1800</i>
   <i type="int" name="TELESCOPE">     0</i>
   <i type="int" name="TAUPAR">     1</i>
   <i type="int" name="OMEGAPAR">    -1</i>
   <i name="LAMBDA">      1.00000000</i>
  </separator>
  <separator name="External order field" >
   <i name="OFIELD_KAPPA">      0.00000000</i>
   <v name="OFIELD_K">      0.00000000      0.00000000      0.00000000</v>
   <i name="OFIELD_Q6_NEAR">      0.00000000</i>
   <i name="OFIELD_Q6_FAR">      0.00000000</i>
   <i name="OFIELD_A">      0.00000000</i>
  </separator>
 </parameters>
 <atominfo>
  <atoms>       2 </atoms>
  <types>       1 </types>
  <array name="atoms" >
   <dimension dim="1">ion</dimension>
   <field type="string">element</field>
   <field type="int">atomtype</field>
   <set>
    <rc><c>C </c><c>   1</c></rc>
    <rc><c>C </c><c>   1</c></rc>
   </set>
  </array>
  <array name="atomtypes" >
   <dimension dim="1">type</dimension>
   <field type="int">atomspertype</field>
   <field type="string">element</field>
   <field>mass</field>
   <field>valence</field>
   <field type="string">pseudopotential</field>
   <set>
    <rc><c>   2</c><c>C </c><c>     12.01100000</c><c>      4.00000000</c><c>  PAW_PBE C 08Apr2002                   </c></rc>
   </set>
  </array>
 </atominfo>
 <structure name="initialpos" >
  <crystal>
   <varray name="basis" >
    <v>       2.45253800       0.00000000       0.00000000 </v>
    <v>      -1.22626900       2.13736100       0.00000000 </v>
    <v>       0.00000000       0.00000000      15.00000000 </v>
   </varray>
   <i name="volume">     78.62938608 </i>
   <varray name="rec_basis" >
    <v>       0.40774088       0.23393334       0.00000000 </v>
    <v>       0.00000000       0.46786668       0.00000000 </v>
    <v>       0.00000000       0.00000000       0.06666667 </v>
   </varray>
  </crystal>
  <varray name="positions" >
   <v>       0.99979081       0.99958163       0.50000000 </v>
   <v>       0.33354219       0.66708537       0.50000000 </v>
  </varray>
 </structure>
 <calculation>
  <scstep>
   <time name="dav">    0.44    0.45</time>
   <time name="total">    0.46    0.46</time>
   <energy>
    <i name="alphaZ">      4.17893208 </i>
    <i name="ewald">    841.80943705 </i>
    <i name="hartreedc">  -1060.27159354 </i>
    <i name="XCdc">     26.39124814 </i>
    <i name="pawpsdc">    217.04409276 </i>
    <i name="pawaedc">   -218.18290438 </i>
    <i name="eentropy">     -0.00016235 </i>
    <i name="bandstr">    -69.99533477 </i>
    <i name="atom">    294.29778662 </i>
    <i name="e_fr_energy">     35.27150162 </i>
    <i name="e_wo_entrp">     35.27166397 </i>
    <i name="e_0_energy">     35.27158279 </i>
   </energy>
  </scstep>
  <scstep>
   <time name="dav">    0.61    0.61</time>
   <time name="total">    0.61    0.61</time>
   <energy>
    <i name="e_fr_energy">    -18.06793840 </i>
    <i name="e_wo_entrp">    -18.06793840 </i>
    <i name="e_0_energy">    -18.06793840 </i>
   </energy>
  </scstep>
  <scstep>
   <time name="dav">    0.67    0.67</time>
   <time name="total">    0.67    0.67</time>
   <energy>
    <i name="e_fr_energy">    -19.74276674 </i>
    <i name="e_wo_entrp">    -19.74276673 </i>
    <i name="e_0_energy">    -19.74276673 </i>
   </energy>
  </scstep>
  <scstep>
   <time name="dav">    0.65    0.65</time>
   <time name="total">    0.65    0.65</time>
   <energy>
    <i name="e_fr_energy">    -19.74951060 </i>
    <i name="e_wo_entrp">    -19.74951059 </i>
    <i name="e_0_energy">    -19.74951060 </i>
   </energy>
  </scstep>
  <scstep>
   <time name="dav">    0.65    0.65</time>
   <time name="total">    0.67    0.67</time>
   <energy>
    <i name="e_fr_energy">    -19.74951646 </i>
    <i name="e_wo_entrp">    -19.74951645 </i>
    <i name="e_0_energy">    -19.74951646 </i>
   </energy>
  </scstep>
  <scstep>
   <time name="dav">    0.56    0.56</time>
   <time name="total">    0.59    0.59</time>
   <energy>
    <i name="e_fr_energy">    -18.81566546 </i>
    <i name="e_wo_entrp">    -18.81566542 </i>
    <i name="e_0_energy">    -18.81566544 </i>
   </energy>
  </scstep>
  <scstep>
   <time name="dav">    0.63    0.63</time>
   <time name="total">    0.66    0.66</time>
   <energy>
    <i name="e_fr_energy">    -18.45589056 </i>
    <i name="e_wo_entrp">    -18.45589048 </i>
    <i name="e_0_energy">    -18.45589052 </i>
   </energy>
  </scstep>
  <scstep>
   <time name="dav">    0.60    0.60</time>
   <time name="total">    0.62    0.62</time>
   <energy>
    <i name="e_fr_energy">    -18.44808916 </i>
    <i name="e_wo_entrp">    -18.44808909 </i>
    <i name="e_0_energy">    -18.44808912 </i>
   </energy>
  </scstep>
  <scstep>
   <time name="dav">    0.56    0.56</time>
   <time name="total">    0.58    0.58</time>
   <energy>
    <i name="e_fr_energy">    -18.44616051 </i>
    <i name="e_wo_entrp">    -18.44616043 </i>
    <i name="e_0_energy">    -18.44616047 </i>
   </energy>
  </scstep>
  <scstep>
   <time name="dav">    0.49    0.49</time>
   <time name="total">    0.51    0.52</time>
   <energy>
    <i name="e_fr_energy">    -18.44455163 </i>
    <i name="e_wo_entrp">    -18.44455155 </i>
    <i name="e_0_energy">    -18.44455159 </i>
   </energy>
  </scstep>
  <scstep>
   <time name="dav">    0.48    0.48</time>
   <time name="total">    0.51    0.51</time>
   <energy>
    <i name="e_fr_energy">    -18.44479982 </i>
    <i name="e_wo_entrp">    -18.44479975 </i>
    <i name="e_0_energy">    -18.44479978 </i>
   </energy>
  </scstep>
  <scstep>
   <time name="dav">    0.50    0.50</time>
   <time name="total">    0.52    0.53</time>
   <energy>
    <i name="e_fr_energy">    -18.44500802 </i>
    <i name="e_wo_entrp">    -18.44500795 </i>
    <i name="e_0_energy">    -18.44500798 </i>
   </energy>
  </scstep>
  <scstep>
   <time name="dav">    0.49    0.49</time>
   <time name="total">    0.51    0.51</time>
   <energy>
    <i name="e_fr_energy">    -18.44573444 </i>
    <i name="e_wo_entrp">    -18.44573437 </i>
    <i name="e_0_energy">    -18.44573441 </i>
   </energy>
  </scstep>
  <scstep>
   <time name="dav">    0.59    0.59</time>
   <time name="total">    0.61    0.61</time>
   <energy>
    <i name="e_fr_energy">    -18.44578821 </i>
    <i name="e_wo_entrp">    -18.44578813 </i>
    <i name="e_0_energy">    -18.44578817 </i>
   </energy>
  </scstep>
  <scstep>
   <time name="dav">    0.48    0.48</time>
   <time name="total">    0.50    0.50</time>
   <energy>
    <i name="e_fr_energy">    -18.44589026 </i>
    <i name="e_wo_entrp">    -18.44589018 </i>
    <i name="e_0_energy">    -18.44589022 </i>
   </energy>
  </scstep>
  <scstep>
   <time name="dav">    0.49    0.49</time>
   <time name="total">    0.50    0.50</time>
   <energy>
    <i name="alphaZ">      4.17893208 </i>
    <i name="ewald">    841.80943705 </i>
    <i name="hartreedc">  -1093.86414035 </i>
    <i name="XCdc">     27.58600865 </i>
    <i name="pawpsdc">    844.92480996 </i>
    <i name="pawaedc">   -846.29648335 </i>
    <i name="eentropy">     -0.00000007 </i>
    <i name="bandstr">    -91.08224796 </i>
    <i name="atom">    294.29778662 </i>
    <i name="e_fr_energy">    -18.44589737 </i>
    <i name="e_wo_entrp">    -18.44589729 </i>
    <i name="e_0_energy">    -18.44589733 </i>
   </energy>
  </scstep>
  <structure>
   <crystal>
    <varray name="basis" >
     <v>       2.45253800       0.00000000       0.00000000 </v>
     <v>      -1.22626900       2.13736100       0.00000000 </v>
     <v>       0.00000000       0.00000000      15.00000000 </v>
    </varray>
    <i name="volume">     78.62938608 </i>
    <varray name="rec_basis" >
     <v>       0.40774088       0.23393334       0.00000000 </v>
     <v>       0.00000000       0.46786668       0.00000000 </v>
     <v>       0.00000000       0.00000000       0.06666667 </v>
    </varray>
   </crystal>
   <varray name="positions" >
    <v>       0.99979081       0.99958163       0.50000000 </v>
    <v>       0.33354219       0.66708537       0.50000000 </v>
   </varray>
  </structure>
  <varray name="forces" >
   <v>       0.00000000       0.13338156       0.00000000 </v>
   <v>       0.00000000      -0.13338156       0.00000000 </v>
  </varray>
  <varray name="stress" >
   <v>      14.76433168       0.00000000       0.00000000 </v>
   <v>       0.00000000       2.66089716       0.00000000 </v>
   <v>       0.00000000       0.00000000      -0.11925267 </v>
  </varray>
  <energy>
   <i name="e_fr_energy">    -18.44589737 </i>
   <i name="e_wo_entrp">    -18.44589733 </i>
   <i name="e_0_energy">     -0.00000007 </i>
  </energy>
  <time name="totalsc">    9.55    9.58</time>
  <eigenvalues>
   <array>
    <dimension dim="1">band</dimension>
    <dimension dim="2">kpoint</dimension>
    <dimension dim="3">spin</dimension>
    <field>eigene</field>
    <field>occ</field>
    <set>
     <set comment="spin 1">
      <set comment="kpoint 1">
       <r>  -21.7924    1.0000 </r>
       <r>   -9.8859    1.0000 </r>
       <r>   -5.2610    1.0000 </r>
       <r>   -5.2373    1.0000 </r>
       <r>    1.0132    0.0000 </r>
       <r>    1.9277    0.0000 </r>
       <r>    2.3898    0.0000 </r>
       <r>    4.3467    0.0000 </r>
       <r>    5.0860    0.0000 </r>
       <r>    6.0316    0.0000 </r>
       <r>    6.2501    0.0000 </r>
       <r>    8.2234    0.0000 </r>
      </set>
      <set comment="kpoint 2">
       <r>  -21.7510    1.0000 </r>
       <r>   -9.8364    1.0000 </r>
       <r>   -5.4247    1.0000 </r>
       <r>   -5.3331    1.0000 </r>
       <r>    1.0694    0.0000 </r>
       <r>    1.9844    0.0000 </r>
       <r>    2.4470    0.0000 </r>
       <r>    4.4031    0.0000 </r>
       <r>    5.1410    0.0000 </r>
       <r>    6.1423    0.0000 </r>
       <r>    6.3393    0.0000 </r>
       <r>    8.2781    0.0000 </r>
      </set>
      <set comment="kpoint 3">
       <r>  -21.6271    1.0000 </r>
       <r>   -9.6883    1.0000 </r>
       <r>   -5.9035    1.0000 </r>
       <r>   -5.5884    1.0000 </r>
       <r>    1.2379    0.0000 </r>
       <r>    2.1542    0.0000 </r>
       <r>    2.6187    0.0000 </r>
       <r>    4.5719    0.0000 </r>
       <r>    5.3054    0.0000 </r>
       <r>    6.2284    0.0000 </r>
       <r>    6.8082    0.0000 </r>
       <r>    8.4415    0.0000 </r>
      </set>
      <set comment="kpoint 4">
       <r>  -21.4209    1.0000 </r>
       <r>   -9.4425    1.0000 </r>
       <r>   -6.6324    1.0000 </r>
       <r>   -5.9602    1.0000 </r>
       <r>    1.5187    0.0000 </r>
       <r>    2.4369    0.0000 </r>
       <r>    2.9048    0.0000 </r>
       <r>    4.8529    0.0000 </r>
       <r>    5.5760    0.0000 </r>
       <r>    6.2357    0.0000 </r>
       <r>    7.6158    0.0000 </r>
       <r>    8.0479    0.0000 </r>
      </set>
      <set comment="kpoint 5">
       <r>  -21.1330    1.0000 </r>
       <r>   -9.1007    1.0000 </r>
       <r>   -7.5388    1.0000 </r>
       <r>   -6.3960    1.0000 </r>
       <r>    1.9116    0.0000 </r>
       <r>    2.8319    0.0000 </r>
       <r>    3.3052    0.0000 </r>
       <r>    5.2445    0.0000 </r>
       <r>    5.9151    0.0000 </r>
       <r>    6.2159    0.0000 </r>
       <r>    7.1920    0.0000 </r>
       <r>    8.6627    0.0000 </r>
      </set>
      <set comment="kpoint 6">
       <r>  -20.7643    1.0000 </r>
       <r>   -8.6657    1.0000 </r>
       <r>   -8.5586    1.0000 </r>
       <r>   -6.8505    1.0000 </r>
       <r>    2.4164    0.0000 </r>
       <r>    3.3374    0.0000 </r>
       <r>    3.8199    0.0000 </r>
       <r>    5.7301    0.0000 </r>
       <r>    5.9696    0.0000 </r>
       <r>    6.2086    0.0000 </r>
       <r>    6.5342    0.0000 </r>
       <r>    9.5784    0.0000 </r>
      </set>
      <set comment="kpoint 7">
       <r>  -20.3160    1.0000 </r>
       <r>   -9.6412    1.0000 </r>
       <r>   -8.1420    1.0000 </r>
       <r>   -7.2897    1.0000 </r>
       <r>    3.0323    0.0000 </r>
       <r>    3.9421    0.0000 </r>
       <r>    4.4482    0.0000 </r>
       <r>    5.0827    0.0000 </r>
       <r>    5.8251    0.0000 </r>
       <r>    6.3818    0.0000 </r>
       <r>    7.1310    0.0000 </r>
       <r>   10.1635    0.0000 </r>
      </set>
      <set comment="kpoint 8">
       <r>  -19.7896    1.0000 </r>
       <r>  -10.7491    1.0000 </r>
       <r>   -7.6894    1.0000 </r>
       <r>   -7.5368    1.0000 </r>
       <r>    3.7578    0.0000 </r>
       <r>    3.8610    0.0000 </r>
       <r>    4.7391    0.0000 </r>
       <r>    5.1849    0.0000 </r>
       <r>    5.6649    0.0000 </r>
       <r>    7.1021    0.0000 </r>
       <r>    7.8533    0.0000 </r>
       <r>   10.8419    0.0000 </r>
      </set>
      <set comment="kpoint 9">
       <r>  -19.1878    1.0000 </r>
       <r>  -11.8540    1.0000 </r>
       <r>   -8.0332    1.0000 </r>
       <r>   -6.8622    1.0000 </r>
       <r>    2.7149    0.0000 </r>
       <r>    4.5872    0.0000 </r>
       <r>    5.4910    0.0000 </r>
       <r>    5.5559    0.0000 </r>
       <r>    6.0633    0.0000 </r>
       <r>    7.9335    0.0000 </r>
       <r>    8.6888    0.0000 </r>
       <r>   11.5966    0.0000 </r>
      </set>
      <set comment="kpoint 10">
       <r>  -18.5145    1.0000 </r>
       <r>  -12.9340    1.0000 </r>
       <r>   -8.3098    1.0000 </r>
       <r>   -6.1412    1.0000 </r>
       <r>    1.5850    0.0000 </r>
       <r>    5.2871    0.0000 </r>
       <r>    5.6053    0.0000 </r>
       <r>    6.5015    0.0000 </r>
       <r>    7.0291    0.0000 </r>
       <r>    8.8683    0.0000 </r>
       <r>    9.6337    0.0000 </r>
       <r>   12.3689    0.0000 </r>
      </set>
      <set comment="kpoint 11">
       <r>  -17.7783    1.0000 </r>
       <r>  -13.9686    1.0000 </r>
       <r>   -8.5120    1.0000 </r>
       <r>   -5.4227    1.0000 </r>
       <r>    0.5590    0.0000 </r>
       <r>    5.2281    0.0000 </r>
       <r>    6.6129    0.0000 </r>
       <r>    7.5536    0.0000 </r>
       <r>    8.1130    0.0000 </r>
       <r>    9.8964    0.0000 </r>
       <r>   10.6834    0.0000 </r>
       <r>   11.6890    0.0000 </r>
      </set>
      <set comment="kpoint 12">
       <r>  -17.0088    1.0000 </r>
       <r>  -14.9199    1.0000 </r>
       <r>   -8.6350    1.0000 </r>
       <r>   -4.8203    1.0000 </r>
       <r>   -0.2336    0.0000 </r>
       <r>    5.1681    0.0000 </r>
       <r>    7.7613    0.0000 </r>
       <r>    8.7023    0.0000 </r>
       <r>    9.3096    0.0000 </r>
       <r>   10.3345    0.0000 </r>
       <r>   10.9195    0.0000 </r>
       <r>   11.3703    0.0000 </r>
      </set>
      <set comment="kpoint 13">
       <r>  -16.4827    1.0000 </r>
       <r>  -15.5071    1.0000 </r>
       <r>   -8.6763    1.0000 </r>
       <r>   -4.5628    1.0000 </r>
       <r>   -0.5555    0.0000 </r>
       <r>    5.1472    0.0000 </r>
       <r>    8.9370    0.0000 </r>
       <r>    9.0812    0.0000 </r>
       <r>    9.8181    0.0000 </r>
       <r>   10.0656    0.0000 </r>
       <r>   10.6074    0.0000 </r>
       <r>   10.6303    0.0000 </r>
      </set>
      <set comment="kpoint 14">
       <r>  -21.7515    1.0000 </r>
       <r>   -9.8370    1.0000 </r>
       <r>   -5.4103    1.0000 </r>
       <r>   -5.3482    1.0000 </r>
       <r>    1.0688    0.0000 </r>
       <r>    1.9838    0.0000 </r>
       <r>    2.4465    0.0000 </r>
       <r>    4.4025    0.0000 </r>
       <r>    5.1400    0.0000 </r>
       <r>    6.0714    0.0000 </r>
       <r>    6.4267    0.0000 </r>
       <r>    8.2775    0.0000 </r>
      </set>
      <set comment="kpoint 15">
       <r>  -21.6692    1.0000 </r>
       <r>   -9.7387    1.0000 </r>
       <r>   -5.7289    1.0000 </r>
       <r>   -5.5271    1.0000 </r>
       <r>    1.1805    0.0000 </r>
       <r>    2.0965    0.0000 </r>
       <r>    2.5603    0.0000 </r>
       <r>    4.5145    0.0000 </r>
       <r>    5.2490    0.0000 </r>
       <r>    6.1726    0.0000 </r>
       <r>    6.7164    0.0000 </r>
       <r>    8.3860    0.0000 </r>
      </set>
      <set comment="kpoint 16">
       <r>  -21.5045    1.0000 </r>
       <r>   -9.5423    1.0000 </r>
       <r>   -6.3119    1.0000 </r>
       <r>   -5.8621    1.0000 </r>
       <r>    1.4046    0.0000 </r>
       <r>    2.3222    0.0000 </r>
       <r>    2.7887    0.0000 </r>
       <r>    4.7389    0.0000 </r>
       <r>    5.4672    0.0000 </r>
       <r>    6.2898    0.0000 </r>
       <r>    7.2833    0.0000 </r>
       <r>    8.3089    0.0000 </r>
      </set>
      <set comment="kpoint 17">
       <r>  -21.2579    1.0000 </r>
       <r>   -9.2490    1.0000 </r>
       <r>   -7.1079    1.0000 </r>
       <r>   -6.2884    1.0000 </r>
       <r>    1.7411    0.0000 </r>
       <r>    2.6606    0.0000 </r>
       <r>    3.1314    0.0000 </r>
       <r>    5.0750    0.0000 </r>
       <r>    5.7875    0.0000 </r>
       <r>    6.3323    0.0000 </r>
       <r>    7.5548    0.0000 </r>
       <r>    8.1247    0.0000 </r>
      </set>
      <set comment="kpoint 18">
       <r>  -20.9300    1.0000 </r>
       <r>   -8.8610    1.0000 </r>
       <r>   -8.0544    1.0000 </r>
       <r>   -6.7507    1.0000 </r>
       <r>    2.1895    0.0000 </r>
       <r>    3.1107    0.0000 </r>
       <r>    3.5886    0.0000 </r>
       <r>    5.5196    0.0000 </r>
       <r>    6.1098    0.0000 </r>
       <r>    6.3917    0.0000 </r>
       <r>    6.6365    0.0000 </r>
       <r>    9.3581    0.0000 </r>
      </set>
      <set comment="kpoint 19">
       <r>  -20.5218    1.0000 </r>
       <r>   -9.0942    1.0000 </r>
       <r>   -8.3819    1.0000 </r>
       <r>   -7.2088    1.0000 </r>
       <r>    2.7495    0.0000 </r>
       <r>    3.6689    0.0000 </r>
       <r>    4.1598    0.0000 </r>
       <r>    5.5704    0.0000 </r>
       <r>    6.0720    0.0000 </r>
       <r>    6.1046    0.0000 </r>
       <r>    6.8586    0.0000 </r>
       <r>    9.8905    0.0000 </r>
      </set>
      <set comment="kpoint 20">
       <r>  -20.0349    1.0000 </r>
       <r>  -10.1822    1.0000 </r>
       <r>   -7.8172    1.0000 </r>
       <r>   -7.6351    1.0000 </r>
       <r>    3.4200    0.0000 </r>
       <r>    4.2337    0.0000 </r>
       <r>    4.5694    0.0000 </r>
       <r>    4.8440    0.0000 </r>
       <r>    5.9248    0.0000 </r>
       <r>    6.7612    0.0000 </r>
       <r>    7.5172    0.0000 </r>
       <r>   10.5187    0.0000 </r>
      </set>
      <set comment="kpoint 21">
       <r>  -19.4712    1.0000 </r>
       <r>  -11.2842    1.0000 </r>
       <r>   -8.0104    1.0000 </r>
       <r>   -7.1761    1.0000 </r>
       <r>    3.2714    0.0000 </r>
       <r>    4.1990    0.0000 </r>
       <r>    5.1593    0.0000 </r>
       <r>    5.6137    0.0000 </r>
       <r>    5.7957    0.0000 </r>
       <r>    7.5371    0.0000 </r>
       <r>    8.2951    0.0000 </r>
       <r>   11.2292    0.0000 </r>
      </set>
      <set comment="kpoint 22">
       <r>  -18.8338    1.0000 </r>
       <r>  -12.3741    1.0000 </r>
       <r>   -8.3222    1.0000 </r>
       <r>   -6.4749    1.0000 </r>
       <r>    2.1284    0.0000 </r>
       <r>    5.0724    0.0000 </r>
       <r>    5.6226    0.0000 </r>
       <r>    6.0469    0.0000 </r>
       <r>    6.5692    0.0000 </r>
       <r>    8.4181    0.0000 </r>
       <r>    9.1845    0.0000 </r>
       <r>   11.9860    0.0000 </r>
      </set>
      <set comment="kpoint 23">
       <r>  -18.1284    1.0000 </r>
       <r>  -13.4310    1.0000 </r>
       <r>   -8.5618    1.0000 </r>
       <r>   -5.7463    1.0000 </r>
       <r>    1.0453    0.0000 </r>
       <r>    5.4528    0.0000 </r>
       <r>    6.1212    0.0000 </r>
       <r>    7.0446    0.0000 </r>
       <r>    7.5942    0.0000 </r>
       <r>    9.3963    0.0000 </r>
       <r>   10.1813    0.0000 </r>
       <r>   12.3490    0.0000 </r>
      </set>
      <set comment="kpoint 24">
       <r>  -17.3695    1.0000 </r>
       <r>  -14.4299    1.0000 </r>
       <r>   -8.7236    1.0000 </r>
       <r>   -5.0635    1.0000 </r>
       <r>    0.1160    0.0000 </r>
       <r>    5.3814    0.0000 </r>
       <r>    7.2091    0.0000 </r>
       <r>    8.1422    0.0000 </r>
       <r>    8.7339    0.0000 </r>
       <r>   10.4464    0.0000 </r>
       <r>   11.0409    0.0000 </r>
       <r>   11.2898    0.0000 </r>
      </set>
      <set comment="kpoint 25">
       <r>  -16.6358    1.0000 </r>
       <r>  -15.2858    1.0000 </r>
       <r>   -8.8044    1.0000 </r>
       <r>   -4.5955    1.0000 </r>
       <r>   -0.4783    0.0000 </r>
       <r>    5.3393    0.0000 </r>
       <r>    8.4034    0.0000 </r>
       <r>    9.3198    0.0000 </r>
       <r>    9.7075    0.0000 </r>
       <r>    9.9889    0.0000 </r>
       <r>   10.5983    0.0000 </r>
       <r>   11.3614    0.0000 </r>
      </set>
      <set comment="kpoint 26">
       <r>  -16.6291    1.0000 </r>
       <r>  -15.2936    1.0000 </r>
       <r>   -8.8024    1.0000 </r>
       <r>   -4.5924    1.0000 </r>
       <r>   -0.4821    0.0000 </r>
       <r>    5.3382    0.0000 </r>
       <r>    8.4162    0.0000 </r>
       <r>    9.3324    0.0000 </r>
       <r>    9.6927    0.0000 </r>
       <r>   10.0013    0.0000 </r>
       <r>   10.5864    0.0000 </r>
       <r>   11.3473    0.0000 </r>
      </set>
      <set comment="kpoint 27">
       <r>  -17.3613    1.0000 </r>
       <r>  -14.4417    1.0000 </r>
       <r>   -8.7178    1.0000 </r>
       <r>   -5.0564    1.0000 </r>
       <r>    0.1072    0.0000 </r>
       <r>    5.3783    0.0000 </r>
       <r>    7.2201    0.0000 </r>
       <r>    8.1542    0.0000 </r>
       <r>    8.7454    0.0000 </r>
       <r>   10.4584    0.0000 </r>
       <r>   11.0222    0.0000 </r>
       <r>   11.3009    0.0000 </r>
      </set>
      <set comment="kpoint 28">
       <r>  -18.1208    1.0000 </r>
       <r>  -13.4446    1.0000 </r>
       <r>   -8.5520    1.0000 </r>
       <r>   -5.7379    1.0000 </r>
       <r>    1.0341    0.0000 </r>
       <r>    5.4492    0.0000 </r>
       <r>    6.1296    0.0000 </r>
       <r>    7.0555    0.0000 </r>
       <r>    7.6044    0.0000 </r>
       <r>    9.4076    0.0000 </r>
       <r>   10.1917    0.0000 </r>
       <r>   12.3131    0.0000 </r>
      </set>
      <set comment="kpoint 29">
       <r>  -18.8270    1.0000 </r>
       <r>  -12.3895    1.0000 </r>
       <r>   -8.3085    1.0000 </r>
       <r>   -6.4666    1.0000 </r>
       <r>    2.1167    0.0000 </r>
       <r>    5.0828    0.0000 </r>
       <r>    5.6149    0.0000 </r>
       <r>    6.0567    0.0000 </r>
       <r>    6.5781    0.0000 </r>
       <r>    8.4282    0.0000 </r>
       <r>    9.1935    0.0000 </r>
       <r>   11.9987    0.0000 </r>
      </set>
      <set comment="kpoint 30">
       <r>  -19.4652    1.0000 </r>
       <r>  -11.3014    1.0000 </r>
       <r>   -7.9927    1.0000 </r>
       <r>   -7.1683    1.0000 </r>
       <r>    3.2601    0.0000 </r>
       <r>    4.2077    0.0000 </r>
       <r>    5.1681    0.0000 </r>
       <r>    5.6203    0.0000 </r>
       <r>    5.7896    0.0000 </r>
       <r>    7.5460    0.0000 </r>
       <r>    8.3028    0.0000 </r>
       <r>   11.2398    0.0000 </r>
      </set>
      <set comment="kpoint 31">
       <r>  -20.0297    1.0000 </r>
       <r>  -10.2016    1.0000 </r>
       <r>   -7.8103    1.0000 </r>
       <r>   -7.6134    1.0000 </r>
       <r>    3.4275    0.0000 </r>
       <r>    4.2322    0.0000 </r>
       <r>    4.5686    0.0000 </r>
       <r>    4.8513    0.0000 </r>
       <r>    5.9195    0.0000 </r>
       <r>    6.7691    0.0000 </r>
       <r>    7.5234    0.0000 </r>
       <r>   10.5275    0.0000 </r>
      </set>
      <set comment="kpoint 32">
       <r>  -20.5175    1.0000 </r>
       <r>   -9.1159    1.0000 </r>
       <r>   -8.3759    1.0000 </r>
       <r>   -7.1835    1.0000 </r>
       <r>    2.7558    0.0000 </r>
       <r>    3.6746    0.0000 </r>
       <r>    4.1659    0.0000 </r>
       <r>    5.5629    0.0000 </r>
       <r>    6.0735    0.0000 </r>
       <r>    6.1118    0.0000 </r>
       <r>    6.8627    0.0000 </r>
       <r>    9.8979    0.0000 </r>
      </set>
      <set comment="kpoint 33">
       <r>  -20.9265    1.0000 </r>
       <r>   -8.8561    1.0000 </r>
       <r>   -8.0783    1.0000 </r>
       <r>   -6.7223    1.0000 </r>
       <r>    2.1947    0.0000 </r>
       <r>    3.1156    0.0000 </r>
       <r>    3.5936    0.0000 </r>
       <r>    5.5241    0.0000 </r>
       <r>    6.1234    0.0000 </r>
       <r>    6.3952    0.0000 </r>
       <r>    6.6327    0.0000 </r>
       <r>    9.0252    0.0000 </r>
      </set>
      <set comment="kpoint 34">
       <r>  -21.2552    1.0000 </r>
       <r>   -9.2451    1.0000 </r>
       <r>   -7.1336    1.0000 </r>
       <r>   -6.2583    1.0000 </r>
       <r>    1.7451    0.0000 </r>
       <r>    2.6644    0.0000 </r>
       <r>    3.1353    0.0000 </r>
       <r>    5.0788    0.0000 </r>
       <r>    5.7950    0.0000 </r>
       <r>    6.3655    0.0000 </r>
       <r>    7.5531    0.0000 </r>
       <r>    7.9741    0.0000 </r>
      </set>
      <set comment="kpoint 35">
       <r>  -21.5026    1.0000 </r>
       <r>   -9.5395    1.0000 </r>
       <r>   -6.3375    1.0000 </r>
       <r>   -5.8330    1.0000 </r>
       <r>    1.4076    0.0000 </r>
       <r>    2.3250    0.0000 </r>
       <r>    2.7915    0.0000 </r>
       <r>    4.7417    0.0000 </r>
       <r>    5.4719    0.0000 </r>
       <r>    6.3708    0.0000 </r>
       <r>    7.1184    0.0000 </r>
       <r>    8.3090    0.0000 </r>
      </set>
      <set comment="kpoint 36">
       <r>  -21.6680    1.0000 </r>
       <r>   -9.7371    1.0000 </r>
       <r>   -5.7510    1.0000 </r>
       <r>   -5.5027    1.0000 </r>
       <r>    1.1823    0.0000 </r>
       <r>    2.0981    0.0000 </r>
       <r>    2.5620    0.0000 </r>
       <r>    4.5162    0.0000 </r>
       <r>    5.2518    0.0000 </r>
       <r>    6.3227    0.0000 </r>
       <r>    6.5161    0.0000 </r>
       <r>    8.3878    0.0000 </r>
      </set>
      <set comment="kpoint 37">
       <r>  -21.6287    1.0000 </r>
       <r>   -9.6905    1.0000 </r>
       <r>   -5.9016    1.0000 </r>
       <r>   -5.5923    1.0000 </r>
       <r>    1.2355    0.0000 </r>
       <r>    2.1520    0.0000 </r>
       <r>    2.6164    0.0000 </r>
       <r>    4.5697    0.0000 </r>
       <r>    5.3020    0.0000 </r>
       <r>    6.1587    0.0000 </r>
       <r>    6.9378    0.0000 </r>
       <r>    8.4380    0.0000 </r>
      </set>
      <set comment="kpoint 38">
       <r>  -21.5057    1.0000 </r>
       <r>   -9.5440    1.0000 </r>
       <r>   -6.3221    1.0000 </r>
       <r>   -5.8525    1.0000 </r>
       <r>    1.4029    0.0000 </r>
       <r>    2.3205    0.0000 </r>
       <r>    2.7870    0.0000 </r>
       <r>    4.7372    0.0000 </r>
       <r>    5.4650    0.0000 </r>
       <r>    6.2807    0.0000 </r>
       <r>    7.3291    0.0000 </r>
       <r>    8.3052    0.0000 </r>
      </set>
      <set comment="kpoint 39">
       <r>  -21.3006    1.0000 </r>
       <r>   -9.3001    1.0000 </r>
       <r>   -6.9291    1.0000 </r>
       <r>   -6.2852    1.0000 </r>
       <r>    1.6827    0.0000 </r>
       <r>    2.6020    0.0000 </r>
       <r>    3.0721    0.0000 </r>
       <r>    5.0168    0.0000 </r>
       <r>    5.7380    0.0000 </r>
       <r>    6.4988    0.0000 </r>
       <r>    7.6793    0.0000 </r>
       <r>    7.8216    0.0000 </r>
      </set>
      <set comment="kpoint 40">
       <r>  -21.0139    1.0000 </r>
       <r>   -8.9605    1.0000 </r>
       <r>   -7.7075    1.0000 </r>
       <r>   -6.7960    1.0000 </r>
       <r>    2.0748    0.0000 </r>
       <r>    2.9957    0.0000 </r>
       <r>    3.4716    0.0000 </r>
       <r>    5.4076    0.0000 </r>
       <r>    6.1132    0.0000 </r>
       <r>    6.6607    0.0000 </r>
       <r>    6.8706    0.0000 </r>
       <r>    8.4925    0.0000 </r>
      </set>
      <set comment="kpoint 41">
       <r>  -20.6465    1.0000 </r>
       <r>   -8.6289    1.0000 </r>
       <r>   -8.5280    1.0000 </r>
       <r>   -7.3078    1.0000 </r>
       <r>    2.5786    0.0000 </r>
       <r>    3.5003    0.0000 </r>
       <r>    3.9855    0.0000 </r>
       <r>    5.8625    0.0000 </r>
       <r>    5.9707    0.0000 </r>
       <r>    6.4894    0.0000 </r>
       <r>    6.7901    0.0000 </r>
       <r>    9.3867    0.0000 </r>
      </set>
      <set comment="kpoint 42">
       <r>  -20.1998    1.0000 </r>
       <r>   -9.6449    1.0000 </r>
       <r>   -8.0070    1.0000 </r>
       <r>   -7.7829    1.0000 </r>
       <r>    3.1937    0.0000 </r>
       <r>    4.1050    0.0000 </r>
       <r>    4.6133    0.0000 </r>
       <r>    4.8845    0.0000 </r>
       <r>    6.4916    0.0000 </r>
       <r>    6.5262    0.0000 </r>
       <r>    7.3037    0.0000 </r>
       <r>   10.2908    0.0000 </r>
      </set>
      <set comment="kpoint 43">
       <r>  -19.6754    1.0000 </r>
       <r>  -10.7090    1.0000 </r>
       <r>   -8.2032    1.0000 </r>
       <r>   -7.4044    1.0000 </r>
       <r>    3.7434    0.0000 </r>
       <r>    3.9188    0.0000 </r>
       <r>    4.8677    0.0000 </r>
       <r>    5.3539    0.0000 </r>
       <r>    6.3637    0.0000 </r>
       <r>    7.2451    0.0000 </r>
       <r>    8.0154    0.0000 </r>
       <r>   10.9420    0.0000 </r>
      </set>
      <set comment="kpoint 44">
       <r>  -19.0760    1.0000 </r>
       <r>  -11.7852    1.0000 </r>
       <r>   -8.5578    1.0000 </r>
       <r>   -6.7320    1.0000 </r>
       <r>    2.6250    0.0000 </r>
       <r>    4.7513    0.0000 </r>
       <r>    5.6960    0.0000 </r>
       <r>    6.1447    0.0000 </r>
       <r>    6.2852    0.0000 </r>
       <r>    8.0682    0.0000 </r>
       <r>    8.8466    0.0000 </r>
       <r>   11.6374    0.0000 </r>
      </set>
      <set comment="kpoint 45">
       <r>  -18.4056    1.0000 </r>
       <r>  -12.8461    1.0000 </r>
       <r>   -8.8393    1.0000 </r>
       <r>   -6.0120    1.0000 </r>
       <r>    1.5266    0.0000 </r>
       <r>    5.6708    0.0000 </r>
       <r>    6.0997    0.0000 </r>
       <r>    6.6359    0.0000 </r>
       <r>    7.1906    0.0000 </r>
       <r>    8.9870    0.0000 </r>
       <r>    9.7876    0.0000 </r>
       <r>   12.2522    0.0000 </r>
      </set>
      <set comment="kpoint 46">
       <r>  -17.6730    1.0000 </r>
       <r>  -13.8681    1.0000 </r>
       <r>   -9.0426    1.0000 </r>
       <r>   -5.2912    1.0000 </r>
       <r>    0.5203    0.0000 </r>
       <r>    5.9463    0.0000 </r>
       <r>    6.7700    0.0000 </r>
       <r>    7.6748    0.0000 </r>
       <r>    8.2718    0.0000 </r>
       <r>    9.9799    0.0000 </r>
       <r>   10.8315    0.0000 </r>
       <r>   11.7684    0.0000 </r>
      </set>
      <set comment="kpoint 47">
       <r>  -16.9075    1.0000 </r>
       <r>  -14.8116    1.0000 </r>
       <r>   -9.1643    1.0000 </r>
       <r>   -4.6807    1.0000 </r>
       <r>   -0.2678    0.0000 </r>
       <r>    5.8894    0.0000 </r>
       <r>    7.9078    0.0000 </r>
       <r>    8.7945    0.0000 </r>
       <r>    9.4659    0.0000 </r>
       <r>   10.4785    0.0000 </r>
       <r>   10.8586    0.0000 </r>
       <r>   11.5206    0.0000 </r>
      </set>
      <set comment="kpoint 48">
       <r>  -16.3774    1.0000 </r>
       <r>  -15.4032    1.0000 </r>
       <r>   -9.2027    1.0000 </r>
       <r>   -4.4128    1.0000 </r>
       <r>   -0.5967    0.0000 </r>
       <r>    5.8670    0.0000 </r>
       <r>    9.0804    0.0000 </r>
       <r>    9.2364    0.0000 </r>
       <r>    9.7857    0.0000 </r>
       <r>   10.2353    0.0000 </r>
       <r>   10.7669    0.0000 </r>
       <r>   10.8034    0.0000 </r>
      </set>
      <set comment="kpoint 49">
       <r>  -16.8911    1.0000 </r>
       <r>  -14.8327    1.0000 </r>
       <r>   -9.1569    1.0000 </r>
       <r>   -4.6694    1.0000 </r>
       <r>   -0.2814    0.0000 </r>
       <r>    5.8858    0.0000 </r>
       <r>    7.9316    0.0000 </r>
       <r>    8.8191    0.0000 </r>
       <r>    9.4899    0.0000 </r>
       <r>   10.4445    0.0000 </r>
       <r>   10.8674    0.0000 </r>
       <r>   11.5122    0.0000 </r>
      </set>
      <set comment="kpoint 50">
       <r>  -17.6569    1.0000 </r>
       <r>  -13.8937    1.0000 </r>
       <r>   -9.0276    1.0000 </r>
       <r>   -5.2751    1.0000 </r>
       <r>    0.5000    0.0000 </r>
       <r>    5.9410    0.0000 </r>
       <r>    6.7893    0.0000 </r>
       <r>    7.6978    0.0000 </r>
       <r>    8.2934    0.0000 </r>
       <r>   10.0032    0.0000 </r>
       <r>   10.8535    0.0000 </r>
       <r>   11.7160    0.0000 </r>
      </set>
      <set comment="kpoint 51">
       <r>  -18.3911    1.0000 </r>
       <r>  -12.8754    1.0000 </r>
       <r>   -8.8167    1.0000 </r>
       <r>   -5.9950    1.0000 </r>
       <r>    1.5040    0.0000 </r>
       <r>    5.6928    0.0000 </r>
       <r>    6.0870    0.0000 </r>
       <r>    6.6567    0.0000 </r>
       <r>    7.2096    0.0000 </r>
       <r>    9.0084    0.0000 </r>
       <r>    9.8070    0.0000 </r>
       <r>   12.2765    0.0000 </r>
      </set>
      <set comment="kpoint 52">
       <r>  -19.0632    1.0000 </r>
       <r>  -11.8182    1.0000 </r>
       <r>   -8.5275    1.0000 </r>
       <r>   -6.7157    1.0000 </r>
       <r>    2.6027    0.0000 </r>
       <r>    4.7699    0.0000 </r>
       <r>    5.7146    0.0000 </r>
       <r>    6.1494    0.0000 </r>
       <r>    6.2851    0.0000 </r>
       <r>    8.0871    0.0000 </r>
       <r>    8.8632    0.0000 </r>
       <r>   11.6608    0.0000 </r>
      </set>
      <set comment="kpoint 53">
       <r>  -19.6643    1.0000 </r>
       <r>  -10.7461    1.0000 </r>
       <r>   -8.1652    1.0000 </r>
       <r>   -7.3895    1.0000 </r>
       <r>    3.7230    0.0000 </r>
       <r>    3.9348    0.0000 </r>
       <r>    4.8844    0.0000 </r>
       <r>    5.3696    0.0000 </r>
       <r>    6.3543    0.0000 </r>
       <r>    7.2617    0.0000 </r>
       <r>    8.0290    0.0000 </r>
       <r>   10.9615    0.0000 </r>
      </set>
      <set comment="kpoint 54">
       <r>  -20.1904    1.0000 </r>
       <r>   -9.6862    1.0000 </r>
       <r>   -7.9939    1.0000 </r>
       <r>   -7.7378    1.0000 </r>
       <r>    3.2073    0.0000 </r>
       <r>    4.1161    0.0000 </r>
       <r>    4.6267    0.0000 </r>
       <r>    4.8711    0.0000 </r>
       <r>    6.4938    0.0000 </r>
       <r>    6.5406    0.0000 </r>
       <r>    7.3130    0.0000 </r>
       <r>   10.3067    0.0000 </r>
      </set>
      <set comment="kpoint 55">
       <r>  -20.6387    1.0000 </r>
       <r>   -8.6732    1.0000 </r>
       <r>   -8.5170    1.0000 </r>
       <r>   -7.2578    1.0000 </r>
       <r>    2.5900    0.0000 </r>
       <r>    3.5111    0.0000 </r>
       <r>    3.9966    0.0000 </r>
       <r>    5.8562    0.0000 </r>
       <r>    5.9788    0.0000 </r>
       <r>    6.5137    0.0000 </r>
       <r>    6.7959    0.0000 </r>
       <r>    9.1244    0.0000 </r>
      </set>
      <set comment="kpoint 56">
       <r>  -21.0076    1.0000 </r>
       <r>   -8.9516    1.0000 </r>
       <r>   -7.7503    1.0000 </r>
       <r>   -6.7467    1.0000 </r>
       <r>    2.0839    0.0000 </r>
       <r>    3.0045    0.0000 </r>
       <r>    3.4805    0.0000 </r>
       <r>    5.4163    0.0000 </r>
       <r>    6.1288    0.0000 </r>
       <r>    6.7092    0.0000 </r>
       <r>    6.8664    0.0000 </r>
       <r>    8.2240    0.0000 </r>
      </set>
      <set comment="kpoint 57">
       <r>  -21.2959    1.0000 </r>
       <r>   -9.2934    1.0000 </r>
       <r>   -6.9615    1.0000 </r>
       <r>   -6.2469    1.0000 </r>
       <r>    1.6896    0.0000 </r>
       <r>    2.6086    0.0000 </r>
       <r>    3.0787    0.0000 </r>
       <r>    5.0235    0.0000 </r>
       <r>    5.7486    0.0000 </r>
       <r>    6.5845    0.0000 </r>
       <r>    7.5601    0.0000 </r>
       <r>    7.6794    0.0000 </r>
      </set>
      <set comment="kpoint 58">
       <r>  -21.4244    1.0000 </r>
       <r>   -9.4476    1.0000 </r>
       <r>   -6.6448    1.0000 </r>
       <r>   -5.9498    1.0000 </r>
       <r>    1.5135    0.0000 </r>
       <r>    2.4319    0.0000 </r>
       <r>    2.8998    0.0000 </r>
       <r>    4.8477    0.0000 </r>
       <r>    5.5693    0.0000 </r>
       <r>    6.2286    0.0000 </r>
       <r>    7.7362    0.0000 </r>
       <r>    8.0413    0.0000 </r>
      </set>
      <set comment="kpoint 59">
       <r>  -21.2609    1.0000 </r>
       <r>   -9.2536    1.0000 </r>
       <r>   -7.1331    1.0000 </r>
       <r>   -6.2626    1.0000 </r>
       <r>    1.7366    0.0000 </r>
       <r>    2.6561    0.0000 </r>
       <r>    3.1270    0.0000 </r>
       <r>    5.0702    0.0000 </r>
       <r>    5.7836    0.0000 </r>
       <r>    6.3642    0.0000 </r>
       <r>    7.5484    0.0000 </r>
       <r>    8.1646    0.0000 </r>
      </set>
      <set comment="kpoint 60">
       <r>  -21.0158    1.0000 </r>
       <r>   -8.9634    1.0000 </r>
       <r>   -7.7286    1.0000 </r>
       <r>   -6.7734    1.0000 </r>
       <r>    2.0720    0.0000 </r>
       <r>    2.9928    0.0000 </r>
       <r>    3.4689    0.0000 </r>
       <r>    5.4042    0.0000 </r>
       <r>    6.1124    0.0000 </r>
       <r>    6.6988    0.0000 </r>
       <r>    6.8668    0.0000 </r>
       <r>    8.4795    0.0000 </r>
      </set>
      <set comment="kpoint 61">
       <r>  -20.6897    1.0000 </r>
       <r>   -8.5792    1.0000 </r>
       <r>   -8.4295    1.0000 </r>
       <r>   -7.3863    1.0000 </r>
       <r>    2.5195    0.0000 </r>
       <r>    3.4414    0.0000 </r>
       <r>    3.9252    0.0000 </r>
       <r>    5.8486    0.0000 </r>
       <r>    6.0385    0.0000 </r>
       <r>    6.5482    0.0000 </r>
       <r>    7.0838    0.0000 </r>
       <r>    8.8141    0.0000 </r>
      </set>
      <set comment="kpoint 62">
       <r>  -20.2838    1.0000 </r>
       <r>   -9.2570    1.0000 </r>
       <r>   -8.1044    1.0000 </r>
       <r>   -7.9855    1.0000 </r>
       <r>    3.0786    0.0000 </r>
       <r>    3.9998    0.0000 </r>
       <r>    4.4958    0.0000 </r>
       <r>    5.1009    0.0000 </r>
       <r>    6.4028    0.0000 </r>
       <r>    7.0283    0.0000 </r>
       <r>    7.3539    0.0000 </r>
       <r>    9.4150    0.0000 </r>
      </set>
      <set comment="kpoint 63">
       <r>  -19.7997    1.0000 </r>
       <r>  -10.1992    1.0000 </r>
       <r>   -8.5050    1.0000 </r>
       <r>   -7.5443    1.0000 </r>
       <r>    3.7484    0.0000 </r>
       <r>    4.0749    0.0000 </r>
       <r>    4.6792    0.0000 </r>
       <r>    5.1804    0.0000 </r>
       <r>    7.0634    0.0000 </r>
       <r>    7.1712    0.0000 </r>
       <r>    7.8655    0.0000 </r>
       <r>   10.2976    0.0000 </r>
      </set>
      <set comment="kpoint 64">
       <r>  -19.2395    1.0000 </r>
       <r>  -11.2094    1.0000 </r>
       <r>   -8.9333    1.0000 </r>
       <r>   -6.9078    1.0000 </r>
       <r>    3.0178    0.0000 </r>
       <r>    4.5275    0.0000 </r>
       <r>    5.4524    0.0000 </r>
       <r>    5.9777    0.0000 </r>
       <r>    7.0840    0.0000 </r>
       <r>    7.8258    0.0000 </r>
       <r>    8.6239    0.0000 </r>
       <r>   11.3749    0.0000 </r>
      </set>
      <set comment="kpoint 65">
       <r>  -18.6066    1.0000 </r>
       <r>  -12.2415    1.0000 </r>
       <r>   -9.2735    1.0000 </r>
       <r>   -6.2099    1.0000 </r>
       <r>    1.9492    0.0000 </r>
       <r>    5.4131    0.0000 </r>
       <r>    6.3328    0.0000 </r>
       <r>    6.8515    0.0000 </r>
       <r>    6.9990    0.0000 </r>
       <r>    8.6800    0.0000 </r>
       <r>    9.5055    0.0000 </r>
       <r>   11.8955    0.0000 </r>
      </set>
      <set comment="kpoint 66">
       <r>  -17.9069    1.0000 </r>
       <r>  -13.2611    1.0000 </r>
       <r>   -9.5275    1.0000 </r>
       <r>   -5.4808    1.0000 </r>
       <r>    0.9222    0.0000 </r>
       <r>    6.3880    0.0000 </r>
       <r>    6.8540    0.0000 </r>
       <r>    7.3080    0.0000 </r>
       <r>    7.9249    0.0000 </r>
       <r>    9.5993    0.0000 </r>
       <r>   10.4939    0.0000 </r>
       <r>   12.0676    0.0000 </r>
      </set>
      <set comment="kpoint 67">
       <r>  -17.1553    1.0000 </r>
       <r>  -14.2356    1.0000 </r>
       <r>   -9.6954    1.0000 </r>
       <r>   -4.7891    1.0000 </r>
       <r>    0.0218    0.0000 </r>
       <r>    6.7270    0.0000 </r>
       <r>    7.5248    0.0000 </r>
       <r>    8.3556    0.0000 </r>
       <r>    9.0606    0.0000 </r>
       <r>   10.4764    0.0000 </r>
       <r>   11.2438    0.0000 </r>
       <r>   11.5952    0.0000 </r>
      </set>
      <set comment="kpoint 68">
       <r>  -16.4287    1.0000 </r>
       <r>  -15.0778    1.0000 </r>
       <r>   -9.7769    1.0000 </r>
       <r>   -4.3026    1.0000 </r>
       <r>   -0.5729    0.0000 </r>
       <r>    6.6893    0.0000 </r>
       <r>    8.6979    0.0000 </r>
       <r>    9.3828    0.0000 </r>
       <r>   10.0004    0.0000 </r>
       <r>   10.3117    0.0000 </r>
       <r>   10.6368    0.0000 </r>
       <r>   11.7019    0.0000 </r>
      </set>
      <set comment="kpoint 69">
       <r>  -16.4086    1.0000 </r>
       <r>  -15.1016    1.0000 </r>
       <r>   -9.7716    1.0000 </r>
       <r>   -4.2926    1.0000 </r>
       <r>   -0.5843    0.0000 </r>
       <r>    6.6874    0.0000 </r>
       <r>    8.7358    0.0000 </r>
       <r>    9.4135    0.0000 </r>
       <r>    9.9554    0.0000 </r>
       <r>   10.3489    0.0000 </r>
       <r>   10.6197    0.0000 </r>
       <r>   11.6594    0.0000 </r>
      </set>
      <set comment="kpoint 70">
       <r>  -17.1303    1.0000 </r>
       <r>  -14.2718    1.0000 </r>
       <r>   -9.6794    1.0000 </r>
       <r>   -4.7669    1.0000 </r>
       <r>   -0.0046    0.0000 </r>
       <r>    6.7231    0.0000 </r>
       <r>    7.5558    0.0000 </r>
       <r>    8.3910    0.0000 </r>
       <r>    9.0947    0.0000 </r>
       <r>   10.5056    0.0000 </r>
       <r>   11.1821    0.0000 </r>
       <r>   11.6286    0.0000 </r>
      </set>
      <set comment="kpoint 71">
       <r>  -17.8838    1.0000 </r>
       <r>  -13.3032    1.0000 </r>
       <r>   -9.5006    1.0000 </r>
       <r>   -5.4551    1.0000 </r>
       <r>    0.8904    0.0000 </r>
       <r>    6.4230    0.0000 </r>
       <r>    6.8395    0.0000 </r>
       <r>    7.3407    0.0000 </r>
       <r>    7.9551    0.0000 </r>
       <r>    9.6325    0.0000 </r>
       <r>   10.5247    0.0000 </r>
       <r>   12.0724    0.0000 </r>
      </set>
      <set comment="kpoint 72">
       <r>  -18.5861    1.0000 </r>
       <r>  -12.2894    1.0000 </r>
       <r>   -9.2355    1.0000 </r>
       <r>   -6.1844    1.0000 </r>
       <r>    1.9170    0.0000 </r>
       <r>    5.4425    0.0000 </r>
       <r>    6.3622    0.0000 </r>
       <r>    6.8707    0.0000 </r>
       <r>    6.9938    0.0000 </r>
       <r>    8.7100    0.0000 </r>
       <r>    9.5320    0.0000 </r>
       <r>   11.9298    0.0000 </r>
      </set>
      <set comment="kpoint 73">
       <r>  -19.2215    1.0000 </r>
       <r>  -11.2631    1.0000 </r>
       <r>   -8.8845    1.0000 </r>
       <r>   -6.8841    1.0000 </r>
       <r>    2.9884    0.0000 </r>
       <r>    4.5530    0.0000 </r>
       <r>    5.4785    0.0000 </r>
       <r>    6.0029    0.0000 </r>
       <r>    7.0752    0.0000 </r>
       <r>    7.8521    0.0000 </r>
       <r>    8.6456    0.0000 </r>
       <r>   11.0120    0.0000 </r>
      </set>
      <set comment="kpoint 74">
       <r>  -19.7842    1.0000 </r>
       <r>  -10.2577    1.0000 </r>
       <r>   -8.4471    1.0000 </r>
       <r>   -7.5232    1.0000 </r>
       <r>    3.7704    0.0000 </r>
       <r>    4.0502    0.0000 </r>
       <r>    4.7027    0.0000 </r>
       <r>    5.2020    0.0000 </r>
       <r>    7.0860    0.0000 </r>
       <r>    7.1796    0.0000 </r>
       <r>    7.8801    0.0000 </r>
       <r>   10.0020    0.0000 </r>
      </set>
      <set comment="kpoint 75">
       <r>  -20.2709    1.0000 </r>
       <r>   -9.3146    1.0000 </r>
       <r>   -8.0862    1.0000 </r>
       <r>   -7.9252    1.0000 </r>
       <r>    3.0972    0.0000 </r>
       <r>    4.0174    0.0000 </r>
       <r>    4.5141    0.0000 </r>
       <r>    5.0859    0.0000 </r>
       <r>    6.4219    0.0000 </r>
       <r>    7.0612    0.0000 </r>
       <r>    7.3653    0.0000 </r>
       <r>    9.1014    0.0000 </r>
      </set>
      <set comment="kpoint 76">
       <r>  -20.6792    1.0000 </r>
       <r>   -8.5641    1.0000 </r>
       <r>   -8.4741    1.0000 </r>
       <r>   -7.3371    1.0000 </r>
       <r>    2.5348    0.0000 </r>
       <r>    3.4563    0.0000 </r>
       <r>    3.9401    0.0000 </r>
       <r>    5.8644    0.0000 </r>
       <r>    6.0308    0.0000 </r>
       <r>    6.5707    0.0000 </r>
       <r>    7.1127    0.0000 </r>
       <r>    8.5064    0.0000 </r>
      </set>
      <set comment="kpoint 77">
       <r>  -21.1392    1.0000 </r>
       <r>   -9.1098    1.0000 </r>
       <r>   -7.5636    1.0000 </r>
       <r>   -6.3707    1.0000 </r>
       <r>    1.9027    0.0000 </r>
       <r>    2.8229    0.0000 </r>
       <r>    3.2964    0.0000 </r>
       <r>    5.2348    0.0000 </r>
       <r>    5.9150    0.0000 </r>
       <r>    6.2629    0.0000 </r>
       <r>    7.1836    0.0000 </r>
       <r>    9.0874    0.0000 </r>
      </set>
      <set comment="kpoint 78">
       <r>  -20.9357    1.0000 </r>
       <r>   -8.8697    1.0000 </r>
       <r>   -8.0915    1.0000 </r>
       <r>   -6.7093    1.0000 </r>
       <r>    2.1812    0.0000 </r>
       <r>    3.1020    0.0000 </r>
       <r>    3.5804    0.0000 </r>
       <r>    5.5090    0.0000 </r>
       <r>    6.1412    0.0000 </r>
       <r>    6.4359    0.0000 </r>
       <r>    6.6281    0.0000 </r>
       <r>    9.3524    0.0000 </r>
      </set>
      <set comment="kpoint 79">
       <r>  -20.6512    1.0000 </r>
       <r>   -8.6674    1.0000 </r>
       <r>   -8.5351    1.0000 </r>
       <r>   -7.2638    1.0000 </r>
       <r>    2.5721    0.0000 </r>
       <r>    3.4929    0.0000 </r>
       <r>    3.9790    0.0000 </r>
       <r>    5.8320    0.0000 </r>
       <r>    5.9860    0.0000 </r>
       <r>    6.5276    0.0000 </r>
       <r>    6.8400    0.0000 </r>
       <r>    9.3285    0.0000 </r>
      </set>
      <set comment="kpoint 80">
       <r>  -20.2865    1.0000 </r>
       <r>   -9.2836    1.0000 </r>
       <r>   -8.1086    1.0000 </r>
       <r>   -7.9549    1.0000 </r>
       <r>    3.0749    0.0000 </r>
       <r>    3.9945    0.0000 </r>
       <r>    4.4920    0.0000 </r>
       <r>    5.0954    0.0000 </r>
       <r>    6.4009    0.0000 </r>
       <r>    7.0509    0.0000 </r>
       <r>    7.4083    0.0000 </r>
       <r>    9.3434    0.0000 </r>
      </set>
      <set comment="kpoint 81">
       <r>  -19.8432    1.0000 </r>
       <r>   -9.9712    1.0000 </r>
       <r>   -8.6649    1.0000 </r>
       <r>   -7.5945    1.0000 </r>
       <r>    3.6887    0.0000 </r>
       <r>    4.1953    0.0000 </r>
       <r>    4.6076    0.0000 </r>
       <r>    5.1193    0.0000 </r>
       <r>    6.9995    0.0000 </r>
       <r>    7.6362    0.0000 </r>
       <r>    7.9872    0.0000 </r>
       <r>    9.5137    0.0000 </r>
      </set>
      <set comment="kpoint 82">
       <r>  -19.3232    1.0000 </r>
       <r>  -10.7753    1.0000 </r>
       <r>   -9.2770    1.0000 </r>
       <r>   -6.9993    1.0000 </r>
       <r>    3.2377    0.0000 </r>
       <r>    4.4124    0.0000 </r>
       <r>    5.3240    0.0000 </r>
       <r>    5.8605    0.0000 </r>
       <r>    7.6994    0.0000 </r>
       <r>    8.0108    0.0000 </r>
       <r>    8.5479    0.0000 </r>
       <r>   10.1235    0.0000 </r>
      </set>
      <set comment="kpoint 83">
       <r>  -18.7294    1.0000 </r>
       <r>  -11.6873    1.0000 </r>
       <r>   -9.7456    1.0000 </r>
       <r>   -6.3337    1.0000 </r>
       <r>    2.2454    0.0000 </r>
       <r>    5.2443    0.0000 </r>
       <r>    6.1424    0.0000 </r>
       <r>    6.7144    0.0000 </r>
       <r>    8.0087    0.0000 </r>
       <r>    8.4861    0.0000 </r>
       <r>    9.3407    0.0000 </r>
       <r>   11.0125    0.0000 </r>
      </set>
      <set comment="kpoint 84">
       <r>  -18.0664    1.0000 </r>
       <r>  -12.6515    1.0000 </r>
       <r>  -10.0860    1.0000 </r>
       <r>   -5.6172    1.0000 </r>
       <r>    1.2537    0.0000 </r>
       <r>    6.1807    0.0000 </r>
       <r>    7.0500    0.0000 </r>
       <r>    7.6687    0.0000 </r>
       <r>    7.9252    0.0000 </r>
       <r>    9.3240    0.0000 </r>
       <r>   10.2670    0.0000 </r>
       <r>   11.7401    0.0000 </r>
      </set>
      <set comment="kpoint 85">
       <r>  -17.3433    1.0000 </r>
       <r>  -13.6150    1.0000 </r>
       <r>  -10.3183    1.0000 </r>
       <r>   -4.8909    1.0000 </r>
       <r>    0.3177    0.0000 </r>
       <r>    7.2086    0.0000 </r>
       <r>    7.8164    0.0000 </r>
       <r>    8.0155    0.0000 </r>
       <r>    8.7709    0.0000 </r>
       <r>   10.0998    0.0000 </r>
       <r>   11.2854    0.0000 </r>
       <r>   11.7592    0.0000 </r>
      </set>
      <set comment="kpoint 86">
       <r>  -16.5898    1.0000 </r>
       <r>  -14.5230    1.0000 </r>
       <r>  -10.4522    1.0000 </r>
       <r>   -4.2578    1.0000 </r>
       <r>   -0.4474    0.0000 </r>
       <r>    7.7148    0.0000 </r>
       <r>    8.3748    0.0000 </r>
       <r>    8.9330    0.0000 </r>
       <r>    9.9578    0.0000 </r>
       <r>   10.5735    0.0000 </r>
       <r>   10.8373    0.0000 </r>
       <r>   11.9926    0.0000 </r>
      </set>
      <set comment="kpoint 87">
       <r>  -16.0614    1.0000 </r>
       <r>  -15.1076    1.0000 </r>
       <r>  -10.4920    1.0000 </r>
       <r>   -3.9644    1.0000 </r>
       <r>   -0.7867    0.0000 </r>
       <r>    7.6995    0.0000 </r>
       <r>    9.4123    0.0000 </r>
       <r>    9.4978    0.0000 </r>
       <r>    9.6929    0.0000 </r>
       <r>   10.7430    0.0000 </r>
       <r>   11.2492    0.0000 </r>
       <r>   11.3124    0.0000 </r>
      </set>
      <set comment="kpoint 88">
       <r>  -16.5564    1.0000 </r>
       <r>  -14.5670    1.0000 </r>
       <r>  -10.4385    1.0000 </r>
       <r>   -4.2331    1.0000 </r>
       <r>   -0.4750    0.0000 </r>
       <r>    7.7154    0.0000 </r>
       <r>    8.4179    0.0000 </r>
       <r>    8.9735    0.0000 </r>
       <r>   10.0054    0.0000 </r>
       <r>   10.5870    0.0000 </r>
       <r>   10.7642    0.0000 </r>
       <r>   11.9961    0.0000 </r>
      </set>
      <set comment="kpoint 89">
       <r>  -17.3108    1.0000 </r>
       <r>  -13.6691    1.0000 </r>
       <r>  -10.2905    1.0000 </r>
       <r>   -4.8569    1.0000 </r>
       <r>    0.2788    0.0000 </r>
       <r>    7.2574    0.0000 </r>
       <r>    7.8035    0.0000 </r>
       <r>    8.0599    0.0000 </r>
       <r>    8.8133    0.0000 </r>
       <r>   10.1380    0.0000 </r>
       <r>   11.3210    0.0000 </r>
       <r>   11.6717    0.0000 </r>
      </set>
      <set comment="kpoint 90">
       <r>  -18.0371    1.0000 </r>
       <r>  -12.7136    1.0000 </r>
       <r>  -10.0442    1.0000 </r>
       <r>   -5.5820    1.0000 </r>
       <r>    1.2130    0.0000 </r>
       <r>    6.2219    0.0000 </r>
       <r>    7.0909    0.0000 </r>
       <r>    7.7088    0.0000 </r>
       <r>    7.9136    0.0000 </r>
       <r>    9.3650    0.0000 </r>
       <r>   10.3039    0.0000 </r>
       <r>   11.5505    0.0000 </r>
      </set>
      <set comment="kpoint 91">
       <r>  -18.7036    1.0000 </r>
       <r>  -11.7564    1.0000 </r>
       <r>   -9.6908    1.0000 </r>
       <r>   -6.3003    1.0000 </r>
       <r>    2.2082    0.0000 </r>
       <r>    5.2803    0.0000 </r>
[...]
       <r>    9.8528    0.0000 </r>
       <r>   10.6293    0.0000 </r>
       <r>   11.5938    0.0000 </r>
      </set>
      <set comment="kpoint 150">
       <r>  -17.4188    1.0000 </r>
       <r>  -14.4506    1.0000 </r>
       <r>   -8.6395    1.0000 </r>
       <r>   -5.1403    1.0000 </r>
       <r>    0.1317    0.0000 </r>
       <r>    5.5975    0.0000 </r>
       <r>    7.1583    0.0000 </r>
       <r>    8.0983    0.0000 </r>
       <r>    8.6806    0.0000 </r>
       <r>   10.4090    0.0000 </r>
       <r>   10.9384    0.0000 </r>
       <r>   11.2397    0.0000 </r>
      </set>
      <set comment="kpoint 151">
       <r>  -16.9649    1.0000 </r>
       <r>  -14.8225    1.0000 </r>
       <r>   -9.0827    1.0000 </r>
       <r>   -4.7641    1.0000 </r>
       <r>   -0.2414    0.0000 </r>
       <r>    6.1121    0.0000 </r>
       <r>    7.8582    0.0000 </r>
       <r>    8.7575    0.0000 </r>
       <r>    9.4140    0.0000 </r>
       <r>   10.3774    0.0000 </r>
       <r>   10.8330    0.0000 </r>
       <r>   11.4380    0.0000 </r>
      </set>
      <set comment="kpoint 152">
       <r>  -16.5045    1.0000 </r>
       <r>  -15.0656    1.0000 </r>
       <r>   -9.7027    1.0000 </r>
       <r>   -4.3931    1.0000 </r>
       <r>   -0.5315    0.0000 </r>
       <r>    6.9205    0.0000 </r>
       <r>    8.6500    0.0000 </r>
       <r>    9.3655    0.0000 </r>
       <r>    9.9011    0.0000 </r>
       <r>   10.2635    0.0000 </r>
       <r>   10.5795    0.0000 </r>
       <r>   11.5999    0.0000 </r>
      </set>
      <set comment="kpoint 153">
       <r>  -16.1654    1.0000 </r>
       <r>  -15.0588    1.0000 </r>
       <r>  -10.4298    1.0000 </r>
       <r>   -4.0610    1.0000 </r>
       <r>   -0.7286    0.0000 </r>
       <r>    7.9392    0.0000 </r>
       <r>    9.4115    0.0000 </r>
       <r>    9.4188    0.0000 </r>
       <r>    9.6330    0.0000 </r>
       <r>   10.6696    0.0000 </r>
       <r>   11.1896    0.0000 </r>
       <r>   11.2289    0.0000 </r>
      </set>
      <set comment="kpoint 154">
       <r>  -17.0753    1.0000 </r>
       <r>  -14.9228    1.0000 </r>
       <r>   -8.5511    1.0000 </r>
       <r>   -4.9114    1.0000 </r>
       <r>   -0.2050    0.0000 </r>
       <r>    5.3872    0.0000 </r>
       <r>    7.6981    0.0000 </r>
       <r>    8.6479    0.0000 </r>
       <r>    9.2442    0.0000 </r>
       <r>   10.2489    0.0000 </r>
       <r>   10.8788    0.0000 </r>
       <r>   11.2889    0.0000 </r>
      </set>
      <set comment="kpoint 155">
       <r>  -16.7201    1.0000 </r>
       <r>  -15.2708    1.0000 </r>
       <r>   -8.7203    1.0000 </r>
       <r>   -4.6930    1.0000 </r>
       <r>   -0.4423    0.0000 </r>
       <r>    5.5608    0.0000 </r>
       <r>    8.3404    0.0000 </r>
       <r>    9.2715    0.0000 </r>
       <r>    9.6205    0.0000 </r>
       <r>    9.9252    0.0000 </r>
       <r>   10.5302    0.0000 </r>
       <r>   11.2708    0.0000 </r>
      </set>
      <set comment="kpoint 156">
       <r>  -16.4842    1.0000 </r>
       <r>  -15.3628    1.0000 </r>
       <r>   -9.1237    1.0000 </r>
       <r>   -4.5140    1.0000 </r>
       <r>   -0.5519    0.0000 </r>
       <r>    6.0937    0.0000 </r>
       <r>    8.9975    0.0000 </r>
       <r>    9.1729    0.0000 </r>
       <r>    9.7535    0.0000 </r>
       <r>   10.1569    0.0000 </r>
       <r>   10.6945    0.0000 </r>
       <r>   10.7242    0.0000 </r>
      </set>
      <set comment="kpoint 157">
       <r>  -16.5905    1.0000 </r>
       <r>  -15.4690    1.0000 </r>
       <r>   -8.5915    1.0000 </r>
       <r>   -4.6656    1.0000 </r>
       <r>   -0.5156    0.0000 </r>
       <r>    5.3683    0.0000 </r>
       <r>    8.8522    0.0000 </r>
       <r>    9.0170    0.0000 </r>
       <r>    9.7732    0.0000 </r>
       <r>    9.9859    0.0000 </r>
       <r>   10.5279    0.0000 </r>
       <r>   10.5552    0.0000 </r>
      </set>
     </set>
    </set>
   </array>
  </eigenvalues>
  <separator name="orbital magnetization" >
   <v name="MAGDIPOLOUT">      0.00000000      0.00000000      0.00000000</v>
  </separator>
  <dos>
   <i name="efermi">     -2.22389235 </i>
   <total>
    <array>
     <dimension dim="1">gridpoints</dimension>
     <dimension dim="2">spin</dimension>
     <field>energy</field>
     <field>total</field>
     <field>integrated</field>
     <set>
      <set comment="spin 1">
       <r>   -23.5424     0.0000     0.0000 </r>
       <r>   -23.4141     0.0000     0.0000 </r>
       <r>   -23.2858     0.0000     0.0000 </r>
       <r>   -23.1574     0.0000     0.0000 </r>
       <r>   -23.0291     0.0000     0.0000 </r>
       <r>   -22.9008     0.0000     0.0000 </r>
       <r>   -22.7724     0.0000     0.0000 </r>
       <r>   -22.6441     0.0000     0.0000 </r>
       <r>   -22.5158     0.0000     0.0000 </r>
       <r>   -22.3874     0.0000     0.0000 </r>
       <r>   -22.2591     0.0000     0.0000 </r>
       <r>   -22.1308     0.0000     0.0000 </r>
       <r>   -22.0024     0.0000     0.0000 </r>
       <r>   -21.8741     0.0000     0.0000 </r>
       <r>   -21.7457     0.1325     0.0170 </r>
       <r>   -21.6174     0.3433     0.0611 </r>
       <r>   -21.4891     0.3166     0.1017 </r>
       <r>   -21.3607     0.2086     0.1285 </r>
       <r>   -21.2324     0.4749     0.1894 </r>
       <r>   -21.1041     0.1719     0.2115 </r>
       <r>   -20.9757     0.3253     0.2533 </r>
       <r>   -20.8474     0.3243     0.2951 </r>
       <r>   -20.7191     0.1644     0.3162 </r>
       <r>   -20.5907     0.4848     0.3785 </r>
       <r>   -20.4624     0.3247     0.4201 </r>
       <r>   -20.3341     0.0318     0.4242 </r>
       <r>   -20.2057     0.5679     0.4971 </r>
       <r>   -20.0774     0.2144     0.5246 </r>
       <r>   -19.9491     0.3223     0.5660 </r>
       <r>   -19.8207     0.1710     0.5879 </r>
       <r>   -19.6924     0.5345     0.6565 </r>
       <r>   -19.5640     0.2686     0.6910 </r>
       <r>   -19.4357     0.3220     0.7323 </r>
       <r>   -19.3074     0.2301     0.7619 </r>
       <r>   -19.1790     0.5540     0.8330 </r>
       <r>   -19.0507     0.3292     0.8753 </r>
       <r>   -18.9224     0.0243     0.8785 </r>
       <r>   -18.7940     0.3309     0.9209 </r>
       <r>   -18.6657     0.4792     0.9826 </r>
       <r>   -18.5374     0.3723     1.0304 </r>
       <r>   -18.4090     0.2712     1.0653 </r>
       <r>   -18.2807     0.1680     1.0868 </r>
       <r>   -18.1524     0.1930     1.1116 </r>
       <r>   -18.0240     0.7617     1.2093 </r>
       <r>   -17.8957     0.2337     1.2393 </r>
       <r>   -17.7674     0.2481     1.2712 </r>
       <r>   -17.6390     0.3365     1.3144 </r>
       <r>   -17.5107     0.0468     1.3205 </r>
       <r>   -17.3823     0.6024     1.3979 </r>
       <r>   -17.2540     0.4975     1.4618 </r>
       <r>   -17.1257     0.2825     1.4981 </r>
       <r>   -16.9973     0.1831     1.5216 </r>
       <r>   -16.8690     0.3394     1.5651 </r>
       <r>   -16.7407     0.3988     1.6163 </r>
       <r>   -16.6123     0.6738     1.7028 </r>
       <r>   -16.4840     0.4122     1.7557 </r>
       <r>   -16.3557     0.3816     1.8047 </r>
       <r>   -16.2273     0.0068     1.8056 </r>
       <r>   -16.0990     0.1683     1.8272 </r>
       <r>   -15.9707     0.7699     1.9260 </r>
       <r>   -15.8423     0.0355     1.9306 </r>
       <r>   -15.7140     0.0000     1.9306 </r>
       <r>   -15.5857     0.0541     1.9375 </r>
       <r>   -15.4573     0.2104     1.9645 </r>
       <r>   -15.3290     0.4577     2.0232 </r>
       <r>   -15.2006     0.3325     2.0660 </r>
       <r>   -15.0723     0.3276     2.1080 </r>
       <r>   -14.9440     0.1672     2.1296 </r>
       <r>   -14.8156     0.4200     2.1835 </r>
       <r>   -14.6873     0.5545     2.2546 </r>
       <r>   -14.5590     0.1838     2.2782 </r>
       <r>   -14.4306     0.6412     2.3605 </r>
       <r>   -14.3023     0.2504     2.3926 </r>
       <r>   -14.1740     0.5007     2.4569 </r>
       <r>   -14.0456     0.1467     2.4757 </r>
       <r>   -13.9173     0.4766     2.5369 </r>
       <r>   -13.7890     0.4970     2.6007 </r>
       <r>   -13.6606     0.1079     2.6145 </r>
       <r>   -13.5323     0.2170     2.6424 </r>
       <r>   -13.4039     0.5861     2.7176 </r>
       <r>   -13.2756     0.2904     2.7549 </r>
       <r>   -13.1473     0.0973     2.7674 </r>
       <r>   -13.0189     0.2925     2.8049 </r>
       <r>   -12.8906     0.2628     2.8386 </r>
       <r>   -12.7623     0.3672     2.8858 </r>
       <r>   -12.6339     0.4185     2.9395 </r>
       <r>   -12.5056     0.3359     2.9826 </r>
       <r>   -12.3773     0.2398     3.0134 </r>
       <r>   -12.2489     0.5075     3.0786 </r>
       <r>   -12.1206     0.3883     3.1285 </r>
       <r>   -11.9923     0.0730     3.1378 </r>
       <r>   -11.8639     0.4935     3.2012 </r>
       <r>   -11.7356     0.5482     3.2715 </r>
       <r>   -11.6073     0.5084     3.3368 </r>
       <r>   -11.4789     0.0473     3.3429 </r>
       <r>   -11.3506     0.1240     3.3588 </r>
       <r>   -11.2222     0.7816     3.4591 </r>
       <r>   -11.0939     0.5943     3.5355 </r>
       <r>   -10.9656     0.0756     3.5452 </r>
       <r>   -10.8372     0.4020     3.5967 </r>
       <r>   -10.7089     0.6782     3.6840 </r>
       <r>   -10.5806     0.0546     3.6911 </r>
       <r>   -10.4522     0.5067     3.7561 </r>
       <r>   -10.3239     0.3420     3.8001 </r>
       <r>   -10.1956     0.7659     3.8983 </r>
       <r>   -10.0672     0.2730     3.9335 </r>
       <r>    -9.9389     0.5040     3.9982 </r>
       <r>    -9.8106     0.2251     4.0273 </r>
       <r>    -9.6822     1.1647     4.1767 </r>
       <r>    -9.5539     0.6936     4.2658 </r>
       <r>    -9.4256     0.7227     4.3585 </r>
       <r>    -9.2972     0.2326     4.3884 </r>
       <r>    -9.1689     1.4178     4.5703 </r>
       <r>    -9.0405     0.8836     4.6838 </r>
       <r>    -8.9122     0.6729     4.7702 </r>
       <r>    -8.7839     0.9630     4.8939 </r>
       <r>    -8.6555     0.9212     5.0122 </r>
       <r>    -8.5272     1.4012     5.1920 </r>
       <r>    -8.3989     1.1344     5.3378 </r>
       <r>    -8.2705     0.5897     5.4135 </r>
       <r>    -8.1422     0.5033     5.4782 </r>
       <r>    -8.0139     1.0581     5.6140 </r>
       <r>    -7.8855     0.8698     5.7257 </r>
       <r>    -7.7572     0.4755     5.7867 </r>
       <r>    -7.6289     0.7197     5.8791 </r>
       <r>    -7.5005     1.0705     6.0165 </r>
       <r>    -7.3722     0.4087     6.0691 </r>
       <r>    -7.2439     0.5093     6.1346 </r>
       <r>    -7.1155     0.9355     6.2546 </r>
       <r>    -6.9872     0.2958     6.2927 </r>
       <r>    -6.8588     0.7589     6.3900 </r>
       <r>    -6.7305     0.8102     6.4940 </r>
       <r>    -6.6022     0.5045     6.5588 </r>
       <r>    -6.4738     0.2001     6.5845 </r>
       <r>    -6.3455     0.5324     6.6528 </r>
       <r>    -6.2172     1.1906     6.8057 </r>
       <r>    -6.0888     0.3509     6.8508 </r>
       <r>    -5.9605     0.3883     6.9006 </r>
       <r>    -5.8322     0.5246     6.9681 </r>
       <r>    -5.7038     0.6062     7.0459 </r>
       <r>    -5.5755     0.6899     7.1345 </r>
       <r>    -5.4472     0.5807     7.2091 </r>
       <r>    -5.3188     0.5452     7.2792 </r>
       <r>    -5.1905     0.2857     7.3160 </r>
       <r>    -5.0622     0.2034     7.3421 </r>
       <r>    -4.9338     0.5562     7.4135 </r>
       <r>    -4.8055     0.6452     7.4963 </r>
       <r>    -4.6771     0.5228     7.5634 </r>
       <r>    -4.5488     0.4178     7.6170 </r>
       <r>    -4.4205     0.0971     7.6294 </r>
       <r>    -4.2921     0.5345     7.6980 </r>
       <r>    -4.1638     0.8370     7.8055 </r>
       <r>    -4.0355     0.0522     7.8123 </r>
       <r>    -3.9071     0.1102     7.8264 </r>
       <r>    -3.7788     0.1012     7.8394 </r>
       <r>    -3.6505     0.2328     7.8693 </r>
       <r>    -3.5221     0.4136     7.9223 </r>
       <r>    -3.3938     0.0636     7.9306 </r>
       <r>    -3.2655     0.0542     7.9375 </r>
       <r>    -3.1371     0.1081     7.9514 </r>
       <r>    -3.0088     0.0000     7.9514 </r>
       <r>    -2.8805     0.2180     7.9794 </r>
       <r>    -2.7521     0.1067     7.9931 </r>
       <r>    -2.6238     0.0000     7.9931 </r>
       <r>    -2.4954     0.0000     7.9931 </r>
       <r>    -2.3671     0.0000     7.9931 </r>
       <r>    -2.2388     0.0539     8.0000 </r>
       <r>    -2.1104     0.0541     8.0069 </r>
       <r>    -1.9821     0.0000     8.0069 </r>
       <r>    -1.8538     0.0000     8.0069 </r>
       <r>    -1.7254     0.0000     8.0069 </r>
       <r>    -1.5971     0.0761     8.0167 </r>
       <r>    -1.4688     0.2486     8.0486 </r>
       <r>    -1.3404     0.0001     8.0486 </r>
       <r>    -1.2121     0.1496     8.0678 </r>
       <r>    -1.0838     0.0127     8.0694 </r>
       <r>    -0.9554     0.1182     8.0846 </r>
       <r>    -0.8271     0.6691     8.1705 </r>
       <r>    -0.6988     0.1857     8.1943 </r>
       <r>    -0.5704     0.2714     8.2291 </r>
       <r>    -0.4421     0.7490     8.3253 </r>
       <r>    -0.3137     0.3057     8.3647 </r>
       <r>    -0.1854     0.8931     8.4793 </r>
       <r>    -0.0571     0.1338     8.4965 </r>
       <r>     0.0713     0.3244     8.5382 </r>
       <r>     0.1996     0.3240     8.5799 </r>
       <r>     0.3279     0.2551     8.6126 </r>
       <r>     0.4563     0.0702     8.6216 </r>
       <r>     0.5846     0.8430     8.7298 </r>
       <r>     0.7129     0.1301     8.7465 </r>
       <r>     0.8413     0.0000     8.7465 </r>
       <r>     0.9696     0.3246     8.7882 </r>
       <r>     1.0979     0.5106     8.8537 </r>
       <r>     1.2263     0.3007     8.8923 </r>
       <r>     1.3546     0.3521     8.9375 </r>
       <r>     1.4829     0.6589     9.0221 </r>
       <r>     1.6113     0.6352     9.1036 </r>
       <r>     1.7396     0.3173     9.1444 </r>
       <r>     1.8680     0.1743     9.1667 </r>
       <r>     1.9963     0.6440     9.2494 </r>
       <r>     2.1246     0.7232     9.3422 </r>
       <r>     2.2530     0.8866     9.4560 </r>
       <r>     2.3813     0.5422     9.5256 </r>
       <r>     2.5096     0.5321     9.5939 </r>
       <r>     2.6380     1.2548     9.7549 </r>
       <r>     2.7663     0.8036     9.8584 </r>
       <r>     2.8946     0.5532     9.9294 </r>
       <r>     3.0230     0.7749    10.0288 </r>
       <r>     3.1513     1.2630    10.1910 </r>
       <r>     3.2796     0.9693    10.3155 </r>
       <r>     3.4080     0.4590    10.3746 </r>
       <r>     3.5363     1.0263    10.5064 </r>
       <r>     3.6646     0.4851    10.5687 </r>
       <r>     3.7930     1.1480    10.7160 </r>
       <r>     3.9213     0.5848    10.7912 </r>
       <r>     4.0497     1.1247    10.9355 </r>
       <r>     4.1780     0.9791    11.0613 </r>
       <r>     4.3063     0.7127    11.1528 </r>
       <r>     4.4347     0.4766    11.2140 </r>
       <r>     4.5630     1.1783    11.3652 </r>
       <r>     4.6913     1.1671    11.5151 </r>
       <r>     4.8197     0.9830    11.6413 </r>
       <r>     4.9480     1.0907    11.7812 </r>
       <r>     5.0763     0.6693    11.8671 </r>
       <r>     5.2047     2.0064    12.1246 </r>
       <r>     5.3330     1.4297    12.3084 </r>
       <r>     5.4613     2.0770    12.5750 </r>
       <r>     5.5897     1.6391    12.7853 </r>
       <r>     5.7180     1.7151    13.0056 </r>
       <r>     5.8463     1.3382    13.1774 </r>
       <r>     5.9747     1.9764    13.4311 </r>
       <r>     6.1030     2.4697    13.7482 </r>
       <r>     6.2314     3.0779    14.1433 </r>
       <r>     6.3597     1.5888    14.3472 </r>
       <r>     6.4880     1.8820    14.5888 </r>
       <r>     6.6164     2.0535    14.8524 </r>
       <r>     6.7447     2.0418    15.1145 </r>
       <r>     6.8730     1.9681    15.3672 </r>
       <r>     7.0014     1.2173    15.5237 </r>
       <r>     7.1297     2.7741    15.8798 </r>
       <r>     7.2580     1.7985    16.1106 </r>
       <r>     7.3864     1.3809    16.2879 </r>
       <r>     7.5147     0.5009    16.3524 </r>
       <r>     7.6430     2.0290    16.6128 </r>
       <r>     7.7714     1.8271    16.8474 </r>
       <r>     7.8997     1.7265    17.0691 </r>
       <r>     8.0280     2.2550    17.3586 </r>
       <r>     8.1564     1.9609    17.6103 </r>
       <r>     8.2847     0.9744    17.7354 </r>
       <r>     8.4131     2.0999    18.0049 </r>
       <r>     8.5414     1.8475    18.2422 </r>
       <r>     8.6697     1.9713    18.4953 </r>
       <r>     8.7981     1.7830    18.7242 </r>
       <r>     8.9264     1.5118    18.9182 </r>
       <r>     9.0547     1.7943    19.1486 </r>
       <r>     9.1831     1.5820    19.3518 </r>
       <r>     9.3114     1.2621    19.5138 </r>
       <r>     9.4397     2.6889    19.8589 </r>
       <r>     9.5681     0.8654    19.9702 </r>
       <r>     9.6964     1.2262    20.1276 </r>
       <r>     9.8247     1.3355    20.2990 </r>
       <r>     9.9531     1.4313    20.4829 </r>
       <r>    10.0814     2.0128    20.7412 </r>
       <r>    10.2097     2.0986    21.0107 </r>
       <r>    10.3381     1.7119    21.2305 </r>
       <r>    10.4664     1.2313    21.3889 </r>
       <r>    10.5948     1.9616    21.6406 </r>
       <r>    10.7231     1.2957    21.8070 </r>
       <r>    10.8514     2.5126    22.1295 </r>
       <r>    10.9798     1.5621    22.3300 </r>
       <r>    11.1081     1.3914    22.5087 </r>
       <r>    11.2364     1.4278    22.6920 </r>
       <r>    11.3648     1.8801    22.9332 </r>
       <r>    11.4931     0.5333    23.0017 </r>
       <r>    11.6214     1.2975    23.1682 </r>
       <r>    11.7498     1.4223    23.3509 </r>
       <r>    11.8781     0.3661    23.3980 </r>
       <r>    12.0064     1.2828    23.5627 </r>
       <r>    12.1348     1.2244    23.7199 </r>
       <r>    12.2631     0.4807    23.7816 </r>
       <r>    12.3914     0.7213    23.8742 </r>
       <r>    12.5198     0.0060    23.8750 </r>
       <r>    12.6481     0.0000    23.8750 </r>
       <r>    12.7765     0.1614    23.8957 </r>
       <r>    12.9048     0.3772    23.9441 </r>
       <r>    13.0331     0.1111    23.9584 </r>
       <r>    13.1615     0.2162    23.9861 </r>
       <r>    13.2898     0.1082    24.0000 </r>
       <r>    13.4181     0.0000    24.0000 </r>
       <r>    13.5465     0.0000    24.0000 </r>
       <r>    13.6748     0.0000    24.0000 </r>
       <r>    13.8031     0.0000    24.0000 </r>
       <r>    13.9315     0.0000    24.0000 </r>
       <r>    14.0598     0.0000    24.0000 </r>
       <r>    14.1881     0.0000    24.0000 </r>
       <r>    14.3165     0.0000    24.0000 </r>
       <r>    14.4448     0.0000    24.0000 </r>
       <r>    14.5731     0.0000    24.0000 </r>
       <r>    14.7015     0.0000    24.0000 </r>
       <r>    14.8298     0.0000    24.0000 </r>
       <r>    14.9582     0.0000    24.0000 </r>
      </set>
     </set>
    </array>
   </total>
  </dos>
 </calculation>
 <structure name="finalpos" >
  <crystal>
   <varray name="basis" >
    <v>       2.45253800       0.00000000       0.00000000 </v>
    <v>      -1.22626900       2.13736100       0.00000000 </v>
    <v>       0.00000000       0.00000000      15.00000000 </v>
   </varray>
   <i name="volume">     78.62938608 </i>
   <varray name="rec_basis" >
    <v>       0.40774088       0.23393334       0.00000000 </v>
    <v>       0.00000000       0.46786668       0.00000000 </v>
    <v>       0.00000000       0.00000000       0.06666667 </v>
   </varray>
  </crystal>
  <varray name="positions" >
   <v>       0.99979081       0.99958163       0.50000000 </v>
   <v>       0.33354219       0.66708537       0.50000000 </v>
  </varray>
 </structure>
</modeling>
