<?xml version="1.0" encoding="ISO-8859-1"?>
<modeling>
 <generator>
  <i name="program" type="string">vasp </i>
  <i name="version" type="string">5.4.1  </i>
  <i name="subversion" type="string">24Jun15 (build Nov 20 2020 10:29:34) complex                          parallel </i>
  <i name="platform" type="string">IFC91_ompi </i>
  <i name="date" type="string">2021 09 14 </i>
  <i name="time" type="string">00:24:20 </i>
 </generator>
 <incar>
  <i type="int" name="ISTART">     1</i>
  <i type="string" name="PREC">a</i>
  <i type="string" name="ALGO"> Normal</i>
  <i type="int" name="ISPIN">     1</i>
  <i type="int" name="ICHARG">     2</i>
  <i type="int" name="NELM">   250</i>
  <i type="int" name="NELMDL">    -5</i>
  <i type="int" name="NELMIN">     6</i>
  <i type="int" name="IBRION">     2</i>
  <i name="EDIFF">      0.00001000</i>
  <i name="EDIFFG">     -0.00500000</i>
  <i type="int" name="NSW">     0</i>
  <i type="int" name="ISIF">     2</i>
  <i name="ENCUT">    520.00000000</i>
  <i name="POTIM">      0.25000000</i>
  <v name="MAGMOM">      0.60000000      0.60000000</v>
  <i type="string" name="LREAL"> Auto</i>
  <i type="int" name="ISMEAR">     0</i>
  <i name="SIGMA">      0.02000000</i>
  <i type="logical" name="LWAVE"> F  </i>
  <i type="logical" name="LCHARG"> F  </i>
  <i type="logical" name="LVHAR"> F  </i>
  <v type="int" name="KPOINT_BSE">    -1     0     0     0</v>
  <i type="int" name="NELM">   250</i>
 </incar>
 <kpoints>
  <generation param="Gamma">
   <v type="int" name="divisions">      24       24        1 </v>
   <v name="usershift">      0.00000000       0.00000000       0.00000000 </v>
   <v name="genvec1">      0.04166667      -0.00000000       0.00000000 </v>
   <v name="genvec2">      0.00000000       0.04166667       0.00000000 </v>
   <v name="genvec3">      0.00000000       0.00000000       1.00000000 </v>
   <v name="shift">      0.00000000       0.00000000       0.00000000 </v>
  </generation>
  <varray name="kpointlist" >
   <v>       0.00000000       0.00000000       0.00000000 </v>
   <v>       0.04166667      -0.00000000       0.00000000 </v>
   <v>       0.08333333       0.00000000       0.00000000 </v>
   <v>       0.12500000       0.00000000       0.00000000 </v>
   <v>       0.16666667       0.00000000       0.00000000 </v>
   <v>       0.20833333       0.00000000       0.00000000 </v>
   <v>       0.25000000       0.00000000       0.00000000 </v>
   <v>       0.29166667       0.00000000       0.00000000 </v>
   <v>       0.33333333       0.00000000       0.00000000 </v>
   <v>       0.37500000       0.00000000       0.00000000 </v>
   <v>       0.41666667       0.00000000       0.00000000 </v>
   <v>       0.45833333      -0.00000000       0.00000000 </v>
   <v>       0.50000000       0.00000000       0.00000000 </v>
   <v>       0.04166667       0.04166667       0.00000000 </v>
   <v>       0.08333333       0.04166667       0.00000000 </v>
   <v>       0.12500000       0.04166667       0.00000000 </v>
   <v>       0.16666667       0.04166667       0.00000000 </v>
   <v>       0.20833333       0.04166667       0.00000000 </v>
   <v>       0.25000000       0.04166667       0.00000000 </v>
   <v>       0.29166667       0.04166667       0.00000000 </v>
   <v>       0.33333333       0.04166667       0.00000000 </v>
   <v>       0.37500000       0.04166667       0.00000000 </v>
   <v>       0.41666667       0.04166667       0.00000000 </v>
   <v>       0.45833333       0.04166667       0.00000000 </v>
   <v>       0.08333333       0.08333333       0.00000000 </v>
   <v>       0.12500000       0.08333333       0.00000000 </v>
   <v>       0.16666667       0.08333333       0.00000000 </v>
   <v>       0.20833333       0.08333333       0.00000000 </v>
   <v>       0.25000000       0.08333333       0.00000000 </v>
   <v>       0.29166667       0.08333333       0.00000000 </v>
   <v>       0.33333333       0.08333333       0.00000000 </v>
   <v>       0.37500000       0.08333333       0.00000000 </v>
   <v>       0.41666667       0.08333333       0.00000000 </v>
   <v>       0.45833333       0.08333333       0.00000000 </v>
   <v>       0.12500000       0.12500000       0.00000000 </v>
   <v>       0.16666667       0.12500000       0.00000000 </v>
   <v>       0.20833333       0.12500000       0.00000000 </v>
   <v>       0.25000000       0.12500000       0.00000000 </v>
   <v>       0.29166667       0.12500000       0.00000000 </v>
   <v>       0.33333333       0.12500000       0.00000000 </v>
   <v>       0.37500000       0.12500000       0.00000000 </v>
   <v>       0.41666667       0.12500000       0.00000000 </v>
   <v>       0.16666667       0.16666667       0.00000000 </v>
   <v>       0.20833333       0.16666667       0.00000000 </v>
   <v>       0.25000000       0.16666667       0.00000000 </v>
   <v>       0.29166667       0.16666667       0.00000000 </v>
   <v>       0.33333333       0.16666667       0.00000000 </v>
   <v>       0.37500000       0.16666667       0.00000000 </v>
   <v>       0.41666667       0.16666667       0.00000000 </v>
   <v>       0.20833333       0.20833333       0.00000000 </v>
   <v>       0.25000000       0.20833333       0.00000000 </v>
   <v>       0.29166667       0.20833333       0.00000000 </v>
   <v>       0.33333333       0.20833333       0.00000000 </v>
   <v>       0.37500000       0.20833333       0.00000000 </v>
   <v>       0.25000000       0.25000000       0.00000000 </v>
   <v>       0.29166667       0.25000000       0.00000000 </v>
   <v>       0.33333333       0.25000000       0.00000000 </v>
   <v>       0.37500000       0.25000000       0.00000000 </v>
   <v>       0.29166667       0.29166667       0.00000000 </v>
   <v>       0.33333333       0.29166667       0.00000000 </v>
   <v>       0.33333333       0.33333333       0.00000000 </v>
  </varray>
  <varray name="weights" >
   <v>       0.00173611 </v>
   <v>       0.01041667 </v>
   <v>       0.01041667 </v>
   <v>       0.01041667 </v>
   <v>       0.01041667 </v>
   <v>       0.01041667 </v>
   <v>       0.01041667 </v>
   <v>       0.01041667 </v>
   <v>       0.01041667 </v>
   <v>       0.01041667 </v>
   <v>       0.01041667 </v>
   <v>       0.01041667 </v>
   <v>       0.00520833 </v>
   <v>       0.01041667 </v>
   <v>       0.02083333 </v>
   <v>       0.02083333 </v>
   <v>       0.02083333 </v>
   <v>       0.02083333 </v>
   <v>       0.02083333 </v>
   <v>       0.02083333 </v>
   <v>       0.02083333 </v>
   <v>       0.02083333 </v>
   <v>       0.02083333 </v>
   <v>       0.02083333 </v>
   <v>       0.01041667 </v>
   <v>       0.02083333 </v>
   <v>       0.02083333 </v>
   <v>       0.02083333 </v>
   <v>       0.02083333 </v>
   <v>       0.02083333 </v>
   <v>       0.02083333 </v>
   <v>       0.02083333 </v>
   <v>       0.02083333 </v>
   <v>       0.01041667 </v>
   <v>       0.01041667 </v>
   <v>       0.02083333 </v>
   <v>       0.02083333 </v>
   <v>       0.02083333 </v>
   <v>       0.02083333 </v>
   <v>       0.02083333 </v>
   <v>       0.02083333 </v>
   <v>       0.02083333 </v>
   <v>       0.01041667 </v>
   <v>       0.02083333 </v>
   <v>       0.02083333 </v>
   <v>       0.02083333 </v>
   <v>       0.02083333 </v>
   <v>       0.02083333 </v>
   <v>       0.01041667 </v>
   <v>       0.01041667 </v>
   <v>       0.02083333 </v>
   <v>       0.02083333 </v>
   <v>       0.02083333 </v>
   <v>       0.02083333 </v>
   <v>       0.01041667 </v>
   <v>       0.02083333 </v>
   <v>       0.02083333 </v>
   <v>       0.01041667 </v>
   <v>       0.01041667 </v>
   <v>       0.02083333 </v>
   <v>       0.00347222 </v>
  </varray>
 </kpoints>
 <parameters>
  <separator name="general" >
   <i type="string" name="SYSTEM">unknown system</i>
   <i type="logical" name="LCOMPAT"> F  </i>
  </separator>
  <separator name="electronic" >
   <i type="string" name="PREC">a</i>
   <i name="ENMAX">    520.00000000</i>
   <i name="ENAUG">    644.87300000</i>
   <i name="EDIFF">      0.00001000</i>
   <i type="int" name="IALGO">    38</i>
   <i type="int" name="IWAVPR">    10</i>
   <i type="int" name="NBANDS">    12</i>
   <i name="NELECT">      8.00000000</i>
   <i type="int" name="TURBO">     0</i>
   <i type="int" name="IRESTART">     0</i>
   <i type="int" name="NREBOOT">     0</i>
   <i type="int" name="NMIN">     0</i>
   <i name="EREF">      0.00000000</i>
   <separator name="electronic smearing" >
    <i type="int" name="ISMEAR">     0</i>
    <i name="SIGMA">      0.02000000</i>
    <i name="KSPACING">      0.50000000</i>
    <i type="logical" name="KGAMMA"> T  </i>
   </separator>
   <separator name="electronic projectors" >
    <i type="logical" name="LREAL"> T  </i>
    <v name="ROPT">     -0.00025000</v>
    <i type="int" name="LMAXPAW">  -100</i>
    <i type="int" name="LMAXMIX">     2</i>
    <i type="logical" name="NLSPLINE"> F  </i>
   </separator>
   <separator name="electronic startup" >
    <i type="int" name="ISTART">     0</i>
    <i type="int" name="ICHARG">     2</i>
    <i type="int" name="INIWAV">     1</i>
   </separator>
   <separator name="electronic spin" >
    <i type="int" name="ISPIN">     1</i>
    <i type="logical" name="LNONCOLLINEAR"> F  </i>
    <v name="MAGMOM">      0.60000000      0.60000000</v>
    <i name="NUPDOWN">     -1.00000000</i>
    <i type="logical" name="LSORBIT"> F  </i>
    <v name="SAXIS">      0.00000000      0.00000000      1.00000000</v>
    <i type="logical" name="LSPIRAL"> F  </i>
    <v name="QSPIRAL">      0.00000000      0.00000000      0.00000000</v>
    <i type="logical" name="LZEROZ"> F  </i>
   </separator>
   <separator name="electronic exchange-correlation" >
    <i type="logical" name="LASPH"> F  </i>
    <i type="logical" name="LMETAGGA"> F  </i>
   </separator>
   <separator name="electronic convergence" >
    <i type="int" name="NELM">   250</i>
    <i type="int" name="NELMDL">    -5</i>
    <i type="int" name="NELMIN">     6</i>
    <i name="ENINI">    520.00000000</i>
    <separator name="electronic convergence detail" >
     <i type="logical" name="LDIAG"> T  </i>
     <i type="logical" name="LSUBROT"> F  </i>
     <i name="WEIMIN">      0.00000000</i>
     <i name="EBREAK">      0.00000021</i>
     <i name="DEPER">      0.30000000</i>
     <i type="int" name="NRMM">     4</i>
     <i name="TIME">      0.40000000</i>
    </separator>
   </separator>
   <separator name="electronic mixer" >
    <i name="AMIX">      0.40000000</i>
    <i name="BMIX">      1.00000000</i>
    <i name="AMIN">      0.10000000</i>
    <i name="AMIX_MAG">      1.60000000</i>
    <i name="BMIX_MAG">      1.00000000</i>
    <separator name="electronic mixer details" >
     <i type="int" name="IMIX">     4</i>
     <i type="logical" name="MIXFIRST"> F  </i>
     <i type="int" name="MAXMIX">   -45</i>
     <i name="WC">    100.00000000</i>
     <i type="int" name="INIMIX">     1</i>
     <i type="int" name="MIXPRE">     1</i>
     <i type="int" name="MREMOVE">     5</i>
    </separator>
   </separator>
   <separator name="electronic dipolcorrection" >
    <i type="logical" name="LDIPOL"> F  </i>
    <i type="logical" name="LMONO"> F  </i>
    <i type="int" name="IDIPOL">     0</i>
    <i name="EPSILON">      1.00000000</i>
    <v name="DIPOL">   -100.00000000   -100.00000000   -100.00000000</v>
    <i name="EFIELD">      0.00000000</i>
   </separator>
  </separator>
  <separator name="grids" >
   <i type="int" name="NGX">    20</i>
   <i type="int" name="NGY">    20</i>
   <i type="int" name="NGZ">   112</i>
   <i type="int" name="NGXF">    40</i>
   <i type="int" name="NGYF">    40</i>
   <i type="int" name="NGZF">   224</i>
   <i type="logical" name="ADDGRID"> F  </i>
  </separator>
  <separator name="ionic" >
   <i type="int" name="NSW">     0</i>
   <i type="int" name="IBRION">    -1</i>
   <i type="int" name="ISIF">     2</i>
   <i name="PSTRESS">      0.00000000</i>
   <i name="EDIFFG">     -0.00500000</i>
   <i type="int" name="NFREE">     1</i>
   <i name="POTIM">      0.25000000</i>
   <i name="SMASS">     -3.00000000</i>
   <i name="SCALEE">      1.00000000</i>
  </separator>
  <separator name="ionic md" >
   <i name="TEBEG">      0.00010000</i>
   <i name="TEEND">      0.00010000</i>
   <i type="int" name="NBLOCK">     1</i>
   <i type="int" name="KBLOCK">     1</i>
   <i type="int" name="NPACO">   256</i>
   <i name="APACO">     16.00000000</i>
  </separator>
  <separator name="symmetry" >
   <i type="int" name="ISYM">     2</i>
   <i name="SYMPREC">      0.00001000</i>
  </separator>
  <separator name="dos" >
   <i type="logical" name="LORBIT"> F  </i>
   <v name="RWIGS">     -1.00000000</v>
   <i type="int" name="NEDOS">   301</i>
   <i name="EMIN">     10.00000000</i>
   <i name="EMAX">    -10.00000000</i>
   <i name="EFERMI">      0.00000000</i>
  </separator>
  <separator name="writing" >
   <i type="int" name="NWRITE">     2</i>
   <i type="logical" name="LWAVE"> F  </i>
   <i type="logical" name="LCHARG"> F  </i>
   <i type="logical" name="LPARD"> F  </i>
   <i type="logical" name="LVTOT"> F  </i>
   <i type="logical" name="LVHAR"> F  </i>
   <i type="logical" name="LELF"> F  </i>
   <i type="logical" name="LOPTICS"> F  </i>
   <v name="STM">      0.00000000      0.00000000      0.00000000      0.00000000      0.00000000      0.00000000      0.00000000</v>
  </separator>
  <separator name="performance" >
   <i type="int" name="NPAR">     6</i>
   <i type="int" name="NSIM">     4</i>
   <i type="int" name="NBLK">    -1</i>
   <i type="logical" name="LPLANE"> T  </i>
   <i type="logical" name="LSCALAPACK"> T  </i>
   <i type="logical" name="LSCAAWARE"> F  </i>
   <i type="logical" name="LSCALU"> F  </i>
   <i type="logical" name="LASYNC"> F  </i>
   <i type="logical" name="LORBITALREAL"> F  </i>
  </separator>
  <separator name="miscellaneous" >
   <i type="int" name="IDIOT">     3</i>
   <i type="logical" name="LMUSIC"> F  </i>
   <v name="POMASS">     12.01100000</v>
   <v name="DARWINR">      0.00000000</v>
   <v name="DARWINV">      1.00000000</v>
   <i type="logical" name="LCORR"> T  </i>
  </separator>
  <i type="logical" name="GGA_COMPAT"> T  </i>
  <i type="logical" name="LBERRY"> F  </i>
  <i type="int" name="ICORELEVEL">     0</i>
  <i type="logical" name="LDAU"> F  </i>
  <i type="int" name="I_CONSTRAINED_M">     0</i>
  <separator name="electronic exchange-correlation" >
   <i type="string" name="GGA">--</i>
   <i type="int" name="VOSKOWN">     0</i>
   <i type="logical" name="LHFCALC"> F  </i>
   <i type="string" name="PRECFOCK"></i>
   <i type="logical" name="LSYMGRAD"> F  </i>
   <i type="logical" name="LHFONE"> F  </i>
   <i type="logical" name="LRHFCALC"> F  </i>
   <i type="logical" name="LTHOMAS"> F  </i>
   <i type="logical" name="LMODELHF"> F  </i>
   <i name="ENCUT4O">     -1.00000000</i>
   <i type="int" name="EXXOEP">     0</i>
   <i type="int" name="FOURORBIT">     0</i>
   <i name="AEXX">      0.00000000</i>
   <i name="HFALPHA">      0.00000000</i>
   <i name="MCALPHA">      0.00000000</i>
   <i name="ALDAX">      1.00000000</i>
   <i name="AGGAX">      1.00000000</i>
   <i name="ALDAC">      1.00000000</i>
   <i name="AGGAC">      1.00000000</i>
   <i type="int" name="NKREDX">     1</i>
   <i type="int" name="NKREDY">     1</i>
   <i type="int" name="NKREDZ">     1</i>
   <i type="logical" name="SHIFTRED"> F  </i>
   <i type="logical" name="ODDONLY"> F  </i>
   <i type="logical" name="EVENONLY"> F  </i>
   <i type="int" name="LMAXFOCK">     0</i>
   <i type="int" name="NMAXFOCKAE">     0</i>
   <i type="logical" name="LFOCKAEDFT"> F  </i>
   <i name="HFSCREEN">      0.00000000</i>
   <i name="HFSCREENC">      0.00000000</i>
   <i type="int" name="NBANDSGWLOW">     0</i>
  </separator>
  <separator name="vdW DFT" >
   <i type="logical" name="LUSE_VDW"> F  </i>
   <i name="Zab_VDW">     -0.84910000</i>
   <i name="PARAM1">      0.12340000</i>
   <i name="PARAM2">      1.00000000</i>
   <i name="PARAM3">      0.00000000</i>
  </separator>
  <separator name="model GW" >
   <i type="int" name="MODEL_GW">     0</i>
   <i name="MODEL_EPS0">     24.92452819</i>
   <i name="MODEL_ALPHA">      1.00000000</i>
  </separator>
  <separator name="linear response parameters" >
   <i type="logical" name="LEPSILON"> F  </i>
   <i type="logical" name="LRPA"> F  </i>
   <i type="logical" name="LNABLA"> F  </i>
   <i type="logical" name="LVEL"> F  </i>
   <i type="int" name="KINTER">     0</i>
   <i name="CSHIFT">      0.10000000</i>
   <i name="OMEGAMAX">     -1.00000000</i>
   <i name="DEG_THRESHOLD">      0.00200000</i>
  </separator>
  <separator name="orbital magnetization" >
   <i type="logical" name="NUCIND"> F  </i>
   <v name="MAGPOS">      0.00000000      0.00000000      0.00000000</v>
   <i type="logical" name="LNICSALL"> T  </i>
   <i type="logical" name="ORBITALMAG"> F  </i>
   <i type="logical" name="LMAGBLOCH"> F  </i>
   <i type="logical" name="LCHIMAG"> F  </i>
   <i type="logical" name="LGAUGE"> T  </i>
   <i type="int" name="MAGATOM">     0</i>
   <v name="MAGDIPOL">      0.00000000      0.00000000      0.00000000</v>
   <v name="AVECCONST">      0.00000000      0.00000000      0.00000000</v>
  </separator>
  <separator name="response functions" >
   <i type="logical" name="LADDER"> F  </i>
   <i type="logical" name="LFXC"> F  </i>
   <i type="logical" name="LHARTREE"> T  </i>
   <i type="int" name="IBSE">     0</i>
   <v type="int" name="KPOINT">    -1     0     0     0</v>
   <i type="logical" name="LTCTE"> F  </i>
   <i type="logical" name="LTETE"> F  </i>
   <i type="logical" name="LTRIPLET"> F  </i>
   <i type="logical" name="LFXCEPS"> F  </i>
   <i type="logical" name="LFXHEG"> F  </i>
   <i type="int" name="NATURALO">     0</i>
   <i type="logical" name="L2ORDER"> F  </i>
   <i type="logical" name="LUSEW"> F  </i>
   <i name="ENCUTGW">     -2.00000000</i>
   <i name="ENCUTGWSOFT">     -2.00000000</i>
   <i name="ENCUTLF">     -1.00000000</i>
   <i type="int" name="LMAXMP2">    -1</i>
   <i name="SCISSOR">      0.00000000</i>
   <i type="int" name="NOMEGA">     0</i>
   <i type="int" name="NOMEGAR">     0</i>
   <i type="int" name="NBANDSGW">    -1</i>
   <i type="int" name="NBANDSO">    -1</i>
   <i type="int" name="NBANDSV">    -1</i>
   <i type="int" name="NELM">   250</i>
   <i type="int" name="NELMHF">     1</i>
   <i type="int" name="DIM">     3</i>
   <i type="int" name="ANTIRES">     0</i>
   <i name="OMEGAMAX">    -30.00000000</i>
   <i name="OMEGAMIN">    -30.00000000</i>
   <i name="OMEGATL">   -200.00000000</i>
   <i type="int" name="OMEGAGRID">     0</i>
   <i name="CSHIFT">     -0.10000000</i>
   <i type="logical" name="SELFENERGY"> F  </i>
   <i type="logical" name="LSPECTRAL"> F  </i>
   <i type="logical" name="LSPECTRALGW"> F  </i>
   <i type="logical" name="LSINGLES"> F  </i>
   <i type="logical" name="LFERMIGW"> F  </i>
   <i type="logical" name="ODDONLYGW"> F  </i>
   <i type="logical" name="EVENONLYGW"> F  </i>
   <i type="int" name="NKREDLFX">     1</i>
   <i type="int" name="NKREDLFY">     1</i>
   <i type="int" name="NKREDLFZ">     1</i>
   <i type="int" name="MAXMEM">  1800</i>
   <i type="int" name="TELESCOPE">     0</i>
   <i type="int" name="TAUPAR">     1</i>
   <i type="int" name="OMEGAPAR">    -1</i>
   <i name="LAMBDA">      1.00000000</i>
  </separator>
  <separator name="External order field" >
   <i name="OFIELD_KAPPA">      0.00000000</i>
   <v name="OFIELD_K">      0.00000000      0.00000000      0.00000000</v>
   <i name="OFIELD_Q6_NEAR">      0.00000000</i>
   <i name="OFIELD_Q6_FAR">      0.00000000</i>
   <i name="OFIELD_A">      0.00000000</i>
  </separator>
 </parameters>
 <atominfo>
  <atoms>       2 </atoms>
  <types>       1 </types>
  <array name="atoms" >
   <dimension dim="1">ion</dimension>
   <field type="string">element</field>
   <field type="int">atomtype</field>
   <set>
    <rc><c>C </c><c>   1</c></rc>
    <rc><c>C </c><c>   1</c></rc>
   </set>
  </array>
  <array name="atomtypes" >
   <dimension dim="1">type</dimension>
   <field type="int">atomspertype</field>
   <field type="string">element</field>
   <field>mass</field>
   <field>valence</field>
   <field type="string">pseudopotential</field>
   <set>
    <rc><c>   2</c><c>C </c><c>     12.01100000</c><c>      4.00000000</c><c>  PAW_PBE C 08Apr2002                   </c></rc>
   </set>
  </array>
 </atominfo>
 <structure name="initialpos" >
  <crystal>
   <varray name="basis" >
    <v>       2.52896000       0.00000000       0.00000000 </v>
    <v>      -1.26448000       2.19014300       0.00000000 </v>
    <v>       0.00000000       0.00000000      15.00000000 </v>
   </varray>
   <i name="volume">     83.08176062 </i>
   <varray name="rec_basis" >
    <v>       0.39541946       0.22829560       0.00000000 </v>
    <v>       0.00000000       0.45659119       0.00000000 </v>
    <v>       0.00000000       0.00000000       0.06666667 </v>
   </varray>
  </crystal>
  <varray name="positions" >
   <v>       0.00000000       0.00000000       0.50000000 </v>
   <v>       0.33333300       0.66666700       0.50000000 </v>
  </varray>
 </structure>
 <calculation>
  <scstep>
   <time name="dav">    0.19    0.19</time>
   <time name="total">    0.20    0.20</time>
   <energy>
    <i name="alphaZ">      3.95498195 </i>
    <i name="ewald">    782.44905890 </i>
    <i name="hartreedc">  -1004.93009939 </i>
    <i name="XCdc">     26.02665828 </i>
    <i name="pawpsdc">    217.04409276 </i>
    <i name="pawaedc">   -218.18290438 </i>
    <i name="eentropy">     -0.00017229 </i>
    <i name="bandstr">    -67.59489050 </i>
    <i name="atom">    294.29778662 </i>
    <i name="e_fr_energy">     33.06451196 </i>
    <i name="e_wo_entrp">     33.06468424 </i>
    <i name="e_0_energy">     33.06459810 </i>
   </energy>
  </scstep>
  <scstep>
   <time name="dav">    0.27    0.27</time>
   <time name="total">    0.27    0.27</time>
   <energy>
    <i name="e_fr_energy">    -17.62558381 </i>
    <i name="e_wo_entrp">    -17.62558381 </i>
    <i name="e_0_energy">    -17.62558381 </i>
   </energy>
  </scstep>
  <scstep>
   <time name="dav">    0.30    0.30</time>
   <time name="total">    0.30    0.30</time>
   <energy>
    <i name="e_fr_energy">    -19.36952078 </i>
    <i name="e_wo_entrp">    -19.36944243 </i>
    <i name="e_0_energy">    -19.36948161 </i>
   </energy>
  </scstep>
  <scstep>
   <time name="dav">    0.28    0.28</time>
   <time name="total">    0.28    0.28</time>
   <energy>
    <i name="e_fr_energy">    -19.37377717 </i>
    <i name="e_wo_entrp">    -19.37369881 </i>
    <i name="e_0_energy">    -19.37373799 </i>
   </energy>
  </scstep>
  <scstep>
   <time name="dav">    0.30    0.30</time>
   <time name="total">    0.32    0.32</time>
   <energy>
    <i name="e_fr_energy">    -19.37379688 </i>
    <i name="e_wo_entrp">    -19.37371852 </i>
    <i name="e_0_energy">    -19.37375770 </i>
   </energy>
  </scstep>
  <scstep>
   <time name="dav">    0.27    0.27</time>
   <time name="total">    0.29    0.29</time>
   <energy>
    <i name="e_fr_energy">    -18.65794132 </i>
    <i name="e_wo_entrp">    -18.65786296 </i>
    <i name="e_0_energy">    -18.65790214 </i>
   </energy>
  </scstep>
  <scstep>
   <time name="dav">    0.27    0.27</time>
   <time name="total">    0.29    0.29</time>
   <energy>
    <i name="e_fr_energy">    -18.37962417 </i>
    <i name="e_wo_entrp">    -18.37954581 </i>
    <i name="e_0_energy">    -18.37958499 </i>
   </energy>
  </scstep>
  <scstep>
   <time name="dav">    0.26    0.26</time>
   <time name="total">    0.28    0.28</time>
   <energy>
    <i name="e_fr_energy">    -18.37373188 </i>
    <i name="e_wo_entrp">    -18.37365352 </i>
    <i name="e_0_energy">    -18.37369270 </i>
   </energy>
  </scstep>
  <scstep>
   <time name="dav">    0.24    0.24</time>
   <time name="total">    0.26    0.26</time>
   <energy>
    <i name="e_fr_energy">    -18.37204097 </i>
    <i name="e_wo_entrp">    -18.37196262 </i>
    <i name="e_0_energy">    -18.37200180 </i>
   </energy>
  </scstep>
  <scstep>
   <time name="dav">    0.22    0.22</time>
   <time name="total">    0.24    0.24</time>
   <energy>
    <i name="e_fr_energy">    -18.37112162 </i>
    <i name="e_wo_entrp">    -18.37104326 </i>
    <i name="e_0_energy">    -18.37108244 </i>
   </energy>
  </scstep>
  <scstep>
   <time name="dav">    0.21    0.21</time>
   <time name="total">    0.22    0.23</time>
   <energy>
    <i name="e_fr_energy">    -18.37134677 </i>
    <i name="e_wo_entrp">    -18.37126841 </i>
    <i name="e_0_energy">    -18.37130759 </i>
   </energy>
  </scstep>
  <scstep>
   <time name="dav">    0.23    0.23</time>
   <time name="total">    0.25    0.25</time>
   <energy>
    <i name="e_fr_energy">    -18.37153298 </i>
    <i name="e_wo_entrp">    -18.37145462 </i>
    <i name="e_0_energy">    -18.37149380 </i>
   </energy>
  </scstep>
  <scstep>
   <time name="dav">    0.22    0.22</time>
   <time name="total">    0.24    0.24</time>
   <energy>
    <i name="e_fr_energy">    -18.37217642 </i>
    <i name="e_wo_entrp">    -18.37209807 </i>
    <i name="e_0_energy">    -18.37213725 </i>
   </energy>
  </scstep>
  <scstep>
   <time name="dav">    0.25    0.25</time>
   <time name="total">    0.27    0.27</time>
   <energy>
    <i name="e_fr_energy">    -18.37222530 </i>
    <i name="e_wo_entrp">    -18.37214694 </i>
    <i name="e_0_energy">    -18.37218612 </i>
   </energy>
  </scstep>
  <scstep>
   <time name="dav">    0.21    0.21</time>
   <time name="total">    0.23    0.23</time>
   <energy>
    <i name="e_fr_energy">    -18.37230923 </i>
    <i name="e_wo_entrp">    -18.37223087 </i>
    <i name="e_0_energy">    -18.37227005 </i>
   </energy>
  </scstep>
  <scstep>
   <time name="dav">    0.22    0.22</time>
   <time name="total">    0.23    0.23</time>
   <energy>
    <i name="alphaZ">      3.95498195 </i>
    <i name="ewald">    782.44905890 </i>
    <i name="hartreedc">  -1033.92969592 </i>
    <i name="XCdc">     27.09444524 </i>
    <i name="pawpsdc">    744.54960563 </i>
    <i name="pawaedc">   -745.88121259 </i>
    <i name="eentropy">     -0.00007836 </i>
    <i name="bandstr">    -90.90720729 </i>
    <i name="atom">    294.29778662 </i>
    <i name="e_fr_energy">    -18.37231580 </i>
    <i name="e_wo_entrp">    -18.37223744 </i>
    <i name="e_0_energy">    -18.37227662 </i>
   </energy>
  </scstep>
  <structure>
   <crystal>
    <varray name="basis" >
     <v>       2.52896000       0.00000000       0.00000000 </v>
     <v>      -1.26448000       2.19014300       0.00000000 </v>
     <v>       0.00000000       0.00000000      15.00000000 </v>
    </varray>
    <i name="volume">     83.08176062 </i>
    <varray name="rec_basis" >
     <v>       0.39541946       0.22829560       0.00000000 </v>
     <v>       0.00000000       0.45659119       0.00000000 </v>
     <v>       0.00000000       0.00000000       0.06666667 </v>
    </varray>
   </crystal>
   <varray name="positions" >
    <v>       0.00000000       0.00000000       0.50000000 </v>
    <v>       0.33333300       0.66666700       0.50000000 </v>
   </varray>
  </structure>
  <varray name="forces" >
   <v>      -0.00000000       0.00000000       0.00000000 </v>
   <v>       0.00000000       0.00000000       0.00000000 </v>
  </varray>
  <varray name="stress" >
   <v>     -60.75564965      -0.00000000       0.00000000 </v>
   <v>      -0.00000000     -60.75561607       0.00000000 </v>
   <v>       0.00000000       0.00000000      -0.45403362 </v>
  </varray>
  <energy>
   <i name="e_fr_energy">    -18.37231580 </i>
   <i name="e_wo_entrp">    -18.37227662 </i>
   <i name="e_0_energy">     -0.00007836 </i>
  </energy>
  <time name="totalsc">    4.37    4.40</time>
  <eigenvalues>
   <array>
    <dimension dim="1">band</dimension>
    <dimension dim="2">kpoint</dimension>
    <dimension dim="3">spin</dimension>
    <field>eigene</field>
    <field>occ</field>
    <set>
     <set comment="spin 1">
      <set comment="kpoint 1">
       <r>  -21.4256    1.0000 </r>
       <r>   -9.6295    1.0000 </r>
       <r>   -5.5627    1.0000 </r>
       <r>   -5.5626    1.0000 </r>
       <r>    0.9706    0.0000 </r>
       <r>    1.8645    0.0000 </r>
       <r>    2.3808    0.0000 </r>
       <r>    4.2960    0.0000 </r>
       <r>    5.0503    0.0000 </r>
       <r>    5.3270    0.0000 </r>
       <r>    5.3271    0.0000 </r>
       <r>    8.1775    0.0000 </r>
      </set>
      <set comment="kpoint 2">
       <r>  -21.3863    1.0000 </r>
       <r>   -9.5834    1.0000 </r>
       <r>   -5.7280    1.0000 </r>
       <r>   -5.6449    1.0000 </r>
       <r>    1.0236    0.0000 </r>
       <r>    1.9179    0.0000 </r>
       <r>    2.4348    0.0000 </r>
       <r>    4.3490    0.0000 </r>
       <r>    5.0996    0.0000 </r>
       <r>    5.3513    0.0000 </r>
       <r>    5.4925    0.0000 </r>
       <r>    7.8875    0.0000 </r>
      </set>
      <set comment="kpoint 3">
       <r>  -21.2687    1.0000 </r>
       <r>   -9.4455    1.0000 </r>
       <r>   -6.1975    1.0000 </r>
       <r>   -5.8750    1.0000 </r>
       <r>    1.1827    0.0000 </r>
       <r>    2.0777    0.0000 </r>
       <r>    2.5967    0.0000 </r>
       <r>    4.5076    0.0000 </r>
       <r>    5.2369    0.0000 </r>
       <r>    5.4002    0.0000 </r>
       <r>    5.9712    0.0000 </r>
       <r>    7.5124    0.0000 </r>
      </set>
      <set comment="kpoint 4">
       <r>  -21.0731    1.0000 </r>
       <r>   -9.2167    1.0000 </r>
       <r>   -6.9072    1.0000 </r>
       <r>   -6.2122    1.0000 </r>
       <r>    1.4478    0.0000 </r>
       <r>    2.3439    0.0000 </r>
       <r>    2.8665    0.0000 </r>
       <r>    4.7715    0.0000 </r>
       <r>    5.3136    0.0000 </r>
       <r>    5.5610    0.0000 </r>
       <r>    6.7186    0.0000 </r>
       <r>    6.9205    0.0000 </r>
      </set>
      <set comment="kpoint 5">
       <r>  -20.8000    1.0000 </r>
       <r>   -8.8988    1.0000 </r>
       <r>   -7.7847    1.0000 </r>
       <r>   -6.6095    1.0000 </r>
       <r>    1.8188    0.0000 </r>
       <r>    2.7155    0.0000 </r>
       <r>    3.2441    0.0000 </r>
       <r>    5.1380    0.0000 </r>
       <r>    5.2245    0.0000 </r>
       <r>    5.9155    0.0000 </r>
       <r>    6.1538    0.0000 </r>
       <r>    7.6805    0.0000 </r>
      </set>
      <set comment="kpoint 6">
       <r>  -20.4505    1.0000 </r>
       <r>   -8.7668    1.0000 </r>
       <r>   -8.4945    1.0000 </r>
       <r>   -7.0254    1.0000 </r>
       <r>    2.2952    0.0000 </r>
       <r>    3.1903    0.0000 </r>
       <r>    3.7292    0.0000 </r>
       <r>    5.0648    0.0000 </r>
       <r>    5.2256    0.0000 </r>
       <r>    5.6375    0.0000 </r>
       <r>    6.3875    0.0000 </r>
       <r>    8.8045    0.0000 </r>
      </set>
      <set comment="kpoint 7">
       <r>  -20.0257    1.0000 </r>
       <r>   -9.8052    1.0000 </r>
       <r>   -8.0083    1.0000 </r>
       <r>   -7.4287    1.0000 </r>
       <r>    2.8764    0.0000 </r>
       <r>    3.7392    0.0000 </r>
       <r>    4.2734    0.0000 </r>
       <r>    4.3196    0.0000 </r>
       <r>    4.8775    0.0000 </r>
       <r>    6.2019    0.0000 </r>
       <r>    6.9674    0.0000 </r>
       <r>    9.9838    0.0000 </r>
      </set>
      <set comment="kpoint 8">
       <r>  -19.5276    1.0000 </r>
       <r>  -10.8641    1.0000 </r>
       <r>   -7.7966    1.0000 </r>
       <r>   -7.4473    1.0000 </r>
       <r>    3.1551    0.0000 </r>
       <r>    3.5601    0.0000 </r>
       <r>    4.4928    0.0000 </r>
       <r>    4.6712    0.0000 </r>
       <r>    5.0359    0.0000 </r>
       <r>    6.8809    0.0000 </r>
       <r>    7.6527    0.0000 </r>
       <r>   10.6094    0.0000 </r>
      </set>
      <set comment="kpoint 9">
       <r>  -18.9592    1.0000 </r>
       <r>  -11.9165    1.0000 </r>
       <r>   -8.1137    1.0000 </r>
       <r>   -6.8235    1.0000 </r>
       <r>    2.0981    0.0000 </r>
       <r>    4.3123    0.0000 </r>
       <r>    4.5379    0.0000 </r>
       <r>    5.2748    0.0000 </r>
       <r>    5.8383    0.0000 </r>
       <r>    7.6604    0.0000 </r>
       <r>    8.4417    0.0000 </r>
       <r>   11.2953    0.0000 </r>
      </set>
      <set comment="kpoint 10">
       <r>  -18.3258    1.0000 </r>
       <r>  -12.9407    1.0000 </r>
       <r>   -8.3692    1.0000 </r>
       <r>   -6.1593    1.0000 </r>
       <r>    1.0673    0.0000 </r>
       <r>    4.3353    0.0000 </r>
       <r>    5.2597    0.0000 </r>
       <r>    6.1648    0.0000 </r>
       <r>    6.7532    0.0000 </r>
       <r>    8.5346    0.0000 </r>
       <r>    9.3320    0.0000 </r>
       <r>   11.9526    0.0000 </r>
      </set>
      <set comment="kpoint 11">
       <r>  -17.6394    1.0000 </r>
       <r>  -13.9133    1.0000 </r>
       <r>   -8.5562    1.0000 </r>
       <r>   -5.5016    1.0000 </r>
       <r>    0.1340    0.0000 </r>
       <r>    4.2292    0.0000 </r>
       <r>    6.2468    0.0000 </r>
       <r>    7.1527    0.0000 </r>
       <r>    7.7753    0.0000 </r>
       <r>    9.4911    0.0000 </r>
       <r>   10.3174    0.0000 </r>
       <r>   10.9879    0.0000 </r>
      </set>
      <set comment="kpoint 12">
       <r>  -16.9431    1.0000 </r>
       <r>  -14.7840    1.0000 </r>
       <r>   -8.6700    1.0000 </r>
       <r>   -4.9558    1.0000 </r>
       <r>   -0.5823    0.0000 </r>
       <r>    4.1620    0.0000 </r>
       <r>    7.3314    0.0000 </r>
       <r>    8.2283    0.0000 </r>
       <r>    8.9023    0.0000 </r>
       <r>    9.7456    0.0000 </r>
       <r>   10.3696    0.0000 </r>
       <r>   10.8110    0.0000 </r>
      </set>
      <set comment="kpoint 13">
       <r>  -16.5178    1.0000 </r>
       <r>  -15.2677    1.0000 </r>
       <r>   -8.7082    1.0000 </r>
       <r>   -4.7253    1.0000 </r>
       <r>   -0.8705    0.0000 </r>
       <r>    4.1392    0.0000 </r>
       <r>    8.4273    0.0000 </r>
       <r>    8.5840    0.0000 </r>
       <r>    9.2462    0.0000 </r>
       <r>    9.5333    0.0000 </r>
       <r>   10.1218    0.0000 </r>
       <r>   10.1478    0.0000 </r>
      </set>
      <set comment="kpoint 14">
       <r>  -21.3079    1.0000 </r>
       <r>   -9.4914    1.0000 </r>
       <r>   -6.0369    1.0000 </r>
       <r>   -5.8096    1.0000 </r>
       <r>    1.1297    0.0000 </r>
       <r>    2.0245    0.0000 </r>
       <r>    2.5427    0.0000 </r>
       <r>    4.4548    0.0000 </r>
       <r>    5.1964    0.0000 </r>
       <r>    5.4157    0.0000 </r>
       <r>    5.7794    0.0000 </r>
       <r>    7.6358    0.0000 </r>
      </set>
      <set comment="kpoint 15">
       <r>  -21.1513    1.0000 </r>
       <r>   -9.3081    1.0000 </r>
       <r>   -6.6072    1.0000 </r>
       <r>   -6.1129    1.0000 </r>
       <r>    1.3418    0.0000 </r>
       <r>    2.2375    0.0000 </r>
       <r>    2.7586    0.0000 </r>
       <r>    4.6661    0.0000 </r>
       <r>    5.3642    0.0000 </r>
       <r>    5.5211    0.0000 </r>
       <r>    6.3066    0.0000 </r>
       <r>    7.1539    0.0000 </r>
      </set>
      <set comment="kpoint 16">
       <r>  -20.9169    1.0000 </r>
       <r>   -9.0346    1.0000 </r>
       <r>   -7.3809    1.0000 </r>
       <r>   -6.5007    1.0000 </r>
       <r>    1.6599    0.0000 </r>
       <r>    2.5565    0.0000 </r>
       <r>    3.0824    0.0000 </r>
       <r>    4.9820    0.0000 </r>
       <r>    5.4114    0.0000 </r>
       <r>    5.7680    0.0000 </r>
       <r>    6.4774    0.0000 </r>
       <r>    7.0652    0.0000 </r>
      </set>
      <set comment="kpoint 17">
       <r>  -20.6056    1.0000 </r>
       <r>   -8.6734    1.0000 </r>
       <r>   -8.2945    1.0000 </r>
       <r>   -6.9242    1.0000 </r>
       <r>    2.0837    0.0000 </r>
       <r>    2.9802    0.0000 </r>
       <r>    3.5139    0.0000 </r>
       <r>    5.3088    0.0000 </r>
       <r>    5.3875    0.0000 </r>
       <r>    5.6624    0.0000 </r>
       <r>    6.1791    0.0000 </r>
       <r>    8.0135    0.0000 </r>
      </set>
      <set comment="kpoint 18">
       <r>  -20.2184    1.0000 </r>
       <r>   -9.2930    1.0000 </r>
       <r>   -8.2279    1.0000 </r>
       <r>   -7.3463    1.0000 </r>
       <r>    2.6127    0.0000 </r>
       <r>    3.5028    0.0000 </r>
       <r>    4.0526    0.0000 </r>
       <r>    4.6994    0.0000 </r>
       <r>    5.1425    0.0000 </r>
       <r>    5.9381    0.0000 </r>
       <r>    6.7043    0.0000 </r>
       <r>    9.0941    0.0000 </r>
      </set>
      <set comment="kpoint 19">
       <r>  -19.7569    1.0000 </r>
       <r>  -10.3335    1.0000 </r>
       <r>   -7.7406    1.0000 </r>
       <r>   -7.7035    1.0000 </r>
       <r>    3.2458    0.0000 </r>
       <r>    3.6264    0.0000 </r>
       <r>    4.1928    0.0000 </r>
       <r>    4.6910    0.0000 </r>
       <r>    4.9627    0.0000 </r>
       <r>    6.5646    0.0000 </r>
       <r>    7.3366    0.0000 </r>
       <r>   10.3154    0.0000 </r>
      </set>
      <set comment="kpoint 20">
       <r>  -19.2236    1.0000 </r>
       <r>  -11.3837    1.0000 </r>
       <r>   -8.0890    1.0000 </r>
       <r>   -7.1095    1.0000 </r>
       <r>    2.5994    0.0000 </r>
       <r>    3.9790    0.0000 </r>
       <r>    4.7655    0.0000 </r>
       <r>    4.9044    0.0000 </r>
       <r>    5.4629    0.0000 </r>
       <r>    7.2932    0.0000 </r>
       <r>    8.0736    0.0000 </r>
       <r>   10.9657    0.0000 </r>
      </set>
      <set comment="kpoint 21">
       <r>  -18.6222    1.0000 </r>
       <r>  -12.4189    1.0000 </r>
       <r>   -8.3792    1.0000 </r>
       <r>   -6.4619    1.0000 </r>
       <r>    1.5551    0.0000 </r>
       <r>    4.5640    0.0000 </r>
       <r>    4.8609    0.0000 </r>
       <r>    5.7421    0.0000 </r>
       <r>    6.3227    0.0000 </r>
       <r>    8.1183    0.0000 </r>
       <r>    8.9132    0.0000 </r>
       <r>   11.6358    0.0000 </r>
      </set>
      <set comment="kpoint 22">
       <r>  -17.9605    1.0000 </r>
       <r>  -13.4168    1.0000 </r>
       <r>   -8.6028    1.0000 </r>
       <r>   -5.7925    1.0000 </r>
       <r>    0.5684    0.0000 </r>
       <r>    4.4578    0.0000 </r>
       <r>    5.7794    0.0000 </r>
       <r>    6.6801    0.0000 </r>
       <r>    7.2912    0.0000 </r>
       <r>    9.0309    0.0000 </r>
       <r>    9.8517    0.0000 </r>
       <r>   11.5217    0.0000 </r>
      </set>
      <set comment="kpoint 23">
       <r>  -17.2596    1.0000 </r>
       <r>  -14.3465    1.0000 </r>
       <r>   -8.7546    1.0000 </r>
       <r>   -5.1708    1.0000 </r>
       <r>   -0.2735    0.0000 </r>
       <r>    4.3703    0.0000 </r>
       <r>    6.8158    0.0000 </r>
       <r>    7.7096    0.0000 </r>
       <r>    8.3659    0.0000 </r>
       <r>    9.9969    0.0000 </r>
       <r>   10.3874    0.0000 </r>
       <r>   10.8921    0.0000 </r>
      </set>
      <set comment="kpoint 24">
       <r>  -16.6241    1.0000 </r>
       <r>  -15.0978    1.0000 </r>
       <r>   -8.8313    1.0000 </r>
       <r>   -4.7514    1.0000 </r>
       <r>   -0.8058    0.0000 </r>
       <r>    4.3250    0.0000 </r>
       <r>    7.9413    0.0000 </r>
       <r>    8.8072    0.0000 </r>
       <r>    9.1538    0.0000 </r>
       <r>    9.5483    0.0000 </r>
       <r>   10.0006    0.0000 </r>
       <r>   10.8255    0.0000 </r>
      </set>
      <set comment="kpoint 25">
       <r>  -20.9559    1.0000 </r>
       <r>   -9.0800    1.0000 </r>
       <r>   -7.2070    1.0000 </r>
       <r>   -6.5018    1.0000 </r>
       <r>    1.6070    0.0000 </r>
       <r>    2.5034    0.0000 </r>
       <r>    3.0285    0.0000 </r>
       <r>    4.9298    0.0000 </r>
       <r>    5.5795    0.0000 </r>
       <r>    5.7693    0.0000 </r>
       <r>    6.5901    0.0000 </r>
       <r>    6.6715    0.0000 </r>
      </set>
      <set comment="kpoint 26">
       <r>  -20.6833    1.0000 </r>
       <r>   -8.7632    1.0000 </r>
       <r>   -7.9703    1.0000 </r>
       <r>   -6.9636    1.0000 </r>
       <r>    1.9780    0.0000 </r>
       <r>    2.8749    0.0000 </r>
       <r>    3.4062    0.0000 </r>
       <r>    5.2970    0.0000 </r>
       <r>    5.7295    0.0000 </r>
       <r>    5.8603    0.0000 </r>
       <r>    6.0940    0.0000 </r>
       <r>    7.2180    0.0000 </r>
      </set>
      <set comment="kpoint 27">
       <r>  -20.3344    1.0000 </r>
       <r>   -8.8615    1.0000 </r>
       <r>   -8.3603    1.0000 </r>
       <r>   -7.4332    1.0000 </r>
       <r>    2.4546    0.0000 </r>
       <r>    3.3500    0.0000 </r>
       <r>    3.8917    0.0000 </r>
       <r>    4.9972    0.0000 </r>
       <r>    5.6861    0.0000 </r>
       <r>    5.7741    0.0000 </r>
       <r>    6.5514    0.0000 </r>
       <r>    8.0203    0.0000 </r>
      </set>
      <set comment="kpoint 28">
       <r>  -19.9105    1.0000 </r>
       <r>   -9.8353    1.0000 </r>
       <r>   -7.8757    1.0000 </r>
       <r>   -7.8743    1.0000 </r>
       <r>    3.0360    0.0000 </r>
       <r>    3.8728    0.0000 </r>
       <r>    4.1046    0.0000 </r>
       <r>    4.4843    0.0000 </r>
       <r>    5.5417    0.0000 </r>
       <r>    6.3483    0.0000 </r>
       <r>    7.1271    0.0000 </r>
       <r>    8.9927    0.0000 </r>
      </set>
      <set comment="kpoint 29">
       <r>  -19.4135    1.0000 </r>
       <r>  -10.8499    1.0000 </r>
       <r>   -8.2673    1.0000 </r>
       <r>   -7.3163    1.0000 </r>
       <r>    3.0213    0.0000 </r>
       <r>    3.7209    0.0000 </r>
       <r>    4.6328    0.0000 </r>
       <r>    5.1727    0.0000 </r>
       <r>    5.3796    0.0000 </r>
       <r>    7.0236    0.0000 </r>
       <r>    7.8105    0.0000 </r>
       <r>   10.0339    0.0000 </r>
      </set>
      <set comment="kpoint 30">
       <r>  -18.8466    1.0000 </r>
       <r>  -11.8722    1.0000 </r>
       <r>   -8.6005    1.0000 </r>
       <r>   -6.6939    1.0000 </r>
       <r>    1.9968    0.0000 </r>
       <r>    4.5044    0.0000 </r>
       <r>    5.1949    0.0000 </r>
       <r>    5.4169    0.0000 </r>
       <r>    6.0011    0.0000 </r>
       <r>    7.7947    0.0000 </r>
       <r>    8.5979    0.0000 </r>
       <r>   11.0065    0.0000 </r>
      </set>
      <set comment="kpoint 31">
       <r>  -18.2152    1.0000 </r>
       <r>  -12.8758    1.0000 </r>
       <r>   -8.8661    1.0000 </r>
       <r>   -6.0302    1.0000 </r>
       <r>    0.9948    0.0000 </r>
       <r>    5.0200    0.0000 </r>
       <r>    5.4259    0.0000 </r>
       <r>    6.3011    0.0000 </r>
       <r>    6.9146    0.0000 </r>
       <r>    8.6524    0.0000 </r>
       <r>    9.4856    0.0000 </r>
       <r>   11.5383    0.0000 </r>
      </set>
      <set comment="kpoint 32">
       <r>  -17.5313    1.0000 </r>
       <r>  -13.8343    1.0000 </r>
       <r>   -9.0591    1.0000 </r>
       <r>   -5.3706    1.0000 </r>
       <r>    0.0804    0.0000 </r>
       <r>    4.9237    0.0000 </r>
       <r>    6.4014    0.0000 </r>
       <r>    7.2762    0.0000 </r>
       <r>    7.9358    0.0000 </r>
       <r>    9.5701    0.0000 </r>
       <r>   10.4633    0.0000 </r>
       <r>   10.9984    0.0000 </r>
      </set>
      <set comment="kpoint 33">
       <r>  -16.8380    1.0000 </r>
       <r>  -14.6956    1.0000 </r>
       <r>   -9.1761    1.0000 </r>
       <r>   -4.8195    1.0000 </r>
       <r>   -0.6289    0.0000 </r>
       <r>    4.8570    0.0000 </r>
       <r>    7.4805    0.0000 </r>
       <r>    8.3223    0.0000 </r>
       <r>    9.0612    0.0000 </r>
       <r>    9.8575    0.0000 </r>
       <r>   10.2966    0.0000 </r>
       <r>   10.9670    0.0000 </r>
      </set>
      <set comment="kpoint 34">
       <r>  -16.4147    1.0000 </r>
       <r>  -15.1754    1.0000 </r>
       <r>   -9.2152    1.0000 </r>
       <r>   -4.5846    1.0000 </r>
       <r>   -0.9173    0.0000 </r>
       <r>    4.8342    0.0000 </r>
       <r>    8.5609    0.0000 </r>
       <r>    8.7288    0.0000 </r>
       <r>    9.2090    0.0000 </r>
       <r>    9.6939    0.0000 </r>
       <r>   10.2761    0.0000 </r>
       <r>   10.3057    0.0000 </r>
      </set>
      <set comment="kpoint 35">
       <r>  -20.3731    1.0000 </r>
       <r>   -8.6678    1.0000 </r>
       <r>   -8.4045    1.0000 </r>
       <r>   -7.5154    1.0000 </r>
       <r>    2.4018    0.0000 </r>
       <r>    3.2985    0.0000 </r>
       <r>    3.8380    0.0000 </r>
       <r>    5.1054    0.0000 </r>
       <r>    5.7165    0.0000 </r>
       <r>    6.1176    0.0000 </r>
       <r>    6.5234    0.0000 </r>
       <r>    7.3833    0.0000 </r>
      </set>
      <set comment="kpoint 36">
       <r>  -19.9874    1.0000 </r>
       <r>   -9.4787    1.0000 </r>
       <r>   -8.0605    1.0000 </r>
       <r>   -7.9622    1.0000 </r>
       <r>    2.9309    0.0000 </r>
       <r>    3.8229    0.0000 </r>
       <r>    4.2514    0.0000 </r>
       <r>    4.3775    0.0000 </r>
       <r>    6.2372    0.0000 </r>
       <r>    6.2830    0.0000 </r>
       <r>    7.0326    0.0000 </r>
       <r>    7.9130    0.0000 </r>
      </set>
      <set comment="kpoint 37">
       <r>  -19.5279    1.0000 </r>
       <r>  -10.3841    1.0000 </r>
       <r>   -8.5436    1.0000 </r>
       <r>   -7.4414    1.0000 </r>
       <r>    3.3137    0.0000 </r>
       <r>    3.5643    0.0000 </r>
       <r>    4.4620    0.0000 </r>
       <r>    5.0241    0.0000 </r>
       <r>    6.2074    0.0000 </r>
       <r>    6.8574    0.0000 </r>
       <r>    7.6545    0.0000 </r>
       <r>    8.7791    0.0000 </r>
      </set>
      <set comment="kpoint 38">
       <r>  -18.9972    1.0000 </r>
       <r>  -11.3445    1.0000 </r>
       <r>   -8.9485    1.0000 </r>
       <r>   -6.8509    1.0000 </r>
       <r>    2.3434    0.0000 </r>
       <r>    4.3006    0.0000 </r>
       <r>    5.1932    0.0000 </r>
       <r>    5.7713    0.0000 </r>
       <r>    6.0650    0.0000 </r>
       <r>    7.5716    0.0000 </r>
       <r>    8.3870    0.0000 </r>
       <r>    9.7650    0.0000 </r>
      </set>
      <set comment="kpoint 39">
       <r>  -18.3993    1.0000 </r>
       <r>  -12.3206    1.0000 </r>
       <r>   -9.2731    1.0000 </r>
       <r>   -6.2057    1.0000 </r>
       <r>    1.3662    0.0000 </r>
       <r>    5.1350    0.0000 </r>
       <r>    5.9023    0.0000 </r>
       <r>    6.0214    0.0000 </r>
       <r>    6.6473    0.0000 </r>
       <r>    8.3685    0.0000 </r>
       <r>    9.2219    0.0000 </r>
       <r>   10.6831    0.0000 </r>
      </set>
      <set comment="kpoint 40">
       <r>  -17.7422    1.0000 </r>
       <r>  -13.2793    1.0000 </r>
       <r>   -9.5173    1.0000 </r>
       <r>   -5.5354    1.0000 </r>
       <r>    0.4298    0.0000 </r>
       <r>    5.7462    0.0000 </r>
       <r>    6.1033    0.0000 </r>
       <r>    6.9368    0.0000 </r>
       <r>    7.6132    0.0000 </r>
       <r>    9.2177    0.0000 </r>
       <r>   10.1507    0.0000 </r>
       <r>   11.1280    0.0000 </r>
      </set>
      <set comment="kpoint 41">
       <r>  -17.0470    1.0000 </r>
       <r>  -14.1833    1.0000 </r>
       <r>   -9.6805    1.0000 </r>
       <r>   -4.9061    1.0000 </r>
       <r>   -0.3853    0.0000 </r>
       <r>    5.6712    0.0000 </r>
       <r>    7.1198    0.0000 </r>
       <r>    7.9159    0.0000 </r>
       <r>    8.6854    0.0000 </r>
       <r>    9.9943    0.0000 </r>
       <r>   10.5102    0.0000 </r>
       <r>   11.1871    0.0000 </r>
      </set>
      <set comment="kpoint 42">
       <r>  -16.4170    1.0000 </r>
       <r>  -14.9199    1.0000 </r>
       <r>   -9.7623    1.0000 </r>
       <r>   -4.4733    1.0000 </r>
       <r>   -0.9136    0.0000 </r>
       <r>    5.6263    0.0000 </r>
       <r>    8.2284    0.0000 </r>
       <r>    8.8598    0.0000 </r>
       <r>    9.4068    0.0000 </r>
       <r>    9.8644    0.0000 </r>
       <r>   10.0537    0.0000 </r>
       <r>   11.1279    0.0000 </r>
      </set>
      <set comment="kpoint 43">
       <r>  -19.5661    1.0000 </r>
       <r>  -10.1684    1.0000 </r>
       <r>   -8.7007    1.0000 </r>
       <r>   -7.4832    1.0000 </r>
       <r>    3.4210    0.0000 </r>
       <r>    3.5119    0.0000 </r>
       <r>    4.4018    0.0000 </r>
       <r>    4.9709    0.0000 </r>
       <r>    6.8010    0.0000 </r>
       <r>    6.8855    0.0000 </r>
       <r>    7.6210    0.0000 </r>
       <r>    7.9463    0.0000 </r>
      </set>
      <set comment="kpoint 44">
       <r>  -19.0727    1.0000 </r>
       <r>  -10.9545    1.0000 </r>
       <r>   -9.2613    1.0000 </r>
       <r>   -6.9300    1.0000 </r>
       <r>    2.5381    0.0000 </r>
       <r>    4.1965    0.0000 </r>
       <r>    5.0776    0.0000 </r>
       <r>    5.6713    0.0000 </r>
       <r>    7.0564    0.0000 </r>
       <r>    7.4570    0.0000 </r>
       <r>    8.2792    0.0000 </r>
       <r>    8.5684    0.0000 </r>
      </set>
      <set comment="kpoint 45">
       <r>  -18.5106    1.0000 </r>
       <r>  -11.8228    1.0000 </r>
       <r>   -9.7044    1.0000 </r>
       <r>   -6.3131    1.0000 </r>
       <r>    1.6255    0.0000 </r>
       <r>    4.9828    0.0000 </r>
       <r>    5.8477    0.0000 </r>
       <r>    6.4755    0.0000 </r>
       <r>    6.9570    0.0000 </r>
       <r>    8.1904    0.0000 </r>
       <r>    9.0540    0.0000 </r>
       <r>    9.5104    0.0000 </r>
      </set>
      <set comment="kpoint 46">
       <r>  -17.8853    1.0000 </r>
       <r>  -12.7293    1.0000 </r>
       <r>  -10.0343    1.0000 </r>
       <r>   -5.6518    1.0000 </r>
       <r>    0.7162    0.0000 </r>
       <r>    5.8660    0.0000 </r>
       <r>    6.6997    0.0000 </r>
       <r>    6.8141    0.0000 </r>
       <r>    7.4008    0.0000 </r>
       <r>    8.9626    0.0000 </r>
       <r>    9.9254    0.0000 </r>
       <r>   10.4085    0.0000 </r>
      </set>
      <set comment="kpoint 47">
       <r>  -17.2094    1.0000 </r>
       <r>  -13.6271    1.0000 </r>
       <r>  -10.2629    1.0000 </r>
       <r>   -4.9866    1.0000 </r>
       <r>   -0.1368    0.0000 </r>
       <r>    6.6618    0.0000 </r>
       <r>    6.8907    0.0000 </r>
       <r>    7.6022    0.0000 </r>
       <r>    8.4169    0.0000 </r>
       <r>    9.6549    0.0000 </r>
       <r>   10.6913    0.0000 </r>
       <r>   10.9904    0.0000 </r>
      </set>
      <set comment="kpoint 48">
       <r>  -16.5250    1.0000 </r>
       <r>  -14.4521    1.0000 </r>
       <r>  -10.3978    1.0000 </r>
       <r>   -4.4161    1.0000 </r>
       <r>   -0.8246    0.0000 </r>
       <r>    6.6213    0.0000 </r>
       <r>    7.9239    0.0000 </r>
       <r>    8.4502    0.0000 </r>
       <r>    9.5349    0.0000 </r>
       <r>   10.0482    0.0000 </r>
       <r>   10.1344    0.0000 </r>
       <r>   11.4420    0.0000 </r>
      </set>
      <set comment="kpoint 49">
       <r>  -16.1056    1.0000 </r>
       <r>  -14.9196    1.0000 </r>
       <r>  -10.4424    1.0000 </r>
       <r>   -4.1643    1.0000 </r>
       <r>   -1.1164    0.0000 </r>
       <r>    6.5988    0.0000 </r>
       <r>    8.8720    0.0000 </r>
       <r>    8.9418    0.0000 </r>
       <r>    9.1541    0.0000 </r>
       <r>   10.1751    0.0000 </r>
       <r>   10.7310    0.0000 </r>
       <r>   10.7767    0.0000 </r>
      </set>
      <set comment="kpoint 50">
       <r>  -18.5478    1.0000 </r>
       <r>  -11.5859    1.0000 </r>
       <r>   -9.9230    1.0000 </r>
       <r>   -6.3492    1.0000 </r>
       <r>    1.7196    0.0000 </r>
       <r>    4.9310    0.0000 </r>
       <r>    5.7884    0.0000 </r>
       <r>    6.4252    0.0000 </r>
       <r>    7.8778    0.0000 </r>
       <r>    8.1294    0.0000 </r>
       <r>    8.4976    0.0000 </r>
       <r>    9.0341    0.0000 </r>
      </set>
      <set comment="kpoint 51">
       <r>  -17.9576    1.0000 </r>
       <r>  -12.3116    1.0000 </r>
       <r>  -10.4453    1.0000 </r>
       <r>   -5.7119    1.0000 </r>
       <r>    0.8799    0.0000 </r>
       <r>    5.7647    0.0000 </r>
       <r>    6.5762    0.0000 </r>
       <r>    7.2833    0.0000 </r>
       <r>    7.9785    0.0000 </r>
       <r>    8.8265    0.0000 </r>
       <r>    9.2333    0.0000 </r>
       <r>    9.8723    0.0000 </r>
      </set>
      <set comment="kpoint 52">
       <r>  -17.3105    1.0000 </r>
       <r>  -13.1118    1.0000 </r>
       <r>  -10.8083    1.0000 </r>
       <r>   -5.0422    1.0000 </r>
       <r>    0.0499    0.0000 </r>
       <r>    6.6910    0.0000 </r>
       <r>    7.3987    0.0000 </r>
       <r>    7.8474    0.0000 </r>
       <r>    8.2609    0.0000 </r>
       <r>    9.4187    0.0000 </r>
       <r>   10.1017    0.0000 </r>
       <r>   10.8037    0.0000 </r>
      </set>
      <set comment="kpoint 53">
       <r>  -16.6275    1.0000 </r>
       <r>  -13.9240    1.0000 </r>
       <r>  -11.0332    1.0000 </r>
       <r>   -4.3955    1.0000 </r>
       <r>   -0.7084    0.0000 </r>
       <r>    7.6352    0.0000 </r>
       <r>    7.8231    0.0000 </r>
       <r>    8.1273    0.0000 </r>
       <r>    9.3217    0.0000 </r>
       <r>    9.8277    0.0000 </r>
       <r>   10.4609    0.0000 </r>
       <r>   11.5833    0.0000 </r>
      </set>
      <set comment="kpoint 54">
       <r>  -16.0058    1.0000 </r>
       <r>  -14.6178    1.0000 </r>
       <r>  -11.1409    1.0000 </r>
       <r>   -3.9244    1.0000 </r>
       <r>   -1.2371    0.0000 </r>
       <r>    7.6859    0.0000 </r>
       <r>    8.5157    0.0000 </r>
       <r>    8.7832    0.0000 </r>
       <r>    9.8465    0.0000 </r>
       <r>   10.3577    0.0000 </r>
       <r>   10.4911    0.0000 </r>
       <r>   11.6937    0.0000 </r>
      </set>
      <set comment="kpoint 55">
       <r>  -17.3447    1.0000 </r>
       <r>  -12.8608    1.0000 </r>
       <r>  -11.0718    1.0000 </r>
       <r>   -5.0619    1.0000 </r>
       <r>    0.1196    0.0000 </r>
       <r>    6.6409    0.0000 </r>
       <r>    7.3271    0.0000 </r>
       <r>    8.1931    0.0000 </r>
       <r>    9.0137    0.0000 </r>
       <r>    9.0660    0.0000 </r>
       <r>    9.3344    0.0000 </r>
       <r>   10.7382    0.0000 </r>
      </set>
      <set comment="kpoint 56">
       <r>  -16.6846    1.0000 </r>
       <r>  -13.5041    1.0000 </r>
       <r>  -11.5085    1.0000 </r>
       <r>   -4.3914    1.0000 </r>
       <r>   -0.6291    0.0000 </r>
       <r>    7.5986    0.0000 </r>
       <r>    7.9459    0.0000 </r>
       <r>    8.8895    0.0000 </r>
       <r>    9.2188    0.0000 </r>
       <r>    9.6851    0.0000 </r>
       <r>    9.9497    0.0000 </r>
       <r>   11.5598    0.0000 </r>
      </set>
      <set comment="kpoint 57">
       <r>  -16.0153    1.0000 </r>
       <r>  -14.1902    1.0000 </r>
       <r>  -11.7501    1.0000 </r>
       <r>   -3.7759    1.0000 </r>
       <r>   -1.2916    0.0000 </r>
       <r>    8.2180    0.0000 </r>
       <r>    8.5683    0.0000 </r>
       <r>    8.8526    0.0000 </r>
       <r>   10.2091    0.0000 </r>
       <r>   10.3018    0.0000 </r>
       <r>   10.4036    0.0000 </r>
       <r>   12.2376    0.0000 </r>
      </set>
      <set comment="kpoint 58">
       <r>  -15.5918    1.0000 </r>
       <r>  -14.6250    1.0000 </r>
       <r>  -11.8262    1.0000 </r>
       <r>   -3.4697    1.0000 </r>
       <r>   -1.6135    0.0000 </r>
       <r>    8.2618    0.0000 </r>
       <r>    8.7436    0.0000 </r>
       <r>    9.4713    0.0000 </r>
       <r>    9.8417    0.0000 </r>
       <r>   10.9758    0.0000 </r>
       <r>   11.4330    0.0000 </r>
       <r>   11.5493    0.0000 </r>
      </set>
      <set comment="kpoint 59">
       <r>  -16.0274    1.0000 </r>
       <r>  -13.9627    1.0000 </r>
       <r>  -12.0313    1.0000 </r>
       <r>   -3.7263    1.0000 </r>
       <r>   -1.3055    0.0000 </r>
       <r>    8.1076    0.0000 </r>
       <r>    8.5561    0.0000 </r>
       <r>    9.5865    0.0000 </r>
       <r>    9.9927    0.0000 </r>
       <r>   10.2631    0.0000 </r>
       <r>   10.3337    0.0000 </r>
       <r>   12.3768    0.0000 </r>
      </set>
      <set comment="kpoint 60">
       <r>  -15.4095    1.0000 </r>
       <r>  -14.4790    1.0000 </r>
       <r>  -12.2989    1.0000 </r>
       <r>   -3.1428    1.0000 </r>
       <r>   -1.8922    0.0000 </r>
       <r>    8.0731    0.0000 </r>
       <r>    9.4077    0.0000 </r>
       <r>    9.6438    0.0000 </r>
       <r>   10.3363    0.0000 </r>
       <r>   11.1721    0.0000 </r>
       <r>   11.4077    0.0000 </r>
       <r>   12.2808    0.0000 </r>
      </set>
      <set comment="kpoint 61">
       <r>  -14.8761    1.0000 </r>
       <r>  -14.8759    1.0000 </r>
       <r>  -12.5142    1.0000 </r>
       <r>   -2.5111    0.5004 </r>
       <r>   -2.5111    0.4996 </r>
       <r>    7.9993    0.0000 </r>
       <r>    9.8086    0.0000 </r>
       <r>    9.8086    0.0000 </r>
       <r>   10.6491    0.0000 </r>
       <r>   12.1544    0.0000 </r>
       <r>   12.1545    0.0000 </r>
       <r>   12.5939    0.0000 </r>
      </set>
     </set>
    </set>
   </array>
  </eigenvalues>
  <separator name="orbital magnetization" >
   <v name="MAGDIPOLOUT">      0.00000000      0.00000000      0.00000000</v>
  </separator>
  <dos>
   <i name="efermi">     -2.51110535 </i>
   <total>
    <array>
     <dimension dim="1">gridpoints</dimension>
     <dimension dim="2">spin</dimension>
     <field>energy</field>
     <field>total</field>
     <field>integrated</field>
     <set>
      <set comment="spin 1">
       <r>   -23.1265     0.0000     0.0000 </r>
       <r>   -23.0018     0.0000     0.0000 </r>
       <r>   -22.8770     0.0000     0.0000 </r>
       <r>   -22.7523     0.0000     0.0000 </r>
       <r>   -22.6276     0.0000     0.0000 </r>
       <r>   -22.5028     0.0000     0.0000 </r>
       <r>   -22.3781     0.0000     0.0000 </r>
       <r>   -22.2534     0.0000     0.0000 </r>
       <r>   -22.1286     0.0000     0.0000 </r>
       <r>   -22.0039     0.0000     0.0000 </r>
       <r>   -21.8791     0.0000     0.0000 </r>
       <r>   -21.7544     0.0000     0.0000 </r>
       <r>   -21.6297     0.0000     0.0000 </r>
       <r>   -21.5049     0.0000     0.0000 </r>
       <r>   -21.3802     0.1394     0.0174 </r>
       <r>   -21.2555     0.3604     0.0623 </r>
       <r>   -21.1307     0.3387     0.1046 </r>
       <r>   -21.0060     0.1914     0.1285 </r>
       <r>   -20.8812     0.4991     0.1907 </r>
       <r>   -20.7565     0.1668     0.2118 </r>
       <r>   -20.6318     0.3448     0.2548 </r>
       <r>   -20.5070     0.3232     0.2951 </r>
       <r>   -20.3823     0.2102     0.3214 </r>
       <r>   -20.2576     0.4588     0.3786 </r>
       <r>   -20.1328     0.3331     0.4201 </r>
       <r>   -20.0081     0.1732     0.4417 </r>
       <r>   -19.8833     0.6527     0.5232 </r>
       <r>   -19.7586     0.1607     0.5432 </r>
       <r>   -19.6339     0.1826     0.5660 </r>
       <r>   -19.5091     0.6213     0.6435 </r>
       <r>   -19.3844     0.3742     0.6902 </r>
       <r>   -19.2596     0.0084     0.6912 </r>
       <r>   -19.1349     0.3322     0.7326 </r>
       <r>   -19.0102     0.3939     0.7818 </r>
       <r>   -18.8854     0.4422     0.8369 </r>
       <r>   -18.7607     0.3330     0.8785 </r>
       <r>   -18.6360     0.0552     0.8854 </r>
       <r>   -18.5112     0.6061     0.9610 </r>
       <r>   -18.3865     0.4462     1.0167 </r>
       <r>   -18.2617     0.2280     1.0452 </r>
       <r>   -18.1370     0.3339     1.0868 </r>
       <r>   -18.0123     0.0001     1.0868 </r>
       <r>   -17.8875     0.8145     1.1884 </r>
       <r>   -17.7628     0.2117     1.2148 </r>
       <r>   -17.6381     0.3997     1.2647 </r>
       <r>   -17.5133     0.3772     1.3117 </r>
       <r>   -17.3886     0.0342     1.3160 </r>
       <r>   -17.2638     0.6287     1.3944 </r>
       <r>   -17.1391     0.5401     1.4618 </r>
       <r>   -17.0144     0.3305     1.5030 </r>
       <r>   -16.8896     0.1706     1.5243 </r>
       <r>   -16.7649     0.3340     1.5660 </r>
       <r>   -16.6402     0.4385     1.6207 </r>
       <r>   -16.5154     0.8614     1.7282 </r>
       <r>   -16.3907     0.6024     1.8033 </r>
       <r>   -16.2659     0.0181     1.8056 </r>
       <r>   -16.1412     0.0010     1.8057 </r>
       <r>   -16.0165     0.5274     1.8715 </r>
       <r>   -15.8917     0.4737     1.9306 </r>
       <r>   -15.7670     0.0000     1.9306 </r>
       <r>   -15.6422     0.0000     1.9306 </r>
       <r>   -15.5175     0.1670     1.9514 </r>
       <r>   -15.3928     0.2945     1.9881 </r>
       <r>   -15.2680     0.0806     1.9982 </r>
       <r>   -15.1433     0.2077     2.0241 </r>
       <r>   -15.0186     0.3358     2.0660 </r>
       <r>   -14.8938     0.4959     2.1278 </r>
       <r>   -14.7691     0.2593     2.1602 </r>
       <r>   -14.6443     0.3826     2.2079 </r>
       <r>   -14.5196     0.4773     2.2674 </r>
       <r>   -14.3949     0.6675     2.3507 </r>
       <r>   -14.2701     0.3339     2.3924 </r>
       <r>   -14.1454     0.6666     2.4755 </r>
       <r>   -14.0207     0.0000     2.4757 </r>
       <r>   -13.8959     0.6419     2.5558 </r>
       <r>   -13.7712     0.3602     2.6007 </r>
       <r>   -13.6464     0.0285     2.6043 </r>
       <r>   -13.5217     0.3409     2.6468 </r>
       <r>   -13.3970     0.6057     2.7223 </r>
       <r>   -13.2722     0.2582     2.7545 </r>
       <r>   -13.1475     0.1047     2.7676 </r>
       <r>   -13.0228     0.3321     2.8090 </r>
       <r>   -12.8980     0.1869     2.8323 </r>
       <r>   -12.7733     0.4812     2.8924 </r>
       <r>   -12.6485     0.3337     2.9340 </r>
       <r>   -12.5238     0.0139     2.9358 </r>
       <r>   -12.3991     0.3489     2.9793 </r>
       <r>   -12.2743     1.0137     3.1057 </r>
       <r>   -12.1496     0.0137     3.1076 </r>
       <r>   -12.0248     0.1130     3.1217 </r>
       <r>   -11.9001     0.2087     3.1478 </r>
       <r>   -11.7754     0.8597     3.2550 </r>
       <r>   -11.6506     0.3216     3.2951 </r>
       <r>   -11.5259     0.2034     3.3205 </r>
       <r>   -11.4012     0.3341     3.3622 </r>
       <r>   -11.2764     0.6316     3.4410 </r>
       <r>   -11.1517     0.0744     3.4503 </r>
       <r>   -11.0269     0.6508     3.5314 </r>
       <r>   -10.9022     0.4444     3.5869 </r>
       <r>   -10.7775     0.8295     3.6904 </r>
       <r>   -10.6527     0.0049     3.6910 </r>
       <r>   -10.5280     0.0000     3.6910 </r>
       <r>   -10.4033     0.6461     3.7716 </r>
       <r>   -10.2785     0.9012     3.8841 </r>
       <r>   -10.1538     0.4307     3.9378 </r>
       <r>   -10.0290     0.2408     3.9679 </r>
       <r>    -9.9043     0.2699     4.0015 </r>
       <r>    -9.7796     0.5478     4.0699 </r>
       <r>    -9.6548     0.9603     4.1896 </r>
       <r>    -9.5301     0.2669     4.2229 </r>
       <r>    -9.4054     0.9403     4.3402 </r>
       <r>    -9.2806     0.7239     4.4306 </r>
       <r>    -9.1559     1.2547     4.5871 </r>
       <r>    -9.0311     0.7183     4.6767 </r>
       <r>    -8.9064     0.5262     4.7423 </r>
       <r>    -8.7817     1.1847     4.8902 </r>
       <r>    -8.6569     1.5804     5.0873 </r>
       <r>    -8.5322     1.1992     5.2369 </r>
       <r>    -8.4074     0.3224     5.2771 </r>
       <r>    -8.2827     1.2368     5.4314 </r>
       <r>    -8.1580     0.6893     5.5174 </r>
       <r>    -8.0332     0.8325     5.6212 </r>
       <r>    -7.9085     0.8435     5.7264 </r>
       <r>    -7.7838     0.8870     5.8371 </r>
       <r>    -7.6590     0.7769     5.9340 </r>
       <r>    -7.5343     0.0152     5.9359 </r>
       <r>    -7.4095     1.2930     6.0972 </r>
       <r>    -7.2848     1.0251     6.2252 </r>
       <r>    -7.1601     0.1713     6.2465 </r>
       <r>    -7.0353     0.3744     6.2932 </r>
       <r>    -6.9106     1.1122     6.4320 </r>
       <r>    -6.7859     0.6839     6.5173 </r>
       <r>    -6.6611     0.3307     6.5586 </r>
       <r>    -6.5364     0.5075     6.6219 </r>
       <r>    -6.4116     0.8319     6.7257 </r>
       <r>    -6.2869     0.4903     6.7869 </r>
       <r>    -6.1622     0.7476     6.8801 </r>
       <r>    -6.0374     0.6137     6.9568 </r>
       <r>    -5.9127     0.3188     6.9966 </r>
       <r>    -5.7880     0.5320     7.0630 </r>
       <r>    -5.6632     0.7230     7.1532 </r>
       <r>    -5.5385     0.6065     7.2288 </r>
       <r>    -5.4137     0.3651     7.2744 </r>
       <r>    -5.2890     0.3337     7.3160 </r>
       <r>    -5.1643     0.2268     7.3443 </r>
       <r>    -5.0395     0.4570     7.4013 </r>
       <r>    -4.9148     0.7422     7.4939 </r>
       <r>    -4.7900     0.5726     7.5653 </r>
       <r>    -4.6653     0.4228     7.6181 </r>
       <r>    -4.5406     0.1669     7.6389 </r>
       <r>    -4.4158     0.5427     7.7066 </r>
       <r>    -4.2911     0.7934     7.8056 </r>
       <r>    -4.1664     0.0738     7.8148 </r>
       <r>    -4.0416     0.0933     7.8264 </r>
       <r>    -3.9169     0.2345     7.8556 </r>
       <r>    -3.7921     0.1412     7.8733 </r>
       <r>    -3.6674     0.4593     7.9306 </r>
       <r>    -3.5427     0.0000     7.9306 </r>
       <r>    -3.4179     0.1670     7.9514 </r>
       <r>    -3.2932     0.0000     7.9514 </r>
       <r>    -3.1685     0.0117     7.9528 </r>
       <r>    -3.0437     0.3223     7.9931 </r>
       <r>    -2.9190     0.0000     7.9931 </r>
       <r>    -2.7942     0.0000     7.9931 </r>
       <r>    -2.6695     0.0000     7.9931 </r>
       <r>    -2.5448     0.0010     7.9932 </r>
       <r>    -2.4200     0.1104     8.0069 </r>
       <r>    -2.2953     0.0000     8.0069 </r>
       <r>    -2.1706     0.0000     8.0069 </r>
       <r>    -2.0458     0.0000     8.0069 </r>
       <r>    -1.9211     0.0068     8.0078 </r>
       <r>    -1.7963     0.3272     8.0486 </r>
       <r>    -1.6716     0.0000     8.0486 </r>
       <r>    -1.5469     0.1670     8.0694 </r>
       <r>    -1.4221     0.0000     8.0694 </r>
       <r>    -1.2974     0.2338     8.0986 </r>
       <r>    -1.1726     0.6013     8.1736 </r>
       <r>    -1.0479     0.1670     8.1944 </r>
       <r>    -0.9232     0.1397     8.2119 </r>
       <r>    -0.7984     1.0015     8.3368 </r>
       <r>    -0.6737     0.4436     8.3921 </r>
       <r>    -0.5490     0.8354     8.4963 </r>
       <r>    -0.4242     0.0025     8.4967 </r>
       <r>    -0.2995     0.3442     8.5396 </r>
       <r>    -0.1747     0.3241     8.5800 </r>
       <r>    -0.0500     0.3328     8.6215 </r>
       <r>     0.0747     0.4361     8.6759 </r>
       <r>     0.1995     0.5660     8.7465 </r>
       <r>     0.3242     0.0000     8.7465 </r>
       <r>     0.4489     0.3048     8.7845 </r>
       <r>     0.5737     0.2446     8.8151 </r>
       <r>     0.6984     0.1536     8.8342 </r>
       <r>     0.8232     0.2991     8.8715 </r>
       <r>     0.9479     0.3357     8.9134 </r>
       <r>     1.0726     0.6352     8.9926 </r>
       <r>     1.1974     0.3681     9.0385 </r>
       <r>     1.3221     0.0526     9.0451 </r>
       <r>     1.4468     0.7193     9.1348 </r>
       <r>     1.5716     0.3826     9.1826 </r>
       <r>     1.6963     0.8813     9.2925 </r>
       <r>     1.8211     0.2528     9.3242 </r>
       <r>     1.9458     0.2676     9.3576 </r>
       <r>     2.0705     0.9492     9.4760 </r>
       <r>     2.1953     0.5545     9.5452 </r>
       <r>     2.3200     0.5180     9.6098 </r>
       <r>     2.4448     0.8866     9.7204 </r>
       <r>     2.5695     1.2366     9.8747 </r>
       <r>     2.6942     0.9044     9.9875 </r>
       <r>     2.8190     0.4901    10.0486 </r>
       <r>     2.9437     0.9428    10.1662 </r>
       <r>     3.0684     1.2784    10.3257 </r>
       <r>     3.1932     0.5470    10.3940 </r>
       <r>     3.3179     0.9339    10.5106 </r>
       <r>     3.4427     0.9609    10.6304 </r>
       <r>     3.5674     1.1583    10.7751 </r>
       <r>     3.6921     0.5301    10.8412 </r>
       <r>     3.8169     0.7831    10.9389 </r>
       <r>     3.9416     1.0476    11.0696 </r>
       <r>     4.0663     0.6126    11.1460 </r>
       <r>     4.1911     0.9037    11.2587 </r>
       <r>     4.3158     1.6513    11.4647 </r>
       <r>     4.4406     1.7037    11.6773 </r>
       <r>     4.5653     2.0939    11.9385 </r>
       <r>     4.6900     1.2069    12.0891 </r>
       <r>     4.8148     0.9705    12.2101 </r>
       <r>     4.9395     1.8765    12.4443 </r>
       <r>     5.0642     2.6097    12.7698 </r>
       <r>     5.1890     2.1236    13.0348 </r>
       <r>     5.3137     2.0195    13.2868 </r>
       <r>     5.4385     2.7060    13.6243 </r>
       <r>     5.5632     1.3500    13.7928 </r>
       <r>     5.6879     1.8411    14.0225 </r>
       <r>     5.8127     3.5713    14.4680 </r>
       <r>     5.9374     1.8235    14.6958 </r>
       <r>     6.0622     1.1635    14.8409 </r>
       <r>     6.1869     1.6323    15.0446 </r>
       <r>     6.3116     1.9342    15.2859 </r>
       <r>     6.4364     1.4297    15.4642 </r>
       <r>     6.5611     1.3087    15.6274 </r>
       <r>     6.6858     2.6205    15.9544 </r>
       <r>     6.8106     1.6620    16.1619 </r>
       <r>     6.9353     2.0862    16.4221 </r>
       <r>     7.0601     1.6869    16.6326 </r>
       <r>     7.1848     1.5208    16.8225 </r>
       <r>     7.3095     1.6234    17.0250 </r>
       <r>     7.4343     1.5668    17.2204 </r>
       <r>     7.5590     0.8831    17.3308 </r>
       <r>     7.6837     2.8486    17.6861 </r>
       <r>     7.8085     1.2391    17.8407 </r>
       <r>     7.9332     2.3766    18.1372 </r>
       <r>     8.0580     2.1362    18.4036 </r>
       <r>     8.1827     1.7346    18.6202 </r>
       <r>     8.3074     2.0838    18.8801 </r>
       <r>     8.4322     1.7100    19.0935 </r>
       <r>     8.5569     1.4562    19.2752 </r>
       <r>     8.6817     1.5934    19.4740 </r>
       <r>     8.8064     1.4628    19.6564 </r>
       <r>     8.9311     2.2568    19.9379 </r>
       <r>     9.0559     1.8191    20.1649 </r>
       <r>     9.1806     1.3420    20.3324 </r>
       <r>     9.3053     1.6443    20.5375 </r>
       <r>     9.4301     1.5146    20.7264 </r>
       <r>     9.5548     1.7682    20.9469 </r>
       <r>     9.6796     1.3867    21.1200 </r>
       <r>     9.8043     0.9326    21.2365 </r>
       <r>     9.9290     2.4475    21.5419 </r>
       <r>    10.0538     2.4726    21.8504 </r>
       <r>    10.1785     1.5725    22.0465 </r>
       <r>    10.3032     1.3131    22.2104 </r>
       <r>    10.4280     2.7296    22.5509 </r>
       <r>    10.5527     1.3725    22.7222 </r>
       <r>    10.6775     0.3915    22.7711 </r>
       <r>    10.8022     1.2081    22.9218 </r>
       <r>    10.9269     0.9609    23.0416 </r>
       <r>    11.0517     2.0044    23.2916 </r>
       <r>    11.1764     0.9497    23.4101 </r>
       <r>    11.3011     0.4964    23.4721 </r>
       <r>    11.4259     0.4516    23.5284 </r>
       <r>    11.5506     1.2174    23.6803 </r>
       <r>    11.6754     1.0917    23.8164 </r>
       <r>    11.8001     0.3016    23.8542 </r>
       <r>    11.9248     0.0041    23.8547 </r>
       <r>    12.0496     0.1629    23.8750 </r>
       <r>    12.1743     0.1024    23.8878 </r>
       <r>    12.2991     0.6439    23.9681 </r>
       <r>    12.4238     0.2000    23.9930 </r>
       <r>    12.5485     0.0000    23.9931 </r>
       <r>    12.6733     0.0556    24.0000 </r>
       <r>    12.7980     0.0000    24.0000 </r>
       <r>    12.9227     0.0000    24.0000 </r>
       <r>    13.0475     0.0000    24.0000 </r>
       <r>    13.1722     0.0000    24.0000 </r>
       <r>    13.2970     0.0000    24.0000 </r>
       <r>    13.4217     0.0000    24.0000 </r>
       <r>    13.5464     0.0000    24.0000 </r>
       <r>    13.6712     0.0000    24.0000 </r>
       <r>    13.7959     0.0000    24.0000 </r>
       <r>    13.9206     0.0000    24.0000 </r>
       <r>    14.0454     0.0000    24.0000 </r>
       <r>    14.1701     0.0000    24.0000 </r>
       <r>    14.2949     0.0000    24.0000 </r>
      </set>
     </set>
    </array>
   </total>
  </dos>
 </calculation>
 <structure name="finalpos" >
  <crystal>
   <varray name="basis" >
    <v>       2.52896000       0.00000000       0.00000000 </v>
    <v>      -1.26448000       2.19014300       0.00000000 </v>
    <v>       0.00000000       0.00000000      15.00000000 </v>
   </varray>
   <i name="volume">     83.08176062 </i>
   <varray name="rec_basis" >
    <v>       0.39541946       0.22829560       0.00000000 </v>
    <v>       0.00000000       0.45659119       0.00000000 </v>
    <v>       0.00000000       0.00000000       0.06666667 </v>
   </varray>
  </crystal>
  <varray name="positions" >
   <v>       0.00000000       0.00000000       0.50000000 </v>
   <v>       0.33333300       0.66666700       0.50000000 </v>
  </varray>
 </structure>
</modeling>
