<?xml version="1.0" encoding="ISO-8859-1"?>
<modeling>
 <generator>
  <i name="program" type="string">vasp </i>
  <i name="version" type="string">5.4.1  </i>
  <i name="subversion" type="string">24Jun15 (build Nov 20 2020 10:29:34) complex                          parallel </i>
  <i name="platform" type="string">IFC91_ompi </i>
  <i name="date" type="string">2021 09 09 </i>
  <i name="time" type="string">14:51:40 </i>
 </generator>
 <incar>
  <i type="string" name="PREC">a</i>
  <i type="string" name="ALGO"> Normal</i>
  <i type="int" name="ISPIN">     1</i>
  <i type="int" name="ICHARG">     2</i>
  <i type="int" name="NELM">   250</i>
  <i type="int" name="NELMDL">    -5</i>
  <i type="int" name="NELMIN">     6</i>
  <i type="int" name="IBRION">     2</i>
  <i name="EDIFF">      0.00001000</i>
  <i name="EDIFFG">     -0.01000000</i>
  <i type="int" name="NSW">   200</i>
  <i type="int" name="ISIF">     2</i>
  <i name="ENCUT">    520.00000000</i>
  <i name="POTIM">      0.30000000</i>
  <i type="logical" name="LREAL"> F  </i>
  <i type="int" name="ISMEAR">     0</i>
  <i name="SIGMA">      0.02000000</i>
  <i type="logical" name="LWAVE"> F  </i>
  <i type="logical" name="LCHARG"> F  </i>
  <i type="logical" name="LAECHG"> F  </i>
  <v type="int" name="KPOINT_BSE">    -1     0     0     0</v>
  <i type="int" name="NELM">   250</i>
 </incar>
 <kpoints>
  <generation param="Gamma">
   <v type="int" name="divisions">      22       15        1 </v>
   <v name="usershift">      0.00000000       0.00000000       0.00000000 </v>
   <v name="genvec1">      0.04545455       0.00000000       0.00000000 </v>
   <v name="genvec2">      0.00000000       0.06666667       0.00000000 </v>
   <v name="genvec3">      0.00000000       0.00000000       1.00000000 </v>
   <v name="shift">      0.00000000       0.00000000       0.00000000 </v>
  </generation>
  <varray name="kpointlist" >
   <v>       0.00000000       0.00000000       0.00000000 </v>
   <v>       0.04545455       0.00000000       0.00000000 </v>
   <v>       0.09090909       0.00000000       0.00000000 </v>
   <v>       0.13636364       0.00000000       0.00000000 </v>
   <v>       0.18181818       0.00000000       0.00000000 </v>
   <v>       0.22727273       0.00000000       0.00000000 </v>
   <v>       0.27272727       0.00000000       0.00000000 </v>
   <v>       0.31818182       0.00000000       0.00000000 </v>
   <v>       0.36363636       0.00000000       0.00000000 </v>
   <v>       0.40909091       0.00000000       0.00000000 </v>
   <v>       0.45454545       0.00000000       0.00000000 </v>
   <v>       0.50000000       0.00000000       0.00000000 </v>
   <v>       0.00000000       0.06666667       0.00000000 </v>
   <v>       0.04545455       0.06666667       0.00000000 </v>
   <v>       0.09090909       0.06666667       0.00000000 </v>
   <v>       0.13636364       0.06666667       0.00000000 </v>
   <v>       0.18181818       0.06666667       0.00000000 </v>
   <v>       0.22727273       0.06666667       0.00000000 </v>
   <v>       0.27272727       0.06666667       0.00000000 </v>
   <v>       0.31818182       0.06666667       0.00000000 </v>
   <v>       0.36363636       0.06666667       0.00000000 </v>
   <v>       0.40909091       0.06666667       0.00000000 </v>
   <v>       0.45454545       0.06666667       0.00000000 </v>
   <v>       0.50000000       0.06666667       0.00000000 </v>
   <v>      -0.45454545       0.06666667       0.00000000 </v>
   <v>      -0.40909091       0.06666667       0.00000000 </v>
   <v>      -0.36363636       0.06666667       0.00000000 </v>
   <v>      -0.31818182       0.06666667       0.00000000 </v>
   <v>      -0.27272727       0.06666667       0.00000000 </v>
   <v>      -0.22727273       0.06666667       0.00000000 </v>
   <v>      -0.18181818       0.06666667       0.00000000 </v>
   <v>      -0.13636364       0.06666667       0.00000000 </v>
   <v>      -0.09090909       0.06666667       0.00000000 </v>
   <v>      -0.04545455       0.06666667       0.00000000 </v>
   <v>       0.00000000       0.13333333       0.00000000 </v>
   <v>       0.04545455       0.13333333       0.00000000 </v>
   <v>       0.09090909       0.13333333       0.00000000 </v>
   <v>       0.13636364       0.13333333       0.00000000 </v>
   <v>       0.18181818       0.13333333       0.00000000 </v>
   <v>       0.22727273       0.13333333       0.00000000 </v>
   <v>       0.27272727       0.13333333       0.00000000 </v>
   <v>       0.31818182       0.13333333       0.00000000 </v>
   <v>       0.36363636       0.13333333       0.00000000 </v>
   <v>       0.40909091       0.13333333       0.00000000 </v>
   <v>       0.45454545       0.13333333       0.00000000 </v>
   <v>       0.50000000       0.13333333       0.00000000 </v>
   <v>      -0.45454545       0.13333333       0.00000000 </v>
   <v>      -0.40909091       0.13333333       0.00000000 </v>
   <v>      -0.36363636       0.13333333       0.00000000 </v>
   <v>      -0.31818182       0.13333333       0.00000000 </v>
   <v>      -0.27272727       0.13333333       0.00000000 </v>
   <v>      -0.22727273       0.13333333       0.00000000 </v>
   <v>      -0.18181818       0.13333333       0.00000000 </v>
   <v>      -0.13636364       0.13333333       0.00000000 </v>
   <v>      -0.09090909       0.13333333       0.00000000 </v>
   <v>      -0.04545455       0.13333333       0.00000000 </v>
   <v>       0.00000000       0.20000000       0.00000000 </v>
   <v>       0.04545455       0.20000000       0.00000000 </v>
   <v>       0.09090909       0.20000000       0.00000000 </v>
   <v>       0.13636364       0.20000000       0.00000000 </v>
   <v>       0.18181818       0.20000000       0.00000000 </v>
   <v>       0.22727273       0.20000000       0.00000000 </v>
   <v>       0.27272727       0.20000000       0.00000000 </v>
   <v>       0.31818182       0.20000000       0.00000000 </v>
   <v>       0.36363636       0.20000000       0.00000000 </v>
   <v>       0.40909091       0.20000000       0.00000000 </v>
   <v>       0.45454545       0.20000000       0.00000000 </v>
   <v>       0.50000000       0.20000000       0.00000000 </v>
   <v>      -0.45454545       0.20000000       0.00000000 </v>
   <v>      -0.40909091       0.20000000       0.00000000 </v>
   <v>      -0.36363636       0.20000000       0.00000000 </v>
   <v>      -0.31818182       0.20000000       0.00000000 </v>
   <v>      -0.27272727       0.20000000       0.00000000 </v>
   <v>      -0.22727273       0.20000000       0.00000000 </v>
   <v>      -0.18181818       0.20000000       0.00000000 </v>
   <v>      -0.13636364       0.20000000       0.00000000 </v>
   <v>      -0.09090909       0.20000000       0.00000000 </v>
   <v>      -0.04545455       0.20000000       0.00000000 </v>
   <v>       0.00000000       0.26666667       0.00000000 </v>
   <v>       0.04545455       0.26666667       0.00000000 </v>
   <v>       0.09090909       0.26666667       0.00000000 </v>
   <v>       0.13636364       0.26666667       0.00000000 </v>
   <v>       0.18181818       0.26666667       0.00000000 </v>
   <v>       0.22727273       0.26666667       0.00000000 </v>
   <v>       0.27272727       0.26666667       0.00000000 </v>
   <v>       0.31818182       0.26666667       0.00000000 </v>
   <v>       0.36363636       0.26666667       0.00000000 </v>
   <v>       0.40909091       0.26666667       0.00000000 </v>
   <v>       0.45454545       0.26666667       0.00000000 </v>
   <v>       0.50000000       0.26666667       0.00000000 </v>
   <v>      -0.45454545       0.26666667       0.00000000 </v>
   <v>      -0.40909091       0.26666667       0.00000000 </v>
   <v>      -0.36363636       0.26666667       0.00000000 </v>
   <v>      -0.31818182       0.26666667       0.00000000 </v>
   <v>      -0.27272727       0.26666667       0.00000000 </v>
   <v>      -0.22727273       0.26666667       0.00000000 </v>
   <v>      -0.18181818       0.26666667       0.00000000 </v>
   <v>      -0.13636364       0.26666667       0.00000000 </v>
   <v>      -0.09090909       0.26666667       0.00000000 </v>
   <v>      -0.04545455       0.26666667       0.00000000 </v>
   <v>       0.00000000       0.33333333       0.00000000 </v>
   <v>       0.04545455       0.33333333       0.00000000 </v>
   <v>       0.09090909       0.33333333       0.00000000 </v>
   <v>       0.13636364       0.33333333       0.00000000 </v>
   <v>       0.18181818       0.33333333       0.00000000 </v>
   <v>       0.22727273       0.33333333       0.00000000 </v>
   <v>       0.27272727       0.33333333       0.00000000 </v>
   <v>       0.31818182       0.33333333       0.00000000 </v>
   <v>       0.36363636       0.33333333       0.00000000 </v>
   <v>       0.40909091       0.33333333       0.00000000 </v>
   <v>       0.45454545       0.33333333       0.00000000 </v>
   <v>       0.50000000       0.33333333       0.00000000 </v>
   <v>      -0.45454545       0.33333333       0.00000000 </v>
   <v>      -0.40909091       0.33333333       0.00000000 </v>
   <v>      -0.36363636       0.33333333       0.00000000 </v>
   <v>      -0.31818182       0.33333333       0.00000000 </v>
   <v>      -0.27272727       0.33333333       0.00000000 </v>
   <v>      -0.22727273       0.33333333       0.00000000 </v>
   <v>      -0.18181818       0.33333333       0.00000000 </v>
   <v>      -0.13636364       0.33333333       0.00000000 </v>
   <v>      -0.09090909       0.33333333       0.00000000 </v>
   <v>      -0.04545455       0.33333333       0.00000000 </v>
   <v>       0.00000000       0.40000000       0.00000000 </v>
   <v>       0.04545455       0.40000000       0.00000000 </v>
   <v>       0.09090909       0.40000000       0.00000000 </v>
   <v>       0.13636364       0.40000000       0.00000000 </v>
   <v>       0.18181818       0.40000000       0.00000000 </v>
   <v>       0.22727273       0.40000000       0.00000000 </v>
   <v>       0.27272727       0.40000000       0.00000000 </v>
   <v>       0.31818182       0.40000000       0.00000000 </v>
   <v>       0.36363636       0.40000000       0.00000000 </v>
   <v>       0.40909091       0.40000000       0.00000000 </v>
   <v>       0.45454545       0.40000000       0.00000000 </v>
   <v>       0.50000000       0.40000000       0.00000000 </v>
   <v>      -0.45454545       0.40000000       0.00000000 </v>
   <v>      -0.40909091       0.40000000       0.00000000 </v>
   <v>      -0.36363636       0.40000000       0.00000000 </v>
   <v>      -0.31818182       0.40000000       0.00000000 </v>
   <v>      -0.27272727       0.40000000       0.00000000 </v>
   <v>      -0.22727273       0.40000000       0.00000000 </v>
   <v>      -0.18181818       0.40000000       0.00000000 </v>
   <v>      -0.13636364       0.40000000       0.00000000 </v>
   <v>      -0.09090909       0.40000000       0.00000000 </v>
   <v>      -0.04545455       0.40000000       0.00000000 </v>
   <v>       0.00000000       0.46666667       0.00000000 </v>
   <v>       0.04545455       0.46666667       0.00000000 </v>
   <v>       0.09090909       0.46666667       0.00000000 </v>
   <v>       0.13636364       0.46666667       0.00000000 </v>
   <v>       0.18181818       0.46666667       0.00000000 </v>
   <v>       0.22727273       0.46666667       0.00000000 </v>
   <v>       0.27272727       0.46666667       0.00000000 </v>
   <v>       0.31818182       0.46666667       0.00000000 </v>
   <v>       0.36363636       0.46666667       0.00000000 </v>
   <v>       0.40909091       0.46666667       0.00000000 </v>
   <v>       0.45454545       0.46666667       0.00000000 </v>
   <v>       0.50000000       0.46666667       0.00000000 </v>
   <v>      -0.45454545       0.46666667       0.00000000 </v>
   <v>      -0.40909091       0.46666667       0.00000000 </v>
   <v>      -0.36363636       0.46666667       0.00000000 </v>
   <v>      -0.31818182       0.46666667       0.00000000 </v>
   <v>      -0.27272727       0.46666667       0.00000000 </v>
   <v>      -0.22727273       0.46666667       0.00000000 </v>
   <v>      -0.18181818       0.46666667       0.00000000 </v>
   <v>      -0.13636364       0.46666667       0.00000000 </v>
   <v>      -0.09090909       0.46666667       0.00000000 </v>
   <v>      -0.04545455       0.46666667       0.00000000 </v>
  </varray>
  <varray name="weights" >
   <v>       0.00303030 </v>
   <v>       0.00606061 </v>
   <v>       0.00606061 </v>
   <v>       0.00606061 </v>
   <v>       0.00606061 </v>
   <v>       0.00606061 </v>
   <v>       0.00606061 </v>
   <v>       0.00606061 </v>
   <v>       0.00606061 </v>
   <v>       0.00606061 </v>
   <v>       0.00606061 </v>
   <v>       0.00303030 </v>
   <v>       0.00606061 </v>
   <v>       0.00606061 </v>
   <v>       0.00606061 </v>
   <v>       0.00606061 </v>
   <v>       0.00606061 </v>
   <v>       0.00606061 </v>
   <v>       0.00606061 </v>
   <v>       0.00606061 </v>
   <v>       0.00606061 </v>
   <v>       0.00606061 </v>
   <v>       0.00606061 </v>
   <v>       0.00606061 </v>
   <v>       0.00606061 </v>
   <v>       0.00606061 </v>
   <v>       0.00606061 </v>
   <v>       0.00606061 </v>
   <v>       0.00606061 </v>
   <v>       0.00606061 </v>
   <v>       0.00606061 </v>
   <v>       0.00606061 </v>
   <v>       0.00606061 </v>
   <v>       0.00606061 </v>
   <v>       0.00606061 </v>
   <v>       0.00606061 </v>
   <v>       0.00606061 </v>
   <v>       0.00606061 </v>
   <v>       0.00606061 </v>
   <v>       0.00606061 </v>
   <v>       0.00606061 </v>
   <v>       0.00606061 </v>
   <v>       0.00606061 </v>
   <v>       0.00606061 </v>
   <v>       0.00606061 </v>
   <v>       0.00606061 </v>
   <v>       0.00606061 </v>
   <v>       0.00606061 </v>
   <v>       0.00606061 </v>
   <v>       0.00606061 </v>
   <v>       0.00606061 </v>
   <v>       0.00606061 </v>
   <v>       0.00606061 </v>
   <v>       0.00606061 </v>
   <v>       0.00606061 </v>
   <v>       0.00606061 </v>
   <v>       0.00606061 </v>
   <v>       0.00606061 </v>
   <v>       0.00606061 </v>
   <v>       0.00606061 </v>
   <v>       0.00606061 </v>
   <v>       0.00606061 </v>
   <v>       0.00606061 </v>
   <v>       0.00606061 </v>
   <v>       0.00606061 </v>
   <v>       0.00606061 </v>
   <v>       0.00606061 </v>
   <v>       0.00606061 </v>
   <v>       0.00606061 </v>
   <v>       0.00606061 </v>
   <v>       0.00606061 </v>
   <v>       0.00606061 </v>
   <v>       0.00606061 </v>
   <v>       0.00606061 </v>
   <v>       0.00606061 </v>
   <v>       0.00606061 </v>
   <v>       0.00606061 </v>
   <v>       0.00606061 </v>
   <v>       0.00606061 </v>
   <v>       0.00606061 </v>
   <v>       0.00606061 </v>
   <v>       0.00606061 </v>
   <v>       0.00606061 </v>
   <v>       0.00606061 </v>
   <v>       0.00606061 </v>
   <v>       0.00606061 </v>
   <v>       0.00606061 </v>
   <v>       0.00606061 </v>
   <v>       0.00606061 </v>
   <v>       0.00606061 </v>
   <v>       0.00606061 </v>
   <v>       0.00606061 </v>
   <v>       0.00606061 </v>
   <v>       0.00606061 </v>
   <v>       0.00606061 </v>
   <v>       0.00606061 </v>
   <v>       0.00606061 </v>
   <v>       0.00606061 </v>
   <v>       0.00606061 </v>
   <v>       0.00606061 </v>
   <v>       0.00606061 </v>
   <v>       0.00606061 </v>
   <v>       0.00606061 </v>
   <v>       0.00606061 </v>
   <v>       0.00606061 </v>
   <v>       0.00606061 </v>
   <v>       0.00606061 </v>
   <v>       0.00606061 </v>
   <v>       0.00606061 </v>
   <v>       0.00606061 </v>
   <v>       0.00606061 </v>
   <v>       0.00606061 </v>
   <v>       0.00606061 </v>
   <v>       0.00606061 </v>
   <v>       0.00606061 </v>
   <v>       0.00606061 </v>
   <v>       0.00606061 </v>
   <v>       0.00606061 </v>
   <v>       0.00606061 </v>
   <v>       0.00606061 </v>
   <v>       0.00606061 </v>
   <v>       0.00606061 </v>
   <v>       0.00606061 </v>
   <v>       0.00606061 </v>
   <v>       0.00606061 </v>
   <v>       0.00606061 </v>
   <v>       0.00606061 </v>
   <v>       0.00606061 </v>
   <v>       0.00606061 </v>
   <v>       0.00606061 </v>
   <v>       0.00606061 </v>
   <v>       0.00606061 </v>
   <v>       0.00606061 </v>
   <v>       0.00606061 </v>
   <v>       0.00606061 </v>
   <v>       0.00606061 </v>
   <v>       0.00606061 </v>
   <v>       0.00606061 </v>
   <v>       0.00606061 </v>
   <v>       0.00606061 </v>
   <v>       0.00606061 </v>
   <v>       0.00606061 </v>
   <v>       0.00606061 </v>
   <v>       0.00606061 </v>
   <v>       0.00606061 </v>
   <v>       0.00606061 </v>
   <v>       0.00606061 </v>
   <v>       0.00606061 </v>
   <v>       0.00606061 </v>
   <v>       0.00606061 </v>
   <v>       0.00606061 </v>
   <v>       0.00606061 </v>
   <v>       0.00606061 </v>
   <v>       0.00606061 </v>
   <v>       0.00606061 </v>
   <v>       0.00606061 </v>
   <v>       0.00606061 </v>
   <v>       0.00606061 </v>
   <v>       0.00606061 </v>
   <v>       0.00606061 </v>
   <v>       0.00606061 </v>
   <v>       0.00606061 </v>
   <v>       0.00606061 </v>
   <v>       0.00606061 </v>
   <v>       0.00606061 </v>
   <v>       0.00606061 </v>
  </varray>
 </kpoints>
 <parameters>
  <separator name="general" >
   <i type="string" name="SYSTEM">unknown system</i>
   <i type="logical" name="LCOMPAT"> F  </i>
  </separator>
  <separator name="electronic" >
   <i type="string" name="PREC">a</i>
   <i name="ENMAX">    520.00000000</i>
   <i name="ENAUG">    342.92400000</i>
   <i name="EDIFF">      0.00001000</i>
   <i type="int" name="IALGO">    38</i>
   <i type="int" name="IWAVPR">    11</i>
   <i type="int" name="NBANDS">    16</i>
   <i name="NELECT">     20.00000000</i>
   <i type="int" name="TURBO">     0</i>
   <i type="int" name="IRESTART">     0</i>
   <i type="int" name="NREBOOT">     0</i>
   <i type="int" name="NMIN">     0</i>
   <i name="EREF">      0.00000000</i>
   <separator name="electronic smearing" >
    <i type="int" name="ISMEAR">     0</i>
    <i name="SIGMA">      0.02000000</i>
    <i name="KSPACING">      0.50000000</i>
    <i type="logical" name="KGAMMA"> T  </i>
   </separator>
   <separator name="electronic projectors" >
    <i type="logical" name="LREAL"> F  </i>
    <v name="ROPT">      0.00000000</v>
    <i type="int" name="LMAXPAW">  -100</i>
    <i type="int" name="LMAXMIX">     2</i>
    <i type="logical" name="NLSPLINE"> F  </i>
   </separator>
   <separator name="electronic startup" >
    <i type="int" name="ISTART">     0</i>
    <i type="int" name="ICHARG">     2</i>
    <i type="int" name="INIWAV">     1</i>
   </separator>
   <separator name="electronic spin" >
    <i type="int" name="ISPIN">     1</i>
    <i type="logical" name="LNONCOLLINEAR"> F  </i>
    <v name="MAGMOM">      1.00000000      1.00000000      1.00000000      1.00000000</v>
    <i name="NUPDOWN">     -1.00000000</i>
    <i type="logical" name="LSORBIT"> F  </i>
    <v name="SAXIS">      0.00000000      0.00000000      1.00000000</v>
    <i type="logical" name="LSPIRAL"> F  </i>
    <v name="QSPIRAL">      0.00000000      0.00000000      0.00000000</v>
    <i type="logical" name="LZEROZ"> F  </i>
   </separator>
   <separator name="electronic exchange-correlation" >
    <i type="logical" name="LASPH"> F  </i>
    <i type="logical" name="LMETAGGA"> F  </i>
   </separator>
   <separator name="electronic convergence" >
    <i type="int" name="NELM">   250</i>
    <i type="int" name="NELMDL">    -5</i>
    <i type="int" name="NELMIN">     6</i>
    <i name="ENINI">    520.00000000</i>
    <separator name="electronic convergence detail" >
     <i type="logical" name="LDIAG"> T  </i>
     <i type="logical" name="LSUBROT"> F  </i>
     <i name="WEIMIN">      0.00100000</i>
     <i name="EBREAK">      0.00000016</i>
     <i name="DEPER">      0.30000000</i>
     <i type="int" name="NRMM">     4</i>
     <i name="TIME">      0.40000000</i>
    </separator>
   </separator>
   <separator name="electronic mixer" >
    <i name="AMIX">      0.40000000</i>
    <i name="BMIX">      1.00000000</i>
    <i name="AMIN">      0.10000000</i>
    <i name="AMIX_MAG">      1.60000000</i>
    <i name="BMIX_MAG">      1.00000000</i>
    <separator name="electronic mixer details" >
     <i type="int" name="IMIX">     4</i>
     <i type="logical" name="MIXFIRST"> F  </i>
     <i type="int" name="MAXMIX">   -45</i>
     <i name="WC">    100.00000000</i>
     <i type="int" name="INIMIX">     1</i>
     <i type="int" name="MIXPRE">     1</i>
     <i type="int" name="MREMOVE">     5</i>
    </separator>
   </separator>
   <separator name="electronic dipolcorrection" >
    <i type="logical" name="LDIPOL"> F  </i>
    <i type="logical" name="LMONO"> F  </i>
    <i type="int" name="IDIPOL">     0</i>
    <i name="EPSILON">      1.00000000</i>
    <v name="DIPOL">   -100.00000000   -100.00000000   -100.00000000</v>
    <i name="EFIELD">      0.00000000</i>
   </separator>
  </separator>
  <separator name="grids" >
   <i type="int" name="NGX">    24</i>
   <i type="int" name="NGY">    36</i>
   <i type="int" name="NGZ">   150</i>
   <i type="int" name="NGXF">    48</i>
   <i type="int" name="NGYF">    72</i>
   <i type="int" name="NGZF">   300</i>
   <i type="logical" name="ADDGRID"> F  </i>
  </separator>
  <separator name="ionic" >
   <i type="int" name="NSW">   200</i>
   <i type="int" name="IBRION">     2</i>
   <i type="int" name="ISIF">     2</i>
   <i name="PSTRESS">      0.00000000</i>
   <i name="EDIFFG">     -0.01000000</i>
   <i type="int" name="NFREE">     1</i>
   <i name="POTIM">      0.30000000</i>
   <i name="SMASS">     -3.00000000</i>
   <i name="SCALEE">      1.00000000</i>
  </separator>
  <separator name="ionic md" >
   <i name="TEBEG">      0.00010000</i>
   <i name="TEEND">      0.00010000</i>
   <i type="int" name="NBLOCK">     1</i>
   <i type="int" name="KBLOCK">   200</i>
   <i type="int" name="NPACO">   256</i>
   <i name="APACO">     16.00000000</i>
  </separator>
  <separator name="symmetry" >
   <i type="int" name="ISYM">     2</i>
   <i name="SYMPREC">      0.00001000</i>
  </separator>
  <separator name="dos" >
   <i type="logical" name="LORBIT"> F  </i>
   <v name="RWIGS">     -1.00000000</v>
   <i type="int" name="NEDOS">   301</i>
   <i name="EMIN">     10.00000000</i>
   <i name="EMAX">    -10.00000000</i>
   <i name="EFERMI">      0.00000000</i>
  </separator>
  <separator name="writing" >
   <i type="int" name="NWRITE">     2</i>
   <i type="logical" name="LWAVE"> F  </i>
   <i type="logical" name="LCHARG"> F  </i>
   <i type="logical" name="LPARD"> F  </i>
   <i type="logical" name="LVTOT"> F  </i>
   <i type="logical" name="LVHAR"> F  </i>
   <i type="logical" name="LELF"> F  </i>
   <i type="logical" name="LOPTICS"> F  </i>
   <v name="STM">      0.00000000      0.00000000      0.00000000      0.00000000      0.00000000      0.00000000      0.00000000</v>
  </separator>
  <separator name="performance" >
   <i type="int" name="NPAR">     4</i>
   <i type="int" name="NSIM">     4</i>
   <i type="int" name="NBLK">    -1</i>
   <i type="logical" name="LPLANE"> T  </i>
   <i type="logical" name="LSCALAPACK"> T  </i>
   <i type="logical" name="LSCAAWARE"> F  </i>
   <i type="logical" name="LSCALU"> F  </i>
   <i type="logical" name="LASYNC"> F  </i>
   <i type="logical" name="LORBITALREAL"> F  </i>
  </separator>
  <separator name="miscellaneous" >
   <i type="int" name="IDIOT">     3</i>
   <i type="logical" name="LMUSIC"> F  </i>
   <v name="POMASS">     30.97400000</v>
   <v name="DARWINR">      0.00000000</v>
   <v name="DARWINV">      1.00000000</v>
   <i type="logical" name="LCORR"> T  </i>
  </separator>
  <i type="logical" name="GGA_COMPAT"> T  </i>
  <i type="logical" name="LBERRY"> F  </i>
  <i type="int" name="ICORELEVEL">     0</i>
  <i type="logical" name="LDAU"> F  </i>
  <i type="int" name="I_CONSTRAINED_M">     0</i>
  <separator name="electronic exchange-correlation" >
   <i type="string" name="GGA">--</i>
   <i type="int" name="VOSKOWN">     0</i>
   <i type="logical" name="LHFCALC"> F  </i>
   <i type="string" name="PRECFOCK"></i>
   <i type="logical" name="LSYMGRAD"> F  </i>
   <i type="logical" name="LHFONE"> F  </i>
   <i type="logical" name="LRHFCALC"> F  </i>
   <i type="logical" name="LTHOMAS"> F  </i>
   <i type="logical" name="LMODELHF"> F  </i>
   <i name="ENCUT4O">     -1.00000000</i>
   <i type="int" name="EXXOEP">     0</i>
   <i type="int" name="FOURORBIT">     0</i>
   <i name="AEXX">      0.00000000</i>
   <i name="HFALPHA">      0.00000000</i>
   <i name="MCALPHA">      0.00000000</i>
   <i name="ALDAX">      1.00000000</i>
   <i name="AGGAX">      1.00000000</i>
   <i name="ALDAC">      1.00000000</i>
   <i name="AGGAC">      1.00000000</i>
   <i type="int" name="NKREDX">     1</i>
   <i type="int" name="NKREDY">     1</i>
   <i type="int" name="NKREDZ">     1</i>
   <i type="logical" name="SHIFTRED"> F  </i>
   <i type="logical" name="ODDONLY"> F  </i>
   <i type="logical" name="EVENONLY"> F  </i>
   <i type="int" name="LMAXFOCK">     0</i>
   <i type="int" name="NMAXFOCKAE">     0</i>
   <i type="logical" name="LFOCKAEDFT"> F  </i>
   <i name="HFSCREEN">      0.00000000</i>
   <i name="HFSCREENC">      0.00000000</i>
   <i type="int" name="NBANDSGWLOW">     0</i>
  </separator>
  <separator name="vdW DFT" >
   <i type="logical" name="LUSE_VDW"> F  </i>
   <i name="Zab_VDW">     -0.84910000</i>
   <i name="PARAM1">      0.12340000</i>
   <i name="PARAM2">      1.00000000</i>
   <i name="PARAM3">      0.00000000</i>
  </separator>
  <separator name="model GW" >
   <i type="int" name="MODEL_GW">     0</i>
   <i name="MODEL_EPS0">     44.41451872</i>
   <i name="MODEL_ALPHA">      1.00000000</i>
  </separator>
  <separator name="linear response parameters" >
   <i type="logical" name="LEPSILON"> F  </i>
   <i type="logical" name="LRPA"> F  </i>
   <i type="logical" name="LNABLA"> F  </i>
   <i type="logical" name="LVEL"> F  </i>
   <i type="int" name="KINTER">     0</i>
   <i name="CSHIFT">      0.10000000</i>
   <i name="OMEGAMAX">     -1.00000000</i>
   <i name="DEG_THRESHOLD">      0.00200000</i>
  </separator>
  <separator name="orbital magnetization" >
   <i type="logical" name="NUCIND"> F  </i>
   <v name="MAGPOS">      0.00000000      0.00000000      0.00000000</v>
   <i type="logical" name="LNICSALL"> T  </i>
   <i type="logical" name="ORBITALMAG"> F  </i>
   <i type="logical" name="LMAGBLOCH"> F  </i>
   <i type="logical" name="LCHIMAG"> F  </i>
   <i type="logical" name="LGAUGE"> T  </i>
   <i type="int" name="MAGATOM">     0</i>
   <v name="MAGDIPOL">      0.00000000      0.00000000      0.00000000</v>
   <v name="AVECCONST">      0.00000000      0.00000000      0.00000000</v>
  </separator>
  <separator name="response functions" >
   <i type="logical" name="LADDER"> F  </i>
   <i type="logical" name="LFXC"> F  </i>
   <i type="logical" name="LHARTREE"> T  </i>
   <i type="int" name="IBSE">     0</i>
   <v type="int" name="KPOINT">    -1     0     0     0</v>
   <i type="logical" name="LTCTE"> F  </i>
   <i type="logical" name="LTETE"> F  </i>
   <i type="logical" name="LTRIPLET"> F  </i>
   <i type="logical" name="LFXCEPS"> F  </i>
   <i type="logical" name="LFXHEG"> F  </i>
   <i type="int" name="NATURALO">     0</i>
   <i type="logical" name="L2ORDER"> F  </i>
   <i type="logical" name="LUSEW"> F  </i>
   <i name="ENCUTGW">     -2.00000000</i>
   <i name="ENCUTGWSOFT">     -2.00000000</i>
   <i name="ENCUTLF">     -1.00000000</i>
   <i type="int" name="LMAXMP2">    -1</i>
   <i name="SCISSOR">      0.00000000</i>
   <i type="int" name="NOMEGA">     0</i>
   <i type="int" name="NOMEGAR">     0</i>
   <i type="int" name="NBANDSGW">    -1</i>
   <i type="int" name="NBANDSO">    -1</i>
   <i type="int" name="NBANDSV">    -1</i>
   <i type="int" name="NELM">   250</i>
   <i type="int" name="NELMHF">     1</i>
   <i type="int" name="DIM">     3</i>
   <i type="int" name="ANTIRES">     0</i>
   <i name="OMEGAMAX">    -30.00000000</i>
   <i name="OMEGAMIN">    -30.00000000</i>
   <i name="OMEGATL">   -200.00000000</i>
   <i type="int" name="OMEGAGRID">     0</i>
   <i name="CSHIFT">     -0.10000000</i>
   <i type="logical" name="SELFENERGY"> F  </i>
   <i type="logical" name="LSPECTRAL"> F  </i>
   <i type="logical" name="LSPECTRALGW"> F  </i>
   <i type="logical" name="LSINGLES"> F  </i>
   <i type="logical" name="LFERMIGW"> F  </i>
   <i type="logical" name="ODDONLYGW"> F  </i>
   <i type="logical" name="EVENONLYGW"> F  </i>
   <i type="int" name="NKREDLFX">     1</i>
   <i type="int" name="NKREDLFY">     1</i>
   <i type="int" name="NKREDLFZ">     1</i>
   <i type="int" name="MAXMEM">  1800</i>
   <i type="int" name="TELESCOPE">     0</i>
   <i type="int" name="TAUPAR">     1</i>
   <i type="int" name="OMEGAPAR">    -1</i>
   <i name="LAMBDA">      1.00000000</i>
  </separator>
  <separator name="External order field" >
   <i name="OFIELD_KAPPA">      0.00000000</i>
   <v name="OFIELD_K">      0.00000000      0.00000000      0.00000000</v>
   <i name="OFIELD_Q6_NEAR">      0.00000000</i>
   <i name="OFIELD_Q6_FAR">      0.00000000</i>
   <i name="OFIELD_A">      0.00000000</i>
  </separator>
 </parameters>
 <atominfo>
  <atoms>       4 </atoms>
  <types>       1 </types>
  <array name="atoms" >
   <dimension dim="1">ion</dimension>
   <field type="string">element</field>
   <field type="int">atomtype</field>
   <set>
    <rc><c>P </c><c>   1</c></rc>
    <rc><c>P </c><c>   1</c></rc>
    <rc><c>P </c><c>   1</c></rc>
    <rc><c>P </c><c>   1</c></rc>
   </set>
  </array>
  <array name="atomtypes" >
   <dimension dim="1">type</dimension>
   <field type="int">atomspertype</field>
   <field type="string">element</field>
   <field>mass</field>
   <field>valence</field>
   <field type="string">pseudopotential</field>
   <set>
    <rc><c>   4</c><c>P </c><c>     30.97400000</c><c>      5.00000000</c><c>  PAW_PBE P 06Sep2000                   </c></rc>
   </set>
  </array>
 </atominfo>
 <structure name="initialpos" >
  <crystal>
   <varray name="basis" >
    <v>       3.24736900       0.00000000       0.00000000 </v>
    <v>       0.00000000       4.55347300      -0.00005300 </v>
    <v>       0.00000000       0.00000000      20.02439000 </v>
   </varray>
   <i name="volume">    296.09679147 </i>
   <varray name="rec_basis" >
    <v>       0.30794160       0.00000000       0.00000000 </v>
    <v>       0.00000000       0.21961259       0.00000000 </v>
    <v>       0.00000000       0.00000058       0.04993910 </v>
   </varray>
  </crystal>
  <varray name="positions" >
   <v>       0.50000000       0.91077300       0.55252100 </v>
   <v>       0.50000000       0.08922700       0.44747900 </v>
   <v>       0.00000000       0.41076900       0.44747900 </v>
   <v>       0.00000000       0.58923100       0.55252100 </v>
  </varray>
 </structure>
 <calculation>
  <scstep>
   <time name="dav">    1.30    1.31</time>
   <time name="total">    1.32    1.33</time>
   <energy>
    <i name="alphaZ">      5.41769140 </i>
    <i name="ewald">   1936.23219435 </i>
    <i name="hartreedc">  -2529.37681977 </i>
    <i name="XCdc">     13.31360376 </i>
    <i name="pawpsdc">    559.04011960 </i>
    <i name="pawaedc">   -526.39432044 </i>
    <i name="eentropy">     -0.00040394 </i>
    <i name="bandstr">    -28.86877689 </i>
    <i name="atom">    704.16778566 </i>
    <i name="e_fr_energy">    133.53107373 </i>
    <i name="e_wo_entrp">    133.53147767 </i>
    <i name="e_0_energy">    133.53127570 </i>
   </energy>
  </scstep>
  <scstep>
   <time name="dav">    1.71    1.71</time>
   <time name="total">    1.71    1.71</time>
   <energy>
    <i name="e_fr_energy">     -6.44011372 </i>
    <i name="e_wo_entrp">     -6.44011372 </i>
    <i name="e_0_energy">     -6.44011372 </i>
   </energy>
  </scstep>
  <scstep>
   <time name="dav">    1.59    1.59</time>
   <time name="total">    1.59    1.59</time>
   <energy>
    <i name="e_fr_energy">    -21.36131993 </i>
    <i name="e_wo_entrp">    -21.36131993 </i>
    <i name="e_0_energy">    -21.36131993 </i>
   </energy>
  </scstep>
  <scstep>
   <time name="dav">    1.63    1.63</time>
   <time name="total">    1.63    1.63</time>
   <energy>
    <i name="e_fr_energy">    -21.66218656 </i>
    <i name="e_wo_entrp">    -21.66218656 </i>
    <i name="e_0_energy">    -21.66218656 </i>
   </energy>
  </scstep>
  <scstep>
   <time name="dav">    1.71    1.71</time>
   <time name="total">    1.79    1.79</time>
   <energy>
    <i name="e_fr_energy">    -21.67161369 </i>
    <i name="e_wo_entrp">    -21.67161369 </i>
    <i name="e_0_energy">    -21.67161369 </i>
   </energy>
  </scstep>
  <scstep>
   <time name="dav">    1.53    1.53</time>
   <time name="total">    1.61    1.62</time>
   <energy>
    <i name="e_fr_energy">    -21.50464139 </i>
    <i name="e_wo_entrp">    -21.50464139 </i>
    <i name="e_0_energy">    -21.50464139 </i>
   </energy>
  </scstep>
  <scstep>
   <time name="dav">    1.50    1.51</time>
   <time name="total">    1.59    1.60</time>
   <energy>
    <i name="e_fr_energy">    -21.42952480 </i>
    <i name="e_wo_entrp">    -21.42952480 </i>
    <i name="e_0_energy">    -21.42952480 </i>
   </energy>
  </scstep>
  <scstep>
   <time name="dav">    1.56    1.56</time>
   <time name="total">    1.64    1.65</time>
   <energy>
    <i name="e_fr_energy">    -21.42830768 </i>
    <i name="e_wo_entrp">    -21.42830768 </i>
    <i name="e_0_energy">    -21.42830768 </i>
   </energy>
  </scstep>
  <scstep>
   <time name="dav">    1.84    1.84</time>
   <time name="total">    1.93    1.93</time>
   <energy>
    <i name="e_fr_energy">    -21.42814276 </i>
    <i name="e_wo_entrp">    -21.42814276 </i>
    <i name="e_0_energy">    -21.42814276 </i>
   </energy>
  </scstep>
  <scstep>
   <time name="dav">    1.55    1.55</time>
   <time name="total">    1.63    1.63</time>
   <energy>
    <i name="e_fr_energy">    -21.42786775 </i>
    <i name="e_wo_entrp">    -21.42786775 </i>
    <i name="e_0_energy">    -21.42786775 </i>
   </energy>
  </scstep>
  <scstep>
   <time name="dav">    1.58    1.58</time>
   <time name="total">    1.66    1.66</time>
   <energy>
    <i name="e_fr_energy">    -21.42773526 </i>
    <i name="e_wo_entrp">    -21.42773526 </i>
    <i name="e_0_energy">    -21.42773526 </i>
   </energy>
  </scstep>
  <scstep>
   <time name="dav">    1.37    1.37</time>
   <time name="total">    1.46    1.46</time>
   <energy>
    <i name="e_fr_energy">    -21.42815920 </i>
    <i name="e_wo_entrp">    -21.42815920 </i>
    <i name="e_0_energy">    -21.42815920 </i>
   </energy>
  </scstep>
  <scstep>
   <time name="dav">    1.38    1.39</time>
   <time name="total">    1.47    1.47</time>
   <energy>
    <i name="e_fr_energy">    -21.42825379 </i>
    <i name="e_wo_entrp">    -21.42825379 </i>
    <i name="e_0_energy">    -21.42825379 </i>
   </energy>
  </scstep>
  <scstep>
   <time name="dav">    1.28    1.28</time>
   <time name="total">    1.36    1.37</time>
   <energy>
    <i name="e_fr_energy">    -21.42840276 </i>
    <i name="e_wo_entrp">    -21.42840276 </i>
    <i name="e_0_energy">    -21.42840276 </i>
   </energy>
  </scstep>
  <scstep>
   <time name="dav">    1.33    1.33</time>
   <time name="total">    1.41    1.41</time>
   <energy>
    <i name="e_fr_energy">    -21.42845993 </i>
    <i name="e_wo_entrp">    -21.42845993 </i>
    <i name="e_0_energy">    -21.42845993 </i>
   </energy>
  </scstep>
  <scstep>
   <time name="dav">    1.27    1.27</time>
   <time name="total">    1.36    1.36</time>
   <energy>
    <i name="e_fr_energy">    -21.42849642 </i>
    <i name="e_wo_entrp">    -21.42849642 </i>
    <i name="e_0_energy">    -21.42849642 </i>
   </energy>
  </scstep>
  <scstep>
   <time name="dav">    1.29    1.29</time>
   <time name="total">    1.30    1.30</time>
   <energy>
    <i name="alphaZ">      5.41769140 </i>
    <i name="ewald">   1936.23219435 </i>
    <i name="hartreedc">  -2546.14979112 </i>
    <i name="XCdc">     14.42833266 </i>
    <i name="pawpsdc">   2242.04241780 </i>
    <i name="pawaedc">  -2209.78427025 </i>
    <i name="eentropy">     -0.00000000 </i>
    <i name="bandstr">   -167.78285882 </i>
    <i name="atom">    704.16778566 </i>
    <i name="e_fr_energy">    -21.42849834 </i>
    <i name="e_wo_entrp">    -21.42849834 </i>
    <i name="e_0_energy">    -21.42849834 </i>
   </energy>
  </scstep>
  <structure>
   <crystal>
    <varray name="basis" >
     <v>       3.24736900       0.00000000       0.00000000 </v>
     <v>       0.00000000       4.55347300      -0.00005300 </v>
     <v>       0.00000000       0.00000000      20.02439000 </v>
    </varray>
    <i name="volume">    296.09679147 </i>
    <varray name="rec_basis" >
     <v>       0.30794160       0.00000000       0.00000000 </v>
     <v>       0.00000000       0.21961259       0.00000000 </v>
     <v>       0.00000000       0.00000058       0.04993910 </v>
    </varray>
   </crystal>
   <varray name="positions" >
    <v>       0.50000000       0.91077300       0.55252100 </v>
    <v>       0.50000000       0.08922700       0.44747900 </v>
    <v>       0.00000000       0.41076900       0.44747900 </v>
    <v>       0.00000000       0.58923100       0.55252100 </v>
   </varray>
  </structure>
  <varray name="forces" >
   <v>       0.00000003       0.31639417       0.05653184 </v>
   <v>      -0.00000003      -0.31639417      -0.05653184 </v>
   <v>       0.00000001       0.31635603      -0.05653673 </v>
   <v>      -0.00000001      -0.31635603       0.05653673 </v>
  </varray>
  <varray name="stress" >
   <v>      11.84690057      -0.00000187      -0.00000010 </v>
   <v>      -0.00000186       8.47959079       0.00033529 </v>
   <v>      -0.00000020       0.00033536       1.21898013 </v>
  </varray>
  <energy>
   <i name="e_fr_energy">    -21.42849834 </i>
   <i name="e_wo_entrp">    -21.42849834 </i>
   <i name="e_0_energy">     -0.00000000 </i>
  </energy>
  <time name="totalsc">   27.21   27.27</time>
 </calculation>
 <calculation>
  <scstep>
   <time name="dav">    1.38    1.38</time>
   <time name="total">    1.46    1.47</time>
   <energy>
    <i name="alphaZ">      5.41769140 </i>
    <i name="ewald">   1933.23133115 </i>
    <i name="hartreedc">  -2543.75188328 </i>
    <i name="XCdc">     14.37436066 </i>
    <i name="pawpsdc">   2241.64199167 </i>
    <i name="pawaedc">  -2209.38390119 </i>
    <i name="eentropy">     -0.00000000 </i>
    <i name="bandstr">   -167.13278702 </i>
    <i name="atom">    704.16778566 </i>
    <i name="e_fr_energy">    -21.43541096 </i>
    <i name="e_wo_entrp">    -21.43541096 </i>
    <i name="e_0_energy">    -21.43541096 </i>
   </energy>
  </scstep>
  <scstep>
   <time name="dav">    1.64    1.64</time>
   <time name="total">    1.73    1.73</time>
   <energy>
    <i name="e_fr_energy">    -21.43656248 </i>
    <i name="e_wo_entrp">    -21.43656248 </i>
    <i name="e_0_energy">    -21.43656248 </i>
   </energy>
  </scstep>
  <scstep>
   <time name="dav">    1.71    1.71</time>
   <time name="total">    1.79    1.80</time>
   <energy>
    <i name="e_fr_energy">    -21.43653847 </i>
    <i name="e_wo_entrp">    -21.43653847 </i>
    <i name="e_0_energy">    -21.43653847 </i>
   </energy>
  </scstep>
  <scstep>
   <time name="dav">    1.47    1.47</time>
   <time name="total">    1.56    1.56</time>
   <energy>
    <i name="e_fr_energy">    -21.43653209 </i>
    <i name="e_wo_entrp">    -21.43653209 </i>
    <i name="e_0_energy">    -21.43653209 </i>
   </energy>
  </scstep>
  <scstep>
   <time name="dav">    1.43    1.43</time>
   <time name="total">    1.52    1.52</time>
   <energy>
    <i name="e_fr_energy">    -21.43653090 </i>
    <i name="e_wo_entrp">    -21.43653090 </i>
    <i name="e_0_energy">    -21.43653090 </i>
   </energy>
  </scstep>
  <scstep>
   <time name="dav">    1.11    1.11</time>
   <time name="total">    1.12    1.13</time>
   <energy>
    <i name="alphaZ">      5.41769140 </i>
    <i name="ewald">   1933.23133115 </i>
    <i name="hartreedc">  -2543.72702848 </i>
    <i name="XCdc">     14.36708468 </i>
    <i name="pawpsdc">   2202.65535510 </i>
    <i name="pawaedc">  -2170.38284733 </i>
    <i name="eentropy">     -0.00000000 </i>
    <i name="bandstr">   -167.16590311 </i>
    <i name="atom">    704.16778566 </i>
    <i name="e_fr_energy">    -21.43653093 </i>
    <i name="e_wo_entrp">    -21.43653093 </i>
    <i name="e_0_energy">    -21.43653093 </i>
   </energy>
  </scstep>
  <structure>
   <crystal>
    <varray name="basis" >
     <v>       3.24736900       0.00000000       0.00000000 </v>
     <v>       0.00000000       4.55347300      -0.00005300 </v>
     <v>       0.00000000       0.00000000      20.02439000 </v>
    </varray>
    <i name="volume">    296.09679147 </i>
    <varray name="rec_basis" >
     <v>       0.30794160       0.00000000       0.00000000 </v>
     <v>       0.00000000       0.21961259       0.00000000 </v>
     <v>       0.00000000       0.00000058       0.04993910 </v>
    </varray>
   </crystal>
   <varray name="positions" >
    <v>       0.50000000       0.91278426       0.55260272 </v>
    <v>       0.50000000       0.08721574       0.44739728 </v>
    <v>       0.00000000       0.41278002       0.44739728 </v>
    <v>      -0.00000000       0.58721998       0.55260272 </v>
   </varray>
  </structure>
  <varray name="forces" >
   <v>      -0.00000027       0.10179614       0.06068854 </v>
   <v>       0.00000027      -0.10179614      -0.06068854 </v>
   <v>      -0.00000029       0.10176430      -0.06068948 </v>
   <v>       0.00000029      -0.10176430       0.06068948 </v>
  </varray>
  <varray name="stress" >
   <v>      10.61623855      -0.00000565      -0.00000052 </v>
   <v>      -0.00000568       5.35914391       0.00030131 </v>
   <v>      -0.00000056       0.00030125       1.35479792 </v>
  </varray>
  <energy>
   <i name="e_fr_energy">    -21.43653093 </i>
   <i name="e_wo_entrp">    -21.43653093 </i>
   <i name="e_0_energy">     -0.00000000 </i>
  </energy>
  <time name="totalsc">    9.93    9.95</time>
 </calculation>
 <calculation>
  <scstep>
   <time name="dav">    1.36    1.36</time>
   <time name="total">    1.44    1.44</time>
   <energy>
    <i name="alphaZ">      5.41769140 </i>
    <i name="ewald">   1931.66193164 </i>
    <i name="hartreedc">  -2542.47091881 </i>
    <i name="XCdc">     14.33888225 </i>
    <i name="pawpsdc">   2202.33731927 </i>
    <i name="pawaedc">  -2170.06487360 </i>
    <i name="eentropy">     -0.00000000 </i>
    <i name="bandstr">   -166.82515787 </i>
    <i name="atom">    704.16778566 </i>
    <i name="e_fr_energy">    -21.43734006 </i>
    <i name="e_wo_entrp">    -21.43734006 </i>
    <i name="e_0_energy">    -21.43734006 </i>
   </energy>
  </scstep>
  <scstep>
   <time name="dav">    1.64    1.64</time>
   <time name="total">    1.72    1.72</time>
   <energy>
    <i name="e_fr_energy">    -21.43766003 </i>
    <i name="e_wo_entrp">    -21.43766003 </i>
    <i name="e_0_energy">    -21.43766003 </i>
   </energy>
  </scstep>
  <scstep>
   <time name="dav">    1.68    1.69</time>
   <time name="total">    1.77    1.78</time>
   <energy>
    <i name="e_fr_energy">    -21.43765187 </i>
    <i name="e_wo_entrp">    -21.43765187 </i>
    <i name="e_0_energy">    -21.43765187 </i>
   </energy>
  </scstep>
  <scstep>
   <time name="dav">    1.30    1.30</time>
   <time name="total">    1.38    1.38</time>
   <energy>
    <i name="e_fr_energy">    -21.43764806 </i>
    <i name="e_wo_entrp">    -21.43764806 </i>
    <i name="e_0_energy">    -21.43764806 </i>
   </energy>
  </scstep>
  <scstep>
   <time name="dav">    1.07    1.07</time>
   <time name="total">    1.15    1.15</time>
   <energy>
    <i name="e_fr_energy">    -21.43764798 </i>
    <i name="e_wo_entrp">    -21.43764798 </i>
    <i name="e_0_energy">    -21.43764798 </i>
   </energy>
  </scstep>
  <scstep>
   <time name="dav">    1.00    1.00</time>
   <time name="total">    1.01    1.01</time>
   <energy>
    <i name="alphaZ">      5.41769140 </i>
    <i name="ewald">   1931.66193164 </i>
    <i name="hartreedc">  -2542.47591718 </i>
    <i name="XCdc">     14.33532062 </i>
    <i name="pawpsdc">   2182.11892503 </i>
    <i name="pawaedc">  -2149.83912631 </i>
    <i name="eentropy">     -0.00000000 </i>
    <i name="bandstr">   -166.82425880 </i>
    <i name="atom">    704.16778566 </i>
    <i name="e_fr_energy">    -21.43764795 </i>
    <i name="e_wo_entrp">    -21.43764795 </i>
    <i name="e_0_energy">    -21.43764795 </i>
   </energy>
  </scstep>
  <structure>
   <crystal>
    <varray name="basis" >
     <v>       3.24736900       0.00000000       0.00000000 </v>
     <v>       0.00000000       4.55347300      -0.00005300 </v>
     <v>       0.00000000       0.00000000      20.02439000 </v>
    </varray>
    <i name="volume">    296.09679147 </i>
    <varray name="rec_basis" >
     <v>       0.30794160       0.00000000       0.00000000 </v>
     <v>       0.00000000       0.21961259       0.00000000 </v>
     <v>       0.00000000       0.00000058       0.04993910 </v>
    </varray>
   </crystal>
   <varray name="positions" >
    <v>       0.50000000       0.91384349       0.55264576 </v>
    <v>       0.50000000       0.08615651       0.44735424 </v>
    <v>       0.00000000       0.41383912       0.44735424 </v>
    <v>      -0.00000000       0.58616088       0.55264576 </v>
   </varray>
  </structure>
  <varray name="forces" >
   <v>       0.00000006      -0.00753312       0.06226927 </v>
   <v>      -0.00000006       0.00753312      -0.06226927 </v>
   <v>       0.00000000      -0.00756154      -0.06226874 </v>
   <v>      -0.00000000       0.00756154       0.06226874 </v>
  </varray>
  <varray name="stress" >
   <v>      10.04705452      -0.00000290      -0.00000011 </v>
   <v>      -0.00000287       3.72286948       0.00028158 </v>
   <v>      -0.00000015       0.00028156       1.37594097 </v>
  </varray>
  <energy>
   <i name="e_fr_energy">    -21.43764795 </i>
   <i name="e_wo_entrp">    -21.43764795 </i>
   <i name="e_0_energy">     -0.00000000 </i>
  </energy>
  <time name="totalsc">    9.22    9.24</time>
 </calculation>
 <calculation>
  <scstep>
   <time name="dav">    1.43    1.43</time>
   <time name="total">    1.51    1.51</time>
   <energy>
    <i name="alphaZ">      5.41769140 </i>
    <i name="ewald">   1931.61054047 </i>
    <i name="hartreedc">  -2542.44157437 </i>
    <i name="XCdc">     14.33445918 </i>
    <i name="pawpsdc">   2181.93738872 </i>
    <i name="pawaedc">  -2149.65761457 </i>
    <i name="eentropy">     -0.00000000 </i>
    <i name="bandstr">   -166.80632561 </i>
    <i name="atom">    704.16778566 </i>
    <i name="e_fr_energy">    -21.43764912 </i>
    <i name="e_wo_entrp">    -21.43764912 </i>
    <i name="e_0_energy">    -21.43764912 </i>
   </energy>
  </scstep>
  <scstep>
   <time name="dav">    0.99    0.99</time>
   <time name="total">    1.07    1.07</time>
   <energy>
    <i name="e_fr_energy">    -21.43764943 </i>
    <i name="e_wo_entrp">    -21.43764943 </i>
    <i name="e_0_energy">    -21.43764943 </i>
   </energy>
  </scstep>
  <scstep>
   <time name="dav">    1.02    1.02</time>
   <time name="total">    1.10    1.10</time>
   <energy>
    <i name="e_fr_energy">    -21.43764955 </i>
    <i name="e_wo_entrp">    -21.43764955 </i>
    <i name="e_0_energy">    -21.43764955 </i>
   </energy>
  </scstep>
  <scstep>
   <time name="dav">    1.05    1.05</time>
   <time name="total">    1.13    1.14</time>
   <energy>
    <i name="e_fr_energy">    -21.43764972 </i>
    <i name="e_wo_entrp">    -21.43764972 </i>
    <i name="e_0_energy">    -21.43764972 </i>
   </energy>
  </scstep>
  <scstep>
   <time name="dav">    1.06    1.06</time>
   <time name="total">    1.15    1.15</time>
   <energy>
    <i name="e_fr_energy">    -21.43764996 </i>
    <i name="e_wo_entrp">    -21.43764996 </i>
    <i name="e_0_energy">    -21.43764996 </i>
   </energy>
  </scstep>
  <scstep>
   <time name="dav">    1.03    1.03</time>
   <time name="total">    1.04    1.04</time>
   <energy>
    <i name="alphaZ">      5.41769140 </i>
    <i name="ewald">   1931.61054047 </i>
    <i name="hartreedc">  -2542.45723669 </i>
    <i name="XCdc">     14.33447902 </i>
    <i name="pawpsdc">   2181.20562104 </i>
    <i name="pawaedc">  -2148.92562515 </i>
    <i name="eentropy">     -0.00000000 </i>
    <i name="bandstr">   -166.79090584 </i>
    <i name="atom">    704.16778566 </i>
    <i name="e_fr_energy">    -21.43765010 </i>
    <i name="e_wo_entrp">    -21.43765010 </i>
    <i name="e_0_energy">    -21.43765010 </i>
   </energy>
  </scstep>
  <structure>
   <crystal>
    <varray name="basis" >
     <v>       3.24736900       0.00000000       0.00000000 </v>
     <v>       0.00000000       4.55347300      -0.00005300 </v>
     <v>       0.00000000       0.00000000      20.02439000 </v>
    </varray>
    <i name="volume">    296.09679147 </i>
    <varray name="rec_basis" >
     <v>       0.30794160       0.00000000       0.00000000 </v>
     <v>       0.00000000       0.21961259       0.00000000 </v>
     <v>       0.00000000       0.00000058       0.04993910 </v>
    </varray>
   </crystal>
   <varray name="positions" >
    <v>       0.50000000       0.91387826       0.55264718 </v>
    <v>       0.50000000       0.08612174       0.44735282 </v>
    <v>       0.00000000       0.41387388       0.44735283 </v>
    <v>      -0.00000000       0.58612612       0.55264717 </v>
   </varray>
  </structure>
  <varray name="forces" >
   <v>      -0.00000001      -0.01087908       0.06231392 </v>
   <v>       0.00000001       0.01087908      -0.06231392 </v>
   <v>      -0.00000002      -0.01090742      -0.06231334 </v>
   <v>       0.00000002       0.01090742       0.06231334 </v>
  </varray>
  <varray name="stress" >
   <v>      10.03444666      -0.00000023      -0.00000004 </v>
   <v>      -0.00000022       3.66336787       0.00028132 </v>
   <v>      -0.00000003       0.00028132       1.34977739 </v>
  </varray>
  <energy>
   <i name="e_fr_energy">    -21.43765010 </i>
   <i name="e_wo_entrp">    -21.43765010 </i>
   <i name="e_0_energy">     -0.00000000 </i>
  </energy>
  <time name="totalsc">    7.76    7.77</time>
 </calculation>
 <calculation>
  <scstep>
   <time name="dav">    1.25    1.25</time>
   <time name="total">    1.33    1.33</time>
   <energy>
    <i name="alphaZ">      5.41769140 </i>
    <i name="ewald">   1929.63344294 </i>
    <i name="hartreedc">  -2540.59358544 </i>
    <i name="XCdc">     14.32136615 </i>
    <i name="pawpsdc">   2181.17284097 </i>
    <i name="pawaedc">  -2148.89284523 </i>
    <i name="eentropy">     -0.00000000 </i>
    <i name="bandstr">   -166.66465877 </i>
    <i name="atom">    704.16778566 </i>
    <i name="e_fr_energy">    -21.43796232 </i>
    <i name="e_wo_entrp">    -21.43796232 </i>
    <i name="e_0_energy">    -21.43796232 </i>
   </energy>
  </scstep>
  <scstep>
   <time name="dav">    1.56    1.56</time>
   <time name="total">    1.64    1.65</time>
   <energy>
    <i name="e_fr_energy">    -21.43803616 </i>
    <i name="e_wo_entrp">    -21.43803616 </i>
    <i name="e_0_energy">    -21.43803616 </i>
   </energy>
  </scstep>
  <scstep>
   <time name="dav">    1.33    1.33</time>
   <time name="total">    1.41    1.42</time>
   <energy>
    <i name="e_fr_energy">    -21.43803295 </i>
    <i name="e_wo_entrp">    -21.43803295 </i>
    <i name="e_0_energy">    -21.43803295 </i>
   </energy>
  </scstep>
  <scstep>
   <time name="dav">    1.04    1.04</time>
   <time name="total">    1.12    1.13</time>
   <energy>
    <i name="e_fr_energy">    -21.43803232 </i>
    <i name="e_wo_entrp">    -21.43803232 </i>
    <i name="e_0_energy">    -21.43803232 </i>
   </energy>
  </scstep>
  <scstep>
   <time name="dav">    1.04    1.05</time>
   <time name="total">    1.12    1.13</time>
   <energy>
    <i name="e_fr_energy">    -21.43803234 </i>
    <i name="e_wo_entrp">    -21.43803234 </i>
    <i name="e_0_energy">    -21.43803234 </i>
   </energy>
  </scstep>
  <scstep>
   <time name="dav">    1.01    1.01</time>
   <time name="total">    1.02    1.02</time>
   <energy>
    <i name="alphaZ">      5.41769140 </i>
    <i name="ewald">   1929.63344294 </i>
    <i name="hartreedc">  -2540.58982984 </i>
    <i name="XCdc">     14.32046215 </i>
    <i name="pawpsdc">   2174.51172835 </i>
    <i name="pawaedc">  -2142.22947701 </i>
    <i name="eentropy">     -0.00000000 </i>
    <i name="bandstr">   -166.66983597 </i>
    <i name="atom">    704.16778566 </i>
    <i name="e_fr_energy">    -21.43803232 </i>
    <i name="e_wo_entrp">    -21.43803232 </i>
    <i name="e_0_energy">    -21.43803232 </i>
   </energy>
  </scstep>
  <structure>
   <crystal>
    <varray name="basis" >
     <v>       3.24736900       0.00000000       0.00000000 </v>
     <v>       0.00000000       4.55347300      -0.00005300 </v>
     <v>       0.00000000       0.00000000      20.02439000 </v>
    </varray>
    <i name="volume">    296.09679147 </i>
    <varray name="rec_basis" >
     <v>       0.30794160       0.00000000       0.00000000 </v>
     <v>       0.00000000       0.21961259       0.00000000 </v>
     <v>       0.00000000       0.00000058       0.04993910 </v>
    </varray>
   </crystal>
   <varray name="positions" >
    <v>       0.50000000       0.91388632       0.55275049 </v>
    <v>       0.50000000       0.08611368       0.44724951 </v>
    <v>      -0.00000000       0.41388174       0.44724951 </v>
    <v>       0.00000000       0.58611826       0.55275049 </v>
   </varray>
  </structure>
  <varray name="forces" >
   <v>       0.00000007      -0.00553722       0.03092330 </v>
   <v>      -0.00000007       0.00553722      -0.03092330 </v>
   <v>      -0.00000007      -0.00555934      -0.03092313 </v>
   <v>       0.00000007       0.00555934       0.03092313 </v>
  </varray>
  <varray name="stress" >
   <v>       9.97719321       0.00000006       0.00000015 </v>
   <v>       0.00000011       3.53835971       0.00021234 </v>
   <v>       0.00000009       0.00021234       0.64324345 </v>
  </varray>
  <energy>
   <i name="e_fr_energy">    -21.43803232 </i>
   <i name="e_wo_entrp">    -21.43803232 </i>
   <i name="e_0_energy">     -0.00000000 </i>
  </energy>
  <time name="totalsc">    8.41    8.42</time>
 </calculation>
 <calculation>
  <scstep>
   <time name="dav">    1.25    1.25</time>
   <time name="total">    1.33    1.33</time>
   <energy>
    <i name="alphaZ">      5.41769140 </i>
    <i name="ewald">   1927.68709159 </i>
    <i name="hartreedc">  -2538.75376635 </i>
    <i name="XCdc">     14.30762275 </i>
    <i name="pawpsdc">   2174.48938295 </i>
    <i name="pawaedc">  -2142.20718206 </i>
    <i name="eentropy">     -0.00000000 </i>
    <i name="bandstr">   -166.54671663 </i>
    <i name="atom">    704.16778566 </i>
    <i name="e_fr_energy">    -21.43809068 </i>
    <i name="e_wo_entrp">    -21.43809068 </i>
    <i name="e_0_energy">    -21.43809068 </i>
   </energy>
  </scstep>
  <scstep>
   <time name="dav">    1.58    1.58</time>
   <time name="total">    1.66    1.66</time>
   <energy>
    <i name="e_fr_energy">    -21.43816285 </i>
    <i name="e_wo_entrp">    -21.43816285 </i>
    <i name="e_0_energy">    -21.43816285 </i>
   </energy>
  </scstep>
  <scstep>
   <time name="dav">    1.36    1.36</time>
   <time name="total">    1.45    1.45</time>
   <energy>
    <i name="e_fr_energy">    -21.43815980 </i>
    <i name="e_wo_entrp">    -21.43815980 </i>
    <i name="e_0_energy">    -21.43815980 </i>
   </energy>
  </scstep>
  <scstep>
   <time name="dav">    1.06    1.06</time>
   <time name="total">    1.15    1.15</time>
   <energy>
    <i name="e_fr_energy">    -21.43815911 </i>
    <i name="e_wo_entrp">    -21.43815911 </i>
    <i name="e_0_energy">    -21.43815911 </i>
   </energy>
  </scstep>
  <scstep>
   <time name="dav">    1.03    1.03</time>
   <time name="total">    1.11    1.11</time>
   <energy>
    <i name="e_fr_energy">    -21.43815910 </i>
    <i name="e_wo_entrp">    -21.43815910 </i>
    <i name="e_0_energy">    -21.43815910 </i>
   </energy>
  </scstep>
  <scstep>
   <time name="dav">    0.94    0.94</time>
   <time name="total">    0.95    0.95</time>
   <energy>
    <i name="alphaZ">      5.41769140 </i>
    <i name="ewald">   1927.68709159 </i>
    <i name="hartreedc">  -2538.75321644 </i>
    <i name="XCdc">     14.30677630 </i>
    <i name="pawpsdc">   2167.96594282 </i>
    <i name="pawaedc">  -2135.68154067 </i>
    <i name="eentropy">     -0.00000000 </i>
    <i name="bandstr">   -166.54868975 </i>
    <i name="atom">    704.16778566 </i>
    <i name="e_fr_energy">    -21.43815909 </i>
    <i name="e_wo_entrp">    -21.43815909 </i>
    <i name="e_0_energy">    -21.43815909 </i>
   </energy>
  </scstep>
  <structure>
   <crystal>
    <varray name="basis" >
     <v>       3.24736900       0.00000000       0.00000000 </v>
     <v>       0.00000000       4.55347300      -0.00005300 </v>
     <v>       0.00000000       0.00000000      20.02439000 </v>
    </varray>
    <i name="volume">    296.09679147 </i>
    <varray name="rec_basis" >
     <v>       0.30794160       0.00000000       0.00000000 </v>
     <v>       0.00000000       0.21961259       0.00000000 </v>
     <v>       0.00000000       0.00000058       0.04993910 </v>
    </varray>
   </crystal>
   <varray name="positions" >
    <v>       0.50000000       0.91389427       0.55285226 </v>
    <v>       0.50000000       0.08610573       0.44714774 </v>
    <v>      -0.00000000       0.41388948       0.44714775 </v>
    <v>       0.00000000       0.58611052       0.55285225 </v>
   </varray>
  </structure>
  <varray name="forces" >
   <v>       0.00000011      -0.00058571       0.00073752 </v>
   <v>      -0.00000011       0.00058571      -0.00073752 </v>
   <v>      -0.00000007      -0.00060184      -0.00073791 </v>
   <v>       0.00000007       0.00060184       0.00073791 </v>
  </varray>
  <varray name="stress" >
   <v>       9.91491624       0.00000012       0.00000022 </v>
   <v>       0.00000012       3.41373553       0.00014535 </v>
   <v>       0.00000028       0.00014544      -0.04629287 </v>
  </varray>
  <energy>
   <i name="e_fr_energy">    -21.43815909 </i>
   <i name="e_wo_entrp">    -21.43815909 </i>
   <i name="e_0_energy">     -0.00000000 </i>
  </energy>
  <time name="totalsc">    8.32    8.34</time>
  <eigenvalues>
   <array>
    <dimension dim="1">band</dimension>
    <dimension dim="2">kpoint</dimension>
    <dimension dim="3">spin</dimension>
    <field>eigene</field>
    <field>occ</field>
    <set>
     <set comment="spin 1">
      <set comment="kpoint 1">
       <r>  -17.2745    1.0000 </r>
       <r>  -14.7891    1.0000 </r>
       <r>  -11.2628    1.0000 </r>
       <r>   -7.9418    1.0000 </r>
       <r>   -6.8370    1.0000 </r>
       <r>   -6.8097    1.0000 </r>
       <r>   -5.3377    1.0000 </r>
       <r>   -3.9893    1.0000 </r>
       <r>   -3.7425    1.0000 </r>
       <r>   -2.1660    1.0000 </r>
       <r>   -1.4126    0.0000 </r>
       <r>   -0.3281    0.0000 </r>
       <r>    0.8060    0.0000 </r>
       <r>    1.3966    0.0000 </r>
       <r>    2.1950    0.0000 </r>
       <r>    2.3384    0.0000 </r>
      </set>
      <set comment="kpoint 2">
       <r>  -17.2489    1.0000 </r>
       <r>  -14.7625    1.0000 </r>
       <r>  -11.2693    1.0000 </r>
       <r>   -7.9218    1.0000 </r>
       <r>   -6.8481    1.0000 </r>
       <r>   -6.7869    1.0000 </r>
       <r>   -5.5127    1.0000 </r>
       <r>   -3.9763    1.0000 </r>
       <r>   -3.9256    1.0000 </r>
       <r>   -2.1621    1.0000 </r>
       <r>   -1.3883    0.0000 </r>
       <r>   -0.0929    0.0000 </r>
       <r>    1.0377    0.0000 </r>
       <r>    1.2292    0.0000 </r>
       <r>    2.2218    0.0000 </r>
       <r>    2.3673    0.0000 </r>
      </set>
      <set comment="kpoint 3">
       <r>  -17.1722    1.0000 </r>
       <r>  -14.6828    1.0000 </r>
       <r>  -11.2938    1.0000 </r>
       <r>   -7.8625    1.0000 </r>
       <r>   -6.8970    1.0000 </r>
       <r>   -6.7188    1.0000 </r>
       <r>   -5.9434    1.0000 </r>
       <r>   -4.3601    1.0000 </r>
       <r>   -3.9397    1.0000 </r>
       <r>   -2.1709    1.0000 </r>
       <r>   -1.3154    0.0000 </r>
       <r>    0.5395    0.0000 </r>
       <r>    0.8105    0.0000 </r>
       <r>    1.6107    0.0000 </r>
       <r>    2.2998    0.0000 </r>
       <r>    2.4531    0.0000 </r>
      </set>
      <set comment="kpoint 4">
       <r>  -17.0448    1.0000 </r>
       <r>  -14.5501    1.0000 </r>
       <r>  -11.3512    1.0000 </r>
       <r>   -7.7656    1.0000 </r>
       <r>   -7.0369    1.0000 </r>
       <r>   -6.6063    1.0000 </r>
       <r>   -6.4653    1.0000 </r>
       <r>   -4.8323    1.0000 </r>
       <r>   -3.8878    1.0000 </r>
       <r>   -2.2156    1.0000 </r>
       <r>   -1.1949    0.0000 </r>
       <r>    0.2824    0.0000 </r>
       <r>    1.4283    0.0000 </r>
       <r>    2.2321    0.0000 </r>
       <r>    2.4086    0.0000 </r>
       <r>    2.5947    0.0000 </r>
      </set>
      <set comment="kpoint 5">
       <r>  -16.8670    1.0000 </r>
       <r>  -14.3647    1.0000 </r>
       <r>  -11.4656    1.0000 </r>
       <r>   -7.6348    1.0000 </r>
       <r>   -7.3473    1.0000 </r>
       <r>   -6.9560    1.0000 </r>
       <r>   -6.4515    1.0000 </r>
       <r>   -5.1637    1.0000 </r>
       <r>   -3.8373    1.0000 </r>
       <r>   -2.3075    1.0000 </r>
       <r>   -1.0282    0.0000 </r>
       <r>   -0.2489    0.0000 </r>
       <r>    2.2366    0.0000 </r>
       <r>    2.2655    0.0000 </r>
       <r>    2.4398    0.0000 </r>
       <r>    2.7584    0.0000 </r>
      </set>
      <set comment="kpoint 6">
       <r>  -16.6397    1.0000 </r>
       <r>  -14.1270    1.0000 </r>
       <r>  -11.6648    1.0000 </r>
       <r>   -7.8487    1.0000 </r>
       <r>   -7.4762    1.0000 </r>
       <r>   -7.3378    1.0000 </r>
       <r>   -6.2576    1.0000 </r>
       <r>   -5.2874    1.0000 </r>
       <r>   -3.8162    1.0000 </r>
       <r>   -2.4562    1.0000 </r>
       <r>   -0.8187    0.0000 </r>
       <r>   -0.7039    0.0000 </r>
       <r>    1.6361    0.0000 </r>
       <r>    1.7126    0.0000 </r>
       <r>    2.8678    0.0000 </r>
       <r>    2.9611    0.0000 </r>
      </set>
      <set comment="kpoint 7">
       <r>  -16.3641    1.0000 </r>
       <r>  -13.8373    1.0000 </r>
       <r>  -11.9658    1.0000 </r>
       <r>   -8.4694    1.0000 </r>
       <r>   -7.5696    1.0000 </r>
       <r>   -7.3006    1.0000 </r>
       <r>   -6.0296    1.0000 </r>
       <r>   -5.2566    1.0000 </r>
       <r>   -3.8593    1.0000 </r>
       <r>   -2.6675    1.0000 </r>
       <r>   -1.0128    0.0000 </r>
       <r>   -0.5754    0.0000 </r>
       <r>    0.9660    0.0000 </r>
       <r>    1.1373    0.0000 </r>
       <r>    2.3822    0.0000 </r>
       <r>    3.2647    0.0000 </r>
      </set>
      <set comment="kpoint 8">
       <r>  -16.0416    1.0000 </r>
       <r>  -13.4965    1.0000 </r>
       <r>  -12.3621    1.0000 </r>
       <r>   -9.1348    1.0000 </r>
       <r>   -7.6473    1.0000 </r>
       <r>   -7.1257    1.0000 </r>
       <r>   -5.7756    1.0000 </r>
       <r>   -5.1448    1.0000 </r>
       <r>   -3.9823    1.0000 </r>
       <r>   -2.9375    1.0000 </r>
       <r>   -1.1293    0.0000 </r>
       <r>   -0.3337    0.0000 </r>
       <r>    0.3391    0.0000 </r>
       <r>    0.6365    0.0000 </r>
       <r>    1.8643    0.0000 </r>
       <r>    3.2905    0.0000 </r>
      </set>
      <set comment="kpoint 9">
       <r>  -15.6744    1.0000 </r>
       <r>  -13.1052    1.0000 </r>
       <r>  -12.8270    1.0000 </r>
       <r>   -9.8021    1.0000 </r>
       <r>   -7.5961    1.0000 </r>
       <r>   -6.9812    1.0000 </r>
       <r>   -5.5086    1.0000 </r>
       <r>   -5.0063    1.0000 </r>
       <r>   -4.1462    1.0000 </r>
       <r>   -3.2499    1.0000 </r>
       <r>   -1.0563    0.0000 </r>
       <r>   -0.2849    0.0000 </r>
       <r>   -0.2025    0.0000 </r>
       <r>    0.4288    0.0000 </r>
       <r>    1.3518    0.0000 </r>
       <r>    2.8907    0.0000 </r>
      </set>
      <set comment="kpoint 10">
       <r>  -15.2654    1.0000 </r>
       <r>  -13.3283    1.0000 </r>
       <r>  -12.6647    1.0000 </r>
       <r>  -10.4495    1.0000 </r>
       <r>   -7.4542    1.0000 </r>
       <r>   -6.9081    1.0000 </r>
       <r>   -5.2489    1.0000 </r>
       <r>   -4.8876    1.0000 </r>
       <r>   -4.2675    1.0000 </r>
       <r>   -3.5780    1.0000 </r>
       <r>   -0.8339    0.0000 </r>
       <r>   -0.6210    0.0000 </r>
       <r>   -0.5552    0.0000 </r>
       <r>    0.6664    0.0000 </r>
       <r>    0.8454    0.0000 </r>
       <r>    2.4358    0.0000 </r>
      </set>
      <set comment="kpoint 11">
       <r>  -14.8187    1.0000 </r>
       <r>  -13.8392    1.0000 </r>
       <r>  -12.1763    1.0000 </r>
       <r>  -11.0651    1.0000 </r>
       <r>   -7.2644    1.0000 </r>
       <r>   -6.9410    1.0000 </r>
       <r>   -5.0269    1.0000 </r>
       <r>   -4.8340    1.0000 </r>
       <r>   -4.2705    1.0000 </r>
       <r>   -3.8866    1.0000 </r>
       <r>   -0.8768    0.0000 </r>
       <r>   -0.8182    0.0000 </r>
       <r>   -0.5047    0.0000 </r>
       <r>    0.3559    0.0000 </r>
       <r>    1.0548    0.0000 </r>
       <r>    1.9625    0.0000 </r>
      </set>
      <set comment="kpoint 12">
       <r>  -14.3404    1.0000 </r>
       <r>  -14.3404    1.0000 </r>
       <r>  -11.6422    1.0000 </r>
       <r>  -11.6422    1.0000 </r>
       <r>   -7.0750    1.0000 </r>
       <r>   -7.0750    1.0000 </r>
       <r>   -4.8795    1.0000 </r>
       <r>   -4.8795    1.0000 </r>
       <r>   -4.1332    1.0000 </r>
       <r>   -4.1332    1.0000 </r>
       <r>   -0.9411    0.0000 </r>
       <r>   -0.9411    0.0000 </r>
       <r>   -0.1005    0.0000 </r>
       <r>   -0.1005    0.0000 </r>
       <r>    1.4956    0.0000 </r>
       <r>    1.4956    0.0000 </r>
      </set>
      <set comment="kpoint 13">
       <r>  -17.2521    1.0000 </r>
       <r>  -14.8162    1.0000 </r>
       <r>  -11.2847    1.0000 </r>
       <r>   -8.0829    1.0000 </r>
       <r>   -6.7720    1.0000 </r>
       <r>   -6.7038    1.0000 </r>
       <r>   -5.3205    1.0000 </r>
       <r>   -3.8738    1.0000 </r>
       <r>   -3.7567    1.0000 </r>
       <r>   -2.3942    1.0000 </r>
       <r>   -1.2031    0.0000 </r>
       <r>   -0.3118    0.0000 </r>
       <r>    0.7626    0.0000 </r>
       <r>    1.3755    0.0000 </r>
       <r>    2.2589    0.0000 </r>
       <r>    2.3701    0.0000 </r>
      </set>
      <set comment="kpoint 14">
       <r>  -17.2266    1.0000 </r>
       <r>  -14.7897    1.0000 </r>
       <r>  -11.2898    1.0000 </r>
       <r>   -8.0655    1.0000 </r>
       <r>   -6.7782    1.0000 </r>
       <r>   -6.6881    1.0000 </r>
       <r>   -5.4891    1.0000 </r>
       <r>   -3.9630    1.0000 </r>
       <r>   -3.8434    1.0000 </r>
       <r>   -2.3863    1.0000 </r>
       <r>   -1.1832    0.0000 </r>
       <r>   -0.0767    0.0000 </r>
       <r>    0.9832    0.0000 </r>
       <r>    1.2222    0.0000 </r>
       <r>    2.2844    0.0000 </r>
       <r>    2.3988    0.0000 </r>
      </set>
      <set comment="kpoint 15">
       <r>  -17.1499    1.0000 </r>
       <r>  -14.7105    1.0000 </r>
       <r>  -11.3099    1.0000 </r>
       <r>   -8.0156    1.0000 </r>
       <r>   -6.8104    1.0000 </r>
       <r>   -6.6535    1.0000 </r>
       <r>   -5.8895    1.0000 </r>
       <r>   -4.3981    1.0000 </r>
       <r>   -3.8228    1.0000 </r>
       <r>   -2.3787    1.0000 </r>
       <r>   -1.1270    0.0000 </r>
       <r>    0.5553    0.0000 </r>
       <r>    0.7833    0.0000 </r>
       <r>    1.5884    0.0000 </r>
       <r>    2.3587    0.0000 </r>
       <r>    2.4843    0.0000 </r>
      </set>
      <set comment="kpoint 16">
       <r>  -17.0225    1.0000 </r>
       <r>  -14.5786    1.0000 </r>
       <r>  -11.3598    1.0000 </r>
       <r>   -7.9432    1.0000 </r>
       <r>   -6.9140    1.0000 </r>
       <r>   -6.7136    1.0000 </r>
       <r>   -6.2459    1.0000 </r>
       <r>   -4.8814    1.0000 </r>
       <r>   -3.7871    1.0000 </r>
       <r>   -2.3937    1.0000 </r>
       <r>   -1.0345    0.0000 </r>
       <r>    0.2729    0.0000 </r>
       <r>    1.4402    0.0000 </r>
       <r>    2.2293    0.0000 </r>
       <r>    2.4575    0.0000 </r>
       <r>    2.6253    0.0000 </r>
      </set>
      <set comment="kpoint 17">
       <r>  -16.8449    1.0000 </r>
       <r>  -14.3945    1.0000 </r>
       <r>  -11.4638    1.0000 </r>
       <r>   -7.8899    1.0000 </r>
       <r>   -7.1372    1.0000 </r>
       <r>   -7.0648    1.0000 </r>
       <r>   -6.2420    1.0000 </r>
       <r>   -5.2212    1.0000 </r>
       <r>   -3.7615    1.0000 </r>
       <r>   -2.4487    1.0000 </r>
       <r>   -0.9018    0.0000 </r>
       <r>   -0.2330    0.0000 </r>
       <r>    2.0885    0.0000 </r>
       <r>    2.3157    0.0000 </r>
       <r>    2.5092    0.0000 </r>
       <r>    2.7054    0.0000 </r>
      </set>
      <set comment="kpoint 18">
       <r>  -16.6179    1.0000 </r>
       <r>  -14.1591    1.0000 </r>
       <r>  -11.6504    1.0000 </r>
       <r>   -8.0427    1.0000 </r>
       <r>   -7.4229    1.0000 </r>
       <r>   -7.3257    1.0000 </r>
       <r>   -6.0866    1.0000 </r>
       <r>   -5.3450    1.0000 </r>
       <r>   -3.7755    1.0000 </r>
       <r>   -2.5596    1.0000 </r>
       <r>   -0.7264    0.0000 </r>
       <r>   -0.6509    0.0000 </r>
       <r>    1.5169    0.0000 </r>
       <r>    1.7481    0.0000 </r>
       <r>    2.7948    0.0000 </r>
       <r>    3.0706    0.0000 </r>
      </set>
      <set comment="kpoint 19">
       <r>  -16.3426    1.0000 </r>
       <r>  -13.8738    1.0000 </r>
       <r>  -11.9378    1.0000 </r>
       <r>   -8.5436    1.0000 </r>
       <r>   -7.6488    1.0000 </r>
       <r>   -7.2704    1.0000 </r>
       <r>   -5.8819    1.0000 </r>
       <r>   -5.3142    1.0000 </r>
       <r>   -3.8575    1.0000 </r>
       <r>   -2.7364    1.0000 </r>
       <r>   -0.9152    0.0000 </r>
       <r>   -0.5132    0.0000 </r>
       <r>    0.9378    0.0000 </r>
       <r>    1.0844    0.0000 </r>
       <r>    2.5383    0.0000 </r>
       <r>    3.3456    0.0000 </r>
      </set>
      <set comment="kpoint 20">
       <r>  -16.0206    1.0000 </r>
       <r>  -13.5436    1.0000 </r>
       <r>  -12.3169    1.0000 </r>
       <r>   -9.1756    1.0000 </r>
       <r>   -7.7226    1.0000 </r>
       <r>   -7.1264    1.0000 </r>
       <r>   -5.6525    1.0000 </r>
       <r>   -5.2138    1.0000 </r>
       <r>   -4.0024    1.0000 </r>
       <r>   -2.9755    1.0000 </r>
       <r>   -0.9941    0.0000 </r>
       <r>   -0.3004    0.0000 </r>
       <r>    0.4447    0.0000 </r>
       <r>    0.4557    0.0000 </r>
       <r>    2.0880    0.0000 </r>
       <r>    3.2309    0.0000 </r>
      </set>
      <set comment="kpoint 21">
       <r>  -15.6541    1.0000 </r>
       <r>  -13.2068    1.0000 </r>
       <r>  -12.7236    1.0000 </r>
       <r>   -9.8299    1.0000 </r>
       <r>   -7.6655    1.0000 </r>
       <r>   -6.9892    1.0000 </r>
       <r>   -5.4194    1.0000 </r>
       <r>   -5.1124    1.0000 </r>
       <r>   -4.1443    1.0000 </r>
       <r>   -3.2574    1.0000 </r>
       <r>   -0.9090    0.0000 </r>
       <r>   -0.3353    0.0000 </r>
       <r>   -0.0868    0.0000 </r>
       <r>    0.3029    0.0000 </r>
       <r>    1.6139    0.0000 </r>
       <r>    2.8427    0.0000 </r>
      </set>
      <set comment="kpoint 22">
       <r>  -15.2462    1.0000 </r>
       <r>  -13.3529    1.0000 </r>
       <r>  -12.6368    1.0000 </r>
       <r>  -10.4704    1.0000 </r>
       <r>   -7.5145    1.0000 </r>
       <r>   -6.9183    1.0000 </r>
       <r>   -5.2125    1.0000 </r>
       <r>   -5.0566    1.0000 </r>
       <r>   -4.1933    1.0000 </r>
       <r>   -3.5484    1.0000 </r>
       <r>   -0.7759    0.0000 </r>
       <r>   -0.6490    0.0000 </r>
       <r>   -0.4306    0.0000 </r>
       <r>    0.5393    0.0000 </r>
       <r>    1.1680    0.0000 </r>
       <r>    2.3968    0.0000 </r>
      </set>
      <set comment="kpoint 23">
       <r>  -14.8015    1.0000 </r>
       <r>  -13.8338    1.0000 </r>
       <r>  -12.1782    1.0000 </r>
       <r>  -11.0811    1.0000 </r>
       <r>   -7.3120    1.0000 </r>
       <r>   -6.9588    1.0000 </r>
       <r>   -5.0709    1.0000 </r>
       <r>   -5.0315    1.0000 </r>
       <r>   -4.1327    1.0000 </r>
       <r>   -3.8072    1.0000 </r>
       <r>   -0.9124    0.0000 </r>
       <r>   -0.9017    0.0000 </r>
       <r>   -0.2568    0.0000 </r>
       <r>    0.5117    0.0000 </r>
       <r>    1.1042    0.0000 </r>
       <r>    1.9340    0.0000 </r>
      </set>
      <set comment="kpoint 24">
       <r>  -14.3268    1.0000 </r>
       <r>  -14.3268    1.0000 </r>
       <r>  -11.6529    1.0000 </r>
       <r>  -11.6529    1.0000 </r>
       <r>   -7.1072    1.0000 </r>
       <r>   -7.1072    1.0000 </r>
       <r>   -5.0203    1.0000 </r>
       <r>   -5.0203    1.0000 </r>
       <r>   -4.0023    1.0000 </r>
       <r>   -4.0023    1.0000 </r>
       <r>   -0.9978    0.0000 </r>
       <r>   -0.9978    0.0000 </r>
       <r>    0.1172    0.0000 </r>
       <r>    0.1172    0.0000 </r>
       <r>    1.4851    0.0000 </r>
       <r>    1.4851    0.0000 </r>
      </set>
      <set comment="kpoint 25">
       <r>  -14.8015    1.0000 </r>
       <r>  -13.8338    1.0000 </r>
       <r>  -12.1782    1.0000 </r>
       <r>  -11.0811    1.0000 </r>
       <r>   -7.3120    1.0000 </r>
       <r>   -6.9588    1.0000 </r>
       <r>   -5.0709    1.0000 </r>
       <r>   -5.0315    1.0000 </r>
       <r>   -4.1327    1.0000 </r>
       <r>   -3.8072    1.0000 </r>
       <r>   -0.9124    0.0000 </r>
       <r>   -0.9017    0.0000 </r>
       <r>   -0.2568    0.0000 </r>
       <r>    0.5117    0.0000 </r>
       <r>    1.1042    0.0000 </r>
       <r>    1.9340    0.0000 </r>
      </set>
      <set comment="kpoint 26">
       <r>  -15.2462    1.0000 </r>
       <r>  -13.3529    1.0000 </r>
       <r>  -12.6368    1.0000 </r>
       <r>  -10.4704    1.0000 </r>
       <r>   -7.5145    1.0000 </r>
       <r>   -6.9183    1.0000 </r>
       <r>   -5.2125    1.0000 </r>
       <r>   -5.0566    1.0000 </r>
       <r>   -4.1933    1.0000 </r>
       <r>   -3.5484    1.0000 </r>
       <r>   -0.7759    0.0000 </r>
       <r>   -0.6490    0.0000 </r>
       <r>   -0.4306    0.0000 </r>
       <r>    0.5393    0.0000 </r>
       <r>    1.1680    0.0000 </r>
       <r>    2.3968    0.0000 </r>
      </set>
      <set comment="kpoint 27">
       <r>  -15.6541    1.0000 </r>
       <r>  -13.2068    1.0000 </r>
       <r>  -12.7236    1.0000 </r>
       <r>   -9.8299    1.0000 </r>
       <r>   -7.6655    1.0000 </r>
       <r>   -6.9892    1.0000 </r>
       <r>   -5.4194    1.0000 </r>
       <r>   -5.1124    1.0000 </r>
       <r>   -4.1443    1.0000 </r>
       <r>   -3.2574    1.0000 </r>
       <r>   -0.9090    0.0000 </r>
       <r>   -0.3353    0.0000 </r>
       <r>   -0.0868    0.0000 </r>
       <r>    0.3029    0.0000 </r>
       <r>    1.6139    0.0000 </r>
       <r>    2.8427    0.0000 </r>
      </set>
      <set comment="kpoint 28">
       <r>  -16.0206    1.0000 </r>
       <r>  -13.5436    1.0000 </r>
       <r>  -12.3169    1.0000 </r>
       <r>   -9.1756    1.0000 </r>
       <r>   -7.7226    1.0000 </r>
       <r>   -7.1264    1.0000 </r>
       <r>   -5.6525    1.0000 </r>
       <r>   -5.2138    1.0000 </r>
       <r>   -4.0024    1.0000 </r>
       <r>   -2.9755    1.0000 </r>
       <r>   -0.9941    0.0000 </r>
       <r>   -0.3004    0.0000 </r>
       <r>    0.4447    0.0000 </r>
       <r>    0.4557    0.0000 </r>
       <r>    2.0880    0.0000 </r>
       <r>    3.2309    0.0000 </r>
      </set>
      <set comment="kpoint 29">
       <r>  -16.3426    1.0000 </r>
       <r>  -13.8738    1.0000 </r>
       <r>  -11.9378    1.0000 </r>
       <r>   -8.5436    1.0000 </r>
       <r>   -7.6488    1.0000 </r>
       <r>   -7.2704    1.0000 </r>
       <r>   -5.8819    1.0000 </r>
       <r>   -5.3142    1.0000 </r>
       <r>   -3.8575    1.0000 </r>
       <r>   -2.7364    1.0000 </r>
       <r>   -0.9152    0.0000 </r>
       <r>   -0.5132    0.0000 </r>
       <r>    0.9378    0.0000 </r>
       <r>    1.0844    0.0000 </r>
       <r>    2.5383    0.0000 </r>
       <r>    3.3457    0.0000 </r>
      </set>
      <set comment="kpoint 30">
       <r>  -16.6179    1.0000 </r>
       <r>  -14.1591    1.0000 </r>
       <r>  -11.6504    1.0000 </r>
       <r>   -8.0427    1.0000 </r>
       <r>   -7.4229    1.0000 </r>
       <r>   -7.3257    1.0000 </r>
       <r>   -6.0866    1.0000 </r>
       <r>   -5.3450    1.0000 </r>
       <r>   -3.7755    1.0000 </r>
       <r>   -2.5596    1.0000 </r>
       <r>   -0.7264    0.0000 </r>
       <r>   -0.6509    0.0000 </r>
       <r>    1.5169    0.0000 </r>
       <r>    1.7481    0.0000 </r>
       <r>    2.7948    0.0000 </r>
       <r>    3.0706    0.0000 </r>
      </set>
      <set comment="kpoint 31">
       <r>  -16.8449    1.0000 </r>
       <r>  -14.3945    1.0000 </r>
       <r>  -11.4638    1.0000 </r>
       <r>   -7.8899    1.0000 </r>
       <r>   -7.1372    1.0000 </r>
       <r>   -7.0648    1.0000 </r>
       <r>   -6.2420    1.0000 </r>
       <r>   -5.2212    1.0000 </r>
       <r>   -3.7615    1.0000 </r>
       <r>   -2.4487    1.0000 </r>
       <r>   -0.9018    0.0000 </r>
       <r>   -0.2330    0.0000 </r>
       <r>    2.0885    0.0000 </r>
       <r>    2.3157    0.0000 </r>
       <r>    2.5092    0.0000 </r>
       <r>    2.7054    0.0000 </r>
      </set>
      <set comment="kpoint 32">
       <r>  -17.0225    1.0000 </r>
       <r>  -14.5786    1.0000 </r>
       <r>  -11.3598    1.0000 </r>
       <r>   -7.9432    1.0000 </r>
       <r>   -6.9140    1.0000 </r>
       <r>   -6.7136    1.0000 </r>
       <r>   -6.2459    1.0000 </r>
       <r>   -4.8814    1.0000 </r>
       <r>   -3.7871    1.0000 </r>
       <r>   -2.3937    1.0000 </r>
       <r>   -1.0345    0.0000 </r>
       <r>    0.2729    0.0000 </r>
       <r>    1.4402    0.0000 </r>
       <r>    2.2293    0.0000 </r>
       <r>    2.4575    0.0000 </r>
       <r>    2.6253    0.0000 </r>
      </set>
      <set comment="kpoint 33">
       <r>  -17.1499    1.0000 </r>
       <r>  -14.7105    1.0000 </r>
       <r>  -11.3099    1.0000 </r>
       <r>   -8.0156    1.0000 </r>
       <r>   -6.8104    1.0000 </r>
       <r>   -6.6535    1.0000 </r>
       <r>   -5.8895    1.0000 </r>
       <r>   -4.3981    1.0000 </r>
       <r>   -3.8228    1.0000 </r>
       <r>   -2.3787    1.0000 </r>
       <r>   -1.1270    0.0000 </r>
       <r>    0.5553    0.0000 </r>
       <r>    0.7833    0.0000 </r>
       <r>    1.5884    0.0000 </r>
       <r>    2.3587    0.0000 </r>
       <r>    2.4843    0.0000 </r>
      </set>
      <set comment="kpoint 34">
       <r>  -17.2266    1.0000 </r>
       <r>  -14.7897    1.0000 </r>
       <r>  -11.2898    1.0000 </r>
       <r>   -8.0655    1.0000 </r>
       <r>   -6.7782    1.0000 </r>
       <r>   -6.6881    1.0000 </r>
       <r>   -5.4891    1.0000 </r>
       <r>   -3.9630    1.0000 </r>
       <r>   -3.8434    1.0000 </r>
       <r>   -2.3863    1.0000 </r>
       <r>   -1.1832    0.0000 </r>
       <r>   -0.0767    0.0000 </r>
       <r>    0.9832    0.0000 </r>
       <r>    1.2222    0.0000 </r>
       <r>    2.2844    0.0000 </r>
       <r>    2.3988    0.0000 </r>
      </set>
      <set comment="kpoint 35">
       <r>  -17.1854    1.0000 </r>
       <r>  -14.8987    1.0000 </r>
[...]
       <r>    3.4481    0.0000 </r>
       <r>    3.5311    0.0000 </r>
      </set>
      <set comment="kpoint 161">
       <r>  -15.3937    1.0000 </r>
       <r>  -15.1357    1.0000 </r>
       <r>  -10.7528    1.0000 </r>
       <r>  -10.4237    1.0000 </r>
       <r>   -7.8377    1.0000 </r>
       <r>   -7.6698    1.0000 </r>
       <r>   -5.1433    1.0000 </r>
       <r>   -4.8896    1.0000 </r>
       <r>   -3.7482    1.0000 </r>
       <r>   -3.6770    1.0000 </r>
       <r>    0.4594    0.0000 </r>
       <r>    0.8659    0.0000 </r>
       <r>    1.2704    0.0000 </r>
       <r>    1.6026    0.0000 </r>
       <r>    3.4776    0.0000 </r>
       <r>    3.5124    0.0000 </r>
      </set>
      <set comment="kpoint 162">
       <r>  -15.6536    1.0000 </r>
       <r>  -15.3919    1.0000 </r>
       <r>  -10.6723    1.0000 </r>
       <r>  -10.3428    1.0000 </r>
       <r>   -7.4237    1.0000 </r>
       <r>   -7.2463    1.0000 </r>
       <r>   -5.1025    1.0000 </r>
       <r>   -4.7966    1.0000 </r>
       <r>   -3.5851    1.0000 </r>
       <r>   -3.5360    1.0000 </r>
       <r>    0.4924    0.0000 </r>
       <r>    0.8042    0.0000 </r>
       <r>    1.3195    0.0000 </r>
       <r>    1.6851    0.0000 </r>
       <r>    3.2771    0.0000 </r>
       <r>    3.4981    0.0000 </r>
      </set>
      <set comment="kpoint 163">
       <r>  -15.8707    1.0000 </r>
       <r>  -15.6069    1.0000 </r>
       <r>  -10.6830    1.0000 </r>
       <r>  -10.3592    1.0000 </r>
       <r>   -6.8453    1.0000 </r>
       <r>   -6.6544    1.0000 </r>
       <r>   -5.1610    1.0000 </r>
       <r>   -4.8256    1.0000 </r>
       <r>   -3.4476    1.0000 </r>
       <r>   -3.2764    1.0000 </r>
       <r>    0.6267    0.0000 </r>
       <r>    0.8184    0.0000 </r>
       <r>    1.2824    0.0000 </r>
       <r>    1.6680    0.0000 </r>
       <r>    2.7102    0.0000 </r>
       <r>    2.9591    0.0000 </r>
      </set>
      <set comment="kpoint 164">
       <r>  -16.0419    1.0000 </r>
       <r>  -15.7768    1.0000 </r>
       <r>  -10.7321    1.0000 </r>
       <r>  -10.4141    1.0000 </r>
       <r>   -6.1770    1.0000 </r>
       <r>   -5.9749    1.0000 </r>
       <r>   -5.2440    1.0000 </r>
       <r>   -4.8953    1.0000 </r>
       <r>   -3.3588    1.0000 </r>
       <r>   -3.0723    1.0000 </r>
       <r>    0.8147    0.0000 </r>
       <r>    0.8815    0.0000 </r>
       <r>    1.1827    0.0000 </r>
       <r>    1.5439    0.0000 </r>
       <r>    2.0654    0.0000 </r>
       <r>    2.2047    0.0000 </r>
      </set>
      <set comment="kpoint 165">
       <r>  -16.1653    1.0000 </r>
       <r>  -15.8995    1.0000 </r>
       <r>  -10.7847    1.0000 </r>
       <r>  -10.4709    1.0000 </r>
       <r>   -5.4925    1.0000 </r>
       <r>   -5.3375    1.0000 </r>
       <r>   -5.2648    1.0000 </r>
       <r>   -4.9619    1.0000 </r>
       <r>   -3.3671    1.0000 </r>
       <r>   -2.9794    1.0000 </r>
       <r>    0.7168    0.0000 </r>
       <r>    0.7444    0.0000 </r>
       <r>    1.1912    0.0000 </r>
       <r>    1.3613    0.0000 </r>
       <r>    1.7420    0.0000 </r>
       <r>    1.7489    0.0000 </r>
      </set>
      <set comment="kpoint 166">
       <r>  -16.2397    1.0000 </r>
       <r>  -15.9736    1.0000 </r>
       <r>  -10.8221    1.0000 </r>
       <r>  -10.5107    1.0000 </r>
       <r>   -5.3687    1.0000 </r>
       <r>   -5.0089    1.0000 </r>
       <r>   -4.8911    1.0000 </r>
       <r>   -4.6940    1.0000 </r>
       <r>   -3.4811    1.0000 </r>
       <r>   -3.0093    1.0000 </r>
       <r>    0.3309    0.0000 </r>
       <r>    0.3360    0.0000 </r>
       <r>    1.2564    0.0000 </r>
       <r>    1.4379    0.0000 </r>
       <r>    1.6436    0.0000 </r>
       <r>    1.7030    0.0000 </r>
      </set>
     </set>
    </set>
   </array>
  </eigenvalues>
  <separator name="orbital magnetization" >
   <v name="MAGDIPOLOUT">      0.00000000      0.00000000      0.00000000</v>
  </separator>
  <dos>
   <i name="efermi">     -2.06517455 </i>
   <total>
    <array>
     <dimension dim="1">gridpoints</dimension>
     <dimension dim="2">spin</dimension>
     <field>energy</field>
     <field>total</field>
     <field>integrated</field>
     <set>
      <set comment="spin 1">
       <r>   -18.3241     0.0000     0.0000 </r>
       <r>   -18.2471     0.0000     0.0000 </r>
       <r>   -18.1701     0.0000     0.0000 </r>
       <r>   -18.0932     0.0000     0.0000 </r>
       <r>   -18.0162     0.0000     0.0000 </r>
       <r>   -17.9392     0.0000     0.0000 </r>
       <r>   -17.8623     0.0000     0.0000 </r>
       <r>   -17.7853     0.0000     0.0000 </r>
       <r>   -17.7083     0.0000     0.0000 </r>
       <r>   -17.6314     0.0000     0.0000 </r>
       <r>   -17.5544     0.0000     0.0000 </r>
       <r>   -17.4774     0.0000     0.0000 </r>
       <r>   -17.4005     0.0000     0.0000 </r>
       <r>   -17.3235     0.0000     0.0000 </r>
       <r>   -17.2465     0.2940     0.0226 </r>
       <r>   -17.1696     0.7451     0.0800 </r>
       <r>   -17.0926     0.7134     0.1349 </r>
       <r>   -17.0157     1.0575     0.2163 </r>
       <r>   -16.9387     0.7230     0.2719 </r>
       <r>   -16.8617     0.6691     0.3234 </r>
       <r>   -16.7848     1.0241     0.4022 </r>
       <r>   -16.7078     0.6122     0.4494 </r>
       <r>   -16.6308     1.0617     0.5311 </r>
       <r>   -16.5539     0.5753     0.5754 </r>
       <r>   -16.4769     1.1985     0.6676 </r>
       <r>   -16.3999     0.6433     0.7171 </r>
       <r>   -16.3230     0.7714     0.7765 </r>
       <r>   -16.2460     1.2563     0.8732 </r>
       <r>   -16.1690     0.5460     0.9152 </r>
       <r>   -16.0921     0.9118     0.9854 </r>
       <r>   -16.0151     0.9725     1.0602 </r>
       <r>   -15.9381     0.9241     1.1313 </r>
       <r>   -15.8612     1.0392     1.2113 </r>
       <r>   -15.7842     0.6565     1.2619 </r>
       <r>   -15.7072     0.6882     1.3148 </r>
       <r>   -15.6303     1.4142     1.4237 </r>
       <r>   -15.5533     0.9894     1.4998 </r>
       <r>   -15.4763     0.9046     1.5694 </r>
       <r>   -15.3994     0.6803     1.6218 </r>
       <r>   -15.3224     1.5300     1.7395 </r>
       <r>   -15.2455     0.6199     1.7873 </r>
       <r>   -15.1685     1.3836     1.8938 </r>
       <r>   -15.0915     1.4050     2.0019 </r>
       <r>   -15.0146     0.9063     2.0716 </r>
       <r>   -14.9376     1.1729     2.1619 </r>
       <r>   -14.8606     1.0057     2.2393 </r>
       <r>   -14.7837     2.6892     2.4463 </r>
       <r>   -14.7067     1.1725     2.5365 </r>
       <r>   -14.6297     1.3348     2.6393 </r>
       <r>   -14.5528     1.7476     2.7738 </r>
       <r>   -14.4758     0.7267     2.8297 </r>
       <r>   -14.3988     1.0747     2.9124 </r>
       <r>   -14.3219     1.2873     3.0115 </r>
       <r>   -14.2449     1.5118     3.1278 </r>
       <r>   -14.1679     0.7616     3.1865 </r>
       <r>   -14.0910     1.3632     3.2914 </r>
       <r>   -14.0140     1.2851     3.3903 </r>
       <r>   -13.9370     1.1397     3.4780 </r>
       <r>   -13.8601     0.7773     3.5378 </r>
       <r>   -13.7831     2.6590     3.7425 </r>
       <r>   -13.7061     0.0429     3.7458 </r>
       <r>   -13.6292     0.6260     3.7940 </r>
       <r>   -13.5522     0.4177     3.8261 </r>
       <r>   -13.4753     0.6739     3.8780 </r>
       <r>   -13.3983     0.3835     3.9075 </r>
       <r>   -13.3213     0.6765     3.9596 </r>
       <r>   -13.2444     0.0542     3.9637 </r>
       <r>   -13.1674     0.3129     3.9878 </r>
       <r>   -13.0904     0.1350     3.9982 </r>
       <r>   -13.0135     0.0233     4.0000 </r>
       <r>   -12.9365     0.0000     4.0000 </r>
       <r>   -12.8595     0.0017     4.0001 </r>
       <r>   -12.7826     0.1557     4.0121 </r>
       <r>   -12.7056     0.2834     4.0339 </r>
       <r>   -12.6286     0.4142     4.0658 </r>
       <r>   -12.5517     0.3530     4.0930 </r>
       <r>   -12.4747     0.3683     4.1213 </r>
       <r>   -12.3977     0.3138     4.1455 </r>
       <r>   -12.3208     0.4858     4.1829 </r>
       <r>   -12.2438     0.6155     4.2302 </r>
       <r>   -12.1668     1.4274     4.3401 </r>
       <r>   -12.0899     1.0479     4.4207 </r>
       <r>   -12.0129     0.7714     4.4801 </r>
       <r>   -11.9360     1.2213     4.5741 </r>
       <r>   -11.8590     1.0506     4.6550 </r>
       <r>   -11.7820     1.3109     4.7559 </r>
       <r>   -11.7051     0.7167     4.8110 </r>
       <r>   -11.6281     1.7512     4.9458 </r>
       <r>   -11.5511     0.9655     5.0201 </r>
       <r>   -11.4742     1.0377     5.1000 </r>
       <r>   -11.3972     1.4483     5.2115 </r>
       <r>   -11.3202     4.1157     5.5282 </r>
       <r>   -11.2433     2.9822     5.7578 </r>
       <r>   -11.1663     1.9164     5.9052 </r>
       <r>   -11.0893     0.6800     5.9576 </r>
       <r>   -11.0124     1.6106     6.0815 </r>
       <r>   -10.9354     1.6469     6.2083 </r>
       <r>   -10.8584     0.0595     6.2129 </r>
       <r>   -10.7815     0.8984     6.2820 </r>
       <r>   -10.7045     1.1513     6.3706 </r>
       <r>   -10.6275     1.1862     6.4619 </r>
       <r>   -10.5506     0.1054     6.4700 </r>
       <r>   -10.4736     1.1747     6.5604 </r>
       <r>   -10.3966     1.2599     6.6574 </r>
       <r>   -10.3197     0.9227     6.7284 </r>
       <r>   -10.2427     0.2140     6.7449 </r>
       <r>   -10.1658     0.2295     6.7626 </r>
       <r>   -10.0888     0.7184     6.8179 </r>
       <r>   -10.0118     1.2121     6.9111 </r>
       <r>    -9.9349     0.7021     6.9652 </r>
       <r>    -9.8579     0.3025     6.9885 </r>
       <r>    -9.7809     0.4557     7.0235 </r>
       <r>    -9.7040     1.0757     7.1063 </r>
       <r>    -9.6270     0.5805     7.1510 </r>
       <r>    -9.5500     0.7112     7.2057 </r>
       <r>    -9.4731     0.2624     7.2259 </r>
       <r>    -9.3961     0.0576     7.2304 </r>
       <r>    -9.3191     0.3553     7.2577 </r>
       <r>    -9.2422     0.9759     7.3328 </r>
       <r>    -9.1652     0.9783     7.4081 </r>
       <r>    -9.0882     0.5243     7.4485 </r>
       <r>    -9.0113     0.2636     7.4688 </r>
       <r>    -8.9343     0.0515     7.4727 </r>
       <r>    -8.8573     0.0782     7.4787 </r>
       <r>    -8.7804     0.7776     7.5386 </r>
       <r>    -8.7034     1.1319     7.6257 </r>
       <r>    -8.6265     0.0597     7.6303 </r>
       <r>    -8.5495     0.1068     7.6385 </r>
       <r>    -8.4725     0.2732     7.6596 </r>
       <r>    -8.3956     0.5886     7.7049 </r>
       <r>    -8.3186     0.7313     7.7611 </r>
       <r>    -8.2416     0.5046     7.8000 </r>
       <r>    -8.1647     0.4222     7.8325 </r>
       <r>    -8.0877     1.4960     7.9476 </r>
       <r>    -8.0107     2.1911     8.1163 </r>
       <r>    -7.9338     2.1111     8.2787 </r>
       <r>    -7.8568     1.7696     8.4149 </r>
       <r>    -7.7798     2.1622     8.5814 </r>
       <r>    -7.7029     0.7110     8.6361 </r>
       <r>    -7.6259     3.3937     8.8973 </r>
       <r>    -7.5489     1.9115     9.0444 </r>
       <r>    -7.4720     1.1390     9.1321 </r>
       <r>    -7.3950     1.6769     9.2611 </r>
       <r>    -7.3180     1.9867     9.4140 </r>
       <r>    -7.2411     2.8517     9.6335 </r>
       <r>    -7.1641     3.0603     9.8690 </r>
       <r>    -7.0871     2.9154    10.0934 </r>
       <r>    -7.0102     2.6631    10.2984 </r>
       <r>    -6.9332     2.4016    10.4832 </r>
       <r>    -6.8563     1.9247    10.6314 </r>
       <r>    -6.7793     1.6596    10.7591 </r>
       <r>    -6.7023     1.4306    10.8692 </r>
       <r>    -6.6254     2.6135    11.0704 </r>
       <r>    -6.5484     1.3062    11.1709 </r>
       <r>    -6.4714     1.0785    11.2539 </r>
       <r>    -6.3945     2.5738    11.4520 </r>
       <r>    -6.3175     0.6970    11.5056 </r>
       <r>    -6.2405     1.8595    11.6487 </r>
       <r>    -6.1636     2.2431    11.8214 </r>
       <r>    -6.0866     0.9564    11.8950 </r>
       <r>    -6.0096     0.7280    11.9510 </r>
       <r>    -5.9327     2.3875    12.1348 </r>
       <r>    -5.8557     2.1800    12.3026 </r>
       <r>    -5.7787     1.4181    12.4117 </r>
       <r>    -5.7018     1.6303    12.5372 </r>
       <r>    -5.6248     3.6520    12.8183 </r>
       <r>    -5.5478     2.3484    12.9990 </r>
       <r>    -5.4709     3.2004    13.2453 </r>
       <r>    -5.3939     2.6551    13.4497 </r>
       <r>    -5.3170     5.2102    13.8507 </r>
       <r>    -5.2400     2.7017    14.0586 </r>
       <r>    -5.1630     3.0144    14.2906 </r>
       <r>    -5.0861     2.9408    14.5169 </r>
       <r>    -5.0091     3.3113    14.7718 </r>
       <r>    -4.9321     1.6585    14.8994 </r>
       <r>    -4.8552     2.3268    15.0785 </r>
       <r>    -4.7782     2.0879    15.2392 </r>
       <r>    -4.7012     1.1795    15.3300 </r>
       <r>    -4.6243     0.7727    15.3895 </r>
       <r>    -4.5473     1.6805    15.5188 </r>
       <r>    -4.4703     1.3561    15.6232 </r>
       <r>    -4.3934     1.2034    15.7158 </r>
       <r>    -4.3164     1.2028    15.8084 </r>
       <r>    -4.2394     0.5082    15.8475 </r>
       <r>    -4.1625     1.2842    15.9463 </r>
       <r>    -4.0855     2.9730    16.1752 </r>
       <r>    -4.0085     2.5795    16.3737 </r>
       <r>    -3.9316     2.6891    16.5807 </r>
       <r>    -3.8546     3.3395    16.8377 </r>
       <r>    -3.7776     3.6686    17.1200 </r>
       <r>    -3.7007     3.7721    17.4104 </r>
       <r>    -3.6237     2.2656    17.5847 </r>
       <r>    -3.5468     4.5468    17.9347 </r>
       <r>    -3.4698     2.7387    18.1455 </r>
       <r>    -3.3928     2.8284    18.3632 </r>
       <r>    -3.3159     2.3928    18.5473 </r>
       <r>    -3.2389     4.5637    18.8986 </r>
       <r>    -3.1619     3.3861    19.1592 </r>
       <r>    -3.0850     0.7824    19.2194 </r>
       <r>    -3.0080     1.1084    19.3047 </r>
       <r>    -2.9310     1.3705    19.4102 </r>
       <r>    -2.8541     0.8202    19.4733 </r>
       <r>    -2.7771     1.6755    19.6023 </r>
       <r>    -2.7001     1.6845    19.7319 </r>
       <r>    -2.6232     0.6561    19.7824 </r>
       <r>    -2.5462     0.4897    19.8201 </r>
       <r>    -2.4692     0.1051    19.8282 </r>
       <r>    -2.3923     0.8373    19.8926 </r>
       <r>    -2.3153     0.7321    19.9490 </r>
       <r>    -2.2383     0.1202    19.9582 </r>
       <r>    -2.1614     0.3984    19.9889 </r>
       <r>    -2.0844     0.1444    20.0000 </r>
       <r>    -2.0075     0.0000    20.0000 </r>
       <r>    -1.9305     0.0000    20.0000 </r>
       <r>    -1.8535     0.0000    20.0000 </r>
       <r>    -1.7766     0.0000    20.0000 </r>
       <r>    -1.6996     0.0000    20.0000 </r>
       <r>    -1.6226     0.0000    20.0000 </r>
       <r>    -1.5457     0.0000    20.0000 </r>
       <r>    -1.4687     0.0000    20.0000 </r>
       <r>    -1.3917     0.1367    20.0105 </r>
       <r>    -1.3148     0.1812    20.0245 </r>
       <r>    -1.2378     0.0771    20.0304 </r>
       <r>    -1.1608     0.6137    20.0776 </r>
       <r>    -1.0839     0.4910    20.1154 </r>
       <r>    -1.0069     0.8958    20.1844 </r>
       <r>    -0.9299     1.3932    20.2916 </r>
       <r>    -0.8530     2.0707    20.4510 </r>
       <r>    -0.7760     2.0689    20.6102 </r>
       <r>    -0.6990     1.3232    20.7120 </r>
       <r>    -0.6221     1.6972    20.8427 </r>
       <r>    -0.5451     1.7023    20.9737 </r>
       <r>    -0.4681     1.9081    21.1205 </r>
       <r>    -0.3912     1.5053    21.2364 </r>
       <r>    -0.3142     2.5064    21.4293 </r>
       <r>    -0.2373     2.2504    21.6025 </r>
       <r>    -0.1603     1.9248    21.7506 </r>
       <r>    -0.0833     2.1388    21.9153 </r>
       <r>    -0.0064     2.1821    22.0832 </r>
       <r>     0.0706     3.1417    22.3250 </r>
       <r>     0.1476     3.1420    22.5668 </r>
       <r>     0.2245     2.1832    22.7349 </r>
       <r>     0.3015     4.1228    23.0522 </r>
       <r>     0.3785     3.2612    23.3032 </r>
       <r>     0.4554     3.3231    23.5589 </r>
       <r>     0.5324     4.6277    23.9151 </r>
       <r>     0.6094     3.7381    24.2028 </r>
       <r>     0.6863     2.6637    24.4078 </r>
       <r>     0.7633     3.4067    24.6700 </r>
       <r>     0.8403     4.9543    25.0513 </r>
       <r>     0.9172     3.9982    25.3590 </r>
       <r>     0.9942     3.3852    25.6196 </r>
       <r>     1.0712     2.2788    25.7950 </r>
       <r>     1.1481     2.7824    26.0091 </r>
       <r>     1.2251     3.7636    26.2988 </r>
       <r>     1.3020     3.5764    26.5740 </r>
       <r>     1.3790     2.4377    26.7617 </r>
       <r>     1.4560     2.4740    26.9521 </r>
       <r>     1.5329     2.8494    27.1714 </r>
       <r>     1.6099     1.9227    27.3194 </r>
       <r>     1.6869     2.2510    27.4926 </r>
       <r>     1.7638     4.0311    27.8029 </r>
       <r>     1.8408     1.3548    27.9071 </r>
       <r>     1.9178     2.0993    28.0687 </r>
       <r>     1.9947     2.3777    28.2517 </r>
       <r>     2.0717     1.8868    28.3969 </r>
       <r>     2.1487     2.2800    28.5724 </r>
       <r>     2.2256     2.2754    28.7475 </r>
       <r>     2.3026     3.0337    28.9810 </r>
       <r>     2.3796     2.3542    29.1622 </r>
       <r>     2.4565     2.9338    29.3880 </r>
       <r>     2.5335     3.5347    29.6601 </r>
       <r>     2.6105     3.2839    29.9128 </r>
       <r>     2.6874     2.8766    30.1342 </r>
       <r>     2.7644     2.9685    30.3627 </r>
       <r>     2.8414     2.1441    30.5277 </r>
       <r>     2.9183     3.2543    30.7782 </r>
       <r>     2.9953     2.7907    30.9930 </r>
       <r>     3.0722     1.9022    31.1394 </r>
       <r>     3.1492     1.6243    31.2644 </r>
       <r>     3.2262     0.9363    31.3364 </r>
       <r>     3.3031     3.3232    31.5922 </r>
       <r>     3.3801     1.4545    31.7042 </r>
       <r>     3.4571     0.6337    31.7529 </r>
       <r>     3.5340     1.7765    31.8897 </r>
       <r>     3.6110     0.8074    31.9518 </r>
       <r>     3.6880     0.3185    31.9763 </r>
       <r>     3.7649     0.3076    32.0000 </r>
       <r>     3.8419     0.0001    32.0000 </r>
       <r>     3.9189     0.0000    32.0000 </r>
       <r>     3.9958     0.0000    32.0000 </r>
       <r>     4.0728     0.0000    32.0000 </r>
       <r>     4.1498     0.0000    32.0000 </r>
       <r>     4.2267     0.0000    32.0000 </r>
       <r>     4.3037     0.0000    32.0000 </r>
       <r>     4.3807     0.0000    32.0000 </r>
       <r>     4.4576     0.0000    32.0000 </r>
       <r>     4.5346     0.0000    32.0000 </r>
       <r>     4.6116     0.0000    32.0000 </r>
       <r>     4.6885     0.0000    32.0000 </r>
       <r>     4.7655     0.0000    32.0000 </r>
      </set>
     </set>
    </array>
   </total>
  </dos>
 </calculation>
 <structure name="finalpos" >
  <crystal>
   <varray name="basis" >
    <v>       3.24736900       0.00000000       0.00000000 </v>
    <v>       0.00000000       4.55347300      -0.00005300 </v>
    <v>       0.00000000       0.00000000      20.02439000 </v>
   </varray>
   <i name="volume">    296.09679147 </i>
   <varray name="rec_basis" >
    <v>       0.30794160       0.00000000       0.00000000 </v>
    <v>       0.00000000       0.21961259       0.00000000 </v>
    <v>       0.00000000       0.00000058       0.04993910 </v>
   </varray>
  </crystal>
  <varray name="positions" >
   <v>       0.50000000       0.91389427       0.55285226 </v>
   <v>       0.50000000       0.08610573       0.44714774 </v>
   <v>      -0.00000000       0.41388948       0.44714775 </v>
   <v>       0.00000000       0.58611052       0.55285225 </v>
  </varray>
 </structure>
</modeling>
