<?xml version="1.0" encoding="ISO-8859-1"?>
<modeling>
 <generator>
  <i name="program" type="string">vasp </i>
  <i name="version" type="string">5.4.1  </i>
  <i name="subversion" type="string">24Jun15 (build Nov 20 2020 11:14:58) complex                          parallel </i>
  <i name="platform" type="string">IFC91_ompi </i>
  <i name="date" type="string">2021 09 07 </i>
  <i name="time" type="string">00:19:56 </i>
 </generator>
 <incar>
  <i type="string" name="PREC">a</i>
  <i type="string" name="ALGO"> Normal</i>
  <i type="int" name="ISPIN">     1</i>
  <i type="int" name="ICHARG">     2</i>
  <i type="int" name="NELM">   250</i>
  <i type="int" name="NELMDL">    -5</i>
  <i type="int" name="NELMIN">     6</i>
  <i type="int" name="IBRION">     2</i>
  <i name="EDIFF">      0.00001000</i>
  <i name="EDIFFG">     -0.01000000</i>
  <i type="int" name="NSW">   100</i>
  <i type="int" name="ISIF">     3</i>
  <i name="ENCUT">    520.00000000</i>
  <i name="POTIM">      0.25000000</i>
  <v name="MAGMOM">      0.60000000      0.60000000</v>
  <i type="string" name="LREAL"> Auto</i>
  <i type="int" name="ISMEAR">     0</i>
  <i name="SIGMA">      0.02000000</i>
  <i type="logical" name="LWAVE"> F  </i>
  <i type="logical" name="LCHARG"> F  </i>
  <v type="int" name="KPOINT_BSE">    -1     0     0     0</v>
  <i type="int" name="NELM">   250</i>
 </incar>
 <kpoints>
  <generation param="Gamma">
   <v type="int" name="divisions">      24       24        1 </v>
   <v name="usershift">      0.00000000       0.00000000       0.00000000 </v>
   <v name="genvec1">      0.04166667       0.00000000       0.00000000 </v>
   <v name="genvec2">      0.00000000       0.04166667       0.00000000 </v>
   <v name="genvec3">      0.00000000       0.00000000       1.00000000 </v>
   <v name="shift">      0.00000000       0.00000000       0.00000000 </v>
  </generation>
  <varray name="kpointlist" >
   <v>       0.00000000       0.00000000       0.00000000 </v>
   <v>       0.04166667       0.00000000       0.00000000 </v>
   <v>       0.08333333       0.00000000       0.00000000 </v>
   <v>       0.12500000      -0.00000000       0.00000000 </v>
   <v>       0.16666667       0.00000000       0.00000000 </v>
   <v>       0.20833333       0.00000000       0.00000000 </v>
   <v>       0.25000000      -0.00000000       0.00000000 </v>
   <v>       0.29166667      -0.00000000       0.00000000 </v>
   <v>       0.33333333       0.00000000       0.00000000 </v>
   <v>       0.37500000      -0.00000000       0.00000000 </v>
   <v>       0.41666667       0.00000000       0.00000000 </v>
   <v>       0.45833333       0.00000000       0.00000000 </v>
   <v>       0.50000000      -0.00000000       0.00000000 </v>
   <v>       0.04166667       0.04166667       0.00000000 </v>
   <v>       0.08333333       0.04166667       0.00000000 </v>
   <v>       0.12500000       0.04166667       0.00000000 </v>
   <v>       0.16666667       0.04166667       0.00000000 </v>
   <v>       0.20833333       0.04166667       0.00000000 </v>
   <v>       0.25000000       0.04166667       0.00000000 </v>
   <v>       0.29166667       0.04166667       0.00000000 </v>
   <v>       0.33333333       0.04166667       0.00000000 </v>
   <v>       0.37500000       0.04166667       0.00000000 </v>
   <v>       0.41666667       0.04166667       0.00000000 </v>
   <v>       0.45833333       0.04166667       0.00000000 </v>
   <v>       0.08333333       0.08333333       0.00000000 </v>
   <v>       0.12500000       0.08333333       0.00000000 </v>
   <v>       0.16666667       0.08333333       0.00000000 </v>
   <v>       0.20833333       0.08333333       0.00000000 </v>
   <v>       0.25000000       0.08333333       0.00000000 </v>
   <v>       0.29166667       0.08333333       0.00000000 </v>
   <v>       0.33333333       0.08333333       0.00000000 </v>
   <v>       0.37500000       0.08333333       0.00000000 </v>
   <v>       0.41666667       0.08333333       0.00000000 </v>
   <v>       0.45833333       0.08333333       0.00000000 </v>
   <v>       0.12500000       0.12500000       0.00000000 </v>
   <v>       0.16666667       0.12500000       0.00000000 </v>
   <v>       0.20833333       0.12500000       0.00000000 </v>
   <v>       0.25000000       0.12500000       0.00000000 </v>
   <v>       0.29166667       0.12500000       0.00000000 </v>
   <v>       0.33333333       0.12500000       0.00000000 </v>
   <v>       0.37500000       0.12500000       0.00000000 </v>
   <v>       0.41666667       0.12500000       0.00000000 </v>
   <v>       0.16666667       0.16666667       0.00000000 </v>
   <v>       0.20833333       0.16666667       0.00000000 </v>
   <v>       0.25000000       0.16666667       0.00000000 </v>
   <v>       0.29166667       0.16666667       0.00000000 </v>
   <v>       0.33333333       0.16666667       0.00000000 </v>
   <v>       0.37500000       0.16666667       0.00000000 </v>
   <v>       0.41666667       0.16666667       0.00000000 </v>
   <v>       0.20833333       0.20833333       0.00000000 </v>
   <v>       0.25000000       0.20833333       0.00000000 </v>
   <v>       0.29166667       0.20833333       0.00000000 </v>
   <v>       0.33333333       0.20833333       0.00000000 </v>
   <v>       0.37500000       0.20833333       0.00000000 </v>
   <v>       0.25000000       0.25000000       0.00000000 </v>
   <v>       0.29166667       0.25000000       0.00000000 </v>
   <v>       0.33333333       0.25000000       0.00000000 </v>
   <v>       0.37500000       0.25000000       0.00000000 </v>
   <v>       0.29166667       0.29166667       0.00000000 </v>
   <v>       0.33333333       0.29166667       0.00000000 </v>
   <v>       0.33333333       0.33333333       0.00000000 </v>
  </varray>
  <varray name="weights" >
   <v>       0.00173611 </v>
   <v>       0.01041667 </v>
   <v>       0.01041667 </v>
   <v>       0.01041667 </v>
   <v>       0.01041667 </v>
   <v>       0.01041667 </v>
   <v>       0.01041667 </v>
   <v>       0.01041667 </v>
   <v>       0.01041667 </v>
   <v>       0.01041667 </v>
   <v>       0.01041667 </v>
   <v>       0.01041667 </v>
   <v>       0.00520833 </v>
   <v>       0.01041667 </v>
   <v>       0.02083333 </v>
   <v>       0.02083333 </v>
   <v>       0.02083333 </v>
   <v>       0.02083333 </v>
   <v>       0.02083333 </v>
   <v>       0.02083333 </v>
   <v>       0.02083333 </v>
   <v>       0.02083333 </v>
   <v>       0.02083333 </v>
   <v>       0.02083333 </v>
   <v>       0.01041667 </v>
   <v>       0.02083333 </v>
   <v>       0.02083333 </v>
   <v>       0.02083333 </v>
   <v>       0.02083333 </v>
   <v>       0.02083333 </v>
   <v>       0.02083333 </v>
   <v>       0.02083333 </v>
   <v>       0.02083333 </v>
   <v>       0.01041667 </v>
   <v>       0.01041667 </v>
   <v>       0.02083333 </v>
   <v>       0.02083333 </v>
   <v>       0.02083333 </v>
   <v>       0.02083333 </v>
   <v>       0.02083333 </v>
   <v>       0.02083333 </v>
   <v>       0.02083333 </v>
   <v>       0.01041667 </v>
   <v>       0.02083333 </v>
   <v>       0.02083333 </v>
   <v>       0.02083333 </v>
   <v>       0.02083333 </v>
   <v>       0.02083333 </v>
   <v>       0.01041667 </v>
   <v>       0.01041667 </v>
   <v>       0.02083333 </v>
   <v>       0.02083333 </v>
   <v>       0.02083333 </v>
   <v>       0.02083333 </v>
   <v>       0.01041667 </v>
   <v>       0.02083333 </v>
   <v>       0.02083333 </v>
   <v>       0.01041667 </v>
   <v>       0.01041667 </v>
   <v>       0.02083333 </v>
   <v>       0.00347222 </v>
  </varray>
 </kpoints>
 <parameters>
  <separator name="general" >
   <i type="string" name="SYSTEM">unknown system</i>
   <i type="logical" name="LCOMPAT"> F  </i>
  </separator>
  <separator name="electronic" >
   <i type="string" name="PREC">a</i>
   <i name="ENMAX">    520.00000000</i>
   <i name="ENAUG">    644.87300000</i>
   <i name="EDIFF">      0.00001000</i>
   <i type="int" name="IALGO">    38</i>
   <i type="int" name="IWAVPR">    11</i>
   <i type="int" name="NBANDS">     8</i>
   <i name="NELECT">      8.00000000</i>
   <i type="int" name="TURBO">     0</i>
   <i type="int" name="IRESTART">     0</i>
   <i type="int" name="NREBOOT">     0</i>
   <i type="int" name="NMIN">     0</i>
   <i name="EREF">      0.00000000</i>
   <separator name="electronic smearing" >
    <i type="int" name="ISMEAR">     0</i>
    <i name="SIGMA">      0.02000000</i>
    <i name="KSPACING">      0.50000000</i>
    <i type="logical" name="KGAMMA"> T  </i>
   </separator>
   <separator name="electronic projectors" >
    <i type="logical" name="LREAL"> T  </i>
    <v name="ROPT">     -0.00025000</v>
    <i type="int" name="LMAXPAW">  -100</i>
    <i type="int" name="LMAXMIX">     2</i>
    <i type="logical" name="NLSPLINE"> F  </i>
   </separator>
   <separator name="electronic startup" >
    <i type="int" name="ISTART">     0</i>
    <i type="int" name="ICHARG">     2</i>
    <i type="int" name="INIWAV">     1</i>
   </separator>
   <separator name="electronic spin" >
    <i type="int" name="ISPIN">     1</i>
    <i type="logical" name="LNONCOLLINEAR"> F  </i>
    <v name="MAGMOM">      0.60000000      0.60000000</v>
    <i name="NUPDOWN">     -1.00000000</i>
    <i type="logical" name="LSORBIT"> F  </i>
    <v name="SAXIS">      0.00000000      0.00000000      1.00000000</v>
    <i type="logical" name="LSPIRAL"> F  </i>
    <v name="QSPIRAL">      0.00000000      0.00000000      0.00000000</v>
    <i type="logical" name="LZEROZ"> F  </i>
   </separator>
   <separator name="electronic exchange-correlation" >
    <i type="logical" name="LASPH"> F  </i>
    <i type="logical" name="LMETAGGA"> F  </i>
   </separator>
   <separator name="electronic convergence" >
    <i type="int" name="NELM">   250</i>
    <i type="int" name="NELMDL">    -5</i>
    <i type="int" name="NELMIN">     6</i>
    <i name="ENINI">    520.00000000</i>
    <separator name="electronic convergence detail" >
     <i type="logical" name="LDIAG"> T  </i>
     <i type="logical" name="LSUBROT"> F  </i>
     <i name="WEIMIN">      0.00100000</i>
     <i name="EBREAK">      0.00000031</i>
     <i name="DEPER">      0.30000000</i>
     <i type="int" name="NRMM">     4</i>
     <i name="TIME">      0.40000000</i>
    </separator>
   </separator>
   <separator name="electronic mixer" >
    <i name="AMIX">      0.40000000</i>
    <i name="BMIX">      1.00000000</i>
    <i name="AMIN">      0.10000000</i>
    <i name="AMIX_MAG">      1.60000000</i>
    <i name="BMIX_MAG">      1.00000000</i>
    <separator name="electronic mixer details" >
     <i type="int" name="IMIX">     4</i>
     <i type="logical" name="MIXFIRST"> F  </i>
     <i type="int" name="MAXMIX">   -45</i>
     <i name="WC">    100.00000000</i>
     <i type="int" name="INIMIX">     1</i>
     <i type="int" name="MIXPRE">     1</i>
     <i type="int" name="MREMOVE">     5</i>
    </separator>
   </separator>
   <separator name="electronic dipolcorrection" >
    <i type="logical" name="LDIPOL"> F  </i>
    <i type="logical" name="LMONO"> F  </i>
    <i type="int" name="IDIPOL">     0</i>
    <i name="EPSILON">      1.00000000</i>
    <v name="DIPOL">   -100.00000000   -100.00000000   -100.00000000</v>
    <i name="EFIELD">      0.00000000</i>
   </separator>
  </separator>
  <separator name="grids" >
   <i type="int" name="NGX">    18</i>
   <i type="int" name="NGY">    18</i>
   <i type="int" name="NGZ">   112</i>
   <i type="int" name="NGXF">    36</i>
   <i type="int" name="NGYF">    36</i>
   <i type="int" name="NGZF">   224</i>
   <i type="logical" name="ADDGRID"> F  </i>
  </separator>
  <separator name="ionic" >
   <i type="int" name="NSW">   100</i>
   <i type="int" name="IBRION">     2</i>
   <i type="int" name="ISIF">     3</i>
   <i name="PSTRESS">      0.00000000</i>
   <i name="EDIFFG">     -0.01000000</i>
   <i type="int" name="NFREE">     1</i>
   <i name="POTIM">      0.25000000</i>
   <i name="SMASS">     -3.00000000</i>
   <i name="SCALEE">      1.00000000</i>
  </separator>
  <separator name="ionic md" >
   <i name="TEBEG">      0.00010000</i>
   <i name="TEEND">      0.00010000</i>
   <i type="int" name="NBLOCK">     1</i>
   <i type="int" name="KBLOCK">   100</i>
   <i type="int" name="NPACO">   256</i>
   <i name="APACO">     16.00000000</i>
  </separator>
  <separator name="symmetry" >
   <i type="int" name="ISYM">     2</i>
   <i name="SYMPREC">      0.00001000</i>
  </separator>
  <separator name="dos" >
   <i type="logical" name="LORBIT"> F  </i>
   <v name="RWIGS">     -1.00000000</v>
   <i type="int" name="NEDOS">   301</i>
   <i name="EMIN">     10.00000000</i>
   <i name="EMAX">    -10.00000000</i>
   <i name="EFERMI">      0.00000000</i>
  </separator>
  <separator name="writing" >
   <i type="int" name="NWRITE">     2</i>
   <i type="logical" name="LWAVE"> F  </i>
   <i type="logical" name="LCHARG"> F  </i>
   <i type="logical" name="LPARD"> F  </i>
   <i type="logical" name="LVTOT"> F  </i>
   <i type="logical" name="LVHAR"> F  </i>
   <i type="logical" name="LELF"> F  </i>
   <i type="logical" name="LOPTICS"> F  </i>
   <v name="STM">      0.00000000      0.00000000      0.00000000      0.00000000      0.00000000      0.00000000      0.00000000</v>
  </separator>
  <separator name="performance" >
   <i type="int" name="NPAR">     4</i>
   <i type="int" name="NSIM">     4</i>
   <i type="int" name="NBLK">    -1</i>
   <i type="logical" name="LPLANE"> T  </i>
   <i type="logical" name="LSCALAPACK"> T  </i>
   <i type="logical" name="LSCAAWARE"> F  </i>
   <i type="logical" name="LSCALU"> F  </i>
   <i type="logical" name="LASYNC"> F  </i>
   <i type="logical" name="LORBITALREAL"> F  </i>
  </separator>
  <separator name="miscellaneous" >
   <i type="int" name="IDIOT">     3</i>
   <i type="logical" name="LMUSIC"> F  </i>
   <v name="POMASS">     12.01100000</v>
   <v name="DARWINR">      0.00000000</v>
   <v name="DARWINV">      1.00000000</v>
   <i type="logical" name="LCORR"> T  </i>
  </separator>
  <i type="logical" name="GGA_COMPAT"> T  </i>
  <i type="logical" name="LBERRY"> F  </i>
  <i type="int" name="ICORELEVEL">     0</i>
  <i type="logical" name="LDAU"> F  </i>
  <i type="int" name="I_CONSTRAINED_M">     0</i>
  <separator name="electronic exchange-correlation" >
   <i type="string" name="GGA">--</i>
   <i type="int" name="VOSKOWN">     0</i>
   <i type="logical" name="LHFCALC"> F  </i>
   <i type="string" name="PRECFOCK"></i>
   <i type="logical" name="LSYMGRAD"> F  </i>
   <i type="logical" name="LHFONE"> F  </i>
   <i type="logical" name="LRHFCALC"> F  </i>
   <i type="logical" name="LTHOMAS"> F  </i>
   <i type="logical" name="LMODELHF"> F  </i>
   <i name="ENCUT4O">     -1.00000000</i>
   <i type="int" name="EXXOEP">     0</i>
   <i type="int" name="FOURORBIT">     0</i>
   <i name="AEXX">      0.00000000</i>
   <i name="HFALPHA">      0.00000000</i>
   <i name="MCALPHA">      0.00000000</i>
   <i name="ALDAX">      1.00000000</i>
   <i name="AGGAX">      1.00000000</i>
   <i name="ALDAC">      1.00000000</i>
   <i name="AGGAC">      1.00000000</i>
   <i type="int" name="NKREDX">     1</i>
   <i type="int" name="NKREDY">     1</i>
   <i type="int" name="NKREDZ">     1</i>
   <i type="logical" name="SHIFTRED"> F  </i>
   <i type="logical" name="ODDONLY"> F  </i>
   <i type="logical" name="EVENONLY"> F  </i>
   <i type="int" name="LMAXFOCK">     0</i>
   <i type="int" name="NMAXFOCKAE">     0</i>
   <i type="logical" name="LFOCKAEDFT"> F  </i>
   <i name="HFSCREEN">      0.00000000</i>
   <i name="HFSCREENC">      0.00000000</i>
   <i type="int" name="NBANDSGWLOW">     0</i>
  </separator>
  <separator name="vdW DFT" >
   <i type="logical" name="LUSE_VDW"> F  </i>
   <i name="Zab_VDW">     -0.84910000</i>
   <i name="PARAM1">      0.12340000</i>
   <i name="PARAM2">      1.00000000</i>
   <i name="PARAM3">      0.00000000</i>
  </separator>
  <separator name="model GW" >
   <i type="int" name="MODEL_GW">     0</i>
   <i name="MODEL_EPS0">     23.73764162</i>
   <i name="MODEL_ALPHA">      1.00000000</i>
  </separator>
  <separator name="linear response parameters" >
   <i type="logical" name="LEPSILON"> F  </i>
   <i type="logical" name="LRPA"> F  </i>
   <i type="logical" name="LNABLA"> F  </i>
   <i type="logical" name="LVEL"> F  </i>
   <i type="int" name="KINTER">     0</i>
   <i name="CSHIFT">      0.10000000</i>
   <i name="OMEGAMAX">     -1.00000000</i>
   <i name="DEG_THRESHOLD">      0.00200000</i>
  </separator>
  <separator name="orbital magnetization" >
   <i type="logical" name="NUCIND"> F  </i>
   <v name="MAGPOS">      0.00000000      0.00000000      0.00000000</v>
   <i type="logical" name="LNICSALL"> T  </i>
   <i type="logical" name="ORBITALMAG"> F  </i>
   <i type="logical" name="LMAGBLOCH"> F  </i>
   <i type="logical" name="LCHIMAG"> F  </i>
   <i type="logical" name="LGAUGE"> T  </i>
   <i type="int" name="MAGATOM">     0</i>
   <v name="MAGDIPOL">      0.00000000      0.00000000      0.00000000</v>
   <v name="AVECCONST">      0.00000000      0.00000000      0.00000000</v>
  </separator>
  <separator name="response functions" >
   <i type="logical" name="LADDER"> F  </i>
   <i type="logical" name="LFXC"> F  </i>
   <i type="logical" name="LHARTREE"> T  </i>
   <i type="int" name="IBSE">     0</i>
   <v type="int" name="KPOINT">    -1     0     0     0</v>
   <i type="logical" name="LTCTE"> F  </i>
   <i type="logical" name="LTETE"> F  </i>
   <i type="logical" name="LTRIPLET"> F  </i>
   <i type="logical" name="LFXCEPS"> F  </i>
   <i type="logical" name="LFXHEG"> F  </i>
   <i type="int" name="NATURALO">     0</i>
   <i type="logical" name="L2ORDER"> F  </i>
   <i type="logical" name="LUSEW"> F  </i>
   <i name="ENCUTGW">     -2.00000000</i>
   <i name="ENCUTGWSOFT">     -2.00000000</i>
   <i name="ENCUTLF">     -1.00000000</i>
   <i type="int" name="LMAXMP2">    -1</i>
   <i name="SCISSOR">      0.00000000</i>
   <i type="int" name="NOMEGA">     0</i>
   <i type="int" name="NOMEGAR">     0</i>
   <i type="int" name="NBANDSGW">    -1</i>
   <i type="int" name="NBANDSO">    -1</i>
   <i type="int" name="NBANDSV">    -1</i>
   <i type="int" name="NELM">   250</i>
   <i type="int" name="NELMHF">     1</i>
   <i type="int" name="DIM">     3</i>
   <i type="int" name="ANTIRES">     0</i>
   <i name="OMEGAMAX">    -30.00000000</i>
   <i name="OMEGAMIN">    -30.00000000</i>
   <i name="OMEGATL">   -200.00000000</i>
   <i type="int" name="OMEGAGRID">     0</i>
   <i name="CSHIFT">     -0.10000000</i>
   <i type="logical" name="SELFENERGY"> F  </i>
   <i type="logical" name="LSPECTRAL"> F  </i>
   <i type="logical" name="LSPECTRALGW"> F  </i>
   <i type="logical" name="LSINGLES"> F  </i>
   <i type="logical" name="LFERMIGW"> F  </i>
   <i type="logical" name="ODDONLYGW"> F  </i>
   <i type="logical" name="EVENONLYGW"> F  </i>
   <i type="int" name="NKREDLFX">     1</i>
   <i type="int" name="NKREDLFY">     1</i>
   <i type="int" name="NKREDLFZ">     1</i>
   <i type="int" name="MAXMEM">  1800</i>
   <i type="int" name="TELESCOPE">     0</i>
   <i type="int" name="TAUPAR">     1</i>
   <i type="int" name="OMEGAPAR">    -1</i>
   <i name="LAMBDA">      1.00000000</i>
  </separator>
  <separator name="External order field" >
   <i name="OFIELD_KAPPA">      0.00000000</i>
   <v name="OFIELD_K">      0.00000000      0.00000000      0.00000000</v>
   <i name="OFIELD_Q6_NEAR">      0.00000000</i>
   <i name="OFIELD_Q6_FAR">      0.00000000</i>
   <i name="OFIELD_A">      0.00000000</i>
  </separator>
 </parameters>
 <atominfo>
  <atoms>       2 </atoms>
  <types>       1 </types>
  <array name="atoms" >
   <dimension dim="1">ion</dimension>
   <field type="string">element</field>
   <field type="int">atomtype</field>
   <set>
    <rc><c>C </c><c>   1</c></rc>
    <rc><c>C </c><c>   1</c></rc>
   </set>
  </array>
  <array name="atomtypes" >
   <dimension dim="1">type</dimension>
   <field type="int">atomspertype</field>
   <field type="string">element</field>
   <field>mass</field>
   <field>valence</field>
   <field type="string">pseudopotential</field>
   <set>
    <rc><c>   2</c><c>C </c><c>     12.01100000</c><c>      4.00000000</c><c>  PAW_PBE C 08Apr2002                   </c></rc>
   </set>
  </array>
 </atominfo>
 <structure name="initialpos" >
  <crystal>
   <varray name="basis" >
    <v>       2.46801197       0.00000000       0.00000000 </v>
    <v>      -1.23400599       2.13736057       0.00000000 </v>
    <v>       0.00000000       0.00000000      15.00000000 </v>
   </varray>
   <i name="volume">     79.12547207 </i>
   <varray name="rec_basis" >
    <v>       0.40518442       0.23393339       0.00000000 </v>
    <v>       0.00000000       0.46786678       0.00000000 </v>
    <v>       0.00000000       0.00000000       0.06666667 </v>
   </varray>
  </crystal>
  <varray name="positions" >
   <v>       0.00000000       0.00000000       0.50000000 </v>
   <v>       0.33333300       0.66666700       0.50000000 </v>
  </varray>
 </structure>
 <calculation>
  <scstep>
   <time name="dav">    0.14    0.14</time>
   <time name="total">    0.15    0.15</time>
   <energy>
    <i name="alphaZ">      4.15273180 </i>
    <i name="ewald">    834.84055025 </i>
    <i name="hartreedc">  -1053.78957950 </i>
    <i name="XCdc">     26.34881371 </i>
    <i name="pawpsdc">    217.04409276 </i>
    <i name="pawaedc">   -218.18290438 </i>
    <i name="eentropy">     -0.00044485 </i>
    <i name="bandstr">    -51.51310466 </i>
    <i name="atom">    294.29778662 </i>
    <i name="e_fr_energy">     53.19794176 </i>
    <i name="e_wo_entrp">     53.19838661 </i>
    <i name="e_0_energy">     53.19816419 </i>
   </energy>
  </scstep>
  <scstep>
   <time name="dav">    0.18    0.18</time>
   <time name="total">    0.18    0.18</time>
   <energy>
    <i name="e_fr_energy">    -15.74425848 </i>
    <i name="e_wo_entrp">    -15.74402340 </i>
    <i name="e_0_energy">    -15.74414094 </i>
   </energy>
  </scstep>
  <scstep>
   <time name="dav">    0.19    0.19</time>
   <time name="total">    0.19    0.19</time>
   <energy>
    <i name="e_fr_energy">    -19.68368685 </i>
    <i name="e_wo_entrp">    -19.68360936 </i>
    <i name="e_0_energy">    -19.68364811 </i>
   </energy>
  </scstep>
  <scstep>
   <time name="dav">    0.19    0.19</time>
   <time name="total">    0.19    0.19</time>
   <energy>
    <i name="e_fr_energy">    -19.71399219 </i>
    <i name="e_wo_entrp">    -19.71391384 </i>
    <i name="e_0_energy">    -19.71395302 </i>
   </energy>
  </scstep>
  <scstep>
   <time name="dav">    0.20    0.20</time>
   <time name="total">    0.21    0.21</time>
   <energy>
    <i name="e_fr_energy">    -19.71413839 </i>
    <i name="e_wo_entrp">    -19.71406003 </i>
    <i name="e_0_energy">    -19.71409921 </i>
   </energy>
  </scstep>
  <scstep>
   <time name="dav">    0.16    0.16</time>
   <time name="total">    0.18    0.18</time>
   <energy>
    <i name="e_fr_energy">    -18.80729078 </i>
    <i name="e_wo_entrp">    -18.80721242 </i>
    <i name="e_0_energy">    -18.80725160 </i>
   </energy>
  </scstep>
  <scstep>
   <time name="dav">    0.20    0.20</time>
   <time name="total">    0.22    0.22</time>
   <energy>
    <i name="e_fr_energy">    -18.45785959 </i>
    <i name="e_wo_entrp">    -18.45778123 </i>
    <i name="e_0_energy">    -18.45782041 </i>
   </energy>
  </scstep>
  <scstep>
   <time name="dav">    0.17    0.17</time>
   <time name="total">    0.19    0.19</time>
   <energy>
    <i name="e_fr_energy">    -18.45011243 </i>
    <i name="e_wo_entrp">    -18.45003407 </i>
    <i name="e_0_energy">    -18.45007325 </i>
   </energy>
  </scstep>
  <scstep>
   <time name="dav">    0.18    0.18</time>
   <time name="total">    0.19    0.20</time>
   <energy>
    <i name="e_fr_energy">    -18.44917285 </i>
    <i name="e_wo_entrp">    -18.44909449 </i>
    <i name="e_0_energy">    -18.44913367 </i>
   </energy>
  </scstep>
  <scstep>
   <time name="dav">    0.17    0.17</time>
   <time name="total">    0.19    0.19</time>
   <energy>
    <i name="e_fr_energy">    -18.44693089 </i>
    <i name="e_wo_entrp">    -18.44685253 </i>
    <i name="e_0_energy">    -18.44689171 </i>
   </energy>
  </scstep>
  <scstep>
   <time name="dav">    0.13    0.13</time>
   <time name="total">    0.15    0.15</time>
   <energy>
    <i name="e_fr_energy">    -18.44716500 </i>
    <i name="e_wo_entrp">    -18.44708664 </i>
    <i name="e_0_energy">    -18.44712582 </i>
   </energy>
  </scstep>
  <scstep>
   <time name="dav">    0.15    0.15</time>
   <time name="total">    0.17    0.17</time>
   <energy>
    <i name="e_fr_energy">    -18.44736454 </i>
    <i name="e_wo_entrp">    -18.44728618 </i>
    <i name="e_0_energy">    -18.44732536 </i>
   </energy>
  </scstep>
  <scstep>
   <time name="dav">    0.15    0.15</time>
   <time name="total">    0.17    0.17</time>
   <energy>
    <i name="e_fr_energy">    -18.44809013 </i>
    <i name="e_wo_entrp">    -18.44801177 </i>
    <i name="e_0_energy">    -18.44805095 </i>
   </energy>
  </scstep>
  <scstep>
   <time name="dav">    0.18    0.18</time>
   <time name="total">    0.19    0.20</time>
   <energy>
    <i name="e_fr_energy">    -18.44814436 </i>
    <i name="e_wo_entrp">    -18.44806600 </i>
    <i name="e_0_energy">    -18.44810518 </i>
   </energy>
  </scstep>
  <scstep>
   <time name="dav">    0.13    0.13</time>
   <time name="total">    0.15    0.15</time>
   <energy>
    <i name="e_fr_energy">    -18.44825873 </i>
    <i name="e_wo_entrp">    -18.44818037 </i>
    <i name="e_0_energy">    -18.44821955 </i>
   </energy>
  </scstep>
  <scstep>
   <time name="dav">    0.18    0.18</time>
   <time name="total">    0.18    0.18</time>
   <energy>
    <i name="alphaZ">      4.15273180 </i>
    <i name="ewald">    834.84055025 </i>
    <i name="hartreedc">  -1086.83506649 </i>
    <i name="XCdc">     27.52883423 </i>
    <i name="pawpsdc">    832.77713705 </i>
    <i name="pawaedc">   -834.14401257 </i>
    <i name="eentropy">     -0.00007836 </i>
    <i name="bandstr">    -91.06614723 </i>
    <i name="atom">    294.29778662 </i>
    <i name="e_fr_energy">    -18.44826470 </i>
    <i name="e_wo_entrp">    -18.44818634 </i>
    <i name="e_0_energy">    -18.44822552 </i>
   </energy>
  </scstep>
  <structure>
   <crystal>
    <varray name="basis" >
     <v>       2.46801197       0.00000000       0.00000000 </v>
     <v>      -1.23400599       2.13736057       0.00000000 </v>
     <v>       0.00000000       0.00000000      15.00000000 </v>
    </varray>
    <i name="volume">     79.12547207 </i>
    <varray name="rec_basis" >
     <v>       0.40518442       0.23393339       0.00000000 </v>
     <v>       0.00000000       0.46786678       0.00000000 </v>
     <v>       0.00000000       0.00000000       0.06666667 </v>
    </varray>
   </crystal>
   <varray name="positions" >
    <v>       0.00000000       0.00000000       0.50000000 </v>
    <v>       0.33333300       0.66666700       0.50000000 </v>
   </varray>
  </structure>
  <varray name="forces" >
   <v>       0.00000000      -0.00000000       0.00000000 </v>
   <v>      -0.00000000       0.00000000       0.00000000 </v>
  </varray>
  <varray name="stress" >
   <v>      -0.15046261       0.00000000       0.00000000 </v>
   <v>       0.00000000      -0.15046254       0.00000000 </v>
   <v>       0.00000000      -0.00000000      -0.02100294 </v>
  </varray>
  <energy>
   <i name="e_fr_energy">    -18.44826470 </i>
   <i name="e_wo_entrp">    -18.44822552 </i>
   <i name="e_0_energy">     -0.00007836 </i>
  </energy>
  <time name="totalsc">    3.05    3.08</time>
  <eigenvalues>
   <array>
    <dimension dim="1">band</dimension>
    <dimension dim="2">kpoint</dimension>
    <dimension dim="3">spin</dimension>
    <field>eigene</field>
    <field>occ</field>
    <set>
     <set comment="spin 1">
      <set comment="kpoint 1">
       <r>  -21.7503    1.0000 </r>
       <r>   -9.8559    1.0000 </r>
       <r>   -5.2869    1.0000 </r>
       <r>   -5.2869    1.0000 </r>
       <r>    1.0102    0.0000 </r>
       <r>    1.9261    0.0000 </r>
       <r>    2.3731    0.0000 </r>
       <r>    4.3396    0.0000 </r>
      </set>
      <set comment="kpoint 2">
       <r>  -21.7093    1.0000 </r>
       <r>   -9.8070    1.0000 </r>
       <r>   -5.4561    1.0000 </r>
       <r>   -5.3759    1.0000 </r>
       <r>    1.0658    0.0000 </r>
       <r>    1.9821    0.0000 </r>
       <r>    2.4297    0.0000 </r>
       <r>    4.3954    0.0000 </r>
      </set>
      <set comment="kpoint 3">
       <r>  -21.5864    1.0000 </r>
       <r>   -9.6605    1.0000 </r>
       <r>   -5.9378    1.0000 </r>
       <r>   -5.6245    1.0000 </r>
       <r>    1.2327    0.0000 </r>
       <r>    2.1503    0.0000 </r>
       <r>    2.5998    0.0000 </r>
       <r>    4.5626    0.0000 </r>
      </set>
      <set comment="kpoint 4">
       <r>  -21.3820    1.0000 </r>
       <r>   -9.4175    1.0000 </r>
       <r>   -6.6686    1.0000 </r>
       <r>   -5.9878    1.0000 </r>
       <r>    1.5108    0.0000 </r>
       <r>    2.4302    0.0000 </r>
       <r>    2.8832    0.0000 </r>
       <r>    4.8407    0.0000 </r>
      </set>
      <set comment="kpoint 5">
       <r>  -21.0966    1.0000 </r>
       <r>   -9.0797    1.0000 </r>
       <r>   -7.5753    1.0000 </r>
       <r>   -6.4147    1.0000 </r>
       <r>    1.9001    0.0000 </r>
       <r>    2.8213    0.0000 </r>
       <r>    3.2799    0.0000 </r>
       <r>    5.2283    0.0000 </r>
      </set>
      <set comment="kpoint 6">
       <r>  -20.7311    1.0000 </r>
       <r>   -8.6499    1.0000 </r>
       <r>   -8.5933    1.0000 </r>
       <r>   -6.8606    1.0000 </r>
       <r>    2.4001    0.0000 </r>
       <r>    3.3215    0.0000 </r>
       <r>    3.7898    0.0000 </r>
       <r>    5.7032    0.0000 </r>
      </set>
      <set comment="kpoint 7">
       <r>  -20.2868    1.0000 </r>
       <r>   -9.6723    1.0000 </r>
       <r>   -8.1326    1.0000 </r>
       <r>   -7.2919    1.0000 </r>
       <r>    3.0102    0.0000 </r>
       <r>    3.9177    0.0000 </r>
       <r>    4.4122    0.0000 </r>
       <r>    4.9833    0.0000 </r>
      </set>
      <set comment="kpoint 8">
       <r>  -19.7652    1.0000 </r>
       <r>  -10.7749    1.0000 </r>
       <r>   -7.6849    1.0000 </r>
       <r>   -7.5350    1.0000 </r>
       <r>    3.7288    0.0000 </r>
       <r>    3.7721    0.0000 </r>
       <r>    4.7099    0.0000 </r>
       <r>    5.1419    0.0000 </r>
      </set>
      <set comment="kpoint 9">
       <r>  -19.1690    1.0000 </r>
       <r>  -11.8733    1.0000 </r>
       <r>   -8.0230    1.0000 </r>
       <r>   -6.8694    1.0000 </r>
       <r>    2.6383    0.0000 </r>
       <r>    4.5503    0.0000 </r>
       <r>    5.4331    0.0000 </r>
       <r>    5.5198    0.0000 </r>
      </set>
      <set comment="kpoint 10">
       <r>  -18.5027    1.0000 </r>
       <r>  -12.9454    1.0000 </r>
       <r>   -8.2954    1.0000 </r>
       <r>   -6.1590    1.0000 </r>
       <r>    1.5231    0.0000 </r>
       <r>    5.2344    0.0000 </r>
       <r>    5.5562    0.0000 </r>
       <r>    6.4561    0.0000 </r>
      </set>
      <set comment="kpoint 11">
       <r>  -17.7754    1.0000 </r>
       <r>  -13.9700    1.0000 </r>
       <r>   -8.4945    1.0000 </r>
       <r>   -5.4528    1.0000 </r>
       <r>    0.5123    0.0000 </r>
       <r>    5.1743    0.0000 </r>
       <r>    6.5565    0.0000 </r>
       <r>    7.4979    0.0000 </r>
      </set>
      <set comment="kpoint 12">
       <r>  -17.0205    1.0000 </r>
       <r>  -14.9063    1.0000 </r>
       <r>   -8.6156    1.0000 </r>
       <r>   -4.8631    1.0000 </r>
       <r>   -0.2657    0.0000 </r>
       <r>    5.1150    0.0000 </r>
       <r>    7.6939    0.0000 </r>
       <r>    8.6355    0.0000 </r>
      </set>
      <set comment="kpoint 13">
       <r>  -16.5197    1.0000 </r>
       <r>  -15.4680    1.0000 </r>
       <r>   -8.6563    1.0000 </r>
       <r>   -4.6123    1.0000 </r>
       <r>   -0.5802    0.0000 </r>
       <r>    5.0943    0.0000 </r>
       <r>    8.8538    0.0000 </r>
       <r>    9.0057    0.0000 </r>
      </set>
      <set comment="kpoint 14">
       <r>  -21.6274    1.0000 </r>
       <r>   -9.7093    1.0000 </r>
       <r>   -5.7723    1.0000 </r>
       <r>   -5.5540    1.0000 </r>
       <r>    1.1771    0.0000 </r>
       <r>    2.0943    0.0000 </r>
       <r>    2.5431    0.0000 </r>
       <r>    4.5069    0.0000 </r>
      </set>
      <set comment="kpoint 15">
       <r>  -21.4637    1.0000 </r>
       <r>   -9.5145    1.0000 </r>
       <r>   -6.3577    1.0000 </r>
       <r>   -5.8812    1.0000 </r>
       <r>    1.3996    0.0000 </r>
       <r>    2.3183    0.0000 </r>
       <r>    2.7698    0.0000 </r>
       <r>    4.7296    0.0000 </r>
      </set>
      <set comment="kpoint 16">
       <r>  -21.2188    1.0000 </r>
       <r>   -9.2241    1.0000 </r>
       <r>   -7.1553    1.0000 </r>
       <r>   -6.2980    1.0000 </r>
       <r>    1.7334    0.0000 </r>
       <r>    2.6539    0.0000 </r>
       <r>    3.1099    0.0000 </r>
       <r>    5.0628    0.0000 </r>
      </set>
      <set comment="kpoint 17">
       <r>  -20.8934    1.0000 </r>
       <r>   -8.8401    1.0000 </r>
       <r>   -8.1009    1.0000 </r>
       <r>   -6.7517    1.0000 </r>
       <r>    2.1781    0.0000 </r>
       <r>    3.0999    0.0000 </r>
       <r>    3.5633    0.0000 </r>
       <r>    5.5026    0.0000 </r>
      </set>
      <set comment="kpoint 18">
       <r>  -20.4884    1.0000 </r>
       <r>   -9.1374    1.0000 </r>
       <r>   -8.3663    1.0000 </r>
       <r>   -7.2026    1.0000 </r>
       <r>    2.7334    0.0000 </r>
       <r>    3.6523    0.0000 </r>
       <r>    4.1298    0.0000 </r>
       <r>    5.4622    0.0000 </r>
      </set>
      <set comment="kpoint 19">
       <r>  -20.0055    1.0000 </r>
       <r>  -10.2201    1.0000 </r>
       <r>   -7.8081    1.0000 </r>
       <r>   -7.6231    1.0000 </r>
       <r>    3.3982    0.0000 </r>
       <r>    4.1737    0.0000 </r>
       <r>    4.5079    0.0000 </r>
       <r>    4.8082    0.0000 </r>
      </set>
      <set comment="kpoint 20">
       <r>  -19.4465    1.0000 </r>
       <r>  -11.3153    1.0000 </r>
       <r>   -7.9941    1.0000 </r>
       <r>   -7.1748    1.0000 </r>
       <r>    3.1828    0.0000 </r>
       <r>    4.1704    0.0000 </r>
       <r>    5.1317    0.0000 </r>
       <r>    5.5697    0.0000 </r>
      </set>
      <set comment="kpoint 21">
       <r>  -18.8150    1.0000 </r>
       <r>  -12.3973    1.0000 </r>
       <r>   -8.3029    1.0000 </r>
       <r>   -6.4832    1.0000 </r>
       <r>    2.0536    0.0000 </r>
       <r>    5.0361    0.0000 </r>
       <r>    5.5617    0.0000 </r>
       <r>    6.0110    0.0000 </r>
      </set>
      <set comment="kpoint 22">
       <r>  -18.1170    1.0000 </r>
       <r>  -13.4446    1.0000 </r>
       <r>   -8.5407    1.0000 </r>
       <r>   -5.7659    1.0000 </r>
       <r>    0.9856    0.0000 </r>
       <r>    5.3966    0.0000 </r>
       <r>    6.0736    0.0000 </r>
       <r>    6.9995    0.0000 </r>
      </set>
      <set comment="kpoint 23">
       <r>  -17.3687    1.0000 </r>
       <r>  -14.4309    1.0000 </r>
       <r>   -8.7020    1.0000 </r>
       <r>   -5.0966    1.0000 </r>
       <r>    0.0727    0.0000 </r>
       <r>    5.3261    0.0000 </r>
       <r>    7.1527    0.0000 </r>
       <r>    8.0870    0.0000 </r>
      </set>
      <set comment="kpoint 24">
       <r>  -16.6574    1.0000 </r>
       <r>  -15.2628    1.0000 </r>
       <r>   -8.7834    1.0000 </r>
       <r>   -4.6417    1.0000 </r>
       <r>   -0.5068    0.0000 </r>
       <r>    5.2855    0.0000 </r>
       <r>    8.3361    0.0000 </r>
       <r>    9.2537    0.0000 </r>
      </set>
      <set comment="kpoint 25">
       <r>  -21.2596    1.0000 </r>
       <r>   -9.2723    1.0000 </r>
       <r>   -6.9717    1.0000 </r>
       <r>   -6.3003    1.0000 </r>
       <r>    1.6779    0.0000 </r>
       <r>    2.5981    0.0000 </r>
       <r>    3.0533    0.0000 </r>
       <r>    5.0075    0.0000 </r>
      </set>
      <set comment="kpoint 26">
       <r>  -20.9746    1.0000 </r>
       <r>   -8.9356    1.0000 </r>
       <r>   -7.7575    1.0000 </r>
       <r>   -6.7956    1.0000 </r>
       <r>    2.0673    0.0000 </r>
       <r>    2.9889    0.0000 </r>
       <r>    3.4502    0.0000 </r>
       <r>    5.3953    0.0000 </r>
      </set>
      <set comment="kpoint 27">
       <r>  -20.6098    1.0000 </r>
       <r>   -8.6808    1.0000 </r>
       <r>   -8.5072    1.0000 </r>
       <r>   -7.2961    1.0000 </r>
       <r>    2.5675    0.0000 </r>
       <r>    3.4893    0.0000 </r>
       <r>    3.9603    0.0000 </r>
       <r>    5.7799    0.0000 </r>
      </set>
      <set comment="kpoint 28">
       <r>  -20.1662    1.0000 </r>
       <r>   -9.6939    1.0000 </r>
       <r>   -7.9915    1.0000 </r>
       <r>   -7.7641    1.0000 </r>
       <r>    3.1778    0.0000 </r>
       <r>    4.0850    0.0000 </r>
       <r>    4.5835    0.0000 </r>
       <r>    4.7825    0.0000 </r>
      </set>
      <set comment="kpoint 29">
       <r>  -19.6458    1.0000 </r>
       <r>  -10.7520    1.0000 </r>
       <r>   -8.1802    1.0000 </r>
       <r>   -7.3956    1.0000 </r>
       <r>    3.6459    0.0000 </r>
       <r>    3.8972    0.0000 </r>
       <r>    4.8473    0.0000 </r>
       <r>    5.3184    0.0000 </r>
      </set>
      <set comment="kpoint 30">
       <r>  -19.0512    1.0000 </r>
       <r>  -11.8203    1.0000 </r>
       <r>   -8.5325    1.0000 </r>
       <r>   -6.7315    1.0000 </r>
       <r>    2.5393    0.0000 </r>
       <r>    4.7231    0.0000 </r>
       <r>    5.6685    0.0000 </r>
       <r>    6.1025    0.0000 </r>
      </set>
      <set comment="kpoint 31">
       <r>  -18.3868    1.0000 </r>
       <r>  -12.8720    1.0000 </r>
       <r>   -8.8133    1.0000 </r>
       <r>   -6.0216    1.0000 </r>
       <r>    1.4546    0.0000 </r>
       <r>    5.6352    0.0000 </r>
       <r>    6.0365    0.0000 </r>
       <r>    6.6002    0.0000 </r>
      </set>
      <set comment="kpoint 32">
       <r>  -17.6623    1.0000 </r>
       <r>  -13.8825    1.0000 </r>
       <r>   -9.0172    1.0000 </r>
       <r>   -5.3135    1.0000 </r>
       <r>    0.4642    0.0000 </r>
       <r>    5.8888    0.0000 </r>
       <r>    6.7226    0.0000 </r>
       <r>    7.6301    0.0000 </r>
      </set>
      <set comment="kpoint 33">
       <r>  -16.9113    1.0000 </r>
       <r>  -14.8087    1.0000 </r>
       <r>   -9.1408    1.0000 </r>
       <r>   -4.7182    1.0000 </r>
       <r>   -0.3060    0.0000 </r>
       <r>    5.8335    0.0000 </r>
       <r>    7.8516    0.0000 </r>
       <r>    8.7399    0.0000 </r>
      </set>
      <set comment="kpoint 34">
       <r>  -16.4142    1.0000 </r>
       <r>  -15.3648    1.0000 </r>
       <r>   -9.1822    1.0000 </r>
       <r>   -4.4629    1.0000 </r>
       <r>   -0.6207    0.0000 </r>
       <r>    5.8131    0.0000 </r>
       <r>    8.9973    0.0000 </r>
       <r>    9.1592    0.0000 </r>
      </set>
      <set comment="kpoint 35">
       <r>  -20.6502    1.0000 </r>
       <r>   -8.5543    1.0000 </r>
       <r>   -8.4709    1.0000 </r>
       <r>   -7.3882    1.0000 </r>
       <r>    2.5122    0.0000 </r>
       <r>    3.4346    0.0000 </r>
       <r>    3.9038    0.0000 </r>
       <r>    5.8374    0.0000 </r>
      </set>
      <set comment="kpoint 36">
       <r>  -20.2467    1.0000 </r>
       <r>   -9.3080    1.0000 </r>
       <r>   -8.0836    1.0000 </r>
       <r>   -7.9688    1.0000 </r>
       <r>    3.0676    0.0000 </r>
       <r>    3.9883    0.0000 </r>
       <r>    4.4707    0.0000 </r>
       <r>    4.9953    0.0000 </r>
      </set>
      <set comment="kpoint 37">
       <r>  -19.7657    1.0000 </r>
       <r>  -10.2514    1.0000 </r>
       <r>   -8.4780    1.0000 </r>
       <r>   -7.5290    1.0000 </r>
       <r>    3.7327    0.0000 </r>
       <r>    3.9736    0.0000 </r>
       <r>    4.6651    0.0000 </r>
       <r>    5.1506    0.0000 </r>
      </set>
      <set comment="kpoint 38">
       <r>  -19.2095    1.0000 </r>
       <r>  -11.2563    1.0000 </r>
       <r>   -8.9023    1.0000 </r>
       <r>   -6.8994    1.0000 </r>
       <r>    2.9253    0.0000 </r>
       <r>    4.5061    0.0000 </r>
       <r>    5.4320    0.0000 </r>
       <r>    5.9423    0.0000 </r>
      </set>
      <set comment="kpoint 39">
       <r>  -18.5815    1.0000 </r>
       <r>  -12.2800    1.0000 </r>
       <r>   -9.2418    1.0000 </r>
       <r>   -6.2102    1.0000 </r>
       <r>    1.8676    0.0000 </r>
       <r>    5.3852    0.0000 </r>
       <r>    6.3052    0.0000 </r>
       <r>    6.8150    0.0000 </r>
      </set>
      <set comment="kpoint 40">
       <r>  -17.8883    1.0000 </r>
       <r>  -13.2889    1.0000 </r>
       <r>   -9.4971    1.0000 </r>
       <r>   -5.4922    1.0000 </r>
       <r>    0.8543    0.0000 </r>
       <r>    6.3535    0.0000 </r>
       <r>    6.7890    0.0000 </r>
       <r>    7.2725    0.0000 </r>
      </set>
      <set comment="kpoint 41">
       <r>  -17.1466    1.0000 </r>
       <r>  -14.2492    1.0000 </r>
       <r>   -9.6677    1.0000 </r>
       <r>   -4.8152    1.0000 </r>
       <r>   -0.0290    0.0000 </r>
       <r>    6.6692    0.0000 </r>
       <r>    7.4771    0.0000 </r>
       <r>    8.3115    0.0000 </r>
      </set>
      <set comment="kpoint 42">
       <r>  -16.4437    1.0000 </r>
       <r>  -15.0637    1.0000 </r>
       <r>   -9.7533    1.0000 </r>
       <r>   -4.3464    1.0000 </r>
       <r>   -0.6038    0.0000 </r>
       <r>    6.6330    0.0000 </r>
       <r>    8.6415    0.0000 </r>
       <r>    9.3285    0.0000 </r>
      </set>
      <set comment="kpoint 43">
       <r>  -19.8058    1.0000 </r>
       <r>  -10.0113    1.0000 </r>
       <r>   -8.6551    1.0000 </r>
       <r>   -7.5736    1.0000 </r>
       <r>    3.6777    0.0000 </r>
       <r>    4.0991    0.0000 </r>
       <r>    4.5963    0.0000 </r>
       <r>    5.0943    0.0000 </r>
      </set>
      <set comment="kpoint 44">
       <r>  -19.2889    1.0000 </r>
       <r>  -10.8257    1.0000 </r>
       <r>   -9.2485    1.0000 </r>
       <r>   -6.9840    1.0000 </r>
       <r>    3.1449    0.0000 </r>
       <r>    4.3968    0.0000 </r>
       <r>    5.3087    0.0000 </r>
       <r>    5.8307    0.0000 </r>
      </set>
      <set comment="kpoint 45">
       <r>  -18.6990    1.0000 </r>
       <r>  -11.7367    1.0000 </r>
       <r>   -9.7097    1.0000 </r>
       <r>   -6.3256    1.0000 </r>
       <r>    2.1592    0.0000 </r>
       <r>    5.2230    0.0000 </r>
       <r>    6.1213    0.0000 </r>
       <r>    6.6790    0.0000 </r>
      </set>
      <set comment="kpoint 46">
       <r>  -18.0411    1.0000 </r>
       <r>  -12.6927    1.0000 </r>
       <r>  -10.0498    1.0000 </r>
       <r>   -5.6184    1.0000 </r>
       <r>    1.1771    0.0000 </r>
       <r>    6.1530    0.0000 </r>
       <r>    7.0221    0.0000 </r>
       <r>    7.6289    0.0000 </r>
      </set>
      <set comment="kpoint 47">
       <r>  -17.3253    1.0000 </r>
       <r>  -13.6439    1.0000 </r>
       <r>  -10.2850    1.0000 </r>
       <r>   -4.9048    1.0000 </r>
       <r>    0.2550    0.0000 </r>
       <r>    7.1746    0.0000 </r>
       <r>    7.7511    0.0000 </r>
       <r>    7.9801    0.0000 </r>
      </set>
      <set comment="kpoint 48">
       <r>  -16.5856    1.0000 </r>
       <r>  -14.5327    1.0000 </r>
       <r>  -10.4237    1.0000 </r>
       <r>   -4.2896    1.0000 </r>
       <r>   -0.4905    0.0000 </r>
       <r>    7.6577    0.0000 </r>
       <r>    8.3260    0.0000 </r>
       <r>    8.8891    0.0000 </r>
      </set>
      <set comment="kpoint 49">
       <r>  -16.0979    1.0000 </r>
       <r>  -15.0713    1.0000 </r>
       <r>  -10.4696    1.0000 </r>
       <r>   -4.0163    1.0000 </r>
       <r>   -0.8081    0.0000 </r>
       <r>    7.6423    0.0000 </r>
       <r>    9.3495    0.0000 </r>
       <r>    9.4133    0.0000 </r>
      </set>
      <set comment="kpoint 50">
       <r>  -18.7383    1.0000 </r>
       <r>  -11.4660    1.0000 </r>
       <r>   -9.9592    1.0000 </r>
       <r>   -6.3644    1.0000 </r>
       <r>    2.2657    0.0000 </r>
       <r>    5.1685    0.0000 </r>
       <r>    6.0583    0.0000 </r>
       <r>    6.6233    0.0000 </r>
      </set>
      <set comment="kpoint 51">
       <r>  -18.1180    1.0000 </r>
       <r>  -12.2213    1.0000 </r>
       <r>  -10.5097    1.0000 </r>
       <r>   -5.6835    1.0000 </r>
       <r>    1.3631    0.0000 </r>
       <r>    6.0451    0.0000 </r>
       <r>    6.8911    0.0000 </r>
       <r>    7.5275    0.0000 </r>
      </set>
      <set comment="kpoint 52">
       <r>  -17.4354    1.0000 </r>
       <r>  -13.0698    1.0000 </r>
       <r>  -10.8819    1.0000 </r>
       <r>   -4.9665    1.0000 </r>
       <r>    0.4697    0.0000 </r>
       <r>    7.0213    0.0000 </r>
       <r>    7.7637    0.0000 </r>
       <r>    8.5375    0.0000 </r>
      </set>
      <set comment="kpoint 53">
       <r>  -16.7075    1.0000 </r>
       <r>  -13.9395    1.0000 </r>
       <r>  -11.1092    1.0000 </r>
       <r>   -4.2719    1.0000 </r>
       <r>   -0.3482    0.0000 </r>
       <r>    8.0829    0.0000 </r>
       <r>    8.5402    0.0000 </r>
       <r>    8.8372    0.0000 </r>
      </set>
      <set comment="kpoint 54">
       <r>  -16.0196    1.0000 </r>
       <r>  -14.7067    1.0000 </r>
       <r>  -11.2175    1.0000 </r>
       <r>   -3.7630    1.0000 </r>
       <r>   -0.9207    0.0000 </r>
       <r>    8.7587    0.0000 </r>
       <r>    8.9503    0.0000 </r>
       <r>    9.2451    0.0000 </r>
      </set>
      <set comment="kpoint 55">
       <r>  -17.4724    1.0000 </r>
       <r>  -12.7737    1.0000 </r>
       <r>  -11.1883    1.0000 </r>
       <r>   -4.9883    1.0000 </r>
       <r>    0.5503    0.0000 </r>
       <r>    6.9676    0.0000 </r>
       <r>    7.6873    0.0000 </r>
       <r>    8.4861    0.0000 </r>
      </set>
      <set comment="kpoint 56">
       <r>  -16.7732    1.0000 </r>
       <r>  -13.4483    1.0000 </r>
       <r>  -11.6496    1.0000 </r>
       <r>   -4.2699    1.0000 </r>
       <r>   -0.2519    0.0000 </r>
       <r>    7.9804    0.0000 </r>
       <r>    8.3420    0.0000 </r>
       <r>    9.5487    0.0000 </r>
      </set>
      <set comment="kpoint 57">
       <r>  -16.0535    1.0000 </r>
       <r>  -14.1914    1.0000 </r>
       <r>  -11.8952    1.0000 </r>
       <r>   -3.6085    1.0000 </r>
       <r>   -0.9640    0.0000 </r>
       <r>    8.6174    0.0000 </r>
       <r>    9.0549    0.0000 </r>
       <r>    9.9140    0.0000 </r>
      </set>
      <set comment="kpoint 58">
       <r>  -15.5720    1.0000 </r>
       <r>  -14.6880    1.0000 </r>
       <r>  -11.9708    1.0000 </r>
       <r>   -3.2779    1.0000 </r>
       <r>   -1.3115    0.0000 </r>
       <r>    8.6567    0.0000 </r>
       <r>    9.8227    0.0000 </r>
       <r>   10.0326    0.0000 </r>
      </set>
      <set comment="kpoint 59">
       <r>  -16.0733    1.0000 </r>
       <r>  -13.9033    1.0000 </r>
       <r>  -12.2311    1.0000 </r>
       <r>   -3.5575    1.0000 </r>
       <r>   -0.9725    0.0000 </r>
       <r>    8.4939    0.0000 </r>
       <r>    9.0056    0.0000 </r>
       <r>   10.6432    0.0000 </r>
      </set>
      <set comment="kpoint 60">
       <r>  -15.4028    1.0000 </r>
       <r>  -14.4529    1.0000 </r>
       <r>  -12.5241    1.0000 </r>
       <r>   -2.9316    1.0000 </r>
       <r>   -1.5998    0.0000 </r>
       <r>    8.4428    0.0000 </r>
       <r>   10.0100    0.0000 </r>
       <r>   10.6169    0.0000 </r>
      </set>
      <set comment="kpoint 61">
       <r>  -14.8390    1.0000 </r>
       <r>  -14.8389    1.0000 </r>
       <r>  -12.7835    1.0000 </r>
       <r>   -2.2577    0.5003 </r>
       <r>   -2.2577    0.4997 </r>
       <r>    8.3575    0.0000 </r>
       <r>   10.6131    0.0000 </r>
       <r>   10.6132    0.0000 </r>
      </set>
     </set>
    </set>
   </array>
  </eigenvalues>
  <separator name="orbital magnetization" >
   <v name="MAGDIPOLOUT">      0.00000000      0.00000000      0.00000000</v>
  </separator>
  <dos>
   <i name="efermi">     -2.25771807 </i>
   <total>
    <array>
     <dimension dim="1">gridpoints</dimension>
     <dimension dim="2">spin</dimension>
     <field>energy</field>
     <field>total</field>
     <field>integrated</field>
     <set>
      <set comment="spin 1">
       <r>   -23.3699     0.0000     0.0000 </r>
       <r>   -23.2512     0.0000     0.0000 </r>
       <r>   -23.1324     0.0000     0.0000 </r>
       <r>   -23.0136     0.0000     0.0000 </r>
       <r>   -22.8948     0.0000     0.0000 </r>
       <r>   -22.7761     0.0000     0.0000 </r>
       <r>   -22.6573     0.0000     0.0000 </r>
       <r>   -22.5385     0.0000     0.0000 </r>
       <r>   -22.4197     0.0000     0.0000 </r>
       <r>   -22.3010     0.0000     0.0000 </r>
       <r>   -22.1822     0.0000     0.0000 </r>
       <r>   -22.0634     0.0000     0.0000 </r>
       <r>   -21.9446     0.0000     0.0000 </r>
       <r>   -21.8259     0.0000     0.0000 </r>
       <r>   -21.7071     0.1278     0.0152 </r>
       <r>   -21.5883     0.3301     0.0544 </r>
       <r>   -21.4695     0.2171     0.0802 </r>
       <r>   -21.3508     0.4042     0.1282 </r>
       <r>   -21.2320     0.2352     0.1561 </r>
       <r>   -21.1132     0.3145     0.1935 </r>
       <r>   -20.9944     0.1826     0.2152 </r>
       <r>   -20.8756     0.6364     0.2908 </r>
       <r>   -20.7569     0.0428     0.2959 </r>
       <r>   -20.6381     0.3185     0.3337 </r>
       <r>   -20.5193     0.3822     0.3791 </r>
       <r>   -20.4005     0.3457     0.4201 </r>
       <r>   -20.2818     0.1143     0.4337 </r>
       <r>   -20.1630     0.6190     0.5072 </r>
       <r>   -20.0442     0.1448     0.5244 </r>
       <r>   -19.9254     0.3497     0.5660 </r>
       <r>   -19.8067     0.0844     0.5760 </r>
       <r>   -19.6879     0.6177     0.6494 </r>
       <r>   -19.5691     0.3503     0.6910 </r>
       <r>   -19.4503     0.1382     0.7074 </r>
       <r>   -19.3316     0.2131     0.7327 </r>
       <r>   -19.2128     0.4937     0.7913 </r>
       <r>   -19.0940     0.3833     0.8369 </r>
       <r>   -18.9752     0.3504     0.8785 </r>
       <r>   -18.8565     0.0006     0.8785 </r>
       <r>   -18.7377     0.4420     0.9310 </r>
       <r>   -18.6189     0.4359     0.9828 </r>
       <r>   -18.5001     0.4496     1.0362 </r>
       <r>   -18.3813     0.3036     1.0723 </r>
       <r>   -18.2626     0.1224     1.0868 </r>
       <r>   -18.1438     0.0222     1.0894 </r>
       <r>   -18.0250     0.9855     1.2065 </r>
       <r>   -17.9062     0.0808     1.2161 </r>
       <r>   -17.7875     0.3492     1.2576 </r>
       <r>   -17.6687     0.2556     1.2879 </r>
       <r>   -17.5499     0.2361     1.3160 </r>
       <r>   -17.4311     0.3916     1.3625 </r>
       <r>   -17.3124     0.7727     1.4543 </r>
       <r>   -17.1936     0.0633     1.4618 </r>
       <r>   -17.0748     0.3507     1.5035 </r>
       <r>   -16.9560     0.1757     1.5243 </r>
       <r>   -16.8373     0.3505     1.5660 </r>
       <r>   -16.7185     0.4275     1.6168 </r>
       <r>   -16.5997     0.6805     1.6976 </r>
       <r>   -16.4809     0.3840     1.7432 </r>
       <r>   -16.3622     0.5250     1.8056 </r>
       <r>   -16.2434     0.0000     1.8056 </r>
       <r>   -16.1246     0.0052     1.8062 </r>
       <r>   -16.0058     0.9892     1.9237 </r>
       <r>   -15.8871     0.0578     1.9306 </r>
       <r>   -15.7683     0.0000     1.9306 </r>
       <r>   -15.6495     0.0000     1.9306 </r>
       <r>   -15.5307     0.1751     1.9514 </r>
       <r>   -15.4119     0.1789     1.9726 </r>
       <r>   -15.2932     0.4406     2.0250 </r>
       <r>   -15.1744     0.3453     2.0660 </r>
       <r>   -15.0556     0.4028     2.1138 </r>
       <r>   -14.9368     0.1261     2.1288 </r>
       <r>   -14.8181     0.3705     2.1728 </r>
       <r>   -14.6993     0.5523     2.2384 </r>
       <r>   -14.5805     0.2440     2.2674 </r>
       <r>   -14.4617     0.4493     2.3207 </r>
       <r>   -14.3430     0.6029     2.3924 </r>
       <r>   -14.2242     0.3408     2.4328 </r>
       <r>   -14.1054     0.3608     2.4757 </r>
       <r>   -13.9866     0.0213     2.4782 </r>
       <r>   -13.8679     0.9773     2.5943 </r>
       <r>   -13.7491     0.0538     2.6007 </r>
       <r>   -13.6303     0.2918     2.6354 </r>
       <r>   -13.5115     0.0590     2.6424 </r>
       <r>   -13.3928     0.7015     2.7257 </r>
       <r>   -13.2740     0.2994     2.7613 </r>
       <r>   -13.1552     0.0514     2.7674 </r>
       <r>   -13.0364     0.3476     2.8086 </r>
       <r>   -12.9177     0.1744     2.8294 </r>
       <r>   -12.7989     0.3696     2.8733 </r>
       <r>   -12.6801     0.5048     2.9332 </r>
       <r>   -12.5613     0.0667     2.9411 </r>
       <r>   -12.4425     0.3495     2.9827 </r>
       <r>   -12.3238     0.3509     3.0243 </r>
       <r>   -12.2050     0.8274     3.1226 </r>
       <r>   -12.0862     0.0492     3.1285 </r>
       <r>   -11.9674     0.1041     3.1408 </r>
       <r>   -11.8487     0.5981     3.2119 </r>
       <r>   -11.7299     0.5907     3.2821 </r>
       <r>   -11.6111     0.4598     3.3367 </r>
       <r>   -11.4923     0.0067     3.3375 </r>
       <r>   -11.3736     0.1699     3.3576 </r>
       <r>   -11.2548     0.5424     3.4221 </r>
       <r>   -11.1360     0.6956     3.5047 </r>
       <r>   -11.0172     0.3406     3.5451 </r>
       <r>   -10.8985     0.0424     3.5502 </r>
       <r>   -10.7797     0.7322     3.6372 </r>
       <r>   -10.6609     0.4529     3.6910 </r>
       <r>   -10.5421     0.0038     3.6914 </r>
       <r>   -10.4234     0.7012     3.7747 </r>
       <r>   -10.3046     0.2011     3.7986 </r>
       <r>   -10.1858     1.0206     3.9198 </r>
       <r>   -10.0670     0.0420     3.9248 </r>
       <r>    -9.9482     0.6238     3.9989 </r>
       <r>    -9.8295     0.0765     4.0080 </r>
       <r>    -9.7107     0.8048     4.1036 </r>
       <r>    -9.5919     1.2907     4.2569 </r>
       <r>    -9.4731     0.6851     4.3383 </r>
       <r>    -9.3544     0.1915     4.3611 </r>
       <r>    -9.2356     1.1205     4.4942 </r>
       <r>    -9.1168     1.2944     4.6480 </r>
       <r>    -8.9980     0.5360     4.7116 </r>
       <r>    -8.8793     0.7153     4.7966 </r>
       <r>    -8.7605     1.0511     4.9214 </r>
       <r>    -8.6417     1.0705     5.0486 </r>
       <r>    -8.5229     1.2400     5.1959 </r>
       <r>    -8.4042     1.1295     5.3300 </r>
       <r>    -8.2854     0.7956     5.4245 </r>
       <r>    -8.1666     0.3731     5.4688 </r>
       <r>    -8.0478     0.9398     5.5805 </r>
       <r>    -7.9291     1.2219     5.7256 </r>
       <r>    -7.8103     0.1546     5.7440 </r>
       <r>    -7.6915     0.9546     5.8573 </r>
       <r>    -7.5727     0.6637     5.9362 </r>
       <r>    -7.4540     0.6834     6.0174 </r>
       <r>    -7.3352     0.5274     6.0800 </r>
       <r>    -7.2164     0.5836     6.1493 </r>
       <r>    -7.0976     0.9938     6.2674 </r>
       <r>    -6.9788     0.2790     6.3005 </r>
       <r>    -6.8601     0.8180     6.3977 </r>
       <r>    -6.7413     0.8364     6.4970 </r>
       <r>    -6.6225     0.5221     6.5590 </r>
       <r>    -6.5037     0.0255     6.5621 </r>
       <r>    -6.3850     0.5198     6.6238 </r>
       <r>    -6.2662     1.3784     6.7875 </r>
       <r>    -6.1474     0.4958     6.8464 </r>
       <r>    -6.0286     0.1450     6.8636 </r>
       <r>    -5.9099     0.5959     6.9344 </r>
       <r>    -5.7911     0.3769     6.9792 </r>
       <r>    -5.6723     0.7726     7.0709 </r>
       <r>    -5.5535     0.6912     7.1530 </r>
       <r>    -5.4348     0.7578     7.2430 </r>
       <r>    -5.3160     0.3567     7.2854 </r>
       <r>    -5.1972     0.2572     7.3160 </r>
       <r>    -5.0784     0.3159     7.3535 </r>
       <r>    -4.9597     0.4472     7.4066 </r>
       <r>    -4.8409     0.6421     7.4829 </r>
       <r>    -4.7221     0.4865     7.5407 </r>
       <r>    -4.6033     0.6273     7.6152 </r>
       <r>    -4.4845     0.0352     7.6194 </r>
       <r>    -4.3658     0.1942     7.6424 </r>
       <r>    -4.2470     1.3407     7.8017 </r>
       <r>    -4.1282     0.0323     7.8056 </r>
       <r>    -4.0094     0.1204     7.8199 </r>
       <r>    -3.8907     0.0550     7.8264 </r>
       <r>    -3.7719     0.0928     7.8374 </r>
       <r>    -3.6531     0.2583     7.8681 </r>
       <r>    -3.5343     0.5170     7.9295 </r>
       <r>    -3.4156     0.0090     7.9306 </r>
       <r>    -3.2968     0.0160     7.9325 </r>
       <r>    -3.1780     0.1594     7.9514 </r>
       <r>    -3.0592     0.0000     7.9514 </r>
       <r>    -2.9405     0.0930     7.9624 </r>
       <r>    -2.8217     0.2578     7.9931 </r>
       <r>    -2.7029     0.0000     7.9931 </r>
       <r>    -2.5841     0.0000     7.9931 </r>
       <r>    -2.4654     0.0000     7.9931 </r>
       <r>    -2.3466     0.0000     7.9931 </r>
       <r>    -2.2278     0.1149     8.0067 </r>
       <r>    -2.1090     0.0020     8.0069 </r>
       <r>    -1.9903     0.0000     8.0069 </r>
       <r>    -1.8715     0.0000     8.0069 </r>
       <r>    -1.7527     0.0000     8.0069 </r>
       <r>    -1.6339     0.0028     8.0073 </r>
       <r>    -1.5151     0.3480     8.0486 </r>
       <r>    -1.3964     0.0000     8.0486 </r>
       <r>    -1.2776     0.1740     8.0693 </r>
       <r>    -1.1588     0.0014     8.0694 </r>
       <r>    -1.0400     0.0000     8.0694 </r>
       <r>    -0.9213     0.6957     8.1521 </r>
       <r>    -0.8025     0.2957     8.1873 </r>
       <r>    -0.6837     0.0605     8.1944 </r>
       <r>    -0.5649     0.6005     8.2658 </r>
       <r>    -0.4462     0.7147     8.3507 </r>
       <r>    -0.3274     0.3491     8.3922 </r>
       <r>    -0.2086     0.8783     8.4965 </r>
       <r>    -0.0898     0.0000     8.4965 </r>
       <r>     0.0289     0.3511     8.5382 </r>
       <r>     0.1477     0.3505     8.5799 </r>
       <r>     0.2665     0.2778     8.6129 </r>
       <r>     0.3853     0.0730     8.6215 </r>
       <r>     0.5040     0.7471     8.7103 </r>
       <r>     0.6228     0.3053     8.7465 </r>
       <r>     0.7416     0.0000     8.7465 </r>
       <r>     0.8604     0.2342     8.7743 </r>
       <r>     0.9792     0.2311     8.8018 </r>
       <r>     1.0979     0.4389     8.8539 </r>
       <r>     1.2167     0.5495     8.9192 </r>
       <r>     1.3355     0.1631     8.9386 </r>
       <r>     1.4543     0.8645     9.0412 </r>
       <r>     1.5730     0.5297     9.1042 </r>
       <r>     1.6918     0.1476     9.1217 </r>
       <r>     1.8106     0.3786     9.1667 </r>
       <r>     1.9294     0.5401     9.2308 </r>
       <r>     2.0481     0.3446     9.2718 </r>
       <r>     2.1669     1.2009     9.4144 </r>
       <r>     2.2857     0.5644     9.4814 </r>
       <r>     2.4045     0.5113     9.5422 </r>
       <r>     2.5232     0.6019     9.6137 </r>
       <r>     2.6420     1.3822     9.7778 </r>
       <r>     2.7608     0.7834     9.8709 </r>
       <r>     2.8796     0.5139     9.9320 </r>
       <r>     2.9983     0.7533    10.0214 </r>
       <r>     3.1171     1.3187    10.1781 </r>
       <r>     3.2359     1.1903    10.3195 </r>
       <r>     3.3547     0.3493    10.3610 </r>
       <r>     3.4734     0.9064    10.4686 </r>
       <r>     3.5922     0.6663    10.5478 </r>
       <r>     3.7110     0.9227    10.6574 </r>
       <r>     3.8298     0.8381    10.7569 </r>
       <r>     3.9486     0.7848    10.8501 </r>
       <r>     4.0673     1.0085    10.9699 </r>
       <r>     4.1861     1.4263    11.1393 </r>
       <r>     4.3049     0.1135    11.1528 </r>
       <r>     4.4237     0.6799    11.2336 </r>
       <r>     4.5424     1.3378    11.3925 </r>
       <r>     4.6612     0.9548    11.5059 </r>
       <r>     4.7800     1.2489    11.6542 </r>
       <r>     4.8988     1.0694    11.7812 </r>
       <r>     5.0175     0.6715    11.8610 </r>
       <r>     5.1363     1.4971    12.0388 </r>
       <r>     5.2551     1.5859    12.2272 </r>
       <r>     5.3739     1.5351    12.4096 </r>
       <r>     5.4926     1.8977    12.6350 </r>
       <r>     5.6114     1.3347    12.7935 </r>
       <r>     5.7302     0.8559    12.8953 </r>
       <r>     5.8490     1.2895    13.0484 </r>
       <r>     5.9677     0.8079    13.1444 </r>
       <r>     6.0865     1.5711    13.3310 </r>
       <r>     6.2053     1.0715    13.4583 </r>
       <r>     6.3241     0.3254    13.4970 </r>
       <r>     6.4429     0.4068    13.5453 </r>
       <r>     6.5616     0.2584    13.5760 </r>
       <r>     6.6804     1.4041    13.7428 </r>
       <r>     6.7992     0.9007    13.8498 </r>
       <r>     6.9180     0.7285    13.9363 </r>
       <r>     7.0367     1.1352    14.0711 </r>
       <r>     7.1555     0.3361    14.1111 </r>
       <r>     7.2743     0.6613    14.1896 </r>
       <r>     7.3931     0.1577    14.2083 </r>
       <r>     7.5118     0.5421    14.2727 </r>
       <r>     7.6306     0.7534    14.3622 </r>
       <r>     7.7494     1.3731    14.5253 </r>
       <r>     7.8682     0.7969    14.6199 </r>
       <r>     7.9869     0.5213    14.6819 </r>
       <r>     8.1057     0.8730    14.7856 </r>
       <r>     8.2245     0.0514    14.7917 </r>
       <r>     8.3433     1.0991    14.9222 </r>
       <r>     8.4620     0.6928    15.0045 </r>
       <r>     8.5808     1.0736    15.1320 </r>
       <r>     8.6996     1.0519    15.2570 </r>
       <r>     8.8184     0.7337    15.3442 </r>
       <r>     8.9371     0.8184    15.4414 </r>
       <r>     9.0559     0.9132    15.5499 </r>
       <r>     9.1747     0.3164    15.5874 </r>
       <r>     9.2935     0.7268    15.6738 </r>
       <r>     9.4123     0.6071    15.7459 </r>
       <r>     9.5310     0.1300    15.7613 </r>
       <r>     9.6498     0.3139    15.7986 </r>
       <r>     9.7686     0.0000    15.7986 </r>
       <r>     9.8874     0.1859    15.8207 </r>
       <r>    10.0061     0.4835    15.8781 </r>
       <r>    10.1249     0.3830    15.9236 </r>
       <r>    10.2437     0.0000    15.9236 </r>
       <r>    10.3625     0.0000    15.9236 </r>
       <r>    10.4812     0.0000    15.9236 </r>
       <r>    10.6000     0.0617    15.9309 </r>
       <r>    10.7188     0.5814    16.0000 </r>
       <r>    10.8376     0.0000    16.0000 </r>
       <r>    10.9563     0.0000    16.0000 </r>
       <r>    11.0751     0.0000    16.0000 </r>
       <r>    11.1939     0.0000    16.0000 </r>
       <r>    11.3127     0.0000    16.0000 </r>
       <r>    11.4314     0.0000    16.0000 </r>
       <r>    11.5502     0.0000    16.0000 </r>
       <r>    11.6690     0.0000    16.0000 </r>
       <r>    11.7878     0.0000    16.0000 </r>
       <r>    11.9066     0.0000    16.0000 </r>
       <r>    12.0253     0.0000    16.0000 </r>
       <r>    12.1441     0.0000    16.0000 </r>
       <r>    12.2629     0.0000    16.0000 </r>
      </set>
     </set>
    </array>
   </total>
  </dos>
 </calculation>
 <structure name="finalpos" >
  <crystal>
   <varray name="basis" >
    <v>       2.46801197       0.00000000       0.00000000 </v>
    <v>      -1.23400599       2.13736057       0.00000000 </v>
    <v>       0.00000000       0.00000000      15.00000000 </v>
   </varray>
   <i name="volume">     79.12547207 </i>
   <varray name="rec_basis" >
    <v>       0.40518442       0.23393339       0.00000000 </v>
    <v>       0.00000000       0.46786678       0.00000000 </v>
    <v>       0.00000000       0.00000000       0.06666667 </v>
   </varray>
  </crystal>
  <varray name="positions" >
   <v>       0.00000000       0.00000000       0.50000000 </v>
   <v>       0.33333300       0.66666700       0.50000000 </v>
  </varray>
 </structure>
</modeling>
