<?xml version="1.0" encoding="ISO-8859-1"?>
<modeling>
 <generator>
  <i name="program" type="string">vasp </i>
  <i name="version" type="string">5.4.1  </i>
  <i name="subversion" type="string">24Jun15 (build Nov 20 2020 10:29:34) complex                          parallel </i>
  <i name="platform" type="string">IFC91_ompi </i>
  <i name="date" type="string">2021 09 09 </i>
  <i name="time" type="string">14:56:34 </i>
 </generator>
 <incar>
  <i type="string" name="PREC">a</i>
  <i type="string" name="ALGO"> Normal</i>
  <i type="int" name="ISPIN">     1</i>
  <i type="int" name="ICHARG">     2</i>
  <i type="int" name="NELM">   250</i>
  <i type="int" name="NELMDL">    -5</i>
  <i type="int" name="NELMIN">     6</i>
  <i type="int" name="IBRION">     2</i>
  <i name="EDIFF">      0.00001000</i>
  <i name="EDIFFG">     -0.01000000</i>
  <i type="int" name="NSW">   200</i>
  <i type="int" name="ISIF">     2</i>
  <i name="ENCUT">    520.00000000</i>
  <i name="POTIM">      0.30000000</i>
  <i type="logical" name="LREAL"> F  </i>
  <i type="int" name="ISMEAR">     0</i>
  <i name="SIGMA">      0.02000000</i>
  <i type="logical" name="LWAVE"> F  </i>
  <i type="logical" name="LCHARG"> F  </i>
  <i type="logical" name="LAECHG"> F  </i>
  <v type="int" name="KPOINT_BSE">    -1     0     0     0</v>
  <i type="int" name="NELM">   250</i>
 </incar>
 <kpoints>
  <generation param="Gamma">
   <v type="int" name="divisions">      15       13        1 </v>
   <v name="usershift">      0.00000000       0.00000000       0.00000000 </v>
   <v name="genvec1">      0.06666667       0.00000000       0.00000000 </v>
   <v name="genvec2">      0.00000000       0.07692308       0.00000000 </v>
   <v name="genvec3">      0.00000000       0.00000000       1.00000000 </v>
   <v name="shift">      0.00000000       0.00000000       0.00000000 </v>
  </generation>
  <varray name="kpointlist" >
   <v>       0.00000000       0.00000000       0.00000000 </v>
   <v>       0.06666667       0.00000000       0.00000000 </v>
   <v>       0.13333333       0.00000000       0.00000000 </v>
   <v>       0.20000000       0.00000000       0.00000000 </v>
   <v>       0.26666667       0.00000000       0.00000000 </v>
   <v>       0.33333333       0.00000000       0.00000000 </v>
   <v>       0.40000000       0.00000000       0.00000000 </v>
   <v>       0.46666667       0.00000000       0.00000000 </v>
   <v>      -0.00000000       0.07692308       0.00000000 </v>
   <v>       0.06666667       0.07692308       0.00000000 </v>
   <v>       0.13333333       0.07692308       0.00000000 </v>
   <v>       0.20000000       0.07692308       0.00000000 </v>
   <v>       0.26666667       0.07692308       0.00000000 </v>
   <v>       0.33333333       0.07692308       0.00000000 </v>
   <v>       0.40000000       0.07692308       0.00000000 </v>
   <v>       0.46666667       0.07692308       0.00000000 </v>
   <v>      -0.46666667       0.07692308       0.00000000 </v>
   <v>      -0.40000000       0.07692308       0.00000000 </v>
   <v>      -0.33333333       0.07692308       0.00000000 </v>
   <v>      -0.26666667       0.07692308       0.00000000 </v>
   <v>      -0.20000000       0.07692308       0.00000000 </v>
   <v>      -0.13333333       0.07692308       0.00000000 </v>
   <v>      -0.06666667       0.07692308       0.00000000 </v>
   <v>       0.00000000       0.15384615       0.00000000 </v>
   <v>       0.06666667       0.15384615       0.00000000 </v>
   <v>       0.13333333       0.15384615       0.00000000 </v>
   <v>       0.20000000       0.15384615       0.00000000 </v>
   <v>       0.26666667       0.15384615       0.00000000 </v>
   <v>       0.33333333       0.15384615       0.00000000 </v>
   <v>       0.40000000       0.15384615       0.00000000 </v>
   <v>       0.46666667       0.15384615       0.00000000 </v>
   <v>      -0.46666667       0.15384615       0.00000000 </v>
   <v>      -0.40000000       0.15384615       0.00000000 </v>
   <v>      -0.33333333       0.15384615       0.00000000 </v>
   <v>      -0.26666667       0.15384615       0.00000000 </v>
   <v>      -0.20000000       0.15384615       0.00000000 </v>
   <v>      -0.13333333       0.15384615       0.00000000 </v>
   <v>      -0.06666667       0.15384615       0.00000000 </v>
   <v>       0.00000000       0.23076923       0.00000000 </v>
   <v>       0.06666667       0.23076923       0.00000000 </v>
   <v>       0.13333333       0.23076923       0.00000000 </v>
   <v>       0.20000000       0.23076923       0.00000000 </v>
   <v>       0.26666667       0.23076923       0.00000000 </v>
   <v>       0.33333333       0.23076923       0.00000000 </v>
   <v>       0.40000000       0.23076923       0.00000000 </v>
   <v>       0.46666667       0.23076923       0.00000000 </v>
   <v>      -0.46666667       0.23076923       0.00000000 </v>
   <v>      -0.40000000       0.23076923       0.00000000 </v>
   <v>      -0.33333333       0.23076923       0.00000000 </v>
   <v>      -0.26666667       0.23076923       0.00000000 </v>
   <v>      -0.20000000       0.23076923       0.00000000 </v>
   <v>      -0.13333333       0.23076923       0.00000000 </v>
   <v>      -0.06666667       0.23076923       0.00000000 </v>
   <v>       0.00000000       0.30769231       0.00000000 </v>
   <v>       0.06666667       0.30769231       0.00000000 </v>
   <v>       0.13333333       0.30769231       0.00000000 </v>
   <v>       0.20000000       0.30769231       0.00000000 </v>
   <v>       0.26666667       0.30769231       0.00000000 </v>
   <v>       0.33333333       0.30769231       0.00000000 </v>
   <v>       0.40000000       0.30769231       0.00000000 </v>
   <v>       0.46666667       0.30769231       0.00000000 </v>
   <v>      -0.46666667       0.30769231       0.00000000 </v>
   <v>      -0.40000000       0.30769231       0.00000000 </v>
   <v>      -0.33333333       0.30769231       0.00000000 </v>
   <v>      -0.26666667       0.30769231       0.00000000 </v>
   <v>      -0.20000000       0.30769231       0.00000000 </v>
   <v>      -0.13333333       0.30769231       0.00000000 </v>
   <v>      -0.06666667       0.30769231       0.00000000 </v>
   <v>       0.00000000       0.38461538       0.00000000 </v>
   <v>       0.06666667       0.38461538       0.00000000 </v>
   <v>       0.13333333       0.38461538       0.00000000 </v>
   <v>       0.20000000       0.38461538       0.00000000 </v>
   <v>       0.26666667       0.38461538       0.00000000 </v>
   <v>       0.33333333       0.38461538       0.00000000 </v>
   <v>       0.40000000       0.38461538       0.00000000 </v>
   <v>       0.46666667       0.38461538       0.00000000 </v>
   <v>      -0.46666667       0.38461538       0.00000000 </v>
   <v>      -0.40000000       0.38461538       0.00000000 </v>
   <v>      -0.33333333       0.38461538       0.00000000 </v>
   <v>      -0.26666667       0.38461538       0.00000000 </v>
   <v>      -0.20000000       0.38461538       0.00000000 </v>
   <v>      -0.13333333       0.38461538       0.00000000 </v>
   <v>      -0.06666667       0.38461538       0.00000000 </v>
   <v>       0.00000000       0.46153846       0.00000000 </v>
   <v>       0.06666667       0.46153846       0.00000000 </v>
   <v>       0.13333333       0.46153846       0.00000000 </v>
   <v>       0.20000000       0.46153846       0.00000000 </v>
   <v>       0.26666667       0.46153846       0.00000000 </v>
   <v>       0.33333333       0.46153846       0.00000000 </v>
   <v>       0.40000000       0.46153846       0.00000000 </v>
   <v>       0.46666667       0.46153846       0.00000000 </v>
   <v>      -0.46666667       0.46153846       0.00000000 </v>
   <v>      -0.40000000       0.46153846       0.00000000 </v>
   <v>      -0.33333333       0.46153846       0.00000000 </v>
   <v>      -0.26666667       0.46153846       0.00000000 </v>
   <v>      -0.20000000       0.46153846       0.00000000 </v>
   <v>      -0.13333333       0.46153846       0.00000000 </v>
   <v>      -0.06666667       0.46153846       0.00000000 </v>
  </varray>
  <varray name="weights" >
   <v>       0.00512821 </v>
   <v>       0.01025641 </v>
   <v>       0.01025641 </v>
   <v>       0.01025641 </v>
   <v>       0.01025641 </v>
   <v>       0.01025641 </v>
   <v>       0.01025641 </v>
   <v>       0.01025641 </v>
   <v>       0.01025641 </v>
   <v>       0.01025641 </v>
   <v>       0.01025641 </v>
   <v>       0.01025641 </v>
   <v>       0.01025641 </v>
   <v>       0.01025641 </v>
   <v>       0.01025641 </v>
   <v>       0.01025641 </v>
   <v>       0.01025641 </v>
   <v>       0.01025641 </v>
   <v>       0.01025641 </v>
   <v>       0.01025641 </v>
   <v>       0.01025641 </v>
   <v>       0.01025641 </v>
   <v>       0.01025641 </v>
   <v>       0.01025641 </v>
   <v>       0.01025641 </v>
   <v>       0.01025641 </v>
   <v>       0.01025641 </v>
   <v>       0.01025641 </v>
   <v>       0.01025641 </v>
   <v>       0.01025641 </v>
   <v>       0.01025641 </v>
   <v>       0.01025641 </v>
   <v>       0.01025641 </v>
   <v>       0.01025641 </v>
   <v>       0.01025641 </v>
   <v>       0.01025641 </v>
   <v>       0.01025641 </v>
   <v>       0.01025641 </v>
   <v>       0.01025641 </v>
   <v>       0.01025641 </v>
   <v>       0.01025641 </v>
   <v>       0.01025641 </v>
   <v>       0.01025641 </v>
   <v>       0.01025641 </v>
   <v>       0.01025641 </v>
   <v>       0.01025641 </v>
   <v>       0.01025641 </v>
   <v>       0.01025641 </v>
   <v>       0.01025641 </v>
   <v>       0.01025641 </v>
   <v>       0.01025641 </v>
   <v>       0.01025641 </v>
   <v>       0.01025641 </v>
   <v>       0.01025641 </v>
   <v>       0.01025641 </v>
   <v>       0.01025641 </v>
   <v>       0.01025641 </v>
   <v>       0.01025641 </v>
   <v>       0.01025641 </v>
   <v>       0.01025641 </v>
   <v>       0.01025641 </v>
   <v>       0.01025641 </v>
   <v>       0.01025641 </v>
   <v>       0.01025641 </v>
   <v>       0.01025641 </v>
   <v>       0.01025641 </v>
   <v>       0.01025641 </v>
   <v>       0.01025641 </v>
   <v>       0.01025641 </v>
   <v>       0.01025641 </v>
   <v>       0.01025641 </v>
   <v>       0.01025641 </v>
   <v>       0.01025641 </v>
   <v>       0.01025641 </v>
   <v>       0.01025641 </v>
   <v>       0.01025641 </v>
   <v>       0.01025641 </v>
   <v>       0.01025641 </v>
   <v>       0.01025641 </v>
   <v>       0.01025641 </v>
   <v>       0.01025641 </v>
   <v>       0.01025641 </v>
   <v>       0.01025641 </v>
   <v>       0.01025641 </v>
   <v>       0.01025641 </v>
   <v>       0.01025641 </v>
   <v>       0.01025641 </v>
   <v>       0.01025641 </v>
   <v>       0.01025641 </v>
   <v>       0.01025641 </v>
   <v>       0.01025641 </v>
   <v>       0.01025641 </v>
   <v>       0.01025641 </v>
   <v>       0.01025641 </v>
   <v>       0.01025641 </v>
   <v>       0.01025641 </v>
   <v>       0.01025641 </v>
   <v>       0.01025641 </v>
  </varray>
 </kpoints>
 <parameters>
  <separator name="general" >
   <i type="string" name="SYSTEM">unknown system</i>
   <i type="logical" name="LCOMPAT"> F  </i>
  </separator>
  <separator name="electronic" >
   <i type="string" name="PREC">a</i>
   <i name="ENMAX">    520.00000000</i>
   <i name="ENAUG">    531.35600000</i>
   <i name="EDIFF">      0.00001000</i>
   <i type="int" name="IALGO">    38</i>
   <i type="int" name="IWAVPR">    11</i>
   <i type="int" name="NBANDS">    32</i>
   <i name="NELECT">     52.00000000</i>
   <i type="int" name="TURBO">     0</i>
   <i type="int" name="IRESTART">     0</i>
   <i type="int" name="NREBOOT">     0</i>
   <i type="int" name="NMIN">     0</i>
   <i name="EREF">      0.00000000</i>
   <separator name="electronic smearing" >
    <i type="int" name="ISMEAR">     0</i>
    <i name="SIGMA">      0.02000000</i>
    <i name="KSPACING">      0.50000000</i>
    <i type="logical" name="KGAMMA"> T  </i>
   </separator>
   <separator name="electronic projectors" >
    <i type="logical" name="LREAL"> F  </i>
    <v name="ROPT">      0.00000000      0.00000000</v>
    <i type="int" name="LMAXPAW">  -100</i>
    <i type="int" name="LMAXMIX">     2</i>
    <i type="logical" name="NLSPLINE"> F  </i>
   </separator>
   <separator name="electronic startup" >
    <i type="int" name="ISTART">     0</i>
    <i type="int" name="ICHARG">     2</i>
    <i type="int" name="INIWAV">     1</i>
   </separator>
   <separator name="electronic spin" >
    <i type="int" name="ISPIN">     1</i>
    <i type="logical" name="LNONCOLLINEAR"> F  </i>
    <v name="MAGMOM">      1.00000000      1.00000000      1.00000000      1.00000000      1.00000000      1.00000000</v>
    <i name="NUPDOWN">     -1.00000000</i>
    <i type="logical" name="LSORBIT"> F  </i>
    <v name="SAXIS">      0.00000000      0.00000000      1.00000000</v>
    <i type="logical" name="LSPIRAL"> F  </i>
    <v name="QSPIRAL">      0.00000000      0.00000000      0.00000000</v>
    <i type="logical" name="LZEROZ"> F  </i>
   </separator>
   <separator name="electronic exchange-correlation" >
    <i type="logical" name="LASPH"> F  </i>
    <i type="logical" name="LMETAGGA"> F  </i>
   </separator>
   <separator name="electronic convergence" >
    <i type="int" name="NELM">   250</i>
    <i type="int" name="NELMDL">    -5</i>
    <i type="int" name="NELMIN">     6</i>
    <i name="ENINI">    520.00000000</i>
    <separator name="electronic convergence detail" >
     <i type="logical" name="LDIAG"> T  </i>
     <i type="logical" name="LSUBROT"> F  </i>
     <i name="WEIMIN">      0.00100000</i>
     <i name="EBREAK">      0.00000008</i>
     <i name="DEPER">      0.30000000</i>
     <i type="int" name="NRMM">     4</i>
     <i name="TIME">      0.40000000</i>
    </separator>
   </separator>
   <separator name="electronic mixer" >
    <i name="AMIX">      0.40000000</i>
    <i name="BMIX">      1.00000000</i>
    <i name="AMIN">      0.10000000</i>
    <i name="AMIX_MAG">      1.60000000</i>
    <i name="BMIX_MAG">      1.00000000</i>
    <separator name="electronic mixer details" >
     <i type="int" name="IMIX">     4</i>
     <i type="logical" name="MIXFIRST"> F  </i>
     <i type="int" name="MAXMIX">   -45</i>
     <i name="WC">    100.00000000</i>
     <i type="int" name="INIMIX">     1</i>
     <i type="int" name="MIXPRE">     1</i>
     <i type="int" name="MREMOVE">     5</i>
    </separator>
   </separator>
   <separator name="electronic dipolcorrection" >
    <i type="logical" name="LDIPOL"> F  </i>
    <i type="logical" name="LMONO"> F  </i>
    <i type="int" name="IDIPOL">     0</i>
    <i name="EPSILON">      1.00000000</i>
    <v name="DIPOL">   -100.00000000   -100.00000000   -100.00000000</v>
    <i name="EFIELD">      0.00000000</i>
   </separator>
  </separator>
  <separator name="grids" >
   <i type="int" name="NGX">    36</i>
   <i type="int" name="NGY">    42</i>
   <i type="int" name="NGZ">   140</i>
   <i type="int" name="NGXF">    72</i>
   <i type="int" name="NGYF">    84</i>
   <i type="int" name="NGZF">   280</i>
   <i type="logical" name="ADDGRID"> F  </i>
  </separator>
  <separator name="ionic" >
   <i type="int" name="NSW">   200</i>
   <i type="int" name="IBRION">     2</i>
   <i type="int" name="ISIF">     2</i>
   <i name="PSTRESS">      0.00000000</i>
   <i name="EDIFFG">     -0.01000000</i>
   <i type="int" name="NFREE">     1</i>
   <i name="POTIM">      0.30000000</i>
   <i name="SMASS">     -3.00000000</i>
   <i name="SCALEE">      1.00000000</i>
  </separator>
  <separator name="ionic md" >
   <i name="TEBEG">      0.00010000</i>
   <i name="TEEND">      0.00010000</i>
   <i type="int" name="NBLOCK">     1</i>
   <i type="int" name="KBLOCK">   200</i>
   <i type="int" name="NPACO">   256</i>
   <i name="APACO">     16.00000000</i>
  </separator>
  <separator name="symmetry" >
   <i type="int" name="ISYM">     2</i>
   <i name="SYMPREC">      0.00001000</i>
  </separator>
  <separator name="dos" >
   <i type="logical" name="LORBIT"> F  </i>
   <v name="RWIGS">     -1.00000000     -1.00000000</v>
   <i type="int" name="NEDOS">   301</i>
   <i name="EMIN">     10.00000000</i>
   <i name="EMAX">    -10.00000000</i>
   <i name="EFERMI">      0.00000000</i>
  </separator>
  <separator name="writing" >
   <i type="int" name="NWRITE">     2</i>
   <i type="logical" name="LWAVE"> F  </i>
   <i type="logical" name="LCHARG"> F  </i>
   <i type="logical" name="LPARD"> F  </i>
   <i type="logical" name="LVTOT"> F  </i>
   <i type="logical" name="LVHAR"> F  </i>
   <i type="logical" name="LELF"> F  </i>
   <i type="logical" name="LOPTICS"> F  </i>
   <v name="STM">      0.00000000      0.00000000      0.00000000      0.00000000      0.00000000      0.00000000      0.00000000</v>
  </separator>
  <separator name="performance" >
   <i type="int" name="NPAR">     4</i>
   <i type="int" name="NSIM">     4</i>
   <i type="int" name="NBLK">    -1</i>
   <i type="logical" name="LPLANE"> T  </i>
   <i type="logical" name="LSCALAPACK"> T  </i>
   <i type="logical" name="LSCAAWARE"> F  </i>
   <i type="logical" name="LSCALU"> F  </i>
   <i type="logical" name="LASYNC"> F  </i>
   <i type="logical" name="LORBITALREAL"> F  </i>
  </separator>
  <separator name="miscellaneous" >
   <i type="int" name="IDIOT">     3</i>
   <i type="logical" name="LMUSIC"> F  </i>
   <v name="POMASS">     72.61000000     78.96000000</v>
   <v name="DARWINR">      0.00000000      0.00000000</v>
   <v name="DARWINV">      1.00000000      1.00000000</v>
   <i type="logical" name="LCORR"> T  </i>
  </separator>
  <i type="logical" name="GGA_COMPAT"> T  </i>
  <i type="logical" name="LBERRY"> F  </i>
  <i type="int" name="ICORELEVEL">     0</i>
  <i type="logical" name="LDAU"> F  </i>
  <i type="int" name="I_CONSTRAINED_M">     0</i>
  <separator name="electronic exchange-correlation" >
   <i type="string" name="GGA">--</i>
   <i type="int" name="VOSKOWN">     0</i>
   <i type="logical" name="LHFCALC"> F  </i>
   <i type="string" name="PRECFOCK"></i>
   <i type="logical" name="LSYMGRAD"> F  </i>
   <i type="logical" name="LHFONE"> F  </i>
   <i type="logical" name="LRHFCALC"> F  </i>
   <i type="logical" name="LTHOMAS"> F  </i>
   <i type="logical" name="LMODELHF"> F  </i>
   <i name="ENCUT4O">     -1.00000000</i>
   <i type="int" name="EXXOEP">     0</i>
   <i type="int" name="FOURORBIT">     0</i>
   <i name="AEXX">      0.00000000</i>
   <i name="HFALPHA">      0.00000000</i>
   <i name="MCALPHA">      0.00000000</i>
   <i name="ALDAX">      1.00000000</i>
   <i name="AGGAX">      1.00000000</i>
   <i name="ALDAC">      1.00000000</i>
   <i name="AGGAC">      1.00000000</i>
   <i type="int" name="NKREDX">     1</i>
   <i type="int" name="NKREDY">     1</i>
   <i type="int" name="NKREDZ">     1</i>
   <i type="logical" name="SHIFTRED"> F  </i>
   <i type="logical" name="ODDONLY"> F  </i>
   <i type="logical" name="EVENONLY"> F  </i>
   <i type="int" name="LMAXFOCK">     0</i>
   <i type="int" name="NMAXFOCKAE">     0</i>
   <i type="logical" name="LFOCKAEDFT"> F  </i>
   <i name="HFSCREEN">      0.00000000</i>
   <i name="HFSCREENC">      0.00000000</i>
   <i type="int" name="NBANDSGWLOW">     0</i>
  </separator>
  <separator name="vdW DFT" >
   <i type="logical" name="LUSE_VDW"> F  </i>
   <i name="Zab_VDW">     -0.84910000</i>
   <i name="PARAM1">      0.12340000</i>
   <i name="PARAM2">      1.00000000</i>
   <i name="PARAM3">      0.00000000</i>
  </separator>
  <separator name="model GW" >
   <i type="int" name="MODEL_GW">     0</i>
   <i name="MODEL_EPS0">     49.37611386</i>
   <i name="MODEL_ALPHA">      1.00000000</i>
  </separator>
  <separator name="linear response parameters" >
   <i type="logical" name="LEPSILON"> F  </i>
   <i type="logical" name="LRPA"> F  </i>
   <i type="logical" name="LNABLA"> F  </i>
   <i type="logical" name="LVEL"> F  </i>
   <i type="int" name="KINTER">     0</i>
   <i name="CSHIFT">      0.10000000</i>
   <i name="OMEGAMAX">     -1.00000000</i>
   <i name="DEG_THRESHOLD">      0.00200000</i>
  </separator>
  <separator name="orbital magnetization" >
   <i type="logical" name="NUCIND"> F  </i>
   <v name="MAGPOS">      0.00000000      0.00000000      0.00000000</v>
   <i type="logical" name="LNICSALL"> T  </i>
   <i type="logical" name="ORBITALMAG"> F  </i>
   <i type="logical" name="LMAGBLOCH"> F  </i>
   <i type="logical" name="LCHIMAG"> F  </i>
   <i type="logical" name="LGAUGE"> T  </i>
   <i type="int" name="MAGATOM">     0</i>
   <v name="MAGDIPOL">      0.00000000      0.00000000      0.00000000</v>
   <v name="AVECCONST">      0.00000000      0.00000000      0.00000000</v>
  </separator>
  <separator name="response functions" >
   <i type="logical" name="LADDER"> F  </i>
   <i type="logical" name="LFXC"> F  </i>
   <i type="logical" name="LHARTREE"> T  </i>
   <i type="int" name="IBSE">     0</i>
   <v type="int" name="KPOINT">    -1     0     0     0</v>
   <i type="logical" name="LTCTE"> F  </i>
   <i type="logical" name="LTETE"> F  </i>
   <i type="logical" name="LTRIPLET"> F  </i>
   <i type="logical" name="LFXCEPS"> F  </i>
   <i type="logical" name="LFXHEG"> F  </i>
   <i type="int" name="NATURALO">     0</i>
   <i type="logical" name="L2ORDER"> F  </i>
   <i type="logical" name="LUSEW"> F  </i>
   <i name="ENCUTGW">     -2.00000000</i>
   <i name="ENCUTGWSOFT">     -2.00000000</i>
   <i name="ENCUTLF">     -1.00000000</i>
   <i type="int" name="LMAXMP2">    -1</i>
   <i name="SCISSOR">      0.00000000</i>
   <i type="int" name="NOMEGA">     0</i>
   <i type="int" name="NOMEGAR">     0</i>
   <i type="int" name="NBANDSGW">    -1</i>
   <i type="int" name="NBANDSO">    -1</i>
   <i type="int" name="NBANDSV">    -1</i>
   <i type="int" name="NELM">   250</i>
   <i type="int" name="NELMHF">     1</i>
   <i type="int" name="DIM">     3</i>
   <i type="int" name="ANTIRES">     0</i>
   <i name="OMEGAMAX">    -30.00000000</i>
   <i name="OMEGAMIN">    -30.00000000</i>
   <i name="OMEGATL">   -200.00000000</i>
   <i type="int" name="OMEGAGRID">     0</i>
   <i name="CSHIFT">     -0.10000000</i>
   <i type="logical" name="SELFENERGY"> F  </i>
   <i type="logical" name="LSPECTRAL"> F  </i>
   <i type="logical" name="LSPECTRALGW"> F  </i>
   <i type="logical" name="LSINGLES"> F  </i>
   <i type="logical" name="LFERMIGW"> F  </i>
   <i type="logical" name="ODDONLYGW"> F  </i>
   <i type="logical" name="EVENONLYGW"> F  </i>
   <i type="int" name="NKREDLFX">     1</i>
   <i type="int" name="NKREDLFY">     1</i>
   <i type="int" name="NKREDLFZ">     1</i>
   <i type="int" name="MAXMEM">  1800</i>
   <i type="int" name="TELESCOPE">     0</i>
   <i type="int" name="TAUPAR">     1</i>
   <i type="int" name="OMEGAPAR">    -1</i>
   <i name="LAMBDA">      1.00000000</i>
  </separator>
  <separator name="External order field" >
   <i name="OFIELD_KAPPA">      0.00000000</i>
   <v name="OFIELD_K">      0.00000000      0.00000000      0.00000000</v>
   <i name="OFIELD_Q6_NEAR">      0.00000000</i>
   <i name="OFIELD_Q6_FAR">      0.00000000</i>
   <i name="OFIELD_A">      0.00000000</i>
  </separator>
 </parameters>
 <atominfo>
  <atoms>       6 </atoms>
  <types>       2 </types>
  <array name="atoms" >
   <dimension dim="1">ion</dimension>
   <field type="string">element</field>
   <field type="int">atomtype</field>
   <set>
    <rc><c>Ge</c><c>   1</c></rc>
    <rc><c>Ge</c><c>   1</c></rc>
    <rc><c>Se</c><c>   2</c></rc>
    <rc><c>Se</c><c>   2</c></rc>
    <rc><c>Se</c><c>   2</c></rc>
    <rc><c>Se</c><c>   2</c></rc>
   </set>
  </array>
  <array name="atomtypes" >
   <dimension dim="1">type</dimension>
   <field type="int">atomspertype</field>
   <field type="string">element</field>
   <field>mass</field>
   <field>valence</field>
   <field type="string">pseudopotential</field>
   <set>
    <rc><c>   2</c><c>Ge</c><c>     72.61000000</c><c>     14.00000000</c><c>  PAW_PBE Ge_d 03Jul2007                </c></rc>
    <rc><c>   4</c><c>Se</c><c>     78.96000000</c><c>      6.00000000</c><c>  PAW_PBE Se 06Sep2000                  </c></rc>
   </set>
  </array>
 </atominfo>
 <structure name="initialpos" >
  <crystal>
   <varray name="basis" >
    <v>       4.90509500       0.09814100       0.00000000 </v>
    <v>       0.11144600       5.57008700       0.00000000 </v>
    <v>       0.00000000       0.00000000      18.07929100 </v>
   </varray>
   <i name="volume">    493.76113856 </i>
   <varray name="rec_basis" >
    <v>       0.20395130      -0.00408065       0.00000000 </v>
    <v>      -0.00359348       0.17960231       0.00000000 </v>
    <v>       0.00000000       0.00000000       0.05531190 </v>
   </varray>
  </crystal>
  <varray name="positions" >
   <v>       0.50000000       0.50000000       0.50000000 </v>
   <v>       0.00000000       0.00000000       0.50000000 </v>
   <v>       0.25000000       0.25000000       0.41502600 </v>
   <v>       0.75000000       0.75000000       0.41502600 </v>
   <v>       0.75000000       0.25000000       0.58497400 </v>
   <v>       0.25000000       0.75000000       0.58497400 </v>
  </varray>
 </structure>
 <calculation>
  <scstep>
   <time name="dav">    2.84    2.84</time>
   <time name="total">    2.88    2.88</time>
   <energy>
    <i name="alphaZ">     46.52257062 </i>
    <i name="ewald">   4988.96196301 </i>
    <i name="hartreedc">  -9776.19344370 </i>
    <i name="XCdc">    142.46534401 </i>
    <i name="pawpsdc">   4514.43351212 </i>
    <i name="pawaedc">  -5329.26418529 </i>
    <i name="eentropy">     -0.00029063 </i>
    <i name="bandstr">   -369.26943516 </i>
    <i name="atom">   6220.98622430 </i>
    <i name="e_fr_energy">    438.64225930 </i>
    <i name="e_wo_entrp">    438.64254993 </i>
    <i name="e_0_energy">    438.64240461 </i>
   </energy>
  </scstep>
  <scstep>
   <time name="dav">    3.03    3.03</time>
   <time name="total">    3.03    3.04</time>
   <energy>
    <i name="e_fr_energy">     44.76055363 </i>
    <i name="e_wo_entrp">     44.76071914 </i>
    <i name="e_0_energy">     44.76063638 </i>
   </energy>
  </scstep>
  <scstep>
   <time name="dav">    3.28    3.28</time>
   <time name="total">    3.28    3.28</time>
   <energy>
    <i name="e_fr_energy">    -21.62816995 </i>
    <i name="e_wo_entrp">    -21.62816995 </i>
    <i name="e_0_energy">    -21.62816995 </i>
   </energy>
  </scstep>
  <scstep>
   <time name="dav">    2.90    2.90</time>
   <time name="total">    2.90    2.90</time>
   <energy>
    <i name="e_fr_energy">    -24.71013369 </i>
    <i name="e_wo_entrp">    -24.71013369 </i>
    <i name="e_0_energy">    -24.71013369 </i>
   </energy>
  </scstep>
  <scstep>
   <time name="dav">    3.47    3.48</time>
   <time name="total">    3.62    3.63</time>
   <energy>
    <i name="e_fr_energy">    -24.81834461 </i>
    <i name="e_wo_entrp">    -24.81834461 </i>
    <i name="e_0_energy">    -24.81834461 </i>
   </energy>
  </scstep>
  <scstep>
   <time name="dav">    3.33    3.33</time>
   <time name="total">    3.51    3.51</time>
   <energy>
    <i name="e_fr_energy">    -24.31516577 </i>
    <i name="e_wo_entrp">    -24.31516577 </i>
    <i name="e_0_energy">    -24.31516577 </i>
   </energy>
  </scstep>
  <scstep>
   <time name="dav">    3.03    3.03</time>
   <time name="total">    3.20    3.20</time>
   <energy>
    <i name="e_fr_energy">    -24.21887643 </i>
    <i name="e_wo_entrp">    -24.21887643 </i>
    <i name="e_0_energy">    -24.21887643 </i>
   </energy>
  </scstep>
  <scstep>
   <time name="dav">    3.20    3.20</time>
   <time name="total">    3.37    3.38</time>
   <energy>
    <i name="e_fr_energy">    -24.21320823 </i>
    <i name="e_wo_entrp">    -24.21320823 </i>
    <i name="e_0_energy">    -24.21320823 </i>
   </energy>
  </scstep>
  <scstep>
   <time name="dav">    3.26    3.26</time>
   <time name="total">    3.43    3.44</time>
   <energy>
    <i name="e_fr_energy">    -24.21266617 </i>
    <i name="e_wo_entrp">    -24.21266617 </i>
    <i name="e_0_energy">    -24.21266617 </i>
   </energy>
  </scstep>
  <scstep>
   <time name="dav">    3.39    3.39</time>
   <time name="total">    3.56    3.56</time>
   <energy>
    <i name="e_fr_energy">    -24.21242802 </i>
    <i name="e_wo_entrp">    -24.21242802 </i>
    <i name="e_0_energy">    -24.21242802 </i>
   </energy>
  </scstep>
  <scstep>
   <time name="dav">    2.78    2.79</time>
   <time name="total">    2.95    2.96</time>
   <energy>
    <i name="e_fr_energy">    -24.21222643 </i>
    <i name="e_wo_entrp">    -24.21222643 </i>
    <i name="e_0_energy">    -24.21222643 </i>
   </energy>
  </scstep>
  <scstep>
   <time name="dav">    2.70    2.70</time>
   <time name="total">    2.87    2.87</time>
   <energy>
    <i name="e_fr_energy">    -24.21232099 </i>
    <i name="e_wo_entrp">    -24.21232099 </i>
    <i name="e_0_energy">    -24.21232099 </i>
   </energy>
  </scstep>
  <scstep>
   <time name="dav">    2.66    2.66</time>
   <time name="total">    2.83    2.84</time>
   <energy>
    <i name="e_fr_energy">    -24.21257436 </i>
    <i name="e_wo_entrp">    -24.21257436 </i>
    <i name="e_0_energy">    -24.21257436 </i>
   </energy>
  </scstep>
  <scstep>
   <time name="dav">    2.52    2.52</time>
   <time name="total">    2.69    2.69</time>
   <energy>
    <i name="e_fr_energy">    -24.21270529 </i>
    <i name="e_wo_entrp">    -24.21270529 </i>
    <i name="e_0_energy">    -24.21270529 </i>
   </energy>
  </scstep>
  <scstep>
   <time name="dav">    2.49    2.49</time>
   <time name="total">    2.66    2.66</time>
   <energy>
    <i name="e_fr_energy">    -24.21276147 </i>
    <i name="e_wo_entrp">    -24.21276147 </i>
    <i name="e_0_energy">    -24.21276147 </i>
   </energy>
  </scstep>
  <scstep>
   <time name="dav">    2.41    2.42</time>
   <time name="total">    2.59    2.59</time>
   <energy>
    <i name="e_fr_energy">    -24.21281114 </i>
    <i name="e_wo_entrp">    -24.21281114 </i>
    <i name="e_0_energy">    -24.21281114 </i>
   </energy>
  </scstep>
  <scstep>
   <time name="dav">    2.27    2.27</time>
   <time name="total">    2.44    2.44</time>
   <energy>
    <i name="e_fr_energy">    -24.21286382 </i>
    <i name="e_wo_entrp">    -24.21286382 </i>
    <i name="e_0_energy">    -24.21286382 </i>
   </energy>
  </scstep>
  <scstep>
   <time name="dav">    2.27    2.28</time>
   <time name="total">    2.45    2.45</time>
   <energy>
    <i name="e_fr_energy">    -24.21290707 </i>
    <i name="e_wo_entrp">    -24.21290707 </i>
    <i name="e_0_energy">    -24.21290707 </i>
   </energy>
  </scstep>
  <scstep>
   <time name="dav">    2.33    2.33</time>
   <time name="total">    2.50    2.50</time>
   <energy>
    <i name="e_fr_energy">    -24.21292065 </i>
    <i name="e_wo_entrp">    -24.21292065 </i>
    <i name="e_0_energy">    -24.21292065 </i>
   </energy>
  </scstep>
  <scstep>
   <time name="dav">    2.33    2.33</time>
   <time name="total">    2.36    2.36</time>
   <energy>
    <i name="alphaZ">     46.52257062 </i>
    <i name="ewald">   4988.96196301 </i>
    <i name="hartreedc">  -9780.87410054 </i>
    <i name="XCdc">    143.00393376 </i>
    <i name="pawpsdc">   5766.72191607 </i>
    <i name="pawaedc">  -6586.87926360 </i>
    <i name="eentropy">     -0.00000000 </i>
    <i name="bandstr">   -822.65616729 </i>
    <i name="atom">   6220.98622430 </i>
    <i name="e_fr_energy">    -24.21292367 </i>
    <i name="e_wo_entrp">    -24.21292367 </i>
    <i name="e_0_energy">    -24.21292367 </i>
   </energy>
  </scstep>
  <structure>
   <crystal>
    <varray name="basis" >
     <v>       4.90509500       0.09814100       0.00000000 </v>
     <v>       0.11144600       5.57008700       0.00000000 </v>
     <v>       0.00000000       0.00000000      18.07929100 </v>
    </varray>
    <i name="volume">    493.76113856 </i>
    <varray name="rec_basis" >
     <v>       0.20395130      -0.00408065       0.00000000 </v>
     <v>      -0.00359348       0.17960231       0.00000000 </v>
     <v>       0.00000000       0.00000000       0.05531190 </v>
    </varray>
   </crystal>
   <varray name="positions" >
    <v>       0.50000000       0.50000000       0.50000000 </v>
    <v>       0.00000000       0.00000000       0.50000000 </v>
    <v>       0.25000000       0.25000000       0.41502600 </v>
    <v>       0.75000000       0.75000000       0.41502600 </v>
    <v>       0.75000000       0.25000000       0.58497400 </v>
    <v>       0.25000000       0.75000000       0.58497400 </v>
   </varray>
  </structure>
  <varray name="forces" >
   <v>      -0.00000000      -0.00000000      -0.39519181 </v>
   <v>       0.00000000      -0.00000000      -0.39519181 </v>
   <v>      -0.00000000      -0.00000000       0.18015579 </v>
   <v>       0.00000000      -0.00000000       0.18015579 </v>
   <v>       0.00000000       0.00000000       0.21503602 </v>
   <v>      -0.00000000       0.00000000       0.21503602 </v>
  </varray>
  <varray name="stress" >
   <v>       0.61825475      -8.23133466       0.00000000 </v>
   <v>      -8.23133461       0.75724142       0.00000000 </v>
   <v>       0.00000000       0.00000000       0.29397471 </v>
  </varray>
  <energy>
   <i name="e_fr_energy">    -24.21292367 </i>
   <i name="e_wo_entrp">    -24.21292367 </i>
   <i name="e_0_energy">     -0.00000000 </i>
  </energy>
  <time name="totalsc">   61.09   61.16</time>
 </calculation>
 <calculation>
  <scstep>
   <time name="dav">    3.05    3.05</time>
   <time name="total">    3.22    3.23</time>
   <energy>
    <i name="alphaZ">     46.52257062 </i>
    <i name="ewald">   4987.26862572 </i>
    <i name="hartreedc">  -9779.29946992 </i>
    <i name="XCdc">    142.99374938 </i>
    <i name="pawpsdc">   5766.70959910 </i>
    <i name="pawaedc">  -6586.86672846 </i>
    <i name="eentropy">     -0.00000000 </i>
    <i name="bandstr">   -822.53275708 </i>
    <i name="atom">   6220.98622430 </i>
    <i name="e_fr_energy">    -24.21818634 </i>
    <i name="e_wo_entrp">    -24.21818634 </i>
    <i name="e_0_energy">    -24.21818634 </i>
   </energy>
  </scstep>
  <scstep>
   <time name="dav">    3.17    3.17</time>
   <time name="total">    3.34    3.34</time>
   <energy>
    <i name="e_fr_energy">    -24.22048358 </i>
    <i name="e_wo_entrp">    -24.22048358 </i>
    <i name="e_0_energy">    -24.22048358 </i>
   </energy>
  </scstep>
  <scstep>
   <time name="dav">    3.44    3.45</time>
   <time name="total">    3.62    3.62</time>
   <energy>
    <i name="e_fr_energy">    -24.22051160 </i>
    <i name="e_wo_entrp">    -24.22051160 </i>
    <i name="e_0_energy">    -24.22051160 </i>
   </energy>
  </scstep>
  <scstep>
   <time name="dav">    3.00    3.00</time>
   <time name="total">    3.17    3.17</time>
   <energy>
    <i name="e_fr_energy">    -24.22048388 </i>
    <i name="e_wo_entrp">    -24.22048388 </i>
    <i name="e_0_energy">    -24.22048388 </i>
   </energy>
  </scstep>
  <scstep>
   <time name="dav">    2.78    2.78</time>
   <time name="total">    2.95    2.95</time>
   <energy>
    <i name="e_fr_energy">    -24.22047267 </i>
    <i name="e_wo_entrp">    -24.22047267 </i>
    <i name="e_0_energy">    -24.22047267 </i>
   </energy>
  </scstep>
  <scstep>
   <time name="dav">    2.40    2.40</time>
   <time name="total">    2.43    2.43</time>
   <energy>
    <i name="alphaZ">     46.52257062 </i>
    <i name="ewald">   4987.26862572 </i>
    <i name="hartreedc">  -9779.28821926 </i>
    <i name="XCdc">    142.99428226 </i>
    <i name="pawpsdc">   5762.27523540 </i>
    <i name="pawaedc">  -6582.40147681 </i>
    <i name="eentropy">     -0.00000000 </i>
    <i name="bandstr">   -822.57771829 </i>
    <i name="atom">   6220.98622430 </i>
    <i name="e_fr_energy">    -24.22047607 </i>
    <i name="e_wo_entrp">    -24.22047607 </i>
    <i name="e_0_energy">    -24.22047607 </i>
   </energy>
  </scstep>
  <structure>
   <crystal>
    <varray name="basis" >
     <v>       4.90509500       0.09814100       0.00000000 </v>
     <v>       0.11144600       5.57008700       0.00000000 </v>
     <v>       0.00000000       0.00000000      18.07929100 </v>
    </varray>
    <i name="volume">    493.76113856 </i>
    <varray name="rec_basis" >
     <v>       0.20395130      -0.00408065       0.00000000 </v>
     <v>      -0.00359348       0.17960231       0.00000000 </v>
     <v>       0.00000000       0.00000000       0.05531190 </v>
    </varray>
   </crystal>
   <varray name="positions" >
    <v>       0.50000000       0.50000000       0.49936728 </v>
    <v>       0.00000000      -0.00000000       0.49936728 </v>
    <v>       0.25000000       0.25000000       0.41531444 </v>
    <v>       0.75000000       0.75000000       0.41531444 </v>
    <v>       0.75000000       0.25000000       0.58531828 </v>
    <v>       0.25000000       0.75000000       0.58531828 </v>
   </varray>
  </structure>
  <varray name="forces" >
   <v>      -0.00000000       0.00000000      -0.04316013 </v>
   <v>      -0.00000000       0.00000000      -0.04316013 </v>
   <v>       0.00000000      -0.00000000       0.02220099 </v>
   <v>       0.00000000      -0.00000000       0.02220099 </v>
   <v>       0.00000000      -0.00000000       0.02095914 </v>
   <v>       0.00000000      -0.00000000       0.02095914 </v>
  </varray>
  <varray name="stress" >
   <v>       0.48341226      -7.11307371       0.00000000 </v>
   <v>      -7.11307367       0.58622013       0.00000000 </v>
   <v>       0.00000000       0.00000000      -0.06556748 </v>
  </varray>
  <energy>
   <i name="e_fr_energy">    -24.22047607 </i>
   <i name="e_wo_entrp">    -24.22047607 </i>
   <i name="e_0_energy">     -0.00000000 </i>
  </energy>
  <time name="totalsc">   20.69   20.71</time>
 </calculation>
 <calculation>
  <scstep>
   <time name="dav">    3.08    3.09</time>
   <time name="total">    3.26    3.26</time>
   <energy>
    <i name="alphaZ">     46.52257062 </i>
    <i name="ewald">   4987.05935700 </i>
    <i name="hartreedc">  -9779.09047262 </i>
    <i name="XCdc">    142.99308416 </i>
    <i name="pawpsdc">   5762.28424687 </i>
    <i name="pawaedc">  -6582.41005638 </i>
    <i name="eentropy">     -0.00000000 </i>
    <i name="bandstr">   -822.56549884 </i>
    <i name="atom">   6220.98622430 </i>
    <i name="e_fr_energy">    -24.22054488 </i>
    <i name="e_wo_entrp">    -24.22054488 </i>
    <i name="e_0_energy">    -24.22054488 </i>
   </energy>
  </scstep>
  <scstep>
   <time name="dav">    3.25    3.25</time>
   <time name="total">    3.42    3.43</time>
   <energy>
    <i name="e_fr_energy">    -24.22058141 </i>
    <i name="e_wo_entrp">    -24.22058141 </i>
    <i name="e_0_energy">    -24.22058141 </i>
   </energy>
  </scstep>
  <scstep>
   <time name="dav">    2.33    2.33</time>
   <time name="total">    2.50    2.50</time>
   <energy>
    <i name="e_fr_energy">    -24.22058238 </i>
    <i name="e_wo_entrp">    -24.22058238 </i>
    <i name="e_0_energy">    -24.22058238 </i>
   </energy>
  </scstep>
  <scstep>
   <time name="dav">    2.29    2.29</time>
   <time name="total">    2.46    2.47</time>
   <energy>
    <i name="e_fr_energy">    -24.22058380 </i>
    <i name="e_wo_entrp">    -24.22058380 </i>
    <i name="e_0_energy">    -24.22058380 </i>
   </energy>
  </scstep>
  <scstep>
   <time name="dav">    2.28    2.28</time>
   <time name="total">    2.45    2.45</time>
   <energy>
    <i name="e_fr_energy">    -24.22058535 </i>
    <i name="e_wo_entrp">    -24.22058535 </i>
    <i name="e_0_energy">    -24.22058535 </i>
   </energy>
  </scstep>
  <scstep>
   <time name="dav">    2.12    2.12</time>
   <time name="total">    2.15    2.15</time>
   <energy>
    <i name="alphaZ">     46.52257062 </i>
    <i name="ewald">   4987.05935700 </i>
    <i name="hartreedc">  -9779.09167820 </i>
    <i name="XCdc">    142.99316790 </i>
    <i name="pawpsdc">   5761.81209280 </i>
    <i name="pawaedc">  -6581.93487775 </i>
    <i name="eentropy">     -0.00000000 </i>
    <i name="bandstr">   -822.56744285 </i>
    <i name="atom">   6220.98622430 </i>
    <i name="e_fr_energy">    -24.22058619 </i>
    <i name="e_wo_entrp">    -24.22058619 </i>
    <i name="e_0_energy">    -24.22058619 </i>
   </energy>
  </scstep>
  <structure>
   <crystal>
    <varray name="basis" >
     <v>       4.90509500       0.09814100       0.00000000 </v>
     <v>       0.11144600       5.57008700       0.00000000 </v>
     <v>       0.00000000       0.00000000      18.07929100 </v>
    </varray>
    <i name="volume">    493.76113856 </i>
    <varray name="rec_basis" >
     <v>       0.20395130      -0.00408065       0.00000000 </v>
     <v>      -0.00359348       0.17960231       0.00000000 </v>
     <v>       0.00000000       0.00000000       0.05531190 </v>
    </varray>
   </crystal>
   <varray name="positions" >
    <v>       0.50000000       0.50000000       0.49929001 </v>
    <v>       0.00000000      -0.00000000       0.49929001 </v>
    <v>       0.25000000       0.25000000       0.41534966 </v>
    <v>       0.75000000       0.75000000       0.41534966 </v>
    <v>       0.75000000       0.25000000       0.58536033 </v>
    <v>       0.25000000       0.75000000       0.58536033 </v>
   </varray>
  </structure>
  <varray name="forces" >
   <v>      -0.00000000       0.00000000       0.00038226 </v>
   <v>       0.00000000       0.00000000       0.00038226 </v>
   <v>       0.00000000      -0.00000000       0.00235438 </v>
   <v>       0.00000000       0.00000000       0.00235438 </v>
   <v>       0.00000000       0.00000000      -0.00273663 </v>
   <v>       0.00000000       0.00000000      -0.00273663 </v>
  </varray>
  <varray name="stress" >
   <v>       0.47605601      -6.99453096       0.00000000 </v>
   <v>      -6.99453094       0.57723596       0.00000000 </v>
   <v>       0.00000000       0.00000000      -0.10731630 </v>
  </varray>
  <energy>
   <i name="e_fr_energy">    -24.22058619 </i>
   <i name="e_wo_entrp">    -24.22058619 </i>
   <i name="e_0_energy">     -0.00000000 </i>
  </energy>
  <time name="totalsc">   18.08   18.11</time>
  <eigenvalues>
   <array>
    <dimension dim="1">band</dimension>
    <dimension dim="2">kpoint</dimension>
    <dimension dim="3">spin</dimension>
    <field>eigene</field>
    <field>occ</field>
    <set>
     <set comment="spin 1">
      <set comment="kpoint 1">
       <r>  -27.7925    1.0000 </r>
       <r>  -27.7842    1.0000 </r>
       <r>  -27.7829    1.0000 </r>
       <r>  -27.7790    1.0000 </r>
       <r>  -27.7744    1.0000 </r>
       <r>  -27.7634    1.0000 </r>
       <r>  -27.7590    1.0000 </r>
       <r>  -27.7562    1.0000 </r>
       <r>  -27.7442    1.0000 </r>
       <r>  -27.7386    1.0000 </r>
       <r>  -16.9077    1.0000 </r>
       <r>  -15.3928    1.0000 </r>
       <r>  -14.9666    1.0000 </r>
       <r>  -14.7487    1.0000 </r>
       <r>  -11.7834    1.0000 </r>
       <r>   -9.2233    1.0000 </r>
       <r>   -7.4547    1.0000 </r>
       <r>   -5.9187    1.0000 </r>
       <r>   -5.5515    1.0000 </r>
       <r>   -5.4666    1.0000 </r>
       <r>   -5.1426    1.0000 </r>
       <r>   -5.0808    1.0000 </r>
       <r>   -4.6525    1.0000 </r>
       <r>   -4.1438    1.0000 </r>
       <r>   -2.9936    1.0000 </r>
       <r>   -2.6160    1.0000 </r>
       <r>   -1.9174    0.0000 </r>
       <r>   -1.3788    0.0000 </r>
       <r>   -0.8033    0.0000 </r>
       <r>    0.1202    0.0000 </r>
       <r>    0.6871    0.0000 </r>
       <r>    1.9495    0.0000 </r>
      </set>
      <set comment="kpoint 2">
       <r>  -27.7923    1.0000 </r>
       <r>  -27.7841    1.0000 </r>
       <r>  -27.7828    1.0000 </r>
       <r>  -27.7791    1.0000 </r>
       <r>  -27.7745    1.0000 </r>
       <r>  -27.7633    1.0000 </r>
       <r>  -27.7591    1.0000 </r>
       <r>  -27.7565    1.0000 </r>
       <r>  -27.7441    1.0000 </r>
       <r>  -27.7386    1.0000 </r>
       <r>  -16.8910    1.0000 </r>
       <r>  -15.3864    1.0000 </r>
       <r>  -14.9706    1.0000 </r>
       <r>  -14.7866    1.0000 </r>
       <r>  -11.7404    1.0000 </r>
       <r>   -9.2385    1.0000 </r>
       <r>   -7.4535    1.0000 </r>
       <r>   -5.9166    1.0000 </r>
       <r>   -5.6169    1.0000 </r>
       <r>   -5.5566    1.0000 </r>
       <r>   -5.1561    1.0000 </r>
       <r>   -5.0403    1.0000 </r>
       <r>   -4.6480    1.0000 </r>
       <r>   -4.1290    1.0000 </r>
       <r>   -3.0356    1.0000 </r>
       <r>   -2.6649    1.0000 </r>
       <r>   -1.8181    0.0000 </r>
       <r>   -1.3747    0.0000 </r>
       <r>   -0.6918    0.0000 </r>
       <r>    0.1691    0.0000 </r>
       <r>    0.7342    0.0000 </r>
       <r>    1.9784    0.0000 </r>
      </set>
      <set comment="kpoint 3">
       <r>  -27.7919    1.0000 </r>
       <r>  -27.7838    1.0000 </r>
       <r>  -27.7827    1.0000 </r>
       <r>  -27.7791    1.0000 </r>
       <r>  -27.7746    1.0000 </r>
       <r>  -27.7631    1.0000 </r>
       <r>  -27.7593    1.0000 </r>
       <r>  -27.7571    1.0000 </r>
       <r>  -27.7440    1.0000 </r>
       <r>  -27.7388    1.0000 </r>
       <r>  -16.8413    1.0000 </r>
       <r>  -15.3678    1.0000 </r>
       <r>  -14.9881    1.0000 </r>
       <r>  -14.8881    1.0000 </r>
       <r>  -11.6182    1.0000 </r>
       <r>   -9.2859    1.0000 </r>
       <r>   -7.4486    1.0000 </r>
       <r>   -5.9133    1.0000 </r>
       <r>   -5.7890    1.0000 </r>
       <r>   -5.6937    1.0000 </r>
       <r>   -5.3442    1.0000 </r>
       <r>   -4.8637    1.0000 </r>
       <r>   -4.6542    1.0000 </r>
       <r>   -4.0865    1.0000 </r>
       <r>   -3.1497    1.0000 </r>
       <r>   -2.7892    1.0000 </r>
       <r>   -1.5605    0.0000 </r>
       <r>   -1.3507    0.0000 </r>
       <r>   -0.3811    0.0000 </r>
       <r>    0.3055    0.0000 </r>
       <r>    0.8646    0.0000 </r>
       <r>    1.9802    0.0000 </r>
      </set>
      <set comment="kpoint 4">
       <r>  -27.7913    1.0000 </r>
       <r>  -27.7835    1.0000 </r>
       <r>  -27.7824    1.0000 </r>
       <r>  -27.7791    1.0000 </r>
       <r>  -27.7747    1.0000 </r>
       <r>  -27.7628    1.0000 </r>
       <r>  -27.7600    1.0000 </r>
       <r>  -27.7580    1.0000 </r>
       <r>  -27.7437    1.0000 </r>
       <r>  -27.7391    1.0000 </r>
       <r>  -16.7592    1.0000 </r>
       <r>  -15.3380    1.0000 </r>
       <r>  -15.0855    1.0000 </r>
       <r>  -14.9701    1.0000 </r>
       <r>  -11.4328    1.0000 </r>
       <r>   -9.3701    1.0000 </r>
       <r>   -7.4361    1.0000 </r>
       <r>   -6.0223    1.0000 </r>
       <r>   -5.9408    1.0000 </r>
       <r>   -5.7660    1.0000 </r>
       <r>   -5.5775    1.0000 </r>
       <r>   -4.6945    1.0000 </r>
       <r>   -4.6936    1.0000 </r>
       <r>   -4.0213    1.0000 </r>
       <r>   -3.3151    1.0000 </r>
       <r>   -2.9496    1.0000 </r>
       <r>   -1.2830    0.0000 </r>
       <r>   -1.2180    0.0000 </r>
       <r>    0.0775    0.0000 </r>
       <r>    0.5042    0.0000 </r>
       <r>    1.0449    0.0000 </r>
       <r>    1.8241    0.0000 </r>
      </set>
      <set comment="kpoint 5">
       <r>  -27.7905    1.0000 </r>
       <r>  -27.7836    1.0000 </r>
       <r>  -27.7820    1.0000 </r>
       <r>  -27.7790    1.0000 </r>
       <r>  -27.7744    1.0000 </r>
       <r>  -27.7624    1.0000 </r>
       <r>  -27.7612    1.0000 </r>
       <r>  -27.7587    1.0000 </r>
       <r>  -27.7433    1.0000 </r>
       <r>  -27.7395    1.0000 </r>
       <r>  -16.6463    1.0000 </r>
       <r>  -15.2991    1.0000 </r>
       <r>  -15.2770    1.0000 </r>
       <r>  -14.9999    1.0000 </r>
       <r>  -11.2024    1.0000 </r>
       <r>   -9.4961    1.0000 </r>
       <r>   -7.4092    1.0000 </r>
       <r>   -6.2811    1.0000 </r>
       <r>   -6.0202    1.0000 </r>
       <r>   -5.7990    1.0000 </r>
       <r>   -5.7313    1.0000 </r>
       <r>   -4.7731    1.0000 </r>
       <r>   -4.5526    1.0000 </r>
       <r>   -3.9391    1.0000 </r>
       <r>   -3.5116    1.0000 </r>
       <r>   -3.1136    1.0000 </r>
       <r>   -1.1554    0.0000 </r>
       <r>   -0.8623    0.0000 </r>
       <r>    0.6311    0.0000 </r>
       <r>    0.7342    0.0000 </r>
       <r>    1.2220    0.0000 </r>
       <r>    1.6716    0.0000 </r>
      </set>
      <set comment="kpoint 6">
       <r>  -27.7895    1.0000 </r>
       <r>  -27.7841    1.0000 </r>
       <r>  -27.7815    1.0000 </r>
       <r>  -27.7790    1.0000 </r>
       <r>  -27.7735    1.0000 </r>
       <r>  -27.7631    1.0000 </r>
       <r>  -27.7619    1.0000 </r>
       <r>  -27.7592    1.0000 </r>
       <r>  -27.7428    1.0000 </r>
       <r>  -27.7399    1.0000 </r>
       <r>  -16.5046    1.0000 </r>
       <r>  -15.4941    1.0000 </r>
       <r>  -15.2537    1.0000 </r>
       <r>  -15.0302    1.0000 </r>
       <r>  -10.9431    1.0000 </r>
       <r>   -9.6664    1.0000 </r>
       <r>   -7.3588    1.0000 </r>
       <r>   -6.5406    1.0000 </r>
       <r>   -6.0961    1.0000 </r>
       <r>   -5.9738    1.0000 </r>
       <r>   -5.6389    1.0000 </r>
       <r>   -4.8901    1.0000 </r>
       <r>   -4.4365    1.0000 </r>
       <r>   -3.8448    1.0000 </r>
       <r>   -3.7174    1.0000 </r>
       <r>   -3.2641    1.0000 </r>
       <r>   -0.9710    0.0000 </r>
       <r>   -0.5664    0.0000 </r>
       <r>    0.9601    0.0000 </r>
       <r>    1.2071    0.0000 </r>
       <r>    1.3434    0.0000 </r>
       <r>    1.5639    0.0000 </r>
      </set>
      <set comment="kpoint 7">
       <r>  -27.7884    1.0000 </r>
       <r>  -27.7850    1.0000 </r>
       <r>  -27.7809    1.0000 </r>
       <r>  -27.7793    1.0000 </r>
       <r>  -27.7720    1.0000 </r>
       <r>  -27.7653    1.0000 </r>
       <r>  -27.7614    1.0000 </r>
       <r>  -27.7598    1.0000 </r>
       <r>  -27.7423    1.0000 </r>
       <r>  -27.7405    1.0000 </r>
       <r>  -16.3367    1.0000 </r>
       <r>  -15.7181    1.0000 </r>
       <r>  -15.2049    1.0000 </r>
       <r>  -15.0663    1.0000 </r>
       <r>  -10.6685    1.0000 </r>
       <r>   -9.8782    1.0000 </r>
       <r>   -7.2760    1.0000 </r>
       <r>   -6.7810    1.0000 </r>
       <r>   -6.1477    1.0000 </r>
       <r>   -6.0904    1.0000 </r>
       <r>   -5.5115    1.0000 </r>
       <r>   -5.0358    1.0000 </r>
       <r>   -4.3314    1.0000 </r>
       <r>   -3.9116    1.0000 </r>
       <r>   -3.7421    1.0000 </r>
       <r>   -3.3979    1.0000 </r>
       <r>   -0.7540    0.0000 </r>
       <r>   -0.4023    0.0000 </r>
       <r>    1.1450    0.0000 </r>
       <r>    1.3959    0.0000 </r>
       <r>    1.4045    0.0000 </r>
       <r>    1.4554    0.0000 </r>
      </set>
      <set comment="kpoint 8">
       <r>  -27.7872    1.0000 </r>
       <r>  -27.7860    1.0000 </r>
       <r>  -27.7803    1.0000 </r>
       <r>  -27.7798    1.0000 </r>
       <r>  -27.7699    1.0000 </r>
       <r>  -27.7676    1.0000 </r>
       <r>  -27.7608    1.0000 </r>
       <r>  -27.7603    1.0000 </r>
       <r>  -27.7417    1.0000 </r>
       <r>  -27.7411    1.0000 </r>
       <r>  -16.1463    1.0000 </r>
       <r>  -15.9381    1.0000 </r>
       <r>  -15.1555    1.0000 </r>
       <r>  -15.1086    1.0000 </r>
       <r>  -10.3912    1.0000 </r>
       <r>  -10.1236    1.0000 </r>
       <r>   -7.1535    1.0000 </r>
       <r>   -6.9879    1.0000 </r>
       <r>   -6.1685    1.0000 </r>
       <r>   -6.1524    1.0000 </r>
       <r>   -5.3603    1.0000 </r>
       <r>   -5.1973    1.0000 </r>
       <r>   -4.2177    1.0000 </r>
       <r>   -4.0799    1.0000 </r>
       <r>   -3.6334    1.0000 </r>
       <r>   -3.5194    1.0000 </r>
       <r>   -0.5462    0.0000 </r>
       <r>   -0.4064    0.0000 </r>
       <r>    1.2671    0.0000 </r>
       <r>    1.3463    0.0000 </r>
       <r>    1.4085    0.0000 </r>
       <r>    1.4131    0.0000 </r>
      </set>
      <set comment="kpoint 9">
       <r>  -27.7923    1.0000 </r>
       <r>  -27.7841    1.0000 </r>
       <r>  -27.7828    1.0000 </r>
       <r>  -27.7790    1.0000 </r>
       <r>  -27.7745    1.0000 </r>
       <r>  -27.7633    1.0000 </r>
       <r>  -27.7591    1.0000 </r>
       <r>  -27.7565    1.0000 </r>
       <r>  -27.7441    1.0000 </r>
       <r>  -27.7387    1.0000 </r>
       <r>  -16.8889    1.0000 </r>
       <r>  -15.3839    1.0000 </r>
       <r>  -15.0169    1.0000 </r>
       <r>  -14.7586    1.0000 </r>
       <r>  -11.7201    1.0000 </r>
       <r>   -9.2410    1.0000 </r>
       <r>   -7.4414    1.0000 </r>
       <r>   -5.9386    1.0000 </r>
       <r>   -5.6072    1.0000 </r>
       <r>   -5.4622    1.0000 </r>
       <r>   -5.1716    1.0000 </r>
       <r>   -5.1070    1.0000 </r>
       <r>   -4.6471    1.0000 </r>
       <r>   -4.1138    1.0000 </r>
       <r>   -3.0354    1.0000 </r>
       <r>   -2.6758    1.0000 </r>
       <r>   -1.8014    0.0000 </r>
       <r>   -1.3557    0.0000 </r>
       <r>   -0.6713    0.0000 </r>
       <r>    0.1396    0.0000 </r>
       <r>    0.7200    0.0000 </r>
       <r>    1.9766    0.0000 </r>
      </set>
      <set comment="kpoint 10">
       <r>  -27.7925    1.0000 </r>
       <r>  -27.7839    1.0000 </r>
       <r>  -27.7826    1.0000 </r>
       <r>  -27.7790    1.0000 </r>
       <r>  -27.7747    1.0000 </r>
       <r>  -27.7633    1.0000 </r>
       <r>  -27.7593    1.0000 </r>
       <r>  -27.7565    1.0000 </r>
       <r>  -27.7441    1.0000 </r>
       <r>  -27.7387    1.0000 </r>
       <r>  -16.8756    1.0000 </r>
       <r>  -15.3797    1.0000 </r>
       <r>  -15.0085    1.0000 </r>
       <r>  -14.7948    1.0000 </r>
       <r>  -11.6889    1.0000 </r>
       <r>   -9.2659    1.0000 </r>
       <r>   -7.4327    1.0000 </r>
       <r>   -5.9767    1.0000 </r>
       <r>   -5.7766    1.0000 </r>
       <r>   -5.5053    1.0000 </r>
       <r>   -5.0758    1.0000 </r>
       <r>   -5.0216    1.0000 </r>
       <r>   -4.6624    1.0000 </r>
       <r>   -4.0995    1.0000 </r>
       <r>   -3.1575    1.0000 </r>
       <r>   -2.6051    1.0000 </r>
       <r>   -1.6553    0.0000 </r>
       <r>   -1.3498    0.0000 </r>
       <r>   -0.6653    0.0000 </r>
       <r>    0.1836    0.0000 </r>
       <r>    0.7534    0.0000 </r>
       <r>    1.9255    0.0000 </r>
      </set>
      <set comment="kpoint 11">
       <r>  -27.7923    1.0000 </r>
       <r>  -27.7835    1.0000 </r>
       <r>  -27.7822    1.0000 </r>
       <r>  -27.7791    1.0000 </r>
       <r>  -27.7750    1.0000 </r>
       <r>  -27.7631    1.0000 </r>
       <r>  -27.7598    1.0000 </r>
       <r>  -27.7568    1.0000 </r>
       <r>  -27.7439    1.0000 </r>
       <r>  -27.7388    1.0000 </r>
       <r>  -16.8297    1.0000 </r>
       <r>  -15.3634    1.0000 </r>
       <r>  -15.0129    1.0000 </r>
       <r>  -14.8921    1.0000 </r>
       <r>  -11.5833    1.0000 </r>
       <r>   -9.3254    1.0000 </r>
       <r>   -7.4167    1.0000 </r>
       <r>   -6.0331    1.0000 </r>
       <r>   -6.0001    1.0000 </r>
       <r>   -5.5857    1.0000 </r>
       <r>   -5.1313    1.0000 </r>
       <r>   -4.8557    1.0000 </r>
       <r>   -4.6862    1.0000 </r>
       <r>   -4.0564    1.0000 </r>
       <r>   -3.3158    1.0000 </r>
       <r>   -2.6318    1.0000 </r>
       <r>   -1.4297    0.0000 </r>
       <r>   -1.3255    0.0000 </r>
       <r>   -0.4082    0.0000 </r>
       <r>    0.3138    0.0000 </r>
       <r>    0.8695    0.0000 </r>
       <r>    1.7855    0.0000 </r>
      </set>
      <set comment="kpoint 12">
       <r>  -27.7920    1.0000 </r>
       <r>  -27.7829    1.0000 </r>
       <r>  -27.7817    1.0000 </r>
       <r>  -27.7793    1.0000 </r>
       <r>  -27.7751    1.0000 </r>
       <r>  -27.7628    1.0000 </r>
       <r>  -27.7605    1.0000 </r>
       <r>  -27.7574    1.0000 </r>
       <r>  -27.7437    1.0000 </r>
       <r>  -27.7390    1.0000 </r>
       <r>  -16.7520    1.0000 </r>
       <r>  -15.3363    1.0000 </r>
       <r>  -15.0794    1.0000 </r>
       <r>  -14.9876    1.0000 </r>
       <r>  -11.4157    1.0000 </r>
       <r>   -9.4226    1.0000 </r>
       <r>   -7.3934    1.0000 </r>
       <r>   -6.2292    1.0000 </r>
       <r>   -6.1001    1.0000 </r>
       <r>   -5.6230    1.0000 </r>
       <r>   -5.3058    1.0000 </r>
       <r>   -4.7402    1.0000 </r>
       <r>   -4.6981    1.0000 </r>
       <r>   -3.9868    1.0000 </r>
       <r>   -3.4864    1.0000 </r>
       <r>   -2.7384    1.0000 </r>
       <r>   -1.2623    0.0000 </r>
       <r>   -1.1398    0.0000 </r>
       <r>    0.0334    0.0000 </r>
       <r>    0.5051    0.0000 </r>
       <r>    1.0391    0.0000 </r>
       <r>    1.6307    0.0000 </r>
      </set>
      <set comment="kpoint 13">
       <r>  -27.7914    1.0000 </r>
       <r>  -27.7826    1.0000 </r>
       <r>  -27.7812    1.0000 </r>
       <r>  -27.7796    1.0000 </r>
       <r>  -27.7749    1.0000 </r>
       <r>  -27.7624    1.0000 </r>
       <r>  -27.7618    1.0000 </r>
       <r>  -27.7580    1.0000 </r>
       <r>  -27.7433    1.0000 </r>
       <r>  -27.7394    1.0000 </r>
       <r>  -16.6439    1.0000 </r>
       <r>  -15.3002    1.0000 </r>
       <r>  -15.2594    1.0000 </r>
       <r>  -15.0135    1.0000 </r>
       <r>  -11.2014    1.0000 </r>
       <r>   -9.5600    1.0000 </r>
       <r>   -7.3602    1.0000 </r>
       <r>   -6.4376    1.0000 </r>
       <r>   -6.1572    1.0000 </r>
       <r>   -5.6134    1.0000 </r>
       <r>   -5.5353    1.0000 </r>
       <r>   -4.8365    1.0000 </r>
       <r>   -4.5677    1.0000 </r>
       <r>   -3.8975    1.0000 </r>
       <r>   -3.6519    1.0000 </r>
       <r>   -2.8938    1.0000 </r>
       <r>   -1.1455    0.0000 </r>
       <r>   -0.8290    0.0000 </r>
       <r>    0.5884    0.0000 </r>
       <r>    0.7240    0.0000 </r>
       <r>    1.2136    0.0000 </r>
       <r>    1.5026    0.0000 </r>
      </set>
      <set comment="kpoint 14">
       <r>  -27.7906    1.0000 </r>
       <r>  -27.7828    1.0000 </r>
       <r>  -27.7805    1.0000 </r>
       <r>  -27.7800    1.0000 </r>
       <r>  -27.7740    1.0000 </r>
       <r>  -27.7634    1.0000 </r>
       <r>  -27.7619    1.0000 </r>
       <r>  -27.7587    1.0000 </r>
       <r>  -27.7429    1.0000 </r>
       <r>  -27.7398    1.0000 </r>
       <r>  -16.5076    1.0000 </r>
       <r>  -15.4703    1.0000 </r>
       <r>  -15.2575    1.0000 </r>
       <r>  -15.0372    1.0000 </r>
       <r>  -10.9549    1.0000 </r>
       <r>   -9.7366    1.0000 </r>
       <r>   -7.3114    1.0000 </r>
       <r>   -6.6178    1.0000 </r>
       <r>   -6.1906    1.0000 </r>
       <r>   -5.7670    1.0000 </r>
       <r>   -5.5632    1.0000 </r>
       <r>   -4.9661    1.0000 </r>
       <r>   -4.4599    1.0000 </r>
       <r>   -3.8050    1.0000 </r>
       <r>   -3.7965    1.0000 </r>
       <r>   -3.0694    1.0000 </r>
       <r>   -0.9794    0.0000 </r>
       <r>   -0.5659    0.0000 </r>
       <r>    0.9334    0.0000 </r>
       <r>    1.2100    0.0000 </r>
       <r>    1.3406    0.0000 </r>
       <r>    1.4296    0.0000 </r>
      </set>
      <set comment="kpoint 15">
       <r>  -27.7897    1.0000 </r>
       <r>  -27.7835    1.0000 </r>
       <r>  -27.7804    1.0000 </r>
       <r>  -27.7799    1.0000 </r>
       <r>  -27.7725    1.0000 </r>
       <r>  -27.7654    1.0000 </r>
       <r>  -27.7614    1.0000 </r>
       <r>  -27.7593    1.0000 </r>
       <r>  -27.7423    1.0000 </r>
       <r>  -27.7403    1.0000 </r>
       <r>  -16.3460    1.0000 </r>
       <r>  -15.6903    1.0000 </r>
       <r>  -15.2109    1.0000 </r>
       <r>  -15.0676    1.0000 </r>
       <r>  -10.6891    1.0000 </r>
       <r>   -9.9470    1.0000 </r>
       <r>   -7.2396    1.0000 </r>
       <r>   -6.7768    1.0000 </r>
       <r>   -6.1967    1.0000 </r>
       <r>   -5.9615    1.0000 </r>
       <r>   -5.4758    1.0000 </r>
       <r>   -5.1130    1.0000 </r>
       <r>   -4.3598    1.0000 </r>
       <r>   -3.9458    1.0000 </r>
       <r>   -3.6894    1.0000 </r>
       <r>   -3.2446    1.0000 </r>
       <r>   -0.7897    0.0000 </r>
       <r>   -0.4173    0.0000 </r>
       <r>    1.0972    0.0000 </r>
       <r>    1.3990    0.0000 </r>
       <r>    1.4186    0.0000 </r>
       <r>    1.5816    0.0000 </r>
      </set>
      <set comment="kpoint 16">
       <r>  -27.7886    1.0000 </r>
       <r>  -27.7845    1.0000 </r>
       <r>  -27.7809    1.0000 </r>
       <r>  -27.7792    1.0000 </r>
       <r>  -27.7705    1.0000 </r>
       <r>  -27.7675    1.0000 </r>
       <r>  -27.7609    1.0000 </r>
       <r>  -27.7599    1.0000 </r>
       <r>  -27.7418    1.0000 </r>
       <r>  -27.7409    1.0000 </r>
       <r>  -16.1629    1.0000 </r>
       <r>  -15.9080    1.0000 </r>
       <r>  -15.1632    1.0000 </r>
       <r>  -15.1050    1.0000 </r>
       <r>  -10.4160    1.0000 </r>
       <r>  -10.1822    1.0000 </r>
       <r>   -7.1373    1.0000 </r>
       <r>   -6.9245    1.0000 </r>
       <r>   -6.1756    1.0000 </r>
       <r>   -6.0950    1.0000 </r>
       <r>   -5.3552    1.0000 </r>
       <r>   -5.2621    1.0000 </r>
       <r>   -4.2509    1.0000 </r>
       <r>   -4.0743    1.0000 </r>
       <r>   -3.5789    1.0000 </r>
       <r>   -3.4086    1.0000 </r>
       <r>   -0.6220    0.0000 </r>
       <r>   -0.4128    0.0000 </r>
       <r>    1.1938    0.0000 </r>
       <r>    1.3974    0.0000 </r>
       <r>    1.4132    0.0000 </r>
       <r>    1.4678    0.0000 </r>
      </set>
      <set comment="kpoint 17">
       <r>  -27.7876    1.0000 </r>
       <r>  -27.7857    1.0000 </r>
       <r>  -27.7814    1.0000 </r>
       <r>  -27.7786    1.0000 </r>
       <r>  -27.7697    1.0000 </r>
       <r>  -27.7682    1.0000 </r>
       <r>  -27.7605    1.0000 </r>
       <r>  -27.7604    1.0000 </r>
       <r>  -27.7415    1.0000 </r>
       <r>  -27.7412    1.0000 </r>
       <r>  -16.1152    1.0000 </r>
       <r>  -15.9635    1.0000 </r>
       <r>  -15.1481    1.0000 </r>
       <r>  -15.1167    1.0000 </r>
       <r>  -10.4324    1.0000 </r>
       <r>  -10.1483    1.0000 </r>
       <r>   -7.0628    1.0000 </r>
       <r>   -6.9994    1.0000 </r>
       <r>   -6.1619    1.0000 </r>
       <r>   -6.1246    1.0000 </r>
       <r>   -5.4032    1.0000 </r>
       <r>   -5.2096    1.0000 </r>
       <r>   -4.1889    1.0000 </r>
       <r>   -4.1203    1.0000 </r>
       <r>   -3.5581    1.0000 </r>
       <r>   -3.4664    1.0000 </r>
       <r>   -0.5396    0.0000 </r>
       <r>   -0.5304    0.0000 </r>
       <r>    1.2289    0.0000 </r>
       <r>    1.2529    0.0000 </r>
       <r>    1.4362    0.0000 </r>
       <r>    1.5008    0.0000 </r>
      </set>
      <set comment="kpoint 18">
       <r>  -27.7869    1.0000 </r>
       <r>  -27.7865    1.0000 </r>
       <r>  -27.7819    1.0000 </r>
       <r>  -27.7781    1.0000 </r>
       <r>  -27.7716    1.0000 </r>
       <r>  -27.7659    1.0000 </r>
       <r>  -27.7611    1.0000 </r>
       <r>  -27.7599    1.0000 </r>
       <r>  -27.7421    1.0000 </r>
       <r>  -27.7406    1.0000 </r>
       <r>  -16.3056    1.0000 </r>
       <r>  -15.7543    1.0000 </r>
       <r>  -15.1947    1.0000 </r>
       <r>  -15.0730    1.0000 </r>
       <r>  -10.6875    1.0000 </r>
       <r>   -9.8993    1.0000 </r>
       <r>   -7.1845    1.0000 </r>
       <r>   -6.8228    1.0000 </r>
       <r>   -6.1699    1.0000 </r>
       <r>   -6.0387    1.0000 </r>
       <r>   -5.5304    1.0000 </r>
       <r>   -5.0527    1.0000 </r>
       <r>   -4.2911    1.0000 </r>
       <r>   -3.9605    1.0000 </r>
       <r>   -3.6937    1.0000 </r>
       <r>   -3.3524    1.0000 </r>
       <r>   -0.7197    0.0000 </r>
       <r>   -0.6055    0.0000 </r>
       <r>    1.1025    0.0000 </r>
       <r>    1.2474    0.0000 </r>
       <r>    1.4995    0.0000 </r>
       <r>    1.5044    0.0000 </r>
      </set>
      <set comment="kpoint 19">
       <r>  -27.7882    1.0000 </r>
       <r>  -27.7855    1.0000 </r>
       <r>  -27.7823    1.0000 </r>
       <r>  -27.7779    1.0000 </r>
       <r>  -27.7732    1.0000 </r>
       <r>  -27.7636    1.0000 </r>
       <r>  -27.7617    1.0000 </r>
       <r>  -27.7595    1.0000 </r>
       <r>  -27.7427    1.0000 </r>
       <r>  -27.7401    1.0000 </r>
       <r>  -16.4743    1.0000 </r>
       <r>  -15.5445    1.0000 </r>
       <r>  -15.2418    1.0000 </r>
       <r>  -15.0317    1.0000 </r>
       <r>  -10.9382    1.0000 </r>
       <r>   -9.6820    1.0000 </r>
       <r>   -7.2826    1.0000 </r>
       <r>   -6.6069    1.0000 </r>
       <r>   -6.1291    1.0000 </r>
       <r>   -5.9152    1.0000 </r>
       <r>   -5.6396    1.0000 </r>
       <r>   -4.9030    1.0000 </r>
       <r>   -4.3907    1.0000 </r>
       <r>   -3.8148    1.0000 </r>
       <r>   -3.7687    1.0000 </r>
       <r>   -3.2378    1.0000 </r>
       <r>   -0.9282    0.0000 </r>
       <r>   -0.8278    0.0000 </r>
       <r>    0.9240    0.0000 </r>
       <r>    1.2480    0.0000 </r>
       <r>    1.4365    0.0000 </r>
       <r>    1.5473    0.0000 </r>
      </set>
      <set comment="kpoint 20">
       <r>  -27.7894    1.0000 </r>
       <r>  -27.7848    1.0000 </r>
       <r>  -27.7826    1.0000 </r>
       <r>  -27.7781    1.0000 </r>
       <r>  -27.7741    1.0000 </r>
       <r>  -27.7622    1.0000 </r>
       <r>  -27.7615    1.0000 </r>
       <r>  -27.7592    1.0000 </r>
       <r>  -27.7432    1.0000 </r>
       <r>  -27.7396    1.0000 </r>
       <r>  -16.6175    1.0000 </r>
       <r>  -15.3475    1.0000 </r>
       <r>  -15.2864    1.0000 </r>
       <r>  -14.9897    1.0000 </r>
       <r>  -11.1747    1.0000 </r>
       <r>   -9.5066    1.0000 </r>
       <r>   -7.3545    1.0000 </r>
       <r>   -6.3529    1.0000 </r>
       <r>   -6.0476    1.0000 </r>
       <r>   -5.7616    1.0000 </r>
       <r>   -5.7265    1.0000 </r>
       <r>   -4.7798    1.0000 </r>
       <r>   -4.5049    1.0000 </r>
       <r>   -3.9187    1.0000 </r>
       <r>   -3.5474    1.0000 </r>
       <r>   -3.1265    1.0000 </r>
       <r>   -1.1432    0.0000 </r>
       <r>   -1.1131    0.0000 </r>
       <r>    0.7179    0.0000 </r>
       <r>    0.9241    0.0000 </r>
       <r>    1.2993    0.0000 </r>
       <r>    1.5675    0.0000 </r>
      </set>
      <set comment="kpoint 21">
       <r>  -27.7904    1.0000 </r>
       <r>  -27.7843    1.0000 </r>
       <r>  -27.7828    1.0000 </r>
       <r>  -27.7785    1.0000 </r>
       <r>  -27.7744    1.0000 </r>
       <r>  -27.7627    1.0000 </r>
       <r>  -27.7598    1.0000 </r>
       <r>  -27.7588    1.0000 </r>
       <r>  -27.7436    1.0000 </r>
       <r>  -27.7392    1.0000 </r>
       <r>  -16.7323    1.0000 </r>
       <r>  -15.3252    1.0000 </r>
       <r>  -15.1857    1.0000 </r>
       <r>  -14.9366    1.0000 </r>
       <r>  -11.3857    1.0000 </r>
       <r>   -9.3776    1.0000 </r>
       <r>   -7.4021    1.0000 </r>
       <r>   -6.0688    1.0000 </r>
       <r>   -5.9413    1.0000 </r>
       <r>   -5.7790    1.0000 </r>
       <r>   -5.6004    1.0000 </r>
       <r>   -4.6961    1.0000 </r>
       <r>   -4.6486    1.0000 </r>
       <r>   -4.0020    1.0000 </r>
       <r>   -3.3070    1.0000 </r>
       <r>   -3.0282    1.0000 </r>
       <r>   -1.4658    0.0000 </r>
       <r>   -1.2467    0.0000 </r>
       <r>    0.4287    0.0000 </r>
       <r>    0.5068    0.0000 </r>
       <r>    1.1092    0.0000 </r>
       <r>    1.7168    0.0000 </r>
      </set>
      <set comment="kpoint 22">
       <r>  -27.7913    1.0000 </r>
       <r>  -27.7841    1.0000 </r>
       <r>  -27.7829    1.0000 </r>
       <r>  -27.7789    1.0000 </r>
       <r>  -27.7744    1.0000 </r>
       <r>  -27.7630    1.0000 </r>
       <r>  -27.7592    1.0000 </r>
       <r>  -27.7579    1.0000 </r>
       <r>  -27.7439    1.0000 </r>
       <r>  -27.7389    1.0000 </r>
       <r>  -16.8167    1.0000 </r>
       <r>  -15.3557    1.0000 </r>
       <r>  -15.0854    1.0000 </r>
       <r>  -14.8609    1.0000 </r>
       <r>  -11.5573    1.0000 </r>
       <r>   -9.2935    1.0000 </r>
       <r>   -7.4295    1.0000 </r>
       <r>   -5.8921    1.0000 </r>
       <r>   -5.7798    1.0000 </r>
       <r>   -5.7241    1.0000 </r>
       <r>   -5.4650    1.0000 </r>
       <r>   -4.8219    1.0000 </r>
       <r>   -4.6536    1.0000 </r>
       <r>   -4.0628    1.0000 </r>
       <r>   -3.0739    1.0000 </r>
       <r>   -2.9547    1.0000 </r>
       <r>   -1.7168    0.0000 </r>
       <r>   -1.3217    0.0000 </r>
       <r>   -0.0492    0.0000 </r>
       <r>    0.3209    0.0000 </r>
       <r>    0.9187    0.0000 </r>
       <r>    1.8786    0.0000 </r>
      </set>
      <set comment="kpoint 23">
       <r>  -27.7919    1.0000 </r>
       <r>  -27.7841    1.0000 </r>
       <r>  -27.7829    1.0000 </r>
       <r>  -27.7790    1.0000 </r>
       <r>  -27.7744    1.0000 </r>
       <r>  -27.7632    1.0000 </r>
       <r>  -27.7590    1.0000 </r>
       <r>  -27.7570    1.0000 </r>
       <r>  -27.7441    1.0000 </r>
       <r>  -27.7387    1.0000 </r>
       <r>  -16.8691    1.0000 </r>
       <r>  -15.3757    1.0000 </r>
       <r>  -15.0384    1.0000 </r>
       <r>  -14.7873    1.0000 </r>
       <r>  -11.6737    1.0000 </r>
       <r>   -9.2495    1.0000 </r>
       <r>   -7.4413    1.0000 </r>
       <r>   -5.9113    1.0000 </r>
       <r>   -5.5778    1.0000 </r>
       <r>   -5.5738    1.0000 </r>
       <r>   -5.3450    1.0000 </r>
       <r>   -5.0006    1.0000 </r>
       <r>   -4.6415    1.0000 </r>
       <r>   -4.1007    1.0000 </r>
       <r>   -2.9779    1.0000 </r>
       <r>   -2.8278    1.0000 </r>
       <r>   -1.8344    0.0000 </r>
       <r>   -1.3507    0.0000 </r>
       <r>   -0.4405    0.0000 </r>
       <r>    0.1899    0.0000 </r>
       <r>    0.7785    0.0000 </r>
       <r>    1.9741    0.0000 </r>
      </set>
      <set comment="kpoint 24">
       <r>  -27.7919    1.0000 </r>
       <r>  -27.7840    1.0000 </r>
       <r>  -27.7825    1.0000 </r>
       <r>  -27.7787    1.0000 </r>
       <r>  -27.7747    1.0000 </r>
       <r>  -27.7631    1.0000 </r>
       <r>  -27.7595    1.0000 </r>
       <r>  -27.7574    1.0000 </r>
       <r>  -27.7439    1.0000 </r>
       <r>  -27.7389    1.0000 </r>
       <r>  -16.8328    1.0000 </r>
       <r>  -15.3574    1.0000 </r>
       <r>  -15.1555    1.0000 </r>
       <r>  -14.7875    1.0000 </r>
       <r>  -11.5440    1.0000 </r>
       <r>   -9.2968    1.0000 </r>
       <r>   -7.4000    1.0000 </r>
       <r>   -5.9916    1.0000 </r>
       <r>   -5.7507    1.0000 </r>
       <r>   -5.4430    1.0000 </r>
       <r>   -5.3972    1.0000 </r>
       <r>   -5.0105    1.0000 </r>
       <r>   -4.6551    1.0000 </r>
       <r>   -4.0299    1.0000 </r>
       <r>   -3.1468    1.0000 </r>
       <r>   -2.8148    1.0000 </r>
       <r>   -1.5100    0.0000 </r>
       <r>   -1.2833    0.0000 </r>
       <r>   -0.3101    0.0000 </r>
       <r>    0.1956    0.0000 </r>
       <r>    0.8109    0.0000 </r>
       <r>    1.8853    0.0000 </r>
      </set>
      <set comment="kpoint 25">
       <r>  -27.7923    1.0000 </r>
       <r>  -27.7836    1.0000 </r>
       <r>  -27.7821    1.0000 </r>
       <r>  -27.7788    1.0000 </r>
       <r>  -27.7750    1.0000 </r>
       <r>  -27.7630    1.0000 </r>
       <r>  -27.7599    1.0000 </r>
       <r>  -27.7570    1.0000 </r>
       <r>  -27.7439    1.0000 </r>
       <r>  -27.7389    1.0000 </r>
       <r>  -16.8233    1.0000 </r>
       <r>  -15.3557    1.0000 </r>
       <r>  -15.1416    1.0000 </r>
       <r>  -14.8127    1.0000 </r>
       <r>  -11.5285    1.0000 </r>
       <r>   -9.3333    1.0000 </r>
       <r>   -7.3810    1.0000 </r>
       <r>   -6.0526    1.0000 </r>
       <r>   -5.9842    1.0000 </r>
       <r>   -5.4534    1.0000 </r>
       <r>   -5.1617    1.0000 </r>
       <r>   -4.9479    1.0000 </r>
       <r>   -4.6860    1.0000 </r>
       <r>   -4.0149    1.0000 </r>
       <r>   -3.3133    1.0000 </r>
       <r>   -2.6543    1.0000 </r>
       <r>   -1.3860    0.0000 </r>
       <r>   -1.2761    0.0000 </r>
       <r>   -0.3569    0.0000 </r>
       <r>    0.2327    0.0000 </r>
       <r>    0.8294    0.0000 </r>
       <r>    1.7387    0.0000 </r>
      </set>
      <set comment="kpoint 26">
       <r>  -27.7924    1.0000 </r>
       <r>  -27.7832    1.0000 </r>
       <r>  -27.7815    1.0000 </r>
       <r>  -27.7789    1.0000 </r>
       <r>  -27.7754    1.0000 </r>
       <r>  -27.7629    1.0000 </r>
       <r>  -27.7605    1.0000 </r>
       <r>  -27.7570    1.0000 </r>
       <r>  -27.7437    1.0000 </r>
       <r>  -27.7390    1.0000 </r>
       <r>  -16.7823    1.0000 </r>
       <r>  -15.3430    1.0000 </r>
       <r>  -15.1473    1.0000 </r>
       <r>  -14.8802    1.0000 </r>
       <r>  -11.4565    1.0000 </r>
       <r>   -9.4112    1.0000 </r>
       <r>   -7.3397    1.0000 </r>
       <r>   -6.2244    1.0000 </r>
       <r>   -6.1475    1.0000 </r>
       <r>   -5.4986    1.0000 </r>
       <r>   -5.0393    1.0000 </r>
       <r>   -4.8021    1.0000 </r>
       <r>   -4.7453    1.0000 </r>
       <r>   -3.9710    1.0000 </r>
       <r>   -3.4907    1.0000 </r>
       <r>   -2.5726    1.0000 </r>
       <r>   -1.3384    0.0000 </r>
       <r>   -1.2496    0.0000 </r>
       <r>   -0.0944    0.0000 </r>
       <r>    0.3459    0.0000 </r>
       <r>    0.9295    0.0000 </r>
       <r>    1.5794    0.0000 </r>
      </set>
      <set comment="kpoint 27">
       <r>  -27.7924    1.0000 </r>
       <r>  -27.7826    1.0000 </r>
       <r>  -27.7809    1.0000 </r>
       <r>  -27.7792    1.0000 </r>
       <r>  -27.7756    1.0000 </r>
       <r>  -27.7626    1.0000 </r>
       <r>  -27.7615    1.0000 </r>
       <r>  -27.7572    1.0000 </r>
       <r>  -27.7435    1.0000 </r>
       <r>  -27.7391    1.0000 </r>
       <r>  -16.7108    1.0000 </r>
       <r>  -15.3204    1.0000 </r>
       <r>  -15.1927    1.0000 </r>
       <r>  -14.9624    1.0000 </r>
       <r>  -11.3330    1.0000 </r>
       <r>   -9.5302    1.0000 </r>
       <r>   -7.2816    1.0000 </r>
       <r>   -6.4349    1.0000 </r>
       <r>   -6.2496    1.0000 </r>
       <r>   -5.5150    1.0000 </r>
       <r>   -5.0710    1.0000 </r>
       <r>   -4.8317    1.0000 </r>
       <r>   -4.6647    1.0000 </r>
       <r>   -3.8947    1.0000 </r>
       <r>   -3.6551    1.0000 </r>
       <r>   -2.5811    1.0000 </r>
       <r>   -1.2359    0.0000 </r>
       <r>   -1.1909    0.0000 </r>
       <r>    0.3345    0.0000 </r>
       <r>    0.5090    0.0000 </r>
       <r>    1.0916    0.0000 </r>
       <r>    1.4435    0.0000 </r>
      </set>
      <set comment="kpoint 28">
       <r>  -27.7921    1.0000 </r>
       <r>  -27.7821    1.0000 </r>
       <r>  -27.7802    1.0000 </r>
       <r>  -27.7797    1.0000 </r>
       <r>  -27.7755    1.0000 </r>
       <r>  -27.7627    1.0000 </r>
       <r>  -27.7622    1.0000 </r>
       <r>  -27.7576    1.0000 </r>
       <r>  -27.7432    1.0000 </r>
       <r>  -27.7394    1.0000 </r>
       <r>  -16.6104    1.0000 </r>
       <r>  -15.3082    1.0000 </r>
       <r>  -15.2896    1.0000 </r>
       <r>  -15.0179    1.0000 </r>
       <r>  -11.1663    1.0000 </r>
       <r>   -9.6872    1.0000 </r>
       <r>   -7.2151    1.0000 </r>
       <r>   -6.5998    1.0000 </r>
       <r>   -6.3229    1.0000 </r>
       <r>   -5.5046    1.0000 </r>
       <r>   -5.2237    1.0000 </r>
       <r>   -4.9559    1.0000 </r>
       <r>   -4.5562    1.0000 </r>
       <r>   -3.7944    1.0000 </r>
       <r>   -3.7913    1.0000 </r>
       <r>   -2.6693    1.0000 </r>
       <r>   -1.0919    0.0000 </r>
       <r>   -1.0389    0.0000 </r>
       <r>    0.6883    0.0000 </r>
       <r>    0.8127    0.0000 </r>
       <r>    1.2756    0.0000 </r>
       <r>    1.3678    0.0000 </r>
      </set>
      <set comment="kpoint 29">
       <r>  -27.7915    1.0000 </r>
       <r>  -27.7819    1.0000 </r>
       <r>  -27.7805    1.0000 </r>
       <r>  -27.7795    1.0000 </r>
       <r>  -27.7747    1.0000 </r>
       <r>  -27.7642    1.0000 </r>
       <r>  -27.7617    1.0000 </r>
       <r>  -27.7581    1.0000 </r>
       <r>  -27.7428    1.0000 </r>
       <r>  -27.7398    1.0000 </r>
       <r>  -16.4836    1.0000 </r>
       <r>  -15.4790    1.0000 </r>
       <r>  -15.2528    1.0000 </r>
       <r>  -15.0492    1.0000 </r>
       <r>  -10.9655    1.0000 </r>
       <r>   -9.8753    1.0000 </r>
       <r>   -7.1497    1.0000 </r>
       <r>   -6.7177    1.0000 </r>
       <r>   -6.3400    1.0000 </r>
       <r>   -5.4765    1.0000 </r>
       <r>   -5.4475    1.0000 </r>
       <r>   -5.1010    1.0000 </r>
       <r>   -4.4668    1.0000 </r>
       <r>   -3.9118    1.0000 </r>
       <r>   -3.6729    1.0000 </r>
       <r>   -2.8125    1.0000 </r>
       <r>   -0.9630    0.0000 </r>
       <r>   -0.8085    0.0000 </r>
       <r>    0.8539    0.0000 </r>
       <r>    1.1867    0.0000 </r>
       <r>    1.4237    0.0000 </r>
       <r>    1.4808    0.0000 </r>
      </set>
      <set comment="kpoint 30">
       <r>  -27.7908    1.0000 </r>
       <r>  -27.7821    1.0000 </r>
       <r>  -27.7814    1.0000 </r>
       <r>  -27.7787    1.0000 </r>
       <r>  -27.7733    1.0000 </r>
       <r>  -27.7660    1.0000 </r>
       <r>  -27.7612    1.0000 </r>
       <r>  -27.7587    1.0000 </r>
       <r>  -27.7423    1.0000 </r>
       <r>  -27.7402    1.0000 </r>
       <r>  -16.3338    1.0000 </r>
       <r>  -15.6741    1.0000 </r>
       <r>  -15.2123    1.0000 </r>
       <r>  -15.0761    1.0000 </r>
       <r>  -10.7394    1.0000 </r>
       <r>  -10.0842    1.0000 </r>
       <r>   -7.0904    1.0000 </r>
       <r>   -6.7972    1.0000 </r>
       <r>   -6.2896    1.0000 </r>
       <r>   -5.7007    1.0000 </r>
       <r>   -5.4328    1.0000 </r>
       <r>   -5.2382    1.0000 </r>
       <r>   -4.3798    1.0000 </r>
       <r>   -4.0158    1.0000 </r>
       <r>   -3.5483    1.0000 </r>
       <r>   -2.9857    1.0000 </r>
       <r>   -0.8360    0.0000 </r>
       <r>   -0.6273    0.0000 </r>
       <r>    0.9858    0.0000 </r>
       <r>    1.3120    0.0000 </r>
       <r>    1.4901    0.0000 </r>
       <r>    1.7277    0.0000 </r>
      </set>
      <set comment="kpoint 31">
       <r>  -27.7900    1.0000 </r>
       <r>  -27.7829    1.0000 </r>
       <r>  -27.7819    1.0000 </r>
       <r>  -27.7780    1.0000 </r>
       <r>  -27.7714    1.0000 </r>
       <r>  -27.7679    1.0000 </r>
       <r>  -27.7607    1.0000 </r>
       <r>  -27.7593    1.0000 </r>
       <r>  -27.7418    1.0000 </r>
       <r>  -27.7407    1.0000 </r>
       <r>  -16.1654    1.0000 </r>
       <r>  -15.8751    1.0000 </r>
       <r>  -15.1702    1.0000 </r>
       <r>  -15.1065    1.0000 </r>
       <r>  -10.4970    1.0000 </r>
       <r>  -10.3031    1.0000 </r>
       <r>   -7.0316    1.0000 </r>
       <r>   -6.8543    1.0000 </r>
       <r>   -6.1794    1.0000 </r>
       <r>   -5.9424    1.0000 </r>
       <r>   -5.3683    1.0000 </r>
       <r>   -5.3546    1.0000 </r>
       <r>   -4.2833    1.0000 </r>
       <r>   -4.1110    1.0000 </r>
       <r>   -3.4215    1.0000 </r>
       <r>   -3.1698    1.0000 </r>
       <r>   -0.7598    0.0000 </r>
       <r>   -0.5488    0.0000 </r>
       <r>    1.0701    0.0000 </r>
       <r>    1.3708    0.0000 </r>
       <r>    1.4901    0.0000 </r>
       <r>    1.5668    0.0000 </r>
      </set>
      <set comment="kpoint 32">
       <r>  -27.7890    1.0000 </r>
       <r>  -27.7842    1.0000 </r>
       <r>  -27.7822    1.0000 </r>
       <r>  -27.7774    1.0000 </r>
       <r>  -27.7698    1.0000 </r>
       <r>  -27.7693    1.0000 </r>
       <r>  -27.7602    1.0000 </r>
       <r>  -27.7599    1.0000 </r>
       <r>  -27.7413    1.0000 </r>
       <r>  -27.7413    1.0000 </r>
       <r>  -16.0709    1.0000 </r>
       <r>  -15.9842    1.0000 </r>
       <r>  -15.1419    1.0000 </r>
       <r>  -15.1282    1.0000 </r>
       <r>  -10.5228    1.0000 </r>
       <r>  -10.2485    1.0000 </r>
[...]
       <r>    1.1912    0.0000 </r>
       <r>    1.5554    0.0000 </r>
      </set>
      <set comment="kpoint 96">
       <r>  -27.7899    1.0000 </r>
       <r>  -27.7850    1.0000 </r>
       <r>  -27.7811    1.0000 </r>
       <r>  -27.7763    1.0000 </r>
       <r>  -27.7700    1.0000 </r>
       <r>  -27.7698    1.0000 </r>
       <r>  -27.7602    1.0000 </r>
       <r>  -27.7597    1.0000 </r>
       <r>  -27.7414    1.0000 </r>
       <r>  -27.7412    1.0000 </r>
       <r>  -16.1290    1.0000 </r>
       <r>  -16.0647    1.0000 </r>
       <r>  -15.1045    1.0000 </r>
       <r>  -15.0902    1.0000 </r>
       <r>  -10.5446    1.0000 </r>
       <r>  -10.2632    1.0000 </r>
       <r>   -6.7961    1.0000 </r>
       <r>   -6.7155    1.0000 </r>
       <r>   -5.9985    1.0000 </r>
       <r>   -5.8055    1.0000 </r>
       <r>   -5.4121    1.0000 </r>
       <r>   -5.2542    1.0000 </r>
       <r>   -4.2108    1.0000 </r>
       <r>   -4.1770    1.0000 </r>
       <r>   -3.0651    1.0000 </r>
       <r>   -3.0257    1.0000 </r>
       <r>   -1.0516    0.0000 </r>
       <r>   -0.6454    0.0000 </r>
       <r>    0.8483    0.0000 </r>
       <r>    0.9823    0.0000 </r>
       <r>    1.1168    0.0000 </r>
       <r>    1.5105    0.0000 </r>
      </set>
      <set comment="kpoint 97">
       <r>  -27.7889    1.0000 </r>
       <r>  -27.7858    1.0000 </r>
       <r>  -27.7809    1.0000 </r>
       <r>  -27.7772    1.0000 </r>
       <r>  -27.7697    1.0000 </r>
       <r>  -27.7687    1.0000 </r>
       <r>  -27.7604    1.0000 </r>
       <r>  -27.7603    1.0000 </r>
       <r>  -27.7415    1.0000 </r>
       <r>  -27.7413    1.0000 </r>
       <r>  -16.1900    1.0000 </r>
       <r>  -16.0696    1.0000 </r>
       <r>  -15.1047    1.0000 </r>
       <r>  -15.0678    1.0000 </r>
       <r>  -10.4391    1.0000 </r>
       <r>  -10.1313    1.0000 </r>
       <r>   -6.7596    1.0000 </r>
       <r>   -6.7533    1.0000 </r>
       <r>   -6.1252    1.0000 </r>
       <r>   -5.9971    1.0000 </r>
       <r>   -5.3178    1.0000 </r>
       <r>   -5.1260    1.0000 </r>
       <r>   -4.1994    1.0000 </r>
       <r>   -4.1236    1.0000 </r>
       <r>   -3.2746    1.0000 </r>
       <r>   -3.1910    1.0000 </r>
       <r>   -0.7704    0.0000 </r>
       <r>   -0.5472    0.0000 </r>
       <r>    0.7401    0.0000 </r>
       <r>    0.9475    0.0000 </r>
       <r>    1.0783    0.0000 </r>
       <r>    1.4058    0.0000 </r>
      </set>
      <set comment="kpoint 98">
       <r>  -27.7878    1.0000 </r>
       <r>  -27.7868    1.0000 </r>
       <r>  -27.7804    1.0000 </r>
       <r>  -27.7781    1.0000 </r>
       <r>  -27.7696    1.0000 </r>
       <r>  -27.7677    1.0000 </r>
       <r>  -27.7607    1.0000 </r>
       <r>  -27.7605    1.0000 </r>
       <r>  -27.7417    1.0000 </r>
       <r>  -27.7413    1.0000 </r>
       <r>  -16.2357    1.0000 </r>
       <r>  -16.0657    1.0000 </r>
       <r>  -15.1090    1.0000 </r>
       <r>  -15.0501    1.0000 </r>
       <r>  -10.3592    1.0000 </r>
       <r>  -10.0445    1.0000 </r>
       <r>   -6.8259    1.0000 </r>
       <r>   -6.6931    1.0000 </r>
       <r>   -6.2031    1.0000 </r>
       <r>   -6.1555    1.0000 </r>
       <r>   -5.1963    1.0000 </r>
       <r>   -5.0203    1.0000 </r>
       <r>   -4.2261    1.0000 </r>
       <r>   -4.0723    1.0000 </r>
       <r>   -3.4272    1.0000 </r>
       <r>   -3.3233    1.0000 </r>
       <r>   -0.5346    0.0000 </r>
       <r>   -0.5099    0.0000 </r>
       <r>    0.6915    0.0000 </r>
       <r>    0.9041    0.0000 </r>
       <r>    1.1024    0.0000 </r>
       <r>    1.2807    0.0000 </r>
      </set>
     </set>
    </set>
   </array>
  </eigenvalues>
  <separator name="orbital magnetization" >
   <v name="MAGDIPOLOUT">      0.00000000      0.00000000      0.00000000</v>
  </separator>
  <dos>
   <i name="efermi">     -2.28973608 </i>
   <total>
    <array>
     <dimension dim="1">gridpoints</dimension>
     <dimension dim="2">spin</dimension>
     <field>energy</field>
     <field>total</field>
     <field>integrated</field>
     <set>
      <set comment="spin 1">
       <r>   -29.2813     0.0000     0.0000 </r>
       <r>   -29.1721     0.0000     0.0000 </r>
       <r>   -29.0629     0.0000     0.0000 </r>
       <r>   -28.9538     0.0000     0.0000 </r>
       <r>   -28.8446     0.0000     0.0000 </r>
       <r>   -28.7354     0.0000     0.0000 </r>
       <r>   -28.6263     0.0000     0.0000 </r>
       <r>   -28.5171     0.0000     0.0000 </r>
       <r>   -28.4079     0.0000     0.0000 </r>
       <r>   -28.2988     0.0000     0.0000 </r>
       <r>   -28.1896     0.0000     0.0000 </r>
       <r>   -28.0804     0.0000     0.0000 </r>
       <r>   -27.9713     0.0000     0.0000 </r>
       <r>   -27.8621     0.0000     0.0000 </r>
       <r>   -27.7529   136.1443    14.8625 </r>
       <r>   -27.6438    47.0612    20.0000 </r>
       <r>   -27.5346     0.0000    20.0000 </r>
       <r>   -27.4254     0.0000    20.0000 </r>
       <r>   -27.3163     0.0000    20.0000 </r>
       <r>   -27.2071     0.0000    20.0000 </r>
       <r>   -27.0979     0.0000    20.0000 </r>
       <r>   -26.9888     0.0000    20.0000 </r>
       <r>   -26.8796     0.0000    20.0000 </r>
       <r>   -26.7704     0.0000    20.0000 </r>
       <r>   -26.6613     0.0000    20.0000 </r>
       <r>   -26.5521     0.0000    20.0000 </r>
       <r>   -26.4429     0.0000    20.0000 </r>
       <r>   -26.3338     0.0000    20.0000 </r>
       <r>   -26.2246     0.0000    20.0000 </r>
       <r>   -26.1154     0.0000    20.0000 </r>
       <r>   -26.0063     0.0000    20.0000 </r>
       <r>   -25.8971     0.0000    20.0000 </r>
       <r>   -25.7879     0.0000    20.0000 </r>
       <r>   -25.6788     0.0000    20.0000 </r>
       <r>   -25.5696     0.0000    20.0000 </r>
       <r>   -25.4604     0.0000    20.0000 </r>
       <r>   -25.3513     0.0000    20.0000 </r>
       <r>   -25.2421     0.0000    20.0000 </r>
       <r>   -25.1329     0.0000    20.0000 </r>
       <r>   -25.0238     0.0000    20.0000 </r>
       <r>   -24.9146     0.0000    20.0000 </r>
       <r>   -24.8054     0.0000    20.0000 </r>
       <r>   -24.6963     0.0000    20.0000 </r>
       <r>   -24.5871     0.0000    20.0000 </r>
       <r>   -24.4779     0.0000    20.0000 </r>
       <r>   -24.3688     0.0000    20.0000 </r>
       <r>   -24.2596     0.0000    20.0000 </r>
       <r>   -24.1504     0.0000    20.0000 </r>
       <r>   -24.0413     0.0000    20.0000 </r>
       <r>   -23.9321     0.0000    20.0000 </r>
       <r>   -23.8229     0.0000    20.0000 </r>
       <r>   -23.7138     0.0000    20.0000 </r>
       <r>   -23.6046     0.0000    20.0000 </r>
       <r>   -23.4954     0.0000    20.0000 </r>
       <r>   -23.3863     0.0000    20.0000 </r>
       <r>   -23.2771     0.0000    20.0000 </r>
       <r>   -23.1679     0.0000    20.0000 </r>
       <r>   -23.0588     0.0000    20.0000 </r>
       <r>   -22.9496     0.0000    20.0000 </r>
       <r>   -22.8404     0.0000    20.0000 </r>
       <r>   -22.7313     0.0000    20.0000 </r>
       <r>   -22.6221     0.0000    20.0000 </r>
       <r>   -22.5129     0.0000    20.0000 </r>
       <r>   -22.4038     0.0000    20.0000 </r>
       <r>   -22.2946     0.0000    20.0000 </r>
       <r>   -22.1854     0.0000    20.0000 </r>
       <r>   -22.0763     0.0000    20.0000 </r>
       <r>   -21.9671     0.0000    20.0000 </r>
       <r>   -21.8579     0.0000    20.0000 </r>
       <r>   -21.7487     0.0000    20.0000 </r>
       <r>   -21.6396     0.0000    20.0000 </r>
       <r>   -21.5304     0.0000    20.0000 </r>
       <r>   -21.4212     0.0000    20.0000 </r>
       <r>   -21.3121     0.0000    20.0000 </r>
       <r>   -21.2029     0.0000    20.0000 </r>
       <r>   -21.0937     0.0000    20.0000 </r>
       <r>   -20.9846     0.0000    20.0000 </r>
       <r>   -20.8754     0.0000    20.0000 </r>
       <r>   -20.7662     0.0000    20.0000 </r>
       <r>   -20.6571     0.0000    20.0000 </r>
       <r>   -20.5479     0.0000    20.0000 </r>
       <r>   -20.4387     0.0000    20.0000 </r>
       <r>   -20.3296     0.0000    20.0000 </r>
       <r>   -20.2204     0.0000    20.0000 </r>
       <r>   -20.1112     0.0000    20.0000 </r>
       <r>   -20.0021     0.0000    20.0000 </r>
       <r>   -19.8929     0.0000    20.0000 </r>
       <r>   -19.7837     0.0000    20.0000 </r>
       <r>   -19.6746     0.0000    20.0000 </r>
       <r>   -19.5654     0.0000    20.0000 </r>
       <r>   -19.4562     0.0000    20.0000 </r>
       <r>   -19.3471     0.0000    20.0000 </r>
       <r>   -19.2379     0.0000    20.0000 </r>
       <r>   -19.1287     0.0000    20.0000 </r>
       <r>   -19.0196     0.0000    20.0000 </r>
       <r>   -18.9104     0.0000    20.0000 </r>
       <r>   -18.8012     0.0000    20.0000 </r>
       <r>   -18.6921     0.0000    20.0000 </r>
       <r>   -18.5829     0.0000    20.0000 </r>
       <r>   -18.4737     0.0000    20.0000 </r>
       <r>   -18.3646     0.0000    20.0000 </r>
       <r>   -18.2554     0.0000    20.0000 </r>
       <r>   -18.1462     0.0000    20.0000 </r>
       <r>   -18.0371     0.0000    20.0000 </r>
       <r>   -17.9279     0.0000    20.0000 </r>
       <r>   -17.8187     0.0000    20.0000 </r>
       <r>   -17.7096     0.0000    20.0000 </r>
       <r>   -17.6004     0.0000    20.0000 </r>
       <r>   -17.4912     0.0000    20.0000 </r>
       <r>   -17.3821     0.0000    20.0000 </r>
       <r>   -17.2729     0.0000    20.0000 </r>
       <r>   -17.1637     0.0000    20.0000 </r>
       <r>   -17.0546     0.0000    20.0000 </r>
       <r>   -16.9454     0.0004    20.0000 </r>
       <r>   -16.8362     1.1551    20.1261 </r>
       <r>   -16.7271     2.0334    20.3481 </r>
       <r>   -16.6179     1.8587    20.5510 </r>
       <r>   -16.5087     1.9615    20.7652 </r>
       <r>   -16.3996     2.3622    21.0230 </r>
       <r>   -16.2904     2.1335    21.2559 </r>
       <r>   -16.1812     2.5603    21.5354 </r>
       <r>   -16.0721     2.9126    21.8534 </r>
       <r>   -15.9629     3.5045    22.2360 </r>
       <r>   -15.8537     2.7379    22.5349 </r>
       <r>   -15.7446     2.8046    22.8410 </r>
       <r>   -15.6354     2.2185    23.0832 </r>
       <r>   -15.5262     1.9231    23.2932 </r>
       <r>   -15.4171     1.3582    23.4414 </r>
       <r>   -15.3079     5.1906    24.0081 </r>
       <r>   -15.1987     7.4853    24.8252 </r>
       <r>   -15.0896    13.9161    26.3444 </r>
       <r>   -14.9804     8.6765    27.2916 </r>
       <r>   -14.8712     4.1419    27.7438 </r>
       <r>   -14.7621     2.1336    27.9767 </r>
       <r>   -14.6529     0.2134    28.0000 </r>
       <r>   -14.5437     0.0000    28.0000 </r>
       <r>   -14.4346     0.0000    28.0000 </r>
       <r>   -14.3254     0.0000    28.0000 </r>
       <r>   -14.2162     0.0000    28.0000 </r>
       <r>   -14.1071     0.0000    28.0000 </r>
       <r>   -13.9979     0.0000    28.0000 </r>
       <r>   -13.8887     0.0000    28.0000 </r>
       <r>   -13.7796     0.0000    28.0000 </r>
       <r>   -13.6704     0.0000    28.0000 </r>
       <r>   -13.5612     0.0000    28.0000 </r>
       <r>   -13.4521     0.0000    28.0000 </r>
       <r>   -13.3429     0.0000    28.0000 </r>
       <r>   -13.2337     0.0000    28.0000 </r>
       <r>   -13.1246     0.0000    28.0000 </r>
       <r>   -13.0154     0.0000    28.0000 </r>
       <r>   -12.9062     0.0000    28.0000 </r>
       <r>   -12.7971     0.0000    28.0000 </r>
       <r>   -12.6879     0.0000    28.0000 </r>
       <r>   -12.5787     0.0000    28.0000 </r>
       <r>   -12.4696     0.0000    28.0000 </r>
       <r>   -12.3604     0.0000    28.0000 </r>
       <r>   -12.2512     0.0000    28.0000 </r>
       <r>   -12.1421     0.0000    28.0000 </r>
       <r>   -12.0329     0.0000    28.0000 </r>
       <r>   -11.9237     0.0000    28.0000 </r>
       <r>   -11.8146     0.0013    28.0001 </r>
       <r>   -11.7054     0.4645    28.0509 </r>
       <r>   -11.5962     0.5908    28.1154 </r>
       <r>   -11.4871     0.8963    28.2132 </r>
       <r>   -11.3779     0.9033    28.3118 </r>
       <r>   -11.2687     0.8169    28.4010 </r>
       <r>   -11.1596     1.4170    28.5557 </r>
       <r>   -11.0504     0.7044    28.6326 </r>
       <r>   -10.9412     2.5126    28.9069 </r>
       <r>   -10.8321     1.7624    29.0993 </r>
       <r>   -10.7229     3.9314    29.5284 </r>
       <r>   -10.6137     3.1117    29.8681 </r>
       <r>   -10.5046     1.7879    30.0633 </r>
       <r>   -10.3954     1.9758    30.2790 </r>
       <r>   -10.2862     1.5910    30.4527 </r>
       <r>   -10.1771     1.3369    30.5986 </r>
       <r>   -10.0679     1.6612    30.7800 </r>
       <r>    -9.9587     1.2824    30.9200 </r>
       <r>    -9.8495     1.6399    31.0990 </r>
       <r>    -9.7404     1.2277    31.2330 </r>
       <r>    -9.6312     1.2448    31.3689 </r>
       <r>    -9.5220     1.5151    31.5343 </r>
       <r>    -9.4129     1.2771    31.6737 </r>
       <r>    -9.3037     1.5850    31.8468 </r>
       <r>    -9.1945     1.4013    31.9998 </r>
       <r>    -9.0854     0.0023    32.0000 </r>
       <r>    -8.9762     0.0000    32.0000 </r>
       <r>    -8.8670     0.0000    32.0000 </r>
       <r>    -8.7579     0.0000    32.0000 </r>
       <r>    -8.6487     0.0000    32.0000 </r>
       <r>    -8.5395     0.0000    32.0000 </r>
       <r>    -8.4304     0.0000    32.0000 </r>
       <r>    -8.3212     0.0000    32.0000 </r>
       <r>    -8.2120     0.0000    32.0000 </r>
       <r>    -8.1029     0.0000    32.0000 </r>
       <r>    -7.9937     0.0000    32.0000 </r>
       <r>    -7.8845     0.0000    32.0000 </r>
       <r>    -7.7754     0.0000    32.0000 </r>
       <r>    -7.6662     0.0000    32.0000 </r>
       <r>    -7.5570     0.0000    32.0000 </r>
       <r>    -7.4479     0.4925    32.0538 </r>
       <r>    -7.3387     3.0573    32.3875 </r>
       <r>    -7.2295     2.0158    32.6076 </r>
       <r>    -7.1204     1.9721    32.8229 </r>
       <r>    -7.0112     1.9158    33.0320 </r>
       <r>    -6.9020     2.4777    33.3025 </r>
       <r>    -6.7929     8.4991    34.2303 </r>
       <r>    -6.6837     6.6076    34.9516 </r>
       <r>    -6.5745     2.6480    35.2407 </r>
       <r>    -6.4654     2.1085    35.4709 </r>
       <r>    -6.3562     2.0882    35.6989 </r>
       <r>    -6.2470     3.5724    36.0889 </r>
       <r>    -6.1379     6.7966    36.8308 </r>
       <r>    -6.0287     4.9638    37.3727 </r>
       <r>    -5.9195     4.8644    37.9037 </r>
       <r>    -5.8104     3.0296    38.2345 </r>
       <r>    -5.7012     4.6834    38.7457 </r>
       <r>    -5.5920     5.0324    39.2951 </r>
       <r>    -5.4829     6.2241    39.9746 </r>
       <r>    -5.3737     8.2492    40.8751 </r>
       <r>    -5.2645     6.9361    41.6323 </r>
       <r>    -5.1554     5.5245    42.2354 </r>
       <r>    -5.0462     5.0339    42.7850 </r>
       <r>    -4.9370     4.1726    43.2405 </r>
       <r>    -4.8279     4.1455    43.6930 </r>
       <r>    -4.7187     2.8936    44.0089 </r>
       <r>    -4.6095     4.4071    44.4901 </r>
       <r>    -4.5004     1.9216    44.6998 </r>
       <r>    -4.3912     4.4277    45.1832 </r>
       <r>    -4.2820     6.3737    45.8790 </r>
       <r>    -4.1729     4.5523    46.3760 </r>
       <r>    -4.0637     4.3024    46.8456 </r>
       <r>    -3.9545     4.0313    47.2857 </r>
       <r>    -3.8454     3.7550    47.6957 </r>
       <r>    -3.7362     3.5294    48.0810 </r>
       <r>    -3.6270     2.9940    48.4078 </r>
       <r>    -3.5179     2.7613    48.7093 </r>
       <r>    -3.4087     2.8989    49.0257 </r>
       <r>    -3.2995     3.0535    49.3591 </r>
       <r>    -3.1904     2.6345    49.6467 </r>
       <r>    -3.0812     3.0538    49.9800 </r>
       <r>    -2.9720     3.8776    50.4033 </r>
       <r>    -2.8629     3.6179    50.7983 </r>
       <r>    -2.7537     3.2301    51.1509 </r>
       <r>    -2.6445     3.1940    51.4996 </r>
       <r>    -2.5354     2.0393    51.7222 </r>
       <r>    -2.4262     1.8793    51.9274 </r>
       <r>    -2.3170     0.6652    52.0000 </r>
       <r>    -2.2079     0.0000    52.0000 </r>
       <r>    -2.0987     0.0000    52.0000 </r>
       <r>    -1.9895     0.0000    52.0000 </r>
       <r>    -1.8804     0.0936    52.0102 </r>
       <r>    -1.7712     0.5655    52.0720 </r>
       <r>    -1.6620     2.1269    52.3041 </r>
       <r>    -1.5529     1.3855    52.4554 </r>
       <r>    -1.4437     1.5442    52.6240 </r>
       <r>    -1.3345     2.3552    52.8811 </r>
       <r>    -1.2254     4.6542    53.3892 </r>
       <r>    -1.1162     4.0428    53.8305 </r>
       <r>    -1.0070     2.9669    54.1544 </r>
       <r>    -0.8979     4.6762    54.6649 </r>
       <r>    -0.7887     3.3201    55.0273 </r>
       <r>    -0.6795     4.2122    55.4872 </r>
       <r>    -0.5704     1.9129    55.6960 </r>
       <r>    -0.4612     2.1384    55.9294 </r>
       <r>    -0.3520     1.9824    56.1459 </r>
       <r>    -0.2429     0.2610    56.1744 </r>
       <r>    -0.1337     0.0005    56.1744 </r>
       <r>    -0.0245     0.3836    56.2163 </r>
       <r>     0.0846     0.4982    56.2707 </r>
       <r>     0.1938     1.0691    56.3874 </r>
       <r>     0.3030     1.1694    56.5151 </r>
       <r>     0.4121     2.1890    56.7540 </r>
       <r>     0.5213     2.1157    56.9850 </r>
       <r>     0.6305     2.0380    57.2075 </r>
       <r>     0.7396     3.3439    57.5725 </r>
       <r>     0.8488     3.2019    57.9221 </r>
       <r>     0.9580     6.0238    58.5797 </r>
       <r>     1.0671     6.9428    59.3376 </r>
       <r>     1.1763     7.3978    60.1452 </r>
       <r>     1.2855     6.8102    60.8886 </r>
       <r>     1.3946     5.6324    61.5035 </r>
       <r>     1.5038     6.9191    62.2588 </r>
       <r>     1.6130     5.8566    62.8982 </r>
       <r>     1.7222     4.7732    63.4193 </r>
       <r>     1.8313     3.2605    63.7752 </r>
       <r>     1.9405     1.2147    63.9078 </r>
       <r>     2.0497     0.8445    64.0000 </r>
       <r>     2.1588     0.0000    64.0000 </r>
       <r>     2.2680     0.0000    64.0000 </r>
       <r>     2.3772     0.0000    64.0000 </r>
       <r>     2.4863     0.0000    64.0000 </r>
       <r>     2.5955     0.0000    64.0000 </r>
       <r>     2.7047     0.0000    64.0000 </r>
       <r>     2.8138     0.0000    64.0000 </r>
       <r>     2.9230     0.0000    64.0000 </r>
       <r>     3.0322     0.0000    64.0000 </r>
       <r>     3.1413     0.0000    64.0000 </r>
       <r>     3.2505     0.0000    64.0000 </r>
       <r>     3.3597     0.0000    64.0000 </r>
       <r>     3.4688     0.0000    64.0000 </r>
      </set>
     </set>
    </array>
   </total>
  </dos>
 </calculation>
 <structure name="finalpos" >
  <crystal>
   <varray name="basis" >
    <v>       4.90509500       0.09814100       0.00000000 </v>
    <v>       0.11144600       5.57008700       0.00000000 </v>
    <v>       0.00000000       0.00000000      18.07929100 </v>
   </varray>
   <i name="volume">    493.76113856 </i>
   <varray name="rec_basis" >
    <v>       0.20395130      -0.00408065       0.00000000 </v>
    <v>      -0.00359348       0.17960231       0.00000000 </v>
    <v>       0.00000000       0.00000000       0.05531190 </v>
   </varray>
  </crystal>
  <varray name="positions" >
   <v>       0.50000000       0.50000000       0.49929001 </v>
   <v>       0.00000000      -0.00000000       0.49929001 </v>
   <v>       0.25000000       0.25000000       0.41534966 </v>
   <v>       0.75000000       0.75000000       0.41534966 </v>
   <v>       0.75000000       0.25000000       0.58536033 </v>
   <v>       0.25000000       0.75000000       0.58536033 </v>
  </varray>
 </structure>
</modeling>
