<?xml version="1.0" encoding="ISO-8859-1"?>
<modeling>
 <generator>
  <i name="program" type="string">vasp </i>
  <i name="version" type="string">5.4.1  </i>
  <i name="subversion" type="string">24Jun15 (build Nov 20 2020 10:29:34) complex                          parallel </i>
  <i name="platform" type="string">IFC91_ompi </i>
  <i name="date" type="string">2021 09 09 </i>
  <i name="time" type="string">15:18:00 </i>
 </generator>
 <incar>
  <i type="string" name="PREC">a</i>
  <i type="string" name="ALGO"> Normal</i>
  <i type="int" name="ISPIN">     1</i>
  <i type="int" name="ICHARG">     2</i>
  <i type="int" name="NELM">   250</i>
  <i type="int" name="NELMDL">    -5</i>
  <i type="int" name="NELMIN">     6</i>
  <i type="int" name="IBRION">     2</i>
  <i name="EDIFF">      0.00001000</i>
  <i name="EDIFFG">     -0.01000000</i>
  <i type="int" name="NSW">   200</i>
  <i type="int" name="ISIF">     2</i>
  <i name="ENCUT">    520.00000000</i>
  <i name="POTIM">      0.30000000</i>
  <i type="logical" name="LREAL"> F  </i>
  <i type="int" name="ISMEAR">     0</i>
  <i name="SIGMA">      0.02000000</i>
  <i type="logical" name="LWAVE"> F  </i>
  <i type="logical" name="LCHARG"> F  </i>
  <i type="logical" name="LAECHG"> F  </i>
  <v type="int" name="KPOINT_BSE">    -1     0     0     0</v>
  <i type="int" name="NELM">   250</i>
 </incar>
 <kpoints>
  <generation param="Gamma">
   <v type="int" name="divisions">      22       15        1 </v>
   <v name="usershift">      0.00000000       0.00000000       0.00000000 </v>
   <v name="genvec1">      0.04545455       0.00000000       0.00000000 </v>
   <v name="genvec2">      0.00000000       0.06666667       0.00000000 </v>
   <v name="genvec3">      0.00000000      -0.00000000       1.00000000 </v>
   <v name="shift">      0.00000000       0.00000000       0.00000000 </v>
  </generation>
  <varray name="kpointlist" >
   <v>       0.00000000       0.00000000       0.00000000 </v>
   <v>       0.04545455       0.00000000       0.00000000 </v>
   <v>       0.09090909       0.00000000       0.00000000 </v>
   <v>       0.13636364       0.00000000       0.00000000 </v>
   <v>       0.18181818       0.00000000       0.00000000 </v>
   <v>       0.22727273       0.00000000       0.00000000 </v>
   <v>       0.27272727       0.00000000       0.00000000 </v>
   <v>       0.31818182       0.00000000       0.00000000 </v>
   <v>       0.36363636       0.00000000       0.00000000 </v>
   <v>       0.40909091       0.00000000       0.00000000 </v>
   <v>       0.45454545       0.00000000       0.00000000 </v>
   <v>       0.50000000       0.00000000       0.00000000 </v>
   <v>       0.00000000       0.06666667       0.00000000 </v>
   <v>       0.04545455       0.06666667       0.00000000 </v>
   <v>       0.09090909       0.06666667       0.00000000 </v>
   <v>       0.13636364       0.06666667       0.00000000 </v>
   <v>       0.18181818       0.06666667       0.00000000 </v>
   <v>       0.22727273       0.06666667       0.00000000 </v>
   <v>       0.27272727       0.06666667       0.00000000 </v>
   <v>       0.31818182       0.06666667       0.00000000 </v>
   <v>       0.36363636       0.06666667       0.00000000 </v>
   <v>       0.40909091       0.06666667       0.00000000 </v>
   <v>       0.45454545       0.06666667       0.00000000 </v>
   <v>       0.50000000       0.06666667       0.00000000 </v>
   <v>      -0.45454545       0.06666667       0.00000000 </v>
   <v>      -0.40909091       0.06666667       0.00000000 </v>
   <v>      -0.36363636       0.06666667       0.00000000 </v>
   <v>      -0.31818182       0.06666667       0.00000000 </v>
   <v>      -0.27272727       0.06666667       0.00000000 </v>
   <v>      -0.22727273       0.06666667       0.00000000 </v>
   <v>      -0.18181818       0.06666667       0.00000000 </v>
   <v>      -0.13636364       0.06666667       0.00000000 </v>
   <v>      -0.09090909       0.06666667       0.00000000 </v>
   <v>      -0.04545455       0.06666667       0.00000000 </v>
   <v>       0.00000000       0.13333333       0.00000000 </v>
   <v>       0.04545455       0.13333333       0.00000000 </v>
   <v>       0.09090909       0.13333333       0.00000000 </v>
   <v>       0.13636364       0.13333333       0.00000000 </v>
   <v>       0.18181818       0.13333333       0.00000000 </v>
   <v>       0.22727273       0.13333333       0.00000000 </v>
   <v>       0.27272727       0.13333333       0.00000000 </v>
   <v>       0.31818182       0.13333333       0.00000000 </v>
   <v>       0.36363636       0.13333333       0.00000000 </v>
   <v>       0.40909091       0.13333333       0.00000000 </v>
   <v>       0.45454545       0.13333333       0.00000000 </v>
   <v>       0.50000000       0.13333333       0.00000000 </v>
   <v>      -0.45454545       0.13333333       0.00000000 </v>
   <v>      -0.40909091       0.13333333       0.00000000 </v>
   <v>      -0.36363636       0.13333333       0.00000000 </v>
   <v>      -0.31818182       0.13333333       0.00000000 </v>
   <v>      -0.27272727       0.13333333       0.00000000 </v>
   <v>      -0.22727273       0.13333333       0.00000000 </v>
   <v>      -0.18181818       0.13333333       0.00000000 </v>
   <v>      -0.13636364       0.13333333       0.00000000 </v>
   <v>      -0.09090909       0.13333333       0.00000000 </v>
   <v>      -0.04545455       0.13333333       0.00000000 </v>
   <v>       0.00000000       0.20000000       0.00000000 </v>
   <v>       0.04545455       0.20000000       0.00000000 </v>
   <v>       0.09090909       0.20000000       0.00000000 </v>
   <v>       0.13636364       0.20000000       0.00000000 </v>
   <v>       0.18181818       0.20000000       0.00000000 </v>
   <v>       0.22727273       0.20000000       0.00000000 </v>
   <v>       0.27272727       0.20000000       0.00000000 </v>
   <v>       0.31818182       0.20000000       0.00000000 </v>
   <v>       0.36363636       0.20000000       0.00000000 </v>
   <v>       0.40909091       0.20000000       0.00000000 </v>
   <v>       0.45454545       0.20000000       0.00000000 </v>
   <v>       0.50000000       0.20000000       0.00000000 </v>
   <v>      -0.45454545       0.20000000       0.00000000 </v>
   <v>      -0.40909091       0.20000000       0.00000000 </v>
   <v>      -0.36363636       0.20000000       0.00000000 </v>
   <v>      -0.31818182       0.20000000       0.00000000 </v>
   <v>      -0.27272727       0.20000000       0.00000000 </v>
   <v>      -0.22727273       0.20000000       0.00000000 </v>
   <v>      -0.18181818       0.20000000       0.00000000 </v>
   <v>      -0.13636364       0.20000000       0.00000000 </v>
   <v>      -0.09090909       0.20000000       0.00000000 </v>
   <v>      -0.04545455       0.20000000       0.00000000 </v>
   <v>       0.00000000       0.26666667       0.00000000 </v>
   <v>       0.04545455       0.26666667       0.00000000 </v>
   <v>       0.09090909       0.26666667       0.00000000 </v>
   <v>       0.13636364       0.26666667       0.00000000 </v>
   <v>       0.18181818       0.26666667       0.00000000 </v>
   <v>       0.22727273       0.26666667       0.00000000 </v>
   <v>       0.27272727       0.26666667       0.00000000 </v>
   <v>       0.31818182       0.26666667       0.00000000 </v>
   <v>       0.36363636       0.26666667       0.00000000 </v>
   <v>       0.40909091       0.26666667       0.00000000 </v>
   <v>       0.45454545       0.26666667       0.00000000 </v>
   <v>       0.50000000       0.26666667       0.00000000 </v>
   <v>      -0.45454545       0.26666667       0.00000000 </v>
   <v>      -0.40909091       0.26666667       0.00000000 </v>
   <v>      -0.36363636       0.26666667       0.00000000 </v>
   <v>      -0.31818182       0.26666667       0.00000000 </v>
   <v>      -0.27272727       0.26666667       0.00000000 </v>
   <v>      -0.22727273       0.26666667       0.00000000 </v>
   <v>      -0.18181818       0.26666667       0.00000000 </v>
   <v>      -0.13636364       0.26666667       0.00000000 </v>
   <v>      -0.09090909       0.26666667       0.00000000 </v>
   <v>      -0.04545455       0.26666667       0.00000000 </v>
   <v>       0.00000000       0.33333333       0.00000000 </v>
   <v>       0.04545455       0.33333333       0.00000000 </v>
   <v>       0.09090909       0.33333333       0.00000000 </v>
   <v>       0.13636364       0.33333333       0.00000000 </v>
   <v>       0.18181818       0.33333333       0.00000000 </v>
   <v>       0.22727273       0.33333333       0.00000000 </v>
   <v>       0.27272727       0.33333333       0.00000000 </v>
   <v>       0.31818182       0.33333333       0.00000000 </v>
   <v>       0.36363636       0.33333333       0.00000000 </v>
   <v>       0.40909091       0.33333333       0.00000000 </v>
   <v>       0.45454545       0.33333333       0.00000000 </v>
   <v>       0.50000000       0.33333333       0.00000000 </v>
   <v>      -0.45454545       0.33333333       0.00000000 </v>
   <v>      -0.40909091       0.33333333       0.00000000 </v>
   <v>      -0.36363636       0.33333333       0.00000000 </v>
   <v>      -0.31818182       0.33333333       0.00000000 </v>
   <v>      -0.27272727       0.33333333       0.00000000 </v>
   <v>      -0.22727273       0.33333333       0.00000000 </v>
   <v>      -0.18181818       0.33333333       0.00000000 </v>
   <v>      -0.13636364       0.33333333       0.00000000 </v>
   <v>      -0.09090909       0.33333333       0.00000000 </v>
   <v>      -0.04545455       0.33333333       0.00000000 </v>
   <v>       0.00000000       0.40000000       0.00000000 </v>
   <v>       0.04545455       0.40000000       0.00000000 </v>
   <v>       0.09090909       0.40000000       0.00000000 </v>
   <v>       0.13636364       0.40000000       0.00000000 </v>
   <v>       0.18181818       0.40000000       0.00000000 </v>
   <v>       0.22727273       0.40000000       0.00000000 </v>
   <v>       0.27272727       0.40000000       0.00000000 </v>
   <v>       0.31818182       0.40000000       0.00000000 </v>
   <v>       0.36363636       0.40000000       0.00000000 </v>
   <v>       0.40909091       0.40000000       0.00000000 </v>
   <v>       0.45454545       0.40000000       0.00000000 </v>
   <v>       0.50000000       0.40000000       0.00000000 </v>
   <v>      -0.45454545       0.40000000       0.00000000 </v>
   <v>      -0.40909091       0.40000000       0.00000000 </v>
   <v>      -0.36363636       0.40000000       0.00000000 </v>
   <v>      -0.31818182       0.40000000       0.00000000 </v>
   <v>      -0.27272727       0.40000000       0.00000000 </v>
   <v>      -0.22727273       0.40000000       0.00000000 </v>
   <v>      -0.18181818       0.40000000       0.00000000 </v>
   <v>      -0.13636364       0.40000000       0.00000000 </v>
   <v>      -0.09090909       0.40000000       0.00000000 </v>
   <v>      -0.04545455       0.40000000       0.00000000 </v>
   <v>       0.00000000       0.46666667       0.00000000 </v>
   <v>       0.04545455       0.46666667       0.00000000 </v>
   <v>       0.09090909       0.46666667       0.00000000 </v>
   <v>       0.13636364       0.46666667       0.00000000 </v>
   <v>       0.18181818       0.46666667       0.00000000 </v>
   <v>       0.22727273       0.46666667       0.00000000 </v>
   <v>       0.27272727       0.46666667       0.00000000 </v>
   <v>       0.31818182       0.46666667       0.00000000 </v>
   <v>       0.36363636       0.46666667       0.00000000 </v>
   <v>       0.40909091       0.46666667       0.00000000 </v>
   <v>       0.45454545       0.46666667       0.00000000 </v>
   <v>       0.50000000       0.46666667       0.00000000 </v>
   <v>      -0.45454545       0.46666667       0.00000000 </v>
   <v>      -0.40909091       0.46666667       0.00000000 </v>
   <v>      -0.36363636       0.46666667       0.00000000 </v>
   <v>      -0.31818182       0.46666667       0.00000000 </v>
   <v>      -0.27272727       0.46666667       0.00000000 </v>
   <v>      -0.22727273       0.46666667       0.00000000 </v>
   <v>      -0.18181818       0.46666667       0.00000000 </v>
   <v>      -0.13636364       0.46666667       0.00000000 </v>
   <v>      -0.09090909       0.46666667       0.00000000 </v>
   <v>      -0.04545455       0.46666667       0.00000000 </v>
  </varray>
  <varray name="weights" >
   <v>       0.00303030 </v>
   <v>       0.00606061 </v>
   <v>       0.00606061 </v>
   <v>       0.00606061 </v>
   <v>       0.00606061 </v>
   <v>       0.00606061 </v>
   <v>       0.00606061 </v>
   <v>       0.00606061 </v>
   <v>       0.00606061 </v>
   <v>       0.00606061 </v>
   <v>       0.00606061 </v>
   <v>       0.00303030 </v>
   <v>       0.00606061 </v>
   <v>       0.00606061 </v>
   <v>       0.00606061 </v>
   <v>       0.00606061 </v>
   <v>       0.00606061 </v>
   <v>       0.00606061 </v>
   <v>       0.00606061 </v>
   <v>       0.00606061 </v>
   <v>       0.00606061 </v>
   <v>       0.00606061 </v>
   <v>       0.00606061 </v>
   <v>       0.00606061 </v>
   <v>       0.00606061 </v>
   <v>       0.00606061 </v>
   <v>       0.00606061 </v>
   <v>       0.00606061 </v>
   <v>       0.00606061 </v>
   <v>       0.00606061 </v>
   <v>       0.00606061 </v>
   <v>       0.00606061 </v>
   <v>       0.00606061 </v>
   <v>       0.00606061 </v>
   <v>       0.00606061 </v>
   <v>       0.00606061 </v>
   <v>       0.00606061 </v>
   <v>       0.00606061 </v>
   <v>       0.00606061 </v>
   <v>       0.00606061 </v>
   <v>       0.00606061 </v>
   <v>       0.00606061 </v>
   <v>       0.00606061 </v>
   <v>       0.00606061 </v>
   <v>       0.00606061 </v>
   <v>       0.00606061 </v>
   <v>       0.00606061 </v>
   <v>       0.00606061 </v>
   <v>       0.00606061 </v>
   <v>       0.00606061 </v>
   <v>       0.00606061 </v>
   <v>       0.00606061 </v>
   <v>       0.00606061 </v>
   <v>       0.00606061 </v>
   <v>       0.00606061 </v>
   <v>       0.00606061 </v>
   <v>       0.00606061 </v>
   <v>       0.00606061 </v>
   <v>       0.00606061 </v>
   <v>       0.00606061 </v>
   <v>       0.00606061 </v>
   <v>       0.00606061 </v>
   <v>       0.00606061 </v>
   <v>       0.00606061 </v>
   <v>       0.00606061 </v>
   <v>       0.00606061 </v>
   <v>       0.00606061 </v>
   <v>       0.00606061 </v>
   <v>       0.00606061 </v>
   <v>       0.00606061 </v>
   <v>       0.00606061 </v>
   <v>       0.00606061 </v>
   <v>       0.00606061 </v>
   <v>       0.00606061 </v>
   <v>       0.00606061 </v>
   <v>       0.00606061 </v>
   <v>       0.00606061 </v>
   <v>       0.00606061 </v>
   <v>       0.00606061 </v>
   <v>       0.00606061 </v>
   <v>       0.00606061 </v>
   <v>       0.00606061 </v>
   <v>       0.00606061 </v>
   <v>       0.00606061 </v>
   <v>       0.00606061 </v>
   <v>       0.00606061 </v>
   <v>       0.00606061 </v>
   <v>       0.00606061 </v>
   <v>       0.00606061 </v>
   <v>       0.00606061 </v>
   <v>       0.00606061 </v>
   <v>       0.00606061 </v>
   <v>       0.00606061 </v>
   <v>       0.00606061 </v>
   <v>       0.00606061 </v>
   <v>       0.00606061 </v>
   <v>       0.00606061 </v>
   <v>       0.00606061 </v>
   <v>       0.00606061 </v>
   <v>       0.00606061 </v>
   <v>       0.00606061 </v>
   <v>       0.00606061 </v>
   <v>       0.00606061 </v>
   <v>       0.00606061 </v>
   <v>       0.00606061 </v>
   <v>       0.00606061 </v>
   <v>       0.00606061 </v>
   <v>       0.00606061 </v>
   <v>       0.00606061 </v>
   <v>       0.00606061 </v>
   <v>       0.00606061 </v>
   <v>       0.00606061 </v>
   <v>       0.00606061 </v>
   <v>       0.00606061 </v>
   <v>       0.00606061 </v>
   <v>       0.00606061 </v>
   <v>       0.00606061 </v>
   <v>       0.00606061 </v>
   <v>       0.00606061 </v>
   <v>       0.00606061 </v>
   <v>       0.00606061 </v>
   <v>       0.00606061 </v>
   <v>       0.00606061 </v>
   <v>       0.00606061 </v>
   <v>       0.00606061 </v>
   <v>       0.00606061 </v>
   <v>       0.00606061 </v>
   <v>       0.00606061 </v>
   <v>       0.00606061 </v>
   <v>       0.00606061 </v>
   <v>       0.00606061 </v>
   <v>       0.00606061 </v>
   <v>       0.00606061 </v>
   <v>       0.00606061 </v>
   <v>       0.00606061 </v>
   <v>       0.00606061 </v>
   <v>       0.00606061 </v>
   <v>       0.00606061 </v>
   <v>       0.00606061 </v>
   <v>       0.00606061 </v>
   <v>       0.00606061 </v>
   <v>       0.00606061 </v>
   <v>       0.00606061 </v>
   <v>       0.00606061 </v>
   <v>       0.00606061 </v>
   <v>       0.00606061 </v>
   <v>       0.00606061 </v>
   <v>       0.00606061 </v>
   <v>       0.00606061 </v>
   <v>       0.00606061 </v>
   <v>       0.00606061 </v>
   <v>       0.00606061 </v>
   <v>       0.00606061 </v>
   <v>       0.00606061 </v>
   <v>       0.00606061 </v>
   <v>       0.00606061 </v>
   <v>       0.00606061 </v>
   <v>       0.00606061 </v>
   <v>       0.00606061 </v>
   <v>       0.00606061 </v>
   <v>       0.00606061 </v>
   <v>       0.00606061 </v>
   <v>       0.00606061 </v>
   <v>       0.00606061 </v>
   <v>       0.00606061 </v>
   <v>       0.00606061 </v>
  </varray>
 </kpoints>
 <parameters>
  <separator name="general" >
   <i type="string" name="SYSTEM">unknown system</i>
   <i type="logical" name="LCOMPAT"> F  </i>
  </separator>
  <separator name="electronic" >
   <i type="string" name="PREC">a</i>
   <i name="ENMAX">    520.00000000</i>
   <i name="ENAUG">    342.92400000</i>
   <i name="EDIFF">      0.00001000</i>
   <i type="int" name="IALGO">    38</i>
   <i type="int" name="IWAVPR">    11</i>
   <i type="int" name="NBANDS">    16</i>
   <i name="NELECT">     20.00000000</i>
   <i type="int" name="TURBO">     0</i>
   <i type="int" name="IRESTART">     0</i>
   <i type="int" name="NREBOOT">     0</i>
   <i type="int" name="NMIN">     0</i>
   <i name="EREF">      0.00000000</i>
   <separator name="electronic smearing" >
    <i type="int" name="ISMEAR">     0</i>
    <i name="SIGMA">      0.02000000</i>
    <i name="KSPACING">      0.50000000</i>
    <i type="logical" name="KGAMMA"> T  </i>
   </separator>
   <separator name="electronic projectors" >
    <i type="logical" name="LREAL"> F  </i>
    <v name="ROPT">      0.00000000</v>
    <i type="int" name="LMAXPAW">  -100</i>
    <i type="int" name="LMAXMIX">     2</i>
    <i type="logical" name="NLSPLINE"> F  </i>
   </separator>
   <separator name="electronic startup" >
    <i type="int" name="ISTART">     0</i>
    <i type="int" name="ICHARG">     2</i>
    <i type="int" name="INIWAV">     1</i>
   </separator>
   <separator name="electronic spin" >
    <i type="int" name="ISPIN">     1</i>
    <i type="logical" name="LNONCOLLINEAR"> F  </i>
    <v name="MAGMOM">      1.00000000      1.00000000      1.00000000      1.00000000</v>
    <i name="NUPDOWN">     -1.00000000</i>
    <i type="logical" name="LSORBIT"> F  </i>
    <v name="SAXIS">      0.00000000      0.00000000      1.00000000</v>
    <i type="logical" name="LSPIRAL"> F  </i>
    <v name="QSPIRAL">      0.00000000      0.00000000      0.00000000</v>
    <i type="logical" name="LZEROZ"> F  </i>
   </separator>
   <separator name="electronic exchange-correlation" >
    <i type="logical" name="LASPH"> F  </i>
    <i type="logical" name="LMETAGGA"> F  </i>
   </separator>
   <separator name="electronic convergence" >
    <i type="int" name="NELM">   250</i>
    <i type="int" name="NELMDL">    -5</i>
    <i type="int" name="NELMIN">     6</i>
    <i name="ENINI">    520.00000000</i>
    <separator name="electronic convergence detail" >
     <i type="logical" name="LDIAG"> T  </i>
     <i type="logical" name="LSUBROT"> F  </i>
     <i name="WEIMIN">      0.00100000</i>
     <i name="EBREAK">      0.00000016</i>
     <i name="DEPER">      0.30000000</i>
     <i type="int" name="NRMM">     4</i>
     <i name="TIME">      0.40000000</i>
    </separator>
   </separator>
   <separator name="electronic mixer" >
    <i name="AMIX">      0.40000000</i>
    <i name="BMIX">      1.00000000</i>
    <i name="AMIN">      0.10000000</i>
    <i name="AMIX_MAG">      1.60000000</i>
    <i name="BMIX_MAG">      1.00000000</i>
    <separator name="electronic mixer details" >
     <i type="int" name="IMIX">     4</i>
     <i type="logical" name="MIXFIRST"> F  </i>
     <i type="int" name="MAXMIX">   -45</i>
     <i name="WC">    100.00000000</i>
     <i type="int" name="INIMIX">     1</i>
     <i type="int" name="MIXPRE">     1</i>
     <i type="int" name="MREMOVE">     5</i>
    </separator>
   </separator>
   <separator name="electronic dipolcorrection" >
    <i type="logical" name="LDIPOL"> F  </i>
    <i type="logical" name="LMONO"> F  </i>
    <i type="int" name="IDIPOL">     0</i>
    <i name="EPSILON">      1.00000000</i>
    <v name="DIPOL">   -100.00000000   -100.00000000   -100.00000000</v>
    <i name="EFIELD">      0.00000000</i>
   </separator>
  </separator>
  <separator name="grids" >
   <i type="int" name="NGX">    28</i>
   <i type="int" name="NGY">    40</i>
   <i type="int" name="NGZ">   150</i>
   <i type="int" name="NGXF">    56</i>
   <i type="int" name="NGYF">    80</i>
   <i type="int" name="NGZF">   300</i>
   <i type="logical" name="ADDGRID"> F  </i>
  </separator>
  <separator name="ionic" >
   <i type="int" name="NSW">   200</i>
   <i type="int" name="IBRION">     2</i>
   <i type="int" name="ISIF">     2</i>
   <i name="PSTRESS">      0.00000000</i>
   <i name="EDIFFG">     -0.01000000</i>
   <i type="int" name="NFREE">     1</i>
   <i name="POTIM">      0.30000000</i>
   <i name="SMASS">     -3.00000000</i>
   <i name="SCALEE">      1.00000000</i>
  </separator>
  <separator name="ionic md" >
   <i name="TEBEG">      0.00010000</i>
   <i name="TEEND">      0.00010000</i>
   <i type="int" name="NBLOCK">     1</i>
   <i type="int" name="KBLOCK">   200</i>
   <i type="int" name="NPACO">   256</i>
   <i name="APACO">     16.00000000</i>
  </separator>
  <separator name="symmetry" >
   <i type="int" name="ISYM">     2</i>
   <i name="SYMPREC">      0.00001000</i>
  </separator>
  <separator name="dos" >
   <i type="logical" name="LORBIT"> F  </i>
   <v name="RWIGS">     -1.00000000</v>
   <i type="int" name="NEDOS">   301</i>
   <i name="EMIN">     10.00000000</i>
   <i name="EMAX">    -10.00000000</i>
   <i name="EFERMI">      0.00000000</i>
  </separator>
  <separator name="writing" >
   <i type="int" name="NWRITE">     2</i>
   <i type="logical" name="LWAVE"> F  </i>
   <i type="logical" name="LCHARG"> F  </i>
   <i type="logical" name="LPARD"> F  </i>
   <i type="logical" name="LVTOT"> F  </i>
   <i type="logical" name="LVHAR"> F  </i>
   <i type="logical" name="LELF"> F  </i>
   <i type="logical" name="LOPTICS"> F  </i>
   <v name="STM">      0.00000000      0.00000000      0.00000000      0.00000000      0.00000000      0.00000000      0.00000000</v>
  </separator>
  <separator name="performance" >
   <i type="int" name="NPAR">     4</i>
   <i type="int" name="NSIM">     4</i>
   <i type="int" name="NBLK">    -1</i>
   <i type="logical" name="LPLANE"> T  </i>
   <i type="logical" name="LSCALAPACK"> T  </i>
   <i type="logical" name="LSCAAWARE"> F  </i>
   <i type="logical" name="LSCALU"> F  </i>
   <i type="logical" name="LASYNC"> F  </i>
   <i type="logical" name="LORBITALREAL"> F  </i>
  </separator>
  <separator name="miscellaneous" >
   <i type="int" name="IDIOT">     3</i>
   <i type="logical" name="LMUSIC"> F  </i>
   <v name="POMASS">     30.97400000</v>
   <v name="DARWINR">      0.00000000</v>
   <v name="DARWINV">      1.00000000</v>
   <i type="logical" name="LCORR"> T  </i>
  </separator>
  <i type="logical" name="GGA_COMPAT"> T  </i>
  <i type="logical" name="LBERRY"> F  </i>
  <i type="int" name="ICORELEVEL">     0</i>
  <i type="logical" name="LDAU"> F  </i>
  <i type="int" name="I_CONSTRAINED_M">     0</i>
  <separator name="electronic exchange-correlation" >
   <i type="string" name="GGA">--</i>
   <i type="int" name="VOSKOWN">     0</i>
   <i type="logical" name="LHFCALC"> F  </i>
   <i type="string" name="PRECFOCK"></i>
   <i type="logical" name="LSYMGRAD"> F  </i>
   <i type="logical" name="LHFONE"> F  </i>
   <i type="logical" name="LRHFCALC"> F  </i>
   <i type="logical" name="LTHOMAS"> F  </i>
   <i type="logical" name="LMODELHF"> F  </i>
   <i name="ENCUT4O">     -1.00000000</i>
   <i type="int" name="EXXOEP">     0</i>
   <i type="int" name="FOURORBIT">     0</i>
   <i name="AEXX">      0.00000000</i>
   <i name="HFALPHA">      0.00000000</i>
   <i name="MCALPHA">      0.00000000</i>
   <i name="ALDAX">      1.00000000</i>
   <i name="AGGAX">      1.00000000</i>
   <i name="ALDAC">      1.00000000</i>
   <i name="AGGAC">      1.00000000</i>
   <i type="int" name="NKREDX">     1</i>
   <i type="int" name="NKREDY">     1</i>
   <i type="int" name="NKREDZ">     1</i>
   <i type="logical" name="SHIFTRED"> F  </i>
   <i type="logical" name="ODDONLY"> F  </i>
   <i type="logical" name="EVENONLY"> F  </i>
   <i type="int" name="LMAXFOCK">     0</i>
   <i type="int" name="NMAXFOCKAE">     0</i>
   <i type="logical" name="LFOCKAEDFT"> F  </i>
   <i name="HFSCREEN">      0.00000000</i>
   <i name="HFSCREENC">      0.00000000</i>
   <i type="int" name="NBANDSGWLOW">     0</i>
  </separator>
  <separator name="vdW DFT" >
   <i type="logical" name="LUSE_VDW"> F  </i>
   <i name="Zab_VDW">     -0.84910000</i>
   <i name="PARAM1">      0.12340000</i>
   <i name="PARAM2">      1.00000000</i>
   <i name="PARAM3">      0.00000000</i>
  </separator>
  <separator name="model GW" >
   <i type="int" name="MODEL_GW">     0</i>
   <i name="MODEL_EPS0">     48.88838154</i>
   <i name="MODEL_ALPHA">      1.00000000</i>
  </separator>
  <separator name="linear response parameters" >
   <i type="logical" name="LEPSILON"> F  </i>
   <i type="logical" name="LRPA"> F  </i>
   <i type="logical" name="LNABLA"> F  </i>
   <i type="logical" name="LVEL"> F  </i>
   <i type="int" name="KINTER">     0</i>
   <i name="CSHIFT">      0.10000000</i>
   <i name="OMEGAMAX">     -1.00000000</i>
   <i name="DEG_THRESHOLD">      0.00200000</i>
  </separator>
  <separator name="orbital magnetization" >
   <i type="logical" name="NUCIND"> F  </i>
   <v name="MAGPOS">      0.00000000      0.00000000      0.00000000</v>
   <i type="logical" name="LNICSALL"> T  </i>
   <i type="logical" name="ORBITALMAG"> F  </i>
   <i type="logical" name="LMAGBLOCH"> F  </i>
   <i type="logical" name="LCHIMAG"> F  </i>
   <i type="logical" name="LGAUGE"> T  </i>
   <i type="int" name="MAGATOM">     0</i>
   <v name="MAGDIPOL">      0.00000000      0.00000000      0.00000000</v>
   <v name="AVECCONST">      0.00000000      0.00000000      0.00000000</v>
  </separator>
  <separator name="response functions" >
   <i type="logical" name="LADDER"> F  </i>
   <i type="logical" name="LFXC"> F  </i>
   <i type="logical" name="LHARTREE"> T  </i>
   <i type="int" name="IBSE">     0</i>
   <v type="int" name="KPOINT">    -1     0     0     0</v>
   <i type="logical" name="LTCTE"> F  </i>
   <i type="logical" name="LTETE"> F  </i>
   <i type="logical" name="LTRIPLET"> F  </i>
   <i type="logical" name="LFXCEPS"> F  </i>
   <i type="logical" name="LFXHEG"> F  </i>
   <i type="int" name="NATURALO">     0</i>
   <i type="logical" name="L2ORDER"> F  </i>
   <i type="logical" name="LUSEW"> F  </i>
   <i name="ENCUTGW">     -2.00000000</i>
   <i name="ENCUTGWSOFT">     -2.00000000</i>
   <i name="ENCUTLF">     -1.00000000</i>
   <i type="int" name="LMAXMP2">    -1</i>
   <i name="SCISSOR">      0.00000000</i>
   <i type="int" name="NOMEGA">     0</i>
   <i type="int" name="NOMEGAR">     0</i>
   <i type="int" name="NBANDSGW">    -1</i>
   <i type="int" name="NBANDSO">    -1</i>
   <i type="int" name="NBANDSV">    -1</i>
   <i type="int" name="NELM">   250</i>
   <i type="int" name="NELMHF">     1</i>
   <i type="int" name="DIM">     3</i>
   <i type="int" name="ANTIRES">     0</i>
   <i name="OMEGAMAX">    -30.00000000</i>
   <i name="OMEGAMIN">    -30.00000000</i>
   <i name="OMEGATL">   -200.00000000</i>
   <i type="int" name="OMEGAGRID">     0</i>
   <i name="CSHIFT">     -0.10000000</i>
   <i type="logical" name="SELFENERGY"> F  </i>
   <i type="logical" name="LSPECTRAL"> F  </i>
   <i type="logical" name="LSPECTRALGW"> F  </i>
   <i type="logical" name="LSINGLES"> F  </i>
   <i type="logical" name="LFERMIGW"> F  </i>
   <i type="logical" name="ODDONLYGW"> F  </i>
   <i type="logical" name="EVENONLYGW"> F  </i>
   <i type="int" name="NKREDLFX">     1</i>
   <i type="int" name="NKREDLFY">     1</i>
   <i type="int" name="NKREDLFZ">     1</i>
   <i type="int" name="MAXMEM">  1800</i>
   <i type="int" name="TELESCOPE">     0</i>
   <i type="int" name="TAUPAR">     1</i>
   <i type="int" name="OMEGAPAR">    -1</i>
   <i name="LAMBDA">      1.00000000</i>
  </separator>
  <separator name="External order field" >
   <i name="OFIELD_KAPPA">      0.00000000</i>
   <v name="OFIELD_K">      0.00000000      0.00000000      0.00000000</v>
   <i name="OFIELD_Q6_NEAR">      0.00000000</i>
   <i name="OFIELD_Q6_FAR">      0.00000000</i>
   <i name="OFIELD_A">      0.00000000</i>
  </separator>
 </parameters>
 <atominfo>
  <atoms>       4 </atoms>
  <types>       1 </types>
  <array name="atoms" >
   <dimension dim="1">ion</dimension>
   <field type="string">element</field>
   <field type="int">atomtype</field>
   <set>
    <rc><c>P </c><c>   1</c></rc>
    <rc><c>P </c><c>   1</c></rc>
    <rc><c>P </c><c>   1</c></rc>
    <rc><c>P </c><c>   1</c></rc>
   </set>
  </array>
  <array name="atomtypes" >
   <dimension dim="1">type</dimension>
   <field type="int">atomspertype</field>
   <field type="string">element</field>
   <field>mass</field>
   <field>valence</field>
   <field type="string">pseudopotential</field>
   <set>
    <rc><c>   4</c><c>P </c><c>     30.97400000</c><c>      5.00000000</c><c>  PAW_PBE P 06Sep2000                   </c></rc>
   </set>
  </array>
 </atominfo>
 <structure name="initialpos" >
  <crystal>
   <varray name="basis" >
    <v>       3.29720400       0.00000000       0.00000000 </v>
    <v>       0.00000000       4.93638800      -0.00005300 </v>
    <v>       0.00000000       0.00000000      20.02439000 </v>
   </varray>
   <i name="volume">    325.92254361 </i>
   <varray name="rec_basis" >
    <v>       0.30328727       0.00000000       0.00000000 </v>
    <v>       0.00000000       0.20257727       0.00000000 </v>
    <v>       0.00000000       0.00000054       0.04993910 </v>
   </varray>
  </crystal>
  <varray name="positions" >
   <v>       0.50000000       0.91077300       0.55252100 </v>
   <v>       0.50000000       0.08922700       0.44747900 </v>
   <v>       0.00000000       0.41076900       0.44747900 </v>
   <v>       0.00000000       0.58923100       0.55252100 </v>
  </varray>
 </structure>
 <calculation>
  <scstep>
   <time name="dav">    1.69    1.69</time>
   <time name="total">    1.72    1.72</time>
   <energy>
    <i name="alphaZ">      4.92190881 </i>
    <i name="ewald">   1715.90585996 </i>
    <i name="hartreedc">  -2310.38163107 </i>
    <i name="XCdc">     12.47882195 </i>
    <i name="pawpsdc">    559.04011960 </i>
    <i name="pawaedc">   -526.39432044 </i>
    <i name="eentropy">     -0.00044329 </i>
    <i name="bandstr">    -29.36752803 </i>
    <i name="atom">    704.16778566 </i>
    <i name="e_fr_energy">    130.37057314 </i>
    <i name="e_wo_entrp">    130.37101644 </i>
    <i name="e_0_energy">    130.37079479 </i>
   </energy>
  </scstep>
  <scstep>
   <time name="dav">    2.27    2.27</time>
   <time name="total">    2.27    2.27</time>
   <energy>
    <i name="e_fr_energy">     -5.98131753 </i>
    <i name="e_wo_entrp">     -5.98131753 </i>
    <i name="e_0_energy">     -5.98131753 </i>
   </energy>
  </scstep>
  <scstep>
   <time name="dav">    2.08    2.08</time>
   <time name="total">    2.08    2.08</time>
   <energy>
    <i name="e_fr_energy">    -21.17365642 </i>
    <i name="e_wo_entrp">    -21.17365642 </i>
    <i name="e_0_energy">    -21.17365642 </i>
   </energy>
  </scstep>
  <scstep>
   <time name="dav">    2.11    2.11</time>
   <time name="total">    2.11    2.11</time>
   <energy>
    <i name="e_fr_energy">    -21.48363057 </i>
    <i name="e_wo_entrp">    -21.48363057 </i>
    <i name="e_0_energy">    -21.48363057 </i>
   </energy>
  </scstep>
  <scstep>
   <time name="dav">    2.24    2.24</time>
   <time name="total">    2.35    2.35</time>
   <energy>
    <i name="e_fr_energy">    -21.49369927 </i>
    <i name="e_wo_entrp">    -21.49369927 </i>
    <i name="e_0_energy">    -21.49369927 </i>
   </energy>
  </scstep>
  <scstep>
   <time name="dav">    2.05    2.05</time>
   <time name="total">    2.18    2.18</time>
   <energy>
    <i name="e_fr_energy">    -21.37218413 </i>
    <i name="e_wo_entrp">    -21.37218413 </i>
    <i name="e_0_energy">    -21.37218413 </i>
   </energy>
  </scstep>
  <scstep>
   <time name="dav">    1.98    1.98</time>
   <time name="total">    2.11    2.11</time>
   <energy>
    <i name="e_fr_energy">    -21.31482684 </i>
    <i name="e_wo_entrp">    -21.31482684 </i>
    <i name="e_0_energy">    -21.31482684 </i>
   </energy>
  </scstep>
  <scstep>
   <time name="dav">    2.08    2.08</time>
   <time name="total">    2.21    2.21</time>
   <energy>
    <i name="e_fr_energy">    -21.31448886 </i>
    <i name="e_wo_entrp">    -21.31448886 </i>
    <i name="e_0_energy">    -21.31448886 </i>
   </energy>
  </scstep>
  <scstep>
   <time name="dav">    2.35    2.35</time>
   <time name="total">    2.48    2.48</time>
   <energy>
    <i name="e_fr_energy">    -21.31441159 </i>
    <i name="e_wo_entrp">    -21.31441159 </i>
    <i name="e_0_energy">    -21.31441159 </i>
   </energy>
  </scstep>
  <scstep>
   <time name="dav">    2.04    2.04</time>
   <time name="total">    2.17    2.17</time>
   <energy>
    <i name="e_fr_energy">    -21.31428281 </i>
    <i name="e_wo_entrp">    -21.31428281 </i>
    <i name="e_0_energy">    -21.31428281 </i>
   </energy>
  </scstep>
  <scstep>
   <time name="dav">    2.05    2.05</time>
   <time name="total">    2.17    2.17</time>
   <energy>
    <i name="e_fr_energy">    -21.31424541 </i>
    <i name="e_wo_entrp">    -21.31424541 </i>
    <i name="e_0_energy">    -21.31424541 </i>
   </energy>
  </scstep>
  <scstep>
   <time name="dav">    1.78    1.78</time>
   <time name="total">    1.91    1.91</time>
   <energy>
    <i name="e_fr_energy">    -21.31451141 </i>
    <i name="e_wo_entrp">    -21.31451141 </i>
    <i name="e_0_energy">    -21.31451141 </i>
   </energy>
  </scstep>
  <scstep>
   <time name="dav">    1.82    1.82</time>
   <time name="total">    1.94    1.95</time>
   <energy>
    <i name="e_fr_energy">    -21.31459527 </i>
    <i name="e_wo_entrp">    -21.31459527 </i>
    <i name="e_0_energy">    -21.31459527 </i>
   </energy>
  </scstep>
  <scstep>
   <time name="dav">    1.73    1.74</time>
   <time name="total">    1.86    1.87</time>
   <energy>
    <i name="e_fr_energy">    -21.31475521 </i>
    <i name="e_wo_entrp">    -21.31475521 </i>
    <i name="e_0_energy">    -21.31475521 </i>
   </energy>
  </scstep>
  <scstep>
   <time name="dav">    1.74    1.75</time>
   <time name="total">    1.87    1.87</time>
   <energy>
    <i name="e_fr_energy">    -21.31477386 </i>
    <i name="e_wo_entrp">    -21.31477386 </i>
    <i name="e_0_energy">    -21.31477386 </i>
   </energy>
  </scstep>
  <scstep>
   <time name="dav">    1.63    1.63</time>
   <time name="total">    1.75    1.76</time>
   <energy>
    <i name="e_fr_energy">    -21.31480842 </i>
    <i name="e_wo_entrp">    -21.31480842 </i>
    <i name="e_0_energy">    -21.31480842 </i>
   </energy>
  </scstep>
  <scstep>
   <time name="dav">    1.66    1.66</time>
   <time name="total">    1.69    1.69</time>
   <energy>
    <i name="alphaZ">      4.92190881 </i>
    <i name="ewald">   1715.90585996 </i>
    <i name="hartreedc">  -2323.72149319 </i>
    <i name="XCdc">     13.45119077 </i>
    <i name="pawpsdc">   1843.72065224 </i>
    <i name="pawaedc">  -1811.32056273 </i>
    <i name="eentropy">     -0.00000000 </i>
    <i name="bandstr">   -168.44015393 </i>
    <i name="atom">    704.16778566 </i>
    <i name="e_fr_energy">    -21.31481241 </i>
    <i name="e_wo_entrp">    -21.31481241 </i>
    <i name="e_0_energy">    -21.31481241 </i>
   </energy>
  </scstep>
  <structure>
   <crystal>
    <varray name="basis" >
     <v>       3.29720400       0.00000000       0.00000000 </v>
     <v>       0.00000000       4.93638800      -0.00005300 </v>
     <v>       0.00000000       0.00000000      20.02439000 </v>
    </varray>
    <i name="volume">    325.92254361 </i>
    <varray name="rec_basis" >
     <v>       0.30328727       0.00000000       0.00000000 </v>
     <v>       0.00000000       0.20257727       0.00000000 </v>
     <v>       0.00000000       0.00000054       0.04993910 </v>
    </varray>
   </crystal>
   <varray name="positions" >
    <v>       0.50000000       0.91077300       0.55252100 </v>
    <v>       0.50000000       0.08922700       0.44747900 </v>
    <v>       0.00000000       0.41076900       0.44747900 </v>
    <v>       0.00000000       0.58923100       0.55252100 </v>
   </varray>
  </structure>
  <varray name="forces" >
   <v>       0.00000007      -0.87501817      -0.17576437 </v>
   <v>      -0.00000007       0.87501817       0.17576437 </v>
   <v>       0.00000002      -0.87502922       0.17578606 </v>
   <v>      -0.00000002       0.87502922      -0.17578606 </v>
  </varray>
  <varray name="stress" >
   <v>      -7.09509603       0.00000073       0.00000102 </v>
   <v>       0.00000068     -21.52048748       0.00034446 </v>
   <v>       0.00000101       0.00034451      -3.69649868 </v>
  </varray>
  <energy>
   <i name="e_fr_energy">    -21.31481241 </i>
   <i name="e_wo_entrp">    -21.31481241 </i>
   <i name="e_0_energy">     -0.00000000 </i>
  </energy>
  <time name="totalsc">   35.72   35.77</time>
 </calculation>
 <calculation>
  <scstep>
   <time name="dav">    1.78    1.78</time>
   <time name="total">    1.90    1.91</time>
   <energy>
    <i name="alphaZ">      4.92190881 </i>
    <i name="ewald">   1724.07377623 </i>
    <i name="hartreedc">  -2330.56496587 </i>
    <i name="XCdc">     13.59969147 </i>
    <i name="pawpsdc">   1843.36584459 </i>
    <i name="pawaedc">  -1810.96580328 </i>
    <i name="eentropy">     -0.00000000 </i>
    <i name="bandstr">   -169.97393993 </i>
    <i name="atom">    704.16778566 </i>
    <i name="e_fr_energy">    -21.37570231 </i>
    <i name="e_wo_entrp">    -21.37570231 </i>
    <i name="e_0_energy">    -21.37570231 </i>
   </energy>
  </scstep>
  <scstep>
   <time name="dav">    2.06    2.06</time>
   <time name="total">    2.19    2.19</time>
   <energy>
    <i name="e_fr_energy">    -21.38433019 </i>
    <i name="e_wo_entrp">    -21.38433019 </i>
    <i name="e_0_energy">    -21.38433019 </i>
   </energy>
  </scstep>
  <scstep>
   <time name="dav">    2.30    2.30</time>
   <time name="total">    2.43    2.43</time>
   <energy>
    <i name="e_fr_energy">    -21.38429733 </i>
    <i name="e_wo_entrp">    -21.38429733 </i>
    <i name="e_0_energy">    -21.38429733 </i>
   </energy>
  </scstep>
  <scstep>
   <time name="dav">    2.23    2.23</time>
   <time name="total">    2.36    2.36</time>
   <energy>
    <i name="e_fr_energy">    -21.38426637 </i>
    <i name="e_wo_entrp">    -21.38426637 </i>
    <i name="e_0_energy">    -21.38426637 </i>
   </energy>
  </scstep>
  <scstep>
   <time name="dav">    1.95    1.95</time>
   <time name="total">    2.08    2.08</time>
   <energy>
    <i name="e_fr_energy">    -21.38427541 </i>
    <i name="e_wo_entrp">    -21.38427541 </i>
    <i name="e_0_energy">    -21.38427541 </i>
   </energy>
  </scstep>
  <scstep>
   <time name="dav">    1.54    1.54</time>
   <time name="total">    1.56    1.56</time>
   <energy>
    <i name="alphaZ">      4.92190881 </i>
    <i name="ewald">   1724.07377623 </i>
    <i name="hartreedc">  -2330.58806103 </i>
    <i name="XCdc">     13.61488882 </i>
    <i name="pawpsdc">   1927.54965818 </i>
    <i name="pawaedc">  -1895.18047368 </i>
    <i name="eentropy">     -0.00000000 </i>
    <i name="bandstr">   -169.94375855 </i>
    <i name="atom">    704.16778566 </i>
    <i name="e_fr_energy">    -21.38427556 </i>
    <i name="e_wo_entrp">    -21.38427556 </i>
    <i name="e_0_energy">    -21.38427556 </i>
   </energy>
  </scstep>
  <structure>
   <crystal>
    <varray name="basis" >
     <v>       3.29720400       0.00000000       0.00000000 </v>
     <v>       0.00000000       4.93638800      -0.00005300 </v>
     <v>       0.00000000       0.00000000      20.02439000 </v>
    </varray>
    <i name="volume">    325.92254361 </i>
    <varray name="rec_basis" >
     <v>       0.30328727       0.00000000       0.00000000 </v>
     <v>       0.00000000       0.20257727       0.00000000 </v>
     <v>       0.00000000       0.00000054       0.04993910 </v>
    </varray>
   </crystal>
   <varray name="positions" >
    <v>       0.50000000       0.90564214       0.55226692 </v>
    <v>       0.50000000       0.09435786       0.44773308 </v>
    <v>       0.00000000       0.40563807       0.44773309 </v>
    <v>      -0.00000000       0.59436193       0.55226691 </v>
   </varray>
  </structure>
  <varray name="forces" >
   <v>       0.00000019      -0.41567826      -0.17286628 </v>
   <v>      -0.00000019       0.41567826       0.17286628 </v>
   <v>       0.00000032      -0.41568833       0.17287385 </v>
   <v>      -0.00000032       0.41568833      -0.17287385 </v>
  </varray>
  <varray name="stress" >
   <v>      -6.04365034       0.00000520       0.00000488 </v>
   <v>       0.00000522     -14.52526322       0.00026225 </v>
   <v>       0.00000490       0.00026230      -3.71873209 </v>
  </varray>
  <energy>
   <i name="e_fr_energy">    -21.38427556 </i>
   <i name="e_wo_entrp">    -21.38427556 </i>
   <i name="e_0_energy">     -0.00000000 </i>
  </energy>
  <time name="totalsc">   13.37   13.39</time>
 </calculation>
 <calculation>
  <scstep>
   <time name="dav">    1.79    1.79</time>
   <time name="total">    1.91    1.92</time>
   <energy>
    <i name="alphaZ">      4.92190881 </i>
    <i name="ewald">   1731.31100147 </i>
    <i name="hartreedc">  -2336.53591466 </i>
    <i name="XCdc">     13.74517920 </i>
    <i name="pawpsdc">   1927.97562747 </i>
    <i name="pawaedc">  -1895.60607427 </i>
    <i name="eentropy">     -0.00000000 </i>
    <i name="bandstr">   -171.37761920 </i>
    <i name="atom">    704.16778566 </i>
    <i name="e_fr_energy">    -21.39810551 </i>
    <i name="e_wo_entrp">    -21.39810551 </i>
    <i name="e_0_energy">    -21.39810551 </i>
   </energy>
  </scstep>
  <scstep>
   <time name="dav">    2.07    2.07</time>
   <time name="total">    2.20    2.20</time>
   <energy>
    <i name="e_fr_energy">    -21.40476098 </i>
    <i name="e_wo_entrp">    -21.40476098 </i>
    <i name="e_0_energy">    -21.40476098 </i>
   </energy>
  </scstep>
  <scstep>
   <time name="dav">    2.27    2.27</time>
   <time name="total">    2.39    2.40</time>
   <energy>
    <i name="e_fr_energy">    -21.40473404 </i>
    <i name="e_wo_entrp">    -21.40473404 </i>
    <i name="e_0_energy">    -21.40473404 </i>
   </energy>
  </scstep>
  <scstep>
   <time name="dav">    2.24    2.24</time>
   <time name="total">    2.36    2.36</time>
   <energy>
    <i name="e_fr_energy">    -21.40470995 </i>
    <i name="e_wo_entrp">    -21.40470995 </i>
    <i name="e_0_energy">    -21.40470995 </i>
   </energy>
  </scstep>
  <scstep>
   <time name="dav">    1.85    1.85</time>
   <time name="total">    1.98    1.98</time>
   <energy>
    <i name="e_fr_energy">    -21.40471973 </i>
    <i name="e_wo_entrp">    -21.40471973 </i>
    <i name="e_0_energy">    -21.40471973 </i>
   </energy>
  </scstep>
  <scstep>
   <time name="dav">    1.53    1.53</time>
   <time name="total">    1.56    1.56</time>
   <energy>
    <i name="alphaZ">      4.92190881 </i>
    <i name="ewald">   1731.31100147 </i>
    <i name="hartreedc">  -2336.57685460 </i>
    <i name="XCdc">     13.75946547 </i>
    <i name="pawpsdc">   2007.05976825 </i>
    <i name="pawaedc">  -1974.71959763 </i>
    <i name="eentropy">     -0.00000000 </i>
    <i name="bandstr">   -171.32819793 </i>
    <i name="atom">    704.16778566 </i>
    <i name="e_fr_energy">    -21.40472049 </i>
    <i name="e_wo_entrp">    -21.40472049 </i>
    <i name="e_0_energy">    -21.40472049 </i>
   </energy>
  </scstep>
  <structure>
   <crystal>
    <varray name="basis" >
     <v>       3.29720400       0.00000000       0.00000000 </v>
     <v>       0.00000000       4.93638800      -0.00005300 </v>
     <v>       0.00000000       0.00000000      20.02439000 </v>
    </varray>
    <i name="volume">    325.92254361 </i>
    <varray name="rec_basis" >
     <v>       0.30328727       0.00000000       0.00000000 </v>
     <v>       0.00000000       0.20257727       0.00000000 </v>
     <v>       0.00000000       0.00000054       0.04993910 </v>
    </varray>
   </crystal>
   <varray name="positions" >
    <v>       0.50000000       0.90118855       0.55204637 </v>
    <v>       0.50000000       0.09881145       0.44795363 </v>
    <v>       0.00000000       0.40118443       0.44795364 </v>
    <v>      -0.00000000       0.59881557       0.55204636 </v>
   </varray>
  </structure>
  <varray name="forces" >
   <v>      -0.00000001       0.03012630      -0.17637267 </v>
   <v>       0.00000001      -0.03012630       0.17637267 </v>
   <v>       0.00000012       0.03011880       0.17636918 </v>
   <v>      -0.00000012      -0.03011880      -0.17636918 </v>
  </varray>
  <varray name="stress" >
   <v>      -4.46184086       0.00000046       0.00000326 </v>
   <v>       0.00000048      -8.11957150       0.00016847 </v>
   <v>       0.00000331       0.00016840      -3.76242183 </v>
  </varray>
  <energy>
   <i name="e_fr_energy">    -21.40472049 </i>
   <i name="e_wo_entrp">    -21.40472049 </i>
   <i name="e_0_energy">     -0.00000000 </i>
  </energy>
  <time name="totalsc">   13.26   13.28</time>
 </calculation>
 <calculation>
  <scstep>
   <time name="dav">    1.65    1.65</time>
   <time name="total">    1.78    1.78</time>
   <energy>
    <i name="alphaZ">      4.92190881 </i>
    <i name="ewald">   1736.56724787 </i>
    <i name="hartreedc">  -2341.52932429 </i>
    <i name="XCdc">     13.79489482 </i>
    <i name="pawpsdc">   2007.49079300 </i>
    <i name="pawaedc">  -1975.15040882 </i>
    <i name="eentropy">     -0.00000000 </i>
    <i name="bandstr">   -171.67045094 </i>
    <i name="atom">    704.16778566 </i>
    <i name="e_fr_energy">    -21.40755389 </i>
    <i name="e_wo_entrp">    -21.40755389 </i>
    <i name="e_0_energy">    -21.40755389 </i>
   </energy>
  </scstep>
  <scstep>
   <time name="dav">    2.10    2.10</time>
   <time name="total">    2.22    2.23</time>
   <energy>
    <i name="e_fr_energy">    -21.40821702 </i>
    <i name="e_wo_entrp">    -21.40821702 </i>
    <i name="e_0_energy">    -21.40821702 </i>
   </energy>
  </scstep>
  <scstep>
   <time name="dav">    2.29    2.29</time>
   <time name="total">    2.42    2.42</time>
   <energy>
    <i name="e_fr_energy">    -21.40820526 </i>
    <i name="e_wo_entrp">    -21.40820526 </i>
    <i name="e_0_energy">    -21.40820526 </i>
   </energy>
  </scstep>
  <scstep>
   <time name="dav">    1.95    1.95</time>
   <time name="total">    2.07    2.08</time>
   <energy>
    <i name="e_fr_energy">    -21.40820549 </i>
    <i name="e_wo_entrp">    -21.40820549 </i>
    <i name="e_0_energy">    -21.40820549 </i>
   </energy>
  </scstep>
  <scstep>
   <time name="dav">    1.45    1.45</time>
   <time name="total">    1.58    1.58</time>
   <energy>
    <i name="e_fr_energy">    -21.40820593 </i>
    <i name="e_wo_entrp">    -21.40820593 </i>
    <i name="e_0_energy">    -21.40820593 </i>
   </energy>
  </scstep>
  <scstep>
   <time name="dav">    1.39    1.39</time>
   <time name="total">    1.41    1.41</time>
   <energy>
    <i name="alphaZ">      4.92190881 </i>
    <i name="ewald">   1736.56724787 </i>
    <i name="hartreedc">  -2341.50754278 </i>
    <i name="XCdc">     13.79658791 </i>
    <i name="pawpsdc">   2023.69315272 </i>
    <i name="pawaedc">  -1991.35819010 </i>
    <i name="eentropy">     -0.00000000 </i>
    <i name="bandstr">   -171.68915716 </i>
    <i name="atom">    704.16778566 </i>
    <i name="e_fr_energy">    -21.40820707 </i>
    <i name="e_wo_entrp">    -21.40820707 </i>
    <i name="e_0_energy">    -21.40820707 </i>
   </energy>
  </scstep>
  <structure>
   <crystal>
    <varray name="basis" >
     <v>       3.29720400       0.00000000       0.00000000 </v>
     <v>       0.00000000       4.93638800      -0.00005300 </v>
     <v>       0.00000000       0.00000000      20.02439000 </v>
    </varray>
    <i name="volume">    325.92254361 </i>
    <varray name="rec_basis" >
     <v>       0.30328727       0.00000000       0.00000000 </v>
     <v>       0.00000000       0.20257727       0.00000000 </v>
     <v>       0.00000000       0.00000054       0.04993910 </v>
    </varray>
   </crystal>
   <varray name="positions" >
    <v>       0.50000000       0.90118896       0.55173692 </v>
    <v>       0.50000000       0.09881104       0.44826308 </v>
    <v>       0.00000000       0.40118479       0.44826309 </v>
    <v>      -0.00000000       0.59881521       0.55173691 </v>
   </varray>
  </structure>
  <varray name="forces" >
   <v>       0.00000011       0.01223892      -0.10272216 </v>
   <v>      -0.00000011      -0.01223892       0.10272216 </v>
   <v>       0.00000006       0.01223275       0.10272079 </v>
   <v>      -0.00000006      -0.01223275      -0.10272079 </v>
  </varray>
  <varray name="stress" >
   <v>      -4.32478689       0.00000340       0.00000220 </v>
   <v>       0.00000338      -7.80723771       0.00015021 </v>
   <v>       0.00000215       0.00015019      -2.19912955 </v>
  </varray>
  <energy>
   <i name="e_fr_energy">    -21.40820707 </i>
   <i name="e_wo_entrp">    -21.40820707 </i>
   <i name="e_0_energy">     -0.00000000 </i>
  </energy>
  <time name="totalsc">   12.34   12.36</time>
 </calculation>
 <calculation>
  <scstep>
   <time name="dav">    1.64    1.64</time>
   <time name="total">    1.76    1.77</time>
   <energy>
    <i name="alphaZ">      4.92190881 </i>
    <i name="ewald">   1743.90903092 </i>
    <i name="hartreedc">  -2348.43083388 </i>
    <i name="XCdc">     13.84674652 </i>
    <i name="pawpsdc">   2023.72176436 </i>
    <i name="pawaedc">  -1991.38669735 </i>
    <i name="eentropy">     -0.00000000 </i>
    <i name="bandstr">   -172.15837164 </i>
    <i name="atom">    704.16778566 </i>
    <i name="e_fr_energy">    -21.40866660 </i>
    <i name="e_wo_entrp">    -21.40866660 </i>
    <i name="e_0_energy">    -21.40866660 </i>
   </energy>
  </scstep>
  <scstep>
   <time name="dav">    2.10    2.10</time>
   <time name="total">    2.23    2.23</time>
   <energy>
    <i name="e_fr_energy">    -21.40996511 </i>
    <i name="e_wo_entrp">    -21.40996511 </i>
    <i name="e_0_energy">    -21.40996511 </i>
   </energy>
  </scstep>
  <scstep>
   <time name="dav">    2.27    2.27</time>
   <time name="total">    2.40    2.40</time>
   <energy>
    <i name="e_fr_energy">    -21.40993691 </i>
    <i name="e_wo_entrp">    -21.40993691 </i>
    <i name="e_0_energy">    -21.40993691 </i>
   </energy>
  </scstep>
  <scstep>
   <time name="dav">    2.03    2.03</time>
   <time name="total">    2.15    2.16</time>
   <energy>
    <i name="e_fr_energy">    -21.40993398 </i>
    <i name="e_wo_entrp">    -21.40993398 </i>
    <i name="e_0_energy">    -21.40993398 </i>
   </energy>
  </scstep>
  <scstep>
   <time name="dav">    1.57    1.57</time>
   <time name="total">    1.69    1.70</time>
   <energy>
    <i name="e_fr_energy">    -21.40993303 </i>
    <i name="e_wo_entrp">    -21.40993303 </i>
    <i name="e_0_energy">    -21.40993303 </i>
   </energy>
  </scstep>
  <scstep>
   <time name="dav">    1.37    1.37</time>
   <time name="total">    1.39    1.39</time>
   <energy>
    <i name="alphaZ">      4.92190881 </i>
    <i name="ewald">   1743.90903092 </i>
    <i name="hartreedc">  -2348.42866240 </i>
    <i name="XCdc">     13.84962886 </i>
    <i name="pawpsdc">   2047.31930579 </i>
    <i name="pawaedc">  -2014.99216316 </i>
    <i name="eentropy">     -0.00000000 </i>
    <i name="bandstr">   -172.15676796 </i>
    <i name="atom">    704.16778566 </i>
    <i name="e_fr_energy">    -21.40993348 </i>
    <i name="e_wo_entrp">    -21.40993348 </i>
    <i name="e_0_energy">    -21.40993348 </i>
   </energy>
  </scstep>
  <structure>
   <crystal>
    <varray name="basis" >
     <v>       3.29720400       0.00000000       0.00000000 </v>
     <v>       0.00000000       4.93638800      -0.00005300 </v>
     <v>       0.00000000       0.00000000      20.02439000 </v>
    </varray>
    <i name="volume">    325.92254361 </i>
    <varray name="rec_basis" >
     <v>       0.30328727       0.00000000       0.00000000 </v>
     <v>       0.00000000       0.20257727       0.00000000 </v>
     <v>       0.00000000       0.00000054       0.04993910 </v>
    </varray>
   </crystal>
   <varray name="positions" >
    <v>       0.50000000       0.90118954       0.55130533 </v>
    <v>       0.50000000       0.09881046       0.44869467 </v>
    <v>       0.00000000       0.40118529       0.44869467 </v>
    <v>      -0.00000000       0.59881471       0.55130533 </v>
   </varray>
  </structure>
  <varray name="forces" >
   <v>       0.00000012      -0.01516517       0.00582540 </v>
   <v>      -0.00000012       0.01516517      -0.00582540 </v>
   <v>      -0.00000007      -0.01517077      -0.00582428 </v>
   <v>       0.00000007       0.01517077       0.00582428 </v>
  </varray>
  <varray name="stress" >
   <v>      -4.11018581       0.00000430       0.00000319 </v>
   <v>       0.00000425      -7.35315034       0.00014080 </v>
   <v>       0.00000319       0.00014078      -0.00065178 </v>
  </varray>
  <energy>
   <i name="e_fr_energy">    -21.40993348 </i>
   <i name="e_wo_entrp">    -21.40993348 </i>
   <i name="e_0_energy">     -0.00000000 </i>
  </energy>
  <time name="totalsc">   12.49   12.50</time>
 </calculation>
 <calculation>
  <scstep>
   <time name="dav">    1.69    1.69</time>
   <time name="total">    1.81    1.82</time>
   <energy>
    <i name="alphaZ">      4.92190881 </i>
    <i name="ewald">   1743.51444340 </i>
    <i name="hartreedc">  -2348.03822859 </i>
    <i name="XCdc">     13.84664375 </i>
    <i name="pawpsdc">   2047.34366651 </i>
    <i name="pawaedc">  -2015.01636080 </i>
    <i name="eentropy">     -0.00000000 </i>
    <i name="bandstr">   -172.14979432 </i>
    <i name="atom">    704.16778566 </i>
    <i name="e_fr_energy">    -21.40993557 </i>
    <i name="e_wo_entrp">    -21.40993557 </i>
    <i name="e_0_energy">    -21.40993557 </i>
   </energy>
  </scstep>
  <scstep>
   <time name="dav">    1.90    1.91</time>
   <time name="total">    2.03    2.03</time>
   <energy>
    <i name="e_fr_energy">    -21.40993954 </i>
    <i name="e_wo_entrp">    -21.40993954 </i>
    <i name="e_0_energy">    -21.40993954 </i>
   </energy>
  </scstep>
  <scstep>
   <time name="dav">    1.38    1.38</time>
   <time name="total">    1.50    1.50</time>
   <energy>
    <i name="e_fr_energy">    -21.40994008 </i>
    <i name="e_wo_entrp">    -21.40994008 </i>
    <i name="e_0_energy">    -21.40994008 </i>
   </energy>
  </scstep>
  <scstep>
   <time name="dav">    1.49    1.49</time>
   <time name="total">    1.62    1.62</time>
   <energy>
    <i name="e_fr_energy">    -21.40994130 </i>
    <i name="e_wo_entrp">    -21.40994130 </i>
    <i name="e_0_energy">    -21.40994130 </i>
   </energy>
  </scstep>
  <scstep>
   <time name="dav">    1.43    1.43</time>
   <time name="total">    1.56    1.56</time>
   <energy>
    <i name="e_fr_energy">    -21.40994205 </i>
    <i name="e_wo_entrp">    -21.40994205 </i>
    <i name="e_0_energy">    -21.40994205 </i>
   </energy>
  </scstep>
  <scstep>
   <time name="dav">    1.44    1.44</time>
   <time name="total">    1.46    1.47</time>
   <energy>
    <i name="alphaZ">      4.92190881 </i>
    <i name="ewald">   1743.51444340 </i>
    <i name="hartreedc">  -2348.01703510 </i>
    <i name="XCdc">     13.84628434 </i>
    <i name="pawpsdc">   2046.04442428 </i>
    <i name="pawaedc">  -2013.71671476 </i>
    <i name="eentropy">     -0.00000000 </i>
    <i name="bandstr">   -172.17103912 </i>
    <i name="atom">    704.16778566 </i>
    <i name="e_fr_energy">    -21.40994249 </i>
    <i name="e_wo_entrp">    -21.40994249 </i>
    <i name="e_0_energy">    -21.40994249 </i>
   </energy>
  </scstep>
  <structure>
   <crystal>
    <varray name="basis" >
     <v>       3.29720400       0.00000000       0.00000000 </v>
     <v>       0.00000000       4.93638800      -0.00005300 </v>
     <v>       0.00000000       0.00000000      20.02439000 </v>
    </varray>
    <i name="volume">    325.92254361 </i>
    <varray name="rec_basis" >
     <v>       0.30328727       0.00000000       0.00000000 </v>
     <v>       0.00000000       0.20257727       0.00000000 </v>
     <v>       0.00000000       0.00000054       0.04993910 </v>
    </varray>
   </crystal>
   <varray name="positions" >
    <v>       0.50000000       0.90118951       0.55132850 </v>
    <v>       0.50000000       0.09881049       0.44867150 </v>
    <v>       0.00000000       0.40118526       0.44867149 </v>
    <v>      -0.00000000       0.59881474       0.55132851 </v>
   </varray>
  </structure>
  <varray name="forces" >
   <v>      -0.00000016      -0.01336918      -0.00092727 </v>
   <v>       0.00000016       0.01336918       0.00092727 </v>
   <v>      -0.00000019      -0.01337530       0.00092861 </v>
   <v>       0.00000019       0.01337530      -0.00092861 </v>
  </varray>
  <varray name="stress" >
   <v>      -4.10116565      -0.00000226      -0.00000001 </v>
   <v>      -0.00000225      -7.36846405       0.00014200 </v>
   <v>      -0.00000000       0.00014204      -0.09267373 </v>
  </varray>
  <energy>
   <i name="e_fr_energy">    -21.40994249 </i>
   <i name="e_wo_entrp">    -21.40994249 </i>
   <i name="e_0_energy">     -0.00000000 </i>
  </energy>
  <time name="totalsc">   10.84   10.85</time>
 </calculation>
 <calculation>
  <scstep>
   <time name="dav">    1.53    1.53</time>
   <time name="total">    1.65    1.65</time>
   <energy>
    <i name="alphaZ">      4.92190881 </i>
    <i name="ewald">   1743.56841855 </i>
    <i name="hartreedc">  -2348.06439611 </i>
    <i name="XCdc">     13.84663950 </i>
    <i name="pawpsdc">   2046.02452425 </i>
    <i name="pawaedc">  -2013.69682810 </i>
    <i name="eentropy">     -0.00000000 </i>
    <i name="bandstr">   -172.17799568 </i>
    <i name="atom">    704.16778566 </i>
    <i name="e_fr_energy">    -21.40994312 </i>
    <i name="e_wo_entrp">    -21.40994312 </i>
    <i name="e_0_energy">    -21.40994312 </i>
   </energy>
  </scstep>
  <scstep>
   <time name="dav">    1.39    1.39</time>
   <time name="total">    1.51    1.51</time>
   <energy>
    <i name="e_fr_energy">    -21.40994338 </i>
    <i name="e_wo_entrp">    -21.40994338 </i>
    <i name="e_0_energy">    -21.40994338 </i>
   </energy>
  </scstep>
  <scstep>
   <time name="dav">    1.33    1.33</time>
   <time name="total">    1.45    1.46</time>
   <energy>
    <i name="e_fr_energy">    -21.40994352 </i>
    <i name="e_wo_entrp">    -21.40994352 </i>
    <i name="e_0_energy">    -21.40994352 </i>
   </energy>
  </scstep>
  <scstep>
   <time name="dav">    1.38    1.38</time>
   <time name="total">    1.51    1.51</time>
   <energy>
    <i name="e_fr_energy">    -21.40994367 </i>
    <i name="e_wo_entrp">    -21.40994367 </i>
    <i name="e_0_energy">    -21.40994367 </i>
   </energy>
  </scstep>
  <scstep>
   <time name="dav">    1.36    1.36</time>
   <time name="total">    1.48    1.48</time>
   <energy>
    <i name="e_fr_energy">    -21.40994376 </i>
    <i name="e_wo_entrp">    -21.40994376 </i>
    <i name="e_0_energy">    -21.40994376 </i>
   </energy>
  </scstep>
  <scstep>
   <time name="dav">    1.40    1.40</time>
   <time name="total">    1.42    1.42</time>
   <energy>
    <i name="alphaZ">      4.92190881 </i>
    <i name="ewald">   1743.56841855 </i>
    <i name="hartreedc">  -2348.05958116 </i>
    <i name="XCdc">     13.84661895 </i>
    <i name="pawpsdc">   2046.18535116 </i>
    <i name="pawaedc">  -2013.85771899 </i>
    <i name="eentropy">     -0.00000000 </i>
    <i name="bandstr">   -172.18272684 </i>
    <i name="atom">    704.16778566 </i>
    <i name="e_fr_energy">    -21.40994385 </i>
    <i name="e_wo_entrp">    -21.40994385 </i>
    <i name="e_0_energy">    -21.40994385 </i>
   </energy>
  </scstep>
  <structure>
   <crystal>
    <varray name="basis" >
     <v>       3.29720400       0.00000000       0.00000000 </v>
     <v>       0.00000000       4.93638800      -0.00005300 </v>
     <v>       0.00000000       0.00000000      20.02439000 </v>
    </varray>
    <i name="volume">    325.92254361 </i>
    <varray name="rec_basis" >
     <v>       0.30328727       0.00000000       0.00000000 </v>
     <v>       0.00000000       0.20257727       0.00000000 </v>
     <v>       0.00000000       0.00000054       0.04993910 </v>
    </varray>
   </crystal>
   <varray name="positions" >
    <v>       0.50000000       0.90118951       0.55132533 </v>
    <v>       0.50000000       0.09881049       0.44867467 </v>
    <v>       0.00000000       0.40118526       0.44867466 </v>
    <v>      -0.00000000       0.59881474       0.55132534 </v>
   </varray>
  </structure>
  <varray name="forces" >
   <v>      -0.00000011      -0.01358140       0.00001610 </v>
   <v>       0.00000011       0.01358140      -0.00001610 </v>
   <v>      -0.00000014      -0.01358749      -0.00001476 </v>
   <v>       0.00000014       0.01358749       0.00001476 </v>
  </varray>
  <varray name="stress" >
   <v>      -4.10005427      -0.00000151       0.00000026 </v>
   <v>      -0.00000153      -7.36529160       0.00014173 </v>
   <v>       0.00000023       0.00014170      -0.07228975 </v>
  </varray>
  <energy>
   <i name="e_fr_energy">    -21.40994385 </i>
   <i name="e_wo_entrp">    -21.40994385 </i>
   <i name="e_0_energy">     -0.00000000 </i>
  </energy>
  <time name="totalsc">    9.89    9.90</time>
 </calculation>
 <calculation>
  <scstep>
   <time name="dav">    1.81    1.81</time>
   <time name="total">    1.93    1.94</time>
   <energy>
    <i name="alphaZ">      4.92190881 </i>
    <i name="ewald">   1743.78455362 </i>
    <i name="hartreedc">  -2348.23971551 </i>
    <i name="XCdc">     13.85024441 </i>
    <i name="pawpsdc">   2046.18742674 </i>
    <i name="pawaedc">  -2013.85979360 </i>
    <i name="eentropy">     -0.00000000 </i>
    <i name="bandstr">   -172.22236668 </i>
    <i name="atom">    704.16778566 </i>
    <i name="e_fr_energy">    -21.40995654 </i>
    <i name="e_wo_entrp">    -21.40995654 </i>
    <i name="e_0_energy">    -21.40995654 </i>
   </energy>
  </scstep>
  <scstep>
   <time name="dav">    2.05    2.05</time>
   <time name="total">    2.17    2.17</time>
   <energy>
    <i name="e_fr_energy">    -21.40996175 </i>
    <i name="e_wo_entrp">    -21.40996175 </i>
    <i name="e_0_energy">    -21.40996175 </i>
   </energy>
  </scstep>
  <scstep>
   <time name="dav">    1.28    1.28</time>
   <time name="total">    1.41    1.41</time>
   <energy>
    <i name="e_fr_energy">    -21.40996192 </i>
    <i name="e_wo_entrp">    -21.40996192 </i>
    <i name="e_0_energy">    -21.40996192 </i>
   </energy>
  </scstep>
  <scstep>
   <time name="dav">    1.25    1.25</time>
   <time name="total">    1.38    1.38</time>
   <energy>
    <i name="e_fr_energy">    -21.40996222 </i>
    <i name="e_wo_entrp">    -21.40996222 </i>
    <i name="e_0_energy">    -21.40996222 </i>
   </energy>
  </scstep>
  <scstep>
   <time name="dav">    1.24    1.24</time>
   <time name="total">    1.36    1.36</time>
   <energy>
    <i name="e_fr_energy">    -21.40996217 </i>
    <i name="e_wo_entrp">    -21.40996217 </i>
    <i name="e_0_energy">    -21.40996217 </i>
   </energy>
  </scstep>
  <scstep>
   <time name="dav">    1.28    1.28</time>
   <time name="total">    1.30    1.30</time>
   <energy>
    <i name="alphaZ">      4.92190881 </i>
    <i name="ewald">   1743.78455362 </i>
    <i name="hartreedc">  -2348.24083735 </i>
    <i name="XCdc">     13.85061161 </i>
    <i name="pawpsdc">   2048.29822861 </i>
    <i name="pawaedc">  -2015.97141008 </i>
    <i name="eentropy">     -0.00000000 </i>
    <i name="bandstr">   -172.22080306 </i>
    <i name="atom">    704.16778566 </i>
    <i name="e_fr_energy">    -21.40996217 </i>
    <i name="e_wo_entrp">    -21.40996217 </i>
    <i name="e_0_energy">    -21.40996217 </i>
   </energy>
  </scstep>
  <structure>
   <crystal>
    <varray name="basis" >
     <v>       3.29720400       0.00000000       0.00000000 </v>
     <v>       0.00000000       4.93638800      -0.00005300 </v>
     <v>       0.00000000       0.00000000      20.02439000 </v>
    </varray>
    <i name="volume">    325.92254361 </i>
    <varray name="rec_basis" >
     <v>       0.30328727       0.00000000       0.00000000 </v>
     <v>       0.00000000       0.20257727       0.00000000 </v>
     <v>       0.00000000       0.00000054       0.04993910 </v>
    </varray>
   </crystal>
   <varray name="positions" >
    <v>       0.50000000       0.90107120       0.55131807 </v>
    <v>       0.50000000       0.09892880       0.44868193 </v>
    <v>       0.00000000       0.40106690       0.44868193 </v>
    <v>      -0.00000000       0.59893310       0.55131807 </v>
   </varray>
  </structure>
  <varray name="forces" >
   <v>      -0.00000002      -0.00117009      -0.00010080 </v>
   <v>       0.00000002       0.00117009       0.00010080 </v>
   <v>      -0.00000005      -0.00117462       0.00010082 </v>
   <v>       0.00000005       0.00117462      -0.00010082 </v>
  </varray>
  <varray name="stress" >
   <v>      -4.04637129      -0.00000040       0.00000053 </v>
   <v>      -0.00000043      -7.19113140       0.00012520 </v>
   <v>       0.00000060       0.00012522      -0.07540645 </v>
  </varray>
  <energy>
   <i name="e_fr_energy">    -21.40996217 </i>
   <i name="e_wo_entrp">    -21.40996217 </i>
   <i name="e_0_energy">     -0.00000000 </i>
  </energy>
  <time name="totalsc">   10.34   10.36</time>
  <eigenvalues>
   <array>
    <dimension dim="1">band</dimension>
    <dimension dim="2">kpoint</dimension>
    <dimension dim="3">spin</dimension>
    <field>eigene</field>
    <field>occ</field>
    <set>
     <set comment="spin 1">
      <set comment="kpoint 1">
       <r>  -17.2698    1.0000 </r>
       <r>  -15.0251    1.0000 </r>
       <r>  -11.9577    1.0000 </r>
       <r>   -8.0648    1.0000 </r>
       <r>   -7.4446    1.0000 </r>
       <r>   -6.8068    1.0000 </r>
       <r>   -5.6760    1.0000 </r>
       <r>   -4.2567    1.0000 </r>
       <r>   -3.9484    1.0000 </r>
       <r>   -2.5445    1.0000 </r>
       <r>   -1.4097    0.0000 </r>
       <r>   -0.7918    0.0000 </r>
       <r>    0.0567    0.0000 </r>
       <r>    0.5577    0.0000 </r>
       <r>    1.9096    0.0000 </r>
       <r>    2.2074    0.0000 </r>
      </set>
      <set comment="kpoint 2">
       <r>  -17.2454    1.0000 </r>
       <r>  -14.9994    1.0000 </r>
       <r>  -11.9603    1.0000 </r>
       <r>   -8.0473    1.0000 </r>
       <r>   -7.4549    1.0000 </r>
       <r>   -6.7855    1.0000 </r>
       <r>   -5.8471    1.0000 </r>
       <r>   -4.4366    1.0000 </r>
       <r>   -3.9426    1.0000 </r>
       <r>   -2.5447    1.0000 </r>
       <r>   -1.3882    0.0000 </r>
       <r>   -0.5607    0.0000 </r>
       <r>    0.2828    0.0000 </r>
       <r>    0.4118    0.0000 </r>
       <r>    1.9344    0.0000 </r>
       <r>    2.2356    0.0000 </r>
      </set>
      <set comment="kpoint 3">
       <r>  -17.1721    1.0000 </r>
       <r>  -14.9223    1.0000 </r>
       <r>  -11.9716    1.0000 </r>
       <r>   -7.9957    1.0000 </r>
       <r>   -7.4995    1.0000 </r>
       <r>   -6.7219    1.0000 </r>
       <r>   -6.2727    1.0000 </r>
       <r>   -4.8631    1.0000 </r>
       <r>   -3.9292    1.0000 </r>
       <r>   -2.5570    1.0000 </r>
       <r>   -1.3247    0.0000 </r>
       <r>    0.0497    0.0000 </r>
       <r>    0.0560    0.0000 </r>
       <r>    0.8415    0.0000 </r>
       <r>    2.0032    0.0000 </r>
       <r>    2.3190    0.0000 </r>
      </set>
      <set comment="kpoint 4">
       <r>  -17.0503    1.0000 </r>
       <r>  -14.7939    1.0000 </r>
       <r>  -12.0033    1.0000 </r>
       <r>   -7.9125    1.0000 </r>
       <r>   -7.6251    1.0000 </r>
       <r>   -6.7987    1.0000 </r>
       <r>   -6.6174    1.0000 </r>
       <r>   -5.3314    1.0000 </r>
       <r>   -3.9208    1.0000 </r>
       <r>   -2.5960    1.0000 </r>
       <r>   -1.2215    0.0000 </r>
       <r>   -0.3943    0.0000 </r>
       <r>    0.9160    0.0000 </r>
       <r>    1.4610    0.0000 </r>
       <r>    2.0430    0.0000 </r>
       <r>    2.4128    0.0000 </r>
      </set>
      <set comment="kpoint 5">
       <r>  -16.8805    1.0000 </r>
       <r>  -14.6146    1.0000 </r>
       <r>  -12.0748    1.0000 </r>
       <r>   -7.9030    1.0000 </r>
       <r>   -7.8028    1.0000 </r>
       <r>   -7.3107    1.0000 </r>
       <r>   -6.4742    1.0000 </r>
       <r>   -5.6733    1.0000 </r>
       <r>   -3.9404    1.0000 </r>
       <r>   -2.6725    1.0000 </r>
       <r>   -1.0845    0.0000 </r>
       <r>   -0.8114    0.0000 </r>
       <r>    1.6007    0.0000 </r>
       <r>    1.6655    0.0000 </r>
       <r>    1.8906    0.0000 </r>
       <r>    2.4247    0.0000 </r>
      </set>
      <set comment="kpoint 6">
       <r>  -16.6638    1.0000 </r>
       <r>  -14.3846    1.0000 </r>
       <r>  -12.2109    1.0000 </r>
       <r>   -8.3610    1.0000 </r>
       <r>   -7.7349    1.0000 </r>
       <r>   -7.6752    1.0000 </r>
       <r>   -6.2964    1.0000 </r>
       <r>   -5.8153    1.0000 </r>
       <r>   -4.0163    1.0000 </r>
       <r>   -2.7973    1.0000 </r>
       <r>   -1.1203    0.0000 </r>
       <r>   -0.9282    0.0000 </r>
       <r>    1.1406    0.0000 </r>
       <r>    1.1450    0.0000 </r>
       <r>    2.4901    0.0000 </r>
       <r>    2.6518    0.0000 </r>
      </set>
      <set comment="kpoint 7">
       <r>  -16.4013    1.0000 </r>
       <r>  -14.1045    1.0000 </r>
       <r>  -12.4332    1.0000 </r>
       <r>   -8.9417    1.0000 </r>
       <r>   -8.0258    1.0000 </r>
       <r>   -7.5441    1.0000 </r>
       <r>   -6.0903    1.0000 </r>
       <r>   -5.7963    1.0000 </r>
       <r>   -4.1625    1.0000 </r>
       <r>   -2.9783    1.0000 </r>
       <r>   -1.2690    0.0000 </r>
       <r>   -0.7929    0.0000 </r>
       <r>    0.5554    0.0000 </r>
       <r>    0.6823    0.0000 </r>
       <r>    2.1310    0.0000 </r>
       <r>    2.9504    0.0000 </r>
      </set>
      <set comment="kpoint 8">
       <r>  -16.0949    1.0000 </r>
       <r>  -13.7749    1.0000 </r>
       <r>  -12.7472    1.0000 </r>
       <r>   -9.5734    1.0000 </r>
       <r>   -8.1670    1.0000 </r>
       <r>   -7.4327    1.0000 </r>
       <r>   -5.8661    1.0000 </r>
       <r>   -5.6839    1.0000 </r>
       <r>   -4.3511    1.0000 </r>
       <r>   -3.2152    1.0000 </r>
       <r>   -1.2496    0.0000 </r>
       <r>   -0.7815    0.0000 </r>
       <r>   -0.0273    0.0000 </r>
       <r>    0.4296    0.0000 </r>
       <r>    1.6831    0.0000 </r>
       <r>    3.0755    0.0000 </r>
      </set>
      <set comment="kpoint 9">
       <r>  -15.7470    1.0000 </r>
       <r>  -13.3967    1.0000 </r>
       <r>  -13.1375    1.0000 </r>
       <r>  -10.2119    1.0000 </r>
       <r>   -8.1708    1.0000 </r>
       <r>   -7.3734    1.0000 </r>
       <r>   -5.6398    1.0000 </r>
       <r>   -5.5294    1.0000 </r>
       <r>   -4.5155    1.0000 </r>
       <r>   -3.4966    1.0000 </r>
       <r>   -1.0896    0.0000 </r>
       <r>   -0.9696    0.0000 </r>
       <r>   -0.5539    0.0000 </r>
       <r>    0.4842    0.0000 </r>
       <r>    1.2371    0.0000 </r>
       <r>    2.7451    0.0000 </r>
      </set>
      <set comment="kpoint 10">
       <r>  -15.3611    1.0000 </r>
       <r>  -13.5765    1.0000 </r>
       <r>  -12.9709    1.0000 </r>
       <r>  -10.8339    1.0000 </r>
       <r>   -8.0680    1.0000 </r>
       <r>   -7.3984    1.0000 </r>
       <r>   -5.4357    1.0000 </r>
       <r>   -5.3745    1.0000 </r>
       <r>   -4.5863    1.0000 </r>
       <r>   -3.8004    1.0000 </r>
       <r>   -1.2243    0.0000 </r>
       <r>   -0.9884    0.0000 </r>
       <r>   -0.8247    0.0000 </r>
       <r>    0.7413    0.0000 </r>
       <r>    0.7882    0.0000 </r>
       <r>    2.3448    0.0000 </r>
      </set>
      <set comment="kpoint 11">
       <r>  -14.9421    1.0000 </r>
       <r>  -14.0369    1.0000 </r>
       <r>  -12.4991    1.0000 </r>
       <r>  -11.4269    1.0000 </r>
       <r>   -7.8963    1.0000 </r>
       <r>   -7.5155    1.0000 </r>
       <r>   -5.2866    1.0000 </r>
       <r>   -5.2599    1.0000 </r>
       <r>   -4.5284    1.0000 </r>
       <r>   -4.0976    1.0000 </r>
       <r>   -1.4043    0.0000 </r>
       <r>   -1.2940    0.0000 </r>
       <r>   -0.4837    0.0000 </r>
       <r>    0.3413    0.0000 </r>
       <r>    1.0927    0.0000 </r>
       <r>    1.9178    0.0000 </r>
      </set>
      <set comment="kpoint 12">
       <r>  -14.4972    1.0000 </r>
       <r>  -14.4972    1.0000 </r>
       <r>  -11.9835    1.0000 </r>
       <r>  -11.9834    1.0000 </r>
       <r>   -7.6969    1.0000 </r>
       <r>   -7.6969    1.0000 </r>
       <r>   -5.2241    1.0000 </r>
       <r>   -5.2241    1.0000 </r>
       <r>   -4.3533    1.0000 </r>
       <r>   -4.3533    1.0000 </r>
       <r>   -1.4367    0.0000 </r>
       <r>   -1.4367    0.0000 </r>
       <r>   -0.0887    0.0000 </r>
       <r>   -0.0887    0.0000 </r>
       <r>    1.4930    0.0000 </r>
       <r>    1.4930    0.0000 </r>
      </set>
      <set comment="kpoint 13">
       <r>  -17.2518    1.0000 </r>
       <r>  -15.0610    1.0000 </r>
       <r>  -11.9363    1.0000 </r>
       <r>   -8.2739    1.0000 </r>
       <r>   -7.2612    1.0000 </r>
       <r>   -6.7424    1.0000 </r>
       <r>   -5.6624    1.0000 </r>
       <r>   -4.2740    1.0000 </r>
       <r>   -3.9002    1.0000 </r>
       <r>   -2.7117    1.0000 </r>
       <r>   -1.2467    0.0000 </r>
       <r>   -0.7779    0.0000 </r>
       <r>    0.0130    0.0000 </r>
       <r>    0.5657    0.0000 </r>
       <r>    1.9559    0.0000 </r>
       <r>    2.2314    0.0000 </r>
      </set>
      <set comment="kpoint 14">
       <r>  -17.2274    1.0000 </r>
       <r>  -15.0354    1.0000 </r>
       <r>  -11.9382    1.0000 </r>
       <r>   -8.2614    1.0000 </r>
       <r>   -7.2659    1.0000 </r>
       <r>   -6.7253    1.0000 </r>
       <r>   -5.8295    1.0000 </r>
       <r>   -4.4557    1.0000 </r>
       <r>   -3.8959    1.0000 </r>
       <r>   -2.7091    1.0000 </r>
       <r>   -1.2279    0.0000 </r>
       <r>   -0.5476    0.0000 </r>
       <r>    0.2333    0.0000 </r>
       <r>    0.4292    0.0000 </r>
       <r>    1.9800    0.0000 </r>
       <r>    2.2598    0.0000 </r>
      </set>
      <set comment="kpoint 15">
       <r>  -17.1541    1.0000 </r>
       <r>  -14.9589    1.0000 </r>
       <r>  -11.9478    1.0000 </r>
       <r>   -8.2282    1.0000 </r>
       <r>   -7.2905    1.0000 </r>
       <r>   -6.6881    1.0000 </r>
       <r>   -6.2297    1.0000 </r>
       <r>   -4.8858    1.0000 </r>
       <r>   -3.8875    1.0000 </r>
       <r>   -2.7112    1.0000 </r>
       <r>   -1.1746    0.0000 </r>
       <r>    0.0614    0.0000 </r>
       <r>    0.0678    0.0000 </r>
       <r>    0.8079    0.0000 </r>
       <r>    2.0463    0.0000 </r>
       <r>    2.3436    0.0000 </r>
      </set>
      <set comment="kpoint 16">
       <r>  -17.0324    1.0000 </r>
       <r>  -14.8315    1.0000 </r>
       <r>  -11.9763    1.0000 </r>
       <r>   -8.1943    1.0000 </r>
       <r>   -7.3659    1.0000 </r>
       <r>   -6.8653    1.0000 </r>
       <r>   -6.4767    1.0000 </r>
       <r>   -5.3568    1.0000 </r>
       <r>   -3.8881    1.0000 </r>
       <r>   -2.7328    1.0000 </r>
       <r>   -1.0889    0.0000 </r>
       <r>   -0.3683    0.0000 </r>
       <r>    0.9234    0.0000 </r>
       <r>    1.4351    0.0000 </r>
       <r>    2.0426    0.0000 </r>
       <r>    2.3301    0.0000 </r>
      </set>
      <set comment="kpoint 17">
       <r>  -16.8628    1.0000 </r>
       <r>  -14.6539    1.0000 </r>
       <r>  -12.0432    1.0000 </r>
       <r>   -8.2316    1.0000 </r>
       <r>   -7.5013    1.0000 </r>
       <r>   -7.3398    1.0000 </r>
       <r>   -6.3758    1.0000 </r>
       <r>   -5.6959    1.0000 </r>
       <r>   -3.9203    1.0000 </r>
       <r>   -2.7871    1.0000 </r>
       <r>   -0.9740    0.0000 </r>
       <r>   -0.7679    0.0000 </r>
       <r>    1.5261    0.0000 </r>
       <r>    1.6171    0.0000 </r>
       <r>    1.9494    0.0000 </r>
       <r>    2.4103    0.0000 </r>
      </set>
      <set comment="kpoint 18">
       <r>  -16.6462    1.0000 </r>
       <r>  -14.4268    1.0000 </r>
       <r>  -12.1734    1.0000 </r>
       <r>   -8.5025    1.0000 </r>
       <r>   -7.7578    1.0000 </r>
       <r>   -7.5697    1.0000 </r>
       <r>   -6.2108    1.0000 </r>
       <r>   -5.8318    1.0000 </r>
       <r>   -4.0098    1.0000 </r>
       <r>   -2.8878    1.0000 </r>
       <r>   -1.0573    0.0000 </r>
       <r>   -0.8415    0.0000 </r>
       <r>    1.0127    0.0000 </r>
       <r>    1.1937    0.0000 </r>
       <r>    2.4898    0.0000 </r>
       <r>    2.7724    0.0000 </r>
      </set>
      <set comment="kpoint 19">
       <r>  -16.3840    1.0000 </r>
       <r>  -14.1521    1.0000 </r>
       <r>  -12.3878    1.0000 </r>
       <r>   -9.0113    1.0000 </r>
       <r>   -8.0466    1.0000 </r>
       <r>   -7.5154    1.0000 </r>
       <r>   -6.0153    1.0000 </r>
       <r>   -5.8143    1.0000 </r>
       <r>   -4.1630    1.0000 </r>
       <r>   -3.0452    1.0000 </r>
       <r>   -1.1897    0.0000 </r>
       <r>   -0.7308    0.0000 </r>
       <r>    0.5556    0.0000 </r>
       <r>    0.6158    0.0000 </r>
       <r>    2.2486    0.0000 </r>
       <r>    3.0084    0.0000 </r>
      </set>
      <set comment="kpoint 20">
       <r>  -16.0780    1.0000 </r>
       <r>  -13.8356    1.0000 </r>
       <r>  -12.6874    1.0000 </r>
       <r>   -9.6172    1.0000 </r>
       <r>   -8.1858    1.0000 </r>
       <r>   -7.4268    1.0000 </r>
       <r>   -5.8047    1.0000 </r>
       <r>   -5.7196    1.0000 </r>
       <r>   -4.3429    1.0000 </r>
       <r>   -3.2593    1.0000 </r>
       <r>   -1.1624    0.0000 </r>
       <r>   -0.7522    0.0000 </r>
       <r>    0.0379    0.0000 </r>
       <r>    0.3126    0.0000 </r>
       <r>    1.8451    0.0000 </r>
       <r>    3.0151    0.0000 </r>
      </set>
      <set comment="kpoint 21">
       <r>  -15.7308    1.0000 </r>
       <r>  -13.5180    1.0000 </r>
       <r>  -13.0167    1.0000 </r>
       <r>  -10.2442    1.0000 </r>
       <r>   -8.1867    1.0000 </r>
       <r>   -7.3705    1.0000 </r>
       <r>   -5.6023    1.0000 </r>
       <r>   -5.5990    1.0000 </r>
       <r>   -4.4764    1.0000 </r>
       <r>   -3.5162    1.0000 </r>
       <r>   -1.0118    0.0000 </r>
       <r>   -0.9718    0.0000 </r>
       <r>   -0.4787    0.0000 </r>
       <r>    0.3654    0.0000 </r>
       <r>    1.4369    0.0000 </r>
       <r>    2.6926    0.0000 </r>
      </set>
[...]
       <r>    2.9315    0.0000 </r>
       <r>    3.1699    0.0000 </r>
      </set>
      <set comment="kpoint 161">
       <r>  -15.6083    1.0000 </r>
       <r>  -15.3903    1.0000 </r>
       <r>  -11.0348    1.0000 </r>
       <r>  -10.7240    1.0000 </r>
       <r>   -7.9559    1.0000 </r>
       <r>   -7.8247    1.0000 </r>
       <r>   -5.3007    1.0000 </r>
       <r>   -5.0943    1.0000 </r>
       <r>   -4.0776    1.0000 </r>
       <r>   -4.0727    1.0000 </r>
       <r>   -0.2290    0.0000 </r>
       <r>   -0.0142    0.0000 </r>
       <r>    0.9076    0.0000 </r>
       <r>    1.1486    0.0000 </r>
       <r>    2.8641    0.0000 </r>
       <r>    3.1080    0.0000 </r>
      </set>
      <set comment="kpoint 162">
       <r>  -15.8581    1.0000 </r>
       <r>  -15.6372    1.0000 </r>
       <r>  -10.8911    1.0000 </r>
       <r>  -10.5702    1.0000 </r>
       <r>   -7.6185    1.0000 </r>
       <r>   -7.4873    1.0000 </r>
       <r>   -5.1953    1.0000 </r>
       <r>   -4.9286    1.0000 </r>
       <r>   -4.1825    1.0000 </r>
       <r>   -4.0556    1.0000 </r>
       <r>   -0.0805    0.0000 </r>
       <r>    0.0508    0.0000 </r>
       <r>    1.0262    0.0000 </r>
       <r>    1.2954    0.0000 </r>
       <r>    2.5340    0.0000 </r>
       <r>    2.8327    0.0000 </r>
      </set>
      <set comment="kpoint 163">
       <r>  -16.0669    1.0000 </r>
       <r>  -15.8444    1.0000 </r>
       <r>  -10.8452    1.0000 </r>
       <r>  -10.5240    1.0000 </r>
       <r>   -7.1184    1.0000 </r>
       <r>   -6.9794    1.0000 </r>
       <r>   -5.2059    1.0000 </r>
       <r>   -4.8941    1.0000 </r>
       <r>   -4.2148    1.0000 </r>
       <r>   -3.9763    1.0000 </r>
       <r>    0.1554    0.0000 </r>
       <r>    0.1984    0.0000 </r>
       <r>    1.0646    0.0000 </r>
       <r>    1.3542    0.0000 </r>
       <r>    1.9703    0.0000 </r>
       <r>    2.1924    0.0000 </r>
      </set>
      <set comment="kpoint 164">
       <r>  -16.2316    1.0000 </r>
       <r>  -16.0083    1.0000 </r>
       <r>  -10.8533    1.0000 </r>
       <r>  -10.5353    1.0000 </r>
       <r>   -6.5219    1.0000 </r>
       <r>   -6.3734    1.0000 </r>
       <r>   -5.2625    1.0000 </r>
       <r>   -4.9374    1.0000 </r>
       <r>   -4.2218    1.0000 </r>
       <r>   -3.9089    1.0000 </r>
       <r>    0.3582    0.0000 </r>
       <r>    0.3914    0.0000 </r>
       <r>    1.0329    0.0000 </r>
       <r>    1.3126    0.0000 </r>
       <r>    1.3556    0.0000 </r>
       <r>    1.4838    0.0000 </r>
      </set>
      <set comment="kpoint 165">
       <r>  -16.3504    1.0000 </r>
       <r>  -16.1266    1.0000 </r>
       <r>  -10.8795    1.0000 </r>
       <r>  -10.5649    1.0000 </r>
       <r>   -5.9041    1.0000 </r>
       <r>   -5.7564    1.0000 </r>
       <r>   -5.3127    1.0000 </r>
       <r>   -4.9959    1.0000 </r>
       <r>   -4.2594    1.0000 </r>
       <r>   -3.8973    1.0000 </r>
       <r>    0.1879    0.0000 </r>
       <r>    0.2286    0.0000 </r>
       <r>    1.0040    0.0000 </r>
       <r>    1.0218    0.0000 </r>
       <r>    1.2279    0.0000 </r>
       <r>    1.3331    0.0000 </r>
      </set>
      <set comment="kpoint 166">
       <r>  -16.4221    1.0000 </r>
       <r>  -16.1981    1.0000 </r>
       <r>  -10.9024    1.0000 </r>
       <r>  -10.5899    1.0000 </r>
       <r>   -5.4107    1.0000 </r>
       <r>   -5.3633    1.0000 </r>
       <r>   -5.1619    1.0000 </r>
       <r>   -5.0395    1.0000 </r>
       <r>   -4.3553    1.0000 </r>
       <r>   -3.9546    1.0000 </r>
       <r>   -0.2582    0.0000 </r>
       <r>   -0.2260    0.0000 </r>
       <r>    1.0222    0.0000 </r>
       <r>    1.1361    0.0000 </r>
       <r>    1.3095    0.0000 </r>
       <r>    1.3623    0.0000 </r>
      </set>
     </set>
    </set>
   </array>
  </eigenvalues>
  <separator name="orbital magnetization" >
   <v name="MAGDIPOLOUT">      0.00000000      0.00000000      0.00000000</v>
  </separator>
  <dos>
   <i name="efermi">     -2.39801155 </i>
   <total>
    <array>
     <dimension dim="1">gridpoints</dimension>
     <dimension dim="2">spin</dimension>
     <field>energy</field>
     <field>total</field>
     <field>integrated</field>
     <set>
      <set comment="spin 1">
       <r>   -18.2967     0.0000     0.0000 </r>
       <r>   -18.2214     0.0000     0.0000 </r>
       <r>   -18.1461     0.0000     0.0000 </r>
       <r>   -18.0708     0.0000     0.0000 </r>
       <r>   -17.9955     0.0000     0.0000 </r>
       <r>   -17.9202     0.0000     0.0000 </r>
       <r>   -17.8449     0.0000     0.0000 </r>
       <r>   -17.7696     0.0000     0.0000 </r>
       <r>   -17.6943     0.0000     0.0000 </r>
       <r>   -17.6190     0.0000     0.0000 </r>
       <r>   -17.5437     0.0000     0.0000 </r>
       <r>   -17.4684     0.0000     0.0000 </r>
       <r>   -17.3931     0.0000     0.0000 </r>
       <r>   -17.3178     0.0000     0.0000 </r>
       <r>   -17.2425     0.3381     0.0255 </r>
       <r>   -17.1672     0.9215     0.0949 </r>
       <r>   -17.0919     0.9081     0.1632 </r>
       <r>   -17.0166     0.8901     0.2303 </r>
       <r>   -16.9412     1.0246     0.3074 </r>
       <r>   -16.8659     0.9098     0.3759 </r>
       <r>   -16.7906     1.0063     0.4517 </r>
       <r>   -16.7153     0.8817     0.5181 </r>
       <r>   -16.6400     0.6975     0.5706 </r>
       <r>   -16.5647     1.4316     0.6784 </r>
       <r>   -16.4894     0.5349     0.7187 </r>
       <r>   -16.4141     1.0897     0.8008 </r>
       <r>   -16.3388     1.2344     0.8937 </r>
       <r>   -16.2635     0.5615     0.9360 </r>
       <r>   -16.1882     1.4135     1.0425 </r>
       <r>   -16.1129     0.6514     1.0915 </r>
       <r>   -16.0376     1.2576     1.1862 </r>
       <r>   -15.9623     1.2374     1.2794 </r>
       <r>   -15.8870     0.6841     1.3309 </r>
       <r>   -15.8117     1.1652     1.4187 </r>
       <r>   -15.7364     1.0060     1.4944 </r>
       <r>   -15.6611     1.2485     1.5885 </r>
       <r>   -15.5858     1.4525     1.6978 </r>
       <r>   -15.5105     0.8419     1.7612 </r>
       <r>   -15.4352     0.7793     1.8199 </r>
       <r>   -15.3598     1.3858     1.9243 </r>
       <r>   -15.2845     1.9487     2.0710 </r>
       <r>   -15.2092     0.7224     2.1254 </r>
       <r>   -15.1339     1.6877     2.2525 </r>
       <r>   -15.0586     1.3904     2.3572 </r>
       <r>   -14.9833     1.3251     2.4570 </r>
       <r>   -14.9080     2.2170     2.6240 </r>
       <r>   -14.8327     1.3106     2.7227 </r>
       <r>   -14.7574     1.1430     2.8087 </r>
       <r>   -14.6821     1.1530     2.8955 </r>
       <r>   -14.6068     1.3424     2.9966 </r>
       <r>   -14.5315     0.7404     3.0524 </r>
       <r>   -14.4562     1.4601     3.1623 </r>
       <r>   -14.3809     1.7514     3.2942 </r>
       <r>   -14.3056     1.2085     3.3852 </r>
       <r>   -14.2303     1.2183     3.4770 </r>
       <r>   -14.1550     1.1989     3.5673 </r>
       <r>   -14.0797     1.0404     3.6456 </r>
       <r>   -14.0044     1.4373     3.7538 </r>
       <r>   -13.9291     0.7350     3.8092 </r>
       <r>   -13.8538     0.2033     3.8245 </r>
       <r>   -13.7784     0.6247     3.8715 </r>
       <r>   -13.7031     0.5810     3.9153 </r>
       <r>   -13.6278     0.2072     3.9309 </r>
       <r>   -13.5525     0.4299     3.9633 </r>
       <r>   -13.4772     0.3262     3.9878 </r>
       <r>   -13.4019     0.0579     3.9922 </r>
       <r>   -13.3266     0.1037     4.0000 </r>
       <r>   -13.2513     0.0000     4.0000 </r>
       <r>   -13.1760     0.0005     4.0000 </r>
       <r>   -13.1007     0.1597     4.0121 </r>
       <r>   -13.0254     0.0878     4.0187 </r>
       <r>   -12.9501     0.4343     4.0514 </r>
       <r>   -12.8748     0.2886     4.0731 </r>
       <r>   -12.7995     0.6056     4.1187 </r>
       <r>   -12.7242     0.2917     4.1407 </r>
       <r>   -12.6489     0.5454     4.1818 </r>
       <r>   -12.5736     0.4172     4.2132 </r>
       <r>   -12.4983     1.4633     4.3234 </r>
       <r>   -12.4230     0.9906     4.3980 </r>
       <r>   -12.3477     1.5201     4.5124 </r>
       <r>   -12.2724     1.1165     4.5965 </r>
       <r>   -12.1970     1.0336     4.6744 </r>
       <r>   -12.1217     1.3557     4.7764 </r>
       <r>   -12.0464     1.6315     4.8993 </r>
       <r>   -11.9711     2.0824     5.0561 </r>
       <r>   -11.8958     2.1515     5.2181 </r>
       <r>   -11.8205     2.1778     5.3821 </r>
       <r>   -11.7452     1.5968     5.5024 </r>
       <r>   -11.6699     0.7432     5.5583 </r>
       <r>   -11.5946     2.1180     5.7178 </r>
       <r>   -11.5193     0.9872     5.7922 </r>
       <r>   -11.4440     0.7602     5.8494 </r>
       <r>   -11.3687     2.3320     6.0250 </r>
       <r>   -11.2934     0.5873     6.0693 </r>
       <r>   -11.2181     0.2265     6.0863 </r>
       <r>   -11.1428     1.6731     6.2123 </r>
       <r>   -11.0675     0.6987     6.2649 </r>
       <r>   -10.9922     0.8728     6.3307 </r>
       <r>   -10.9169     0.4720     6.3662 </r>
       <r>   -10.8416     2.1189     6.5258 </r>
       <r>   -10.7663     0.3426     6.5516 </r>
       <r>   -10.6910     0.6853     6.6032 </r>
       <r>   -10.6156     0.3110     6.6266 </r>
       <r>   -10.5403     1.2326     6.7194 </r>
       <r>   -10.4650     0.8136     6.7807 </r>
       <r>   -10.3897     0.5991     6.8258 </r>
       <r>   -10.3144     0.3669     6.8534 </r>
       <r>   -10.2391     0.6628     6.9033 </r>
       <r>   -10.1638     1.7388     7.0343 </r>
       <r>   -10.0885     0.2540     7.0534 </r>
       <r>   -10.0132     0.2566     7.0727 </r>
       <r>    -9.9379     0.1120     7.0812 </r>
       <r>    -9.8626     0.8361     7.1441 </r>
       <r>    -9.7873     1.1091     7.2276 </r>
       <r>    -9.7120     0.6737     7.2784 </r>
       <r>    -9.6367     0.0326     7.2808 </r>
       <r>    -9.5614     0.4239     7.3128 </r>
       <r>    -9.4861     0.4375     7.3457 </r>
       <r>    -9.4108     1.4915     7.4580 </r>
       <r>    -9.3355     0.1953     7.4727 </r>
       <r>    -9.2602     0.0000     7.4727 </r>
       <r>    -9.1849     0.2598     7.4923 </r>
       <r>    -9.1095     0.3825     7.5211 </r>
       <r>    -9.0342     0.7014     7.5739 </r>
       <r>    -8.9589     1.0885     7.6559 </r>
       <r>    -8.8836     0.1431     7.6667 </r>
       <r>    -8.8083     0.0827     7.6729 </r>
       <r>    -8.7330     0.2393     7.6909 </r>
       <r>    -8.6577     0.1247     7.7003 </r>
       <r>    -8.5824     1.2639     7.7955 </r>
       <r>    -8.5071     0.1802     7.8091 </r>
       <r>    -8.4318     0.2017     7.8242 </r>
       <r>    -8.3565     0.1007     7.8318 </r>
       <r>    -8.2812     0.5684     7.8746 </r>
       <r>    -8.2059     3.3542     8.1272 </r>
       <r>    -8.1306     2.6738     8.3286 </r>
       <r>    -8.0553     2.9464     8.5504 </r>
       <r>    -7.9800     1.3679     8.6535 </r>
       <r>    -7.9047     1.8678     8.7941 </r>
       <r>    -7.8294     2.1903     8.9591 </r>
       <r>    -7.7541     1.8572     9.0989 </r>
       <r>    -7.6788     2.5420     9.2903 </r>
       <r>    -7.6035     1.8387     9.4288 </r>
       <r>    -7.5281     1.9561     9.5761 </r>
       <r>    -7.4528     3.8402     9.8653 </r>
       <r>    -7.3775     6.0136    10.3181 </r>
       <r>    -7.3022     2.7973    10.5288 </r>
       <r>    -7.2269     1.6347    10.6519 </r>
       <r>    -7.1516     0.7615    10.7092 </r>
       <r>    -7.0763     0.3195    10.7333 </r>
       <r>    -7.0010     0.3370    10.7587 </r>
       <r>    -6.9257     1.6084    10.8798 </r>
       <r>    -6.8504     1.1852    10.9691 </r>
       <r>    -6.7751     1.1326    11.0544 </r>
       <r>    -6.6998     1.7350    11.1850 </r>
       <r>    -6.6245     1.6398    11.3085 </r>
       <r>    -6.5492     1.5827    11.4277 </r>
       <r>    -6.4739     1.5217    11.5423 </r>
       <r>    -6.3986     0.8062    11.6030 </r>
       <r>    -6.3233     2.5499    11.7950 </r>
       <r>    -6.2480     2.2687    11.9658 </r>
       <r>    -6.1727     1.8975    12.1087 </r>
       <r>    -6.0974     0.9698    12.1818 </r>
       <r>    -6.0221     2.8264    12.3946 </r>
       <r>    -5.9467     1.8791    12.5361 </r>
       <r>    -5.8714     2.3638    12.7141 </r>
       <r>    -5.7961     5.8871    13.1574 </r>
       <r>    -5.7208     4.0040    13.4590 </r>
       <r>    -5.6455     4.0509    13.7640 </r>
       <r>    -5.5702     2.1337    13.9247 </r>
       <r>    -5.4949     3.8061    14.2113 </r>
       <r>    -5.4196     4.0525    14.5165 </r>
       <r>    -5.3443     3.3450    14.7684 </r>
       <r>    -5.2690     2.4820    14.9553 </r>
       <r>    -5.1937     2.4363    15.1387 </r>
       <r>    -5.1184     1.2094    15.2298 </r>
       <r>    -5.0431     1.3050    15.3281 </r>
       <r>    -4.9678     2.1171    15.4875 </r>
       <r>    -4.8925     1.8549    15.6272 </r>
       <r>    -4.8172     1.1657    15.7150 </r>
       <r>    -4.7419     0.5059    15.7531 </r>
       <r>    -4.6666     0.7483    15.8094 </r>
       <r>    -4.5913     1.7305    15.9398 </r>
       <r>    -4.5160     1.0197    16.0165 </r>
       <r>    -4.4407     1.5722    16.1349 </r>
       <r>    -4.3653     1.3342    16.2354 </r>
       <r>    -4.2900     1.9847    16.3849 </r>
       <r>    -4.2147     3.1814    16.6244 </r>
       <r>    -4.1394     3.4302    16.8827 </r>
       <r>    -4.0641     2.6845    17.0849 </r>
       <r>    -3.9888     3.2002    17.3259 </r>
       <r>    -3.9135     4.1335    17.6372 </r>
       <r>    -3.8382     4.3979    17.9683 </r>
       <r>    -3.7629     4.1374    18.2799 </r>
       <r>    -3.6876     3.0938    18.5129 </r>
       <r>    -3.6123     3.8868    18.8056 </r>
       <r>    -3.5370     2.9266    19.0260 </r>
       <r>    -3.4617     4.1378    19.3376 </r>
       <r>    -3.3864     2.8306    19.5507 </r>
       <r>    -3.3111     0.2520    19.5697 </r>
       <r>    -3.2358     0.3777    19.5981 </r>
       <r>    -3.1605     0.4276    19.6303 </r>
       <r>    -3.0852     0.3715    19.6583 </r>
       <r>    -3.0099     1.7179    19.7877 </r>
       <r>    -2.9346     0.1635    19.8000 </r>
       <r>    -2.8593     0.3149    19.8237 </r>
       <r>    -2.7839     0.3295    19.8485 </r>
       <r>    -2.7086     0.9128    19.9173 </r>
       <r>    -2.6333     0.5356    19.9576 </r>
       <r>    -2.5580     0.2773    19.9785 </r>
       <r>    -2.4827     0.2858    20.0000 </r>
       <r>    -2.4074     0.0000    20.0000 </r>
       <r>    -2.3321     0.0000    20.0000 </r>
       <r>    -2.2568     0.0000    20.0000 </r>
       <r>    -2.1815     0.0000    20.0000 </r>
       <r>    -2.1062     0.0000    20.0000 </r>
       <r>    -2.0309     0.0000    20.0000 </r>
       <r>    -1.9556     0.0000    20.0000 </r>
       <r>    -1.8803     0.0000    20.0000 </r>
       <r>    -1.8050     0.0000    20.0000 </r>
       <r>    -1.7297     0.0000    20.0000 </r>
       <r>    -1.6544     0.0000    20.0000 </r>
       <r>    -1.5791     0.0000    20.0000 </r>
       <r>    -1.5038     0.0000    20.0000 </r>
       <r>    -1.4285     0.4257    20.0321 </r>
       <r>    -1.3532     1.4910    20.1443 </r>
       <r>    -1.2779     0.8873    20.2112 </r>
       <r>    -1.2025     2.6436    20.4102 </r>
       <r>    -1.1272     1.6670    20.5358 </r>
       <r>    -1.0519     1.1059    20.6190 </r>
       <r>    -0.9766     2.2509    20.7885 </r>
       <r>    -0.9013     2.6408    20.9874 </r>
       <r>    -0.8260     1.8914    21.1298 </r>
       <r>    -0.7507     2.3635    21.3078 </r>
       <r>    -0.6754     2.1252    21.4679 </r>
       <r>    -0.6001     3.1255    21.7032 </r>
       <r>    -0.5248     2.3066    21.8769 </r>
       <r>    -0.4495     3.1464    22.1139 </r>
       <r>    -0.3742     3.2346    22.3574 </r>
       <r>    -0.2989     3.6997    22.6360 </r>
       <r>    -0.2236     3.9163    22.9310 </r>
       <r>    -0.1483     0.9113    22.9996 </r>
       <r>    -0.0730     3.4161    23.2568 </r>
       <r>     0.0023     2.9148    23.4763 </r>
       <r>     0.0776     4.9393    23.8483 </r>
       <r>     0.1529     4.1236    24.1588 </r>
       <r>     0.2282     4.9627    24.5325 </r>
       <r>     0.3035     4.4937    24.8709 </r>
       <r>     0.3789     4.1912    25.1865 </r>
       <r>     0.4542     4.8029    25.5482 </r>
       <r>     0.5295     2.5688    25.7417 </r>
       <r>     0.6048     3.4803    26.0037 </r>
       <r>     0.6801     2.7264    26.2091 </r>
       <r>     0.7554     5.2414    26.6038 </r>
       <r>     0.8307     2.1348    26.7645 </r>
       <r>     0.9060     1.1238    26.8491 </r>
       <r>     0.9813     2.3778    27.0282 </r>
       <r>     1.0566     3.7281    27.3090 </r>
       <r>     1.1319     1.1173    27.3931 </r>
       <r>     1.2072     1.5416    27.5092 </r>
       <r>     1.2825     1.6232    27.6314 </r>
       <r>     1.3578     3.4849    27.8938 </r>
       <r>     1.4331     1.7487    28.0255 </r>
       <r>     1.5084     3.9962    28.3265 </r>
       <r>     1.5837     2.2568    28.4964 </r>
       <r>     1.6590     2.0560    28.6512 </r>
       <r>     1.7343     1.2298    28.7439 </r>
       <r>     1.8096     1.4833    28.8555 </r>
       <r>     1.8849     1.6342    28.9786 </r>
       <r>     1.9603     2.9478    29.2006 </r>
       <r>     2.0356     2.4369    29.3841 </r>
       <r>     2.1109     2.5101    29.5731 </r>
       <r>     2.1862     2.7570    29.7807 </r>
       <r>     2.2615     3.5615    30.0489 </r>
       <r>     2.3368     3.5945    30.3196 </r>
       <r>     2.4121     2.6355    30.5181 </r>
       <r>     2.4874     3.4904    30.7809 </r>
       <r>     2.5627     2.4985    30.9691 </r>
       <r>     2.6380     1.9446    31.1155 </r>
       <r>     2.7133     1.5835    31.2348 </r>
       <r>     2.7886     1.1791    31.3236 </r>
       <r>     2.8639     2.5462    31.5153 </r>
       <r>     2.9392     1.0140    31.5917 </r>
       <r>     3.0145     1.9124    31.7357 </r>
       <r>     3.0898     1.3723    31.8390 </r>
       <r>     3.1651     1.4477    31.9480 </r>
       <r>     3.2404     0.3766    31.9764 </r>
       <r>     3.3157     0.3133    32.0000 </r>
       <r>     3.3910     0.0001    32.0000 </r>
       <r>     3.4663     0.0000    32.0000 </r>
       <r>     3.5417     0.0000    32.0000 </r>
       <r>     3.6170     0.0000    32.0000 </r>
       <r>     3.6923     0.0000    32.0000 </r>
       <r>     3.7676     0.0000    32.0000 </r>
       <r>     3.8429     0.0000    32.0000 </r>
       <r>     3.9182     0.0000    32.0000 </r>
       <r>     3.9935     0.0000    32.0000 </r>
       <r>     4.0688     0.0000    32.0000 </r>
       <r>     4.1441     0.0000    32.0000 </r>
       <r>     4.2194     0.0000    32.0000 </r>
       <r>     4.2947     0.0000    32.0000 </r>
      </set>
     </set>
    </array>
   </total>
  </dos>
 </calculation>
 <structure name="finalpos" >
  <crystal>
   <varray name="basis" >
    <v>       3.29720400       0.00000000       0.00000000 </v>
    <v>       0.00000000       4.93638800      -0.00005300 </v>
    <v>       0.00000000       0.00000000      20.02439000 </v>
   </varray>
   <i name="volume">    325.92254361 </i>
   <varray name="rec_basis" >
    <v>       0.30328727       0.00000000       0.00000000 </v>
    <v>       0.00000000       0.20257727       0.00000000 </v>
    <v>       0.00000000       0.00000054       0.04993910 </v>
   </varray>
  </crystal>
  <varray name="positions" >
   <v>       0.50000000       0.90107120       0.55131807 </v>
   <v>       0.50000000       0.09892880       0.44868193 </v>
   <v>       0.00000000       0.40106690       0.44868193 </v>
   <v>      -0.00000000       0.59893310       0.55131807 </v>
  </varray>
 </structure>
</modeling>
