<?xml version="1.0" encoding="ISO-8859-1"?>
<modeling>
 <generator>
  <i name="program" type="string">vasp </i>
  <i name="version" type="string">5.4.1  </i>
  <i name="subversion" type="string">24Jun15 (build Nov 20 2020 10:29:34) complex                          parallel </i>
  <i name="platform" type="string">IFC91_ompi </i>
  <i name="date" type="string">2021 09 09 </i>
  <i name="time" type="string">13:44:59 </i>
 </generator>
 <incar>
  <i type="string" name="PREC">a</i>
  <i type="string" name="ALGO"> Normal</i>
  <i type="int" name="ISPIN">     1</i>
  <i type="int" name="ICHARG">     2</i>
  <i type="int" name="NELM">   250</i>
  <i type="int" name="NELMDL">    -5</i>
  <i type="int" name="NELMIN">     6</i>
  <i type="int" name="IBRION">     2</i>
  <i name="EDIFF">      0.00001000</i>
  <i name="EDIFFG">     -0.01000000</i>
  <i type="int" name="NSW">   200</i>
  <i type="int" name="ISIF">     2</i>
  <i name="ENCUT">    520.00000000</i>
  <i name="POTIM">      0.30000000</i>
  <i type="logical" name="LREAL"> F  </i>
  <i type="int" name="ISMEAR">     0</i>
  <i name="SIGMA">      0.02000000</i>
  <i type="logical" name="LWAVE"> F  </i>
  <i type="logical" name="LCHARG"> F  </i>
  <i type="logical" name="LAECHG"> F  </i>
  <v type="int" name="KPOINT_BSE">    -1     0     0     0</v>
  <i type="int" name="NELM">   250</i>
 </incar>
 <kpoints>
  <generation param="Gamma">
   <v type="int" name="divisions">      22       15        1 </v>
   <v name="usershift">      0.00000000       0.00000000       0.00000000 </v>
   <v name="genvec1">      0.04545455       0.00000000       0.00000000 </v>
   <v name="genvec2">      0.00000000       0.06666667       0.00000000 </v>
   <v name="genvec3">      0.00000000       0.00000000       1.00000000 </v>
   <v name="shift">      0.00000000       0.00000000       0.00000000 </v>
  </generation>
  <varray name="kpointlist" >
   <v>       0.00000000       0.00000000       0.00000000 </v>
   <v>       0.04545455       0.00000000       0.00000000 </v>
   <v>       0.09090909      -0.00000000       0.00000000 </v>
   <v>       0.13636364       0.00000000       0.00000000 </v>
   <v>       0.18181818      -0.00000000       0.00000000 </v>
   <v>       0.22727273      -0.00000000       0.00000000 </v>
   <v>       0.27272727       0.00000000       0.00000000 </v>
   <v>       0.31818182      -0.00000000       0.00000000 </v>
   <v>       0.36363636      -0.00000000       0.00000000 </v>
   <v>       0.40909091       0.00000000       0.00000000 </v>
   <v>       0.45454545      -0.00000000       0.00000000 </v>
   <v>       0.50000000       0.00000000       0.00000000 </v>
   <v>      -0.00000000       0.06666667       0.00000000 </v>
   <v>       0.04545455       0.06666667       0.00000000 </v>
   <v>       0.09090909       0.06666667       0.00000000 </v>
   <v>       0.13636364       0.06666667       0.00000000 </v>
   <v>       0.18181818       0.06666667       0.00000000 </v>
   <v>       0.22727273       0.06666667       0.00000000 </v>
   <v>       0.27272727       0.06666667       0.00000000 </v>
   <v>       0.31818182       0.06666667       0.00000000 </v>
   <v>       0.36363636       0.06666667       0.00000000 </v>
   <v>       0.40909091       0.06666667       0.00000000 </v>
   <v>       0.45454545       0.06666667       0.00000000 </v>
   <v>       0.50000000       0.06666667       0.00000000 </v>
   <v>      -0.45454545       0.06666667       0.00000000 </v>
   <v>      -0.40909091       0.06666667       0.00000000 </v>
   <v>      -0.36363636       0.06666667       0.00000000 </v>
   <v>      -0.31818182       0.06666667       0.00000000 </v>
   <v>      -0.27272727       0.06666667       0.00000000 </v>
   <v>      -0.22727273       0.06666667       0.00000000 </v>
   <v>      -0.18181818       0.06666667       0.00000000 </v>
   <v>      -0.13636364       0.06666667       0.00000000 </v>
   <v>      -0.09090909       0.06666667       0.00000000 </v>
   <v>      -0.04545455       0.06666667       0.00000000 </v>
   <v>       0.00000000       0.13333333       0.00000000 </v>
   <v>       0.04545455       0.13333333       0.00000000 </v>
   <v>       0.09090909       0.13333333       0.00000000 </v>
   <v>       0.13636364       0.13333333       0.00000000 </v>
   <v>       0.18181818       0.13333333       0.00000000 </v>
   <v>       0.22727273       0.13333333       0.00000000 </v>
   <v>       0.27272727       0.13333333       0.00000000 </v>
   <v>       0.31818182       0.13333333       0.00000000 </v>
   <v>       0.36363636       0.13333333       0.00000000 </v>
   <v>       0.40909091       0.13333333       0.00000000 </v>
   <v>       0.45454545       0.13333333       0.00000000 </v>
   <v>       0.50000000       0.13333333       0.00000000 </v>
   <v>      -0.45454545       0.13333333       0.00000000 </v>
   <v>      -0.40909091       0.13333333       0.00000000 </v>
   <v>      -0.36363636       0.13333333       0.00000000 </v>
   <v>      -0.31818182       0.13333333       0.00000000 </v>
   <v>      -0.27272727       0.13333333       0.00000000 </v>
   <v>      -0.22727273       0.13333333       0.00000000 </v>
   <v>      -0.18181818       0.13333333       0.00000000 </v>
   <v>      -0.13636364       0.13333333       0.00000000 </v>
   <v>      -0.09090909       0.13333333       0.00000000 </v>
   <v>      -0.04545455       0.13333333       0.00000000 </v>
   <v>       0.00000000       0.20000000       0.00000000 </v>
   <v>       0.04545455       0.20000000       0.00000000 </v>
   <v>       0.09090909       0.20000000       0.00000000 </v>
   <v>       0.13636364       0.20000000       0.00000000 </v>
   <v>       0.18181818       0.20000000       0.00000000 </v>
   <v>       0.22727273       0.20000000       0.00000000 </v>
   <v>       0.27272727       0.20000000       0.00000000 </v>
   <v>       0.31818182       0.20000000       0.00000000 </v>
   <v>       0.36363636       0.20000000       0.00000000 </v>
   <v>       0.40909091       0.20000000       0.00000000 </v>
   <v>       0.45454545       0.20000000       0.00000000 </v>
   <v>       0.50000000       0.20000000       0.00000000 </v>
   <v>      -0.45454545       0.20000000       0.00000000 </v>
   <v>      -0.40909091       0.20000000       0.00000000 </v>
   <v>      -0.36363636       0.20000000       0.00000000 </v>
   <v>      -0.31818182       0.20000000       0.00000000 </v>
   <v>      -0.27272727       0.20000000       0.00000000 </v>
   <v>      -0.22727273       0.20000000       0.00000000 </v>
   <v>      -0.18181818       0.20000000       0.00000000 </v>
   <v>      -0.13636364       0.20000000       0.00000000 </v>
   <v>      -0.09090909       0.20000000       0.00000000 </v>
   <v>      -0.04545455       0.20000000       0.00000000 </v>
   <v>       0.00000000       0.26666667       0.00000000 </v>
   <v>       0.04545455       0.26666667       0.00000000 </v>
   <v>       0.09090909       0.26666667       0.00000000 </v>
   <v>       0.13636364       0.26666667       0.00000000 </v>
   <v>       0.18181818       0.26666667       0.00000000 </v>
   <v>       0.22727273       0.26666667       0.00000000 </v>
   <v>       0.27272727       0.26666667       0.00000000 </v>
   <v>       0.31818182       0.26666667       0.00000000 </v>
   <v>       0.36363636       0.26666667       0.00000000 </v>
   <v>       0.40909091       0.26666667       0.00000000 </v>
   <v>       0.45454545       0.26666667       0.00000000 </v>
   <v>       0.50000000       0.26666667       0.00000000 </v>
   <v>      -0.45454545       0.26666667       0.00000000 </v>
   <v>      -0.40909091       0.26666667       0.00000000 </v>
   <v>      -0.36363636       0.26666667       0.00000000 </v>
   <v>      -0.31818182       0.26666667       0.00000000 </v>
   <v>      -0.27272727       0.26666667       0.00000000 </v>
   <v>      -0.22727273       0.26666667       0.00000000 </v>
   <v>      -0.18181818       0.26666667       0.00000000 </v>
   <v>      -0.13636364       0.26666667       0.00000000 </v>
   <v>      -0.09090909       0.26666667       0.00000000 </v>
   <v>      -0.04545455       0.26666667       0.00000000 </v>
   <v>       0.00000000       0.33333333       0.00000000 </v>
   <v>       0.04545455       0.33333333       0.00000000 </v>
   <v>       0.09090909       0.33333333       0.00000000 </v>
   <v>       0.13636364       0.33333333       0.00000000 </v>
   <v>       0.18181818       0.33333333       0.00000000 </v>
   <v>       0.22727273       0.33333333       0.00000000 </v>
   <v>       0.27272727       0.33333333       0.00000000 </v>
   <v>       0.31818182       0.33333333       0.00000000 </v>
   <v>       0.36363636       0.33333333       0.00000000 </v>
   <v>       0.40909091       0.33333333       0.00000000 </v>
   <v>       0.45454545       0.33333333       0.00000000 </v>
   <v>       0.50000000       0.33333333       0.00000000 </v>
   <v>      -0.45454545       0.33333333       0.00000000 </v>
   <v>      -0.40909091       0.33333333       0.00000000 </v>
   <v>      -0.36363636       0.33333333       0.00000000 </v>
   <v>      -0.31818182       0.33333333       0.00000000 </v>
   <v>      -0.27272727       0.33333333       0.00000000 </v>
   <v>      -0.22727273       0.33333333       0.00000000 </v>
   <v>      -0.18181818       0.33333333       0.00000000 </v>
   <v>      -0.13636364       0.33333333       0.00000000 </v>
   <v>      -0.09090909       0.33333333       0.00000000 </v>
   <v>      -0.04545455       0.33333333       0.00000000 </v>
   <v>       0.00000000       0.40000000       0.00000000 </v>
   <v>       0.04545455       0.40000000       0.00000000 </v>
   <v>       0.09090909       0.40000000       0.00000000 </v>
   <v>       0.13636364       0.40000000       0.00000000 </v>
   <v>       0.18181818       0.40000000       0.00000000 </v>
   <v>       0.22727273       0.40000000       0.00000000 </v>
   <v>       0.27272727       0.40000000       0.00000000 </v>
   <v>       0.31818182       0.40000000       0.00000000 </v>
   <v>       0.36363636       0.40000000       0.00000000 </v>
   <v>       0.40909091       0.40000000       0.00000000 </v>
   <v>       0.45454545       0.40000000       0.00000000 </v>
   <v>       0.50000000       0.40000000       0.00000000 </v>
   <v>      -0.45454545       0.40000000       0.00000000 </v>
   <v>      -0.40909091       0.40000000       0.00000000 </v>
   <v>      -0.36363636       0.40000000       0.00000000 </v>
   <v>      -0.31818182       0.40000000       0.00000000 </v>
   <v>      -0.27272727       0.40000000       0.00000000 </v>
   <v>      -0.22727273       0.40000000       0.00000000 </v>
   <v>      -0.18181818       0.40000000       0.00000000 </v>
   <v>      -0.13636364       0.40000000       0.00000000 </v>
   <v>      -0.09090909       0.40000000       0.00000000 </v>
   <v>      -0.04545455       0.40000000       0.00000000 </v>
   <v>       0.00000000       0.46666667       0.00000000 </v>
   <v>       0.04545455       0.46666667       0.00000000 </v>
   <v>       0.09090909       0.46666667       0.00000000 </v>
   <v>       0.13636364       0.46666667       0.00000000 </v>
   <v>       0.18181818       0.46666667       0.00000000 </v>
   <v>       0.22727273       0.46666667       0.00000000 </v>
   <v>       0.27272727       0.46666667       0.00000000 </v>
   <v>       0.31818182       0.46666667       0.00000000 </v>
   <v>       0.36363636       0.46666667       0.00000000 </v>
   <v>       0.40909091       0.46666667       0.00000000 </v>
   <v>       0.45454545       0.46666667       0.00000000 </v>
   <v>       0.50000000       0.46666667       0.00000000 </v>
   <v>      -0.45454545       0.46666667       0.00000000 </v>
   <v>      -0.40909091       0.46666667       0.00000000 </v>
   <v>      -0.36363636       0.46666667       0.00000000 </v>
   <v>      -0.31818182       0.46666667       0.00000000 </v>
   <v>      -0.27272727       0.46666667       0.00000000 </v>
   <v>      -0.22727273       0.46666667       0.00000000 </v>
   <v>      -0.18181818       0.46666667       0.00000000 </v>
   <v>      -0.13636364       0.46666667       0.00000000 </v>
   <v>      -0.09090909       0.46666667       0.00000000 </v>
   <v>      -0.04545455       0.46666667       0.00000000 </v>
  </varray>
  <varray name="weights" >
   <v>       0.00303030 </v>
   <v>       0.00606061 </v>
   <v>       0.00606061 </v>
   <v>       0.00606061 </v>
   <v>       0.00606061 </v>
   <v>       0.00606061 </v>
   <v>       0.00606061 </v>
   <v>       0.00606061 </v>
   <v>       0.00606061 </v>
   <v>       0.00606061 </v>
   <v>       0.00606061 </v>
   <v>       0.00303030 </v>
   <v>       0.00606061 </v>
   <v>       0.00606061 </v>
   <v>       0.00606061 </v>
   <v>       0.00606061 </v>
   <v>       0.00606061 </v>
   <v>       0.00606061 </v>
   <v>       0.00606061 </v>
   <v>       0.00606061 </v>
   <v>       0.00606061 </v>
   <v>       0.00606061 </v>
   <v>       0.00606061 </v>
   <v>       0.00606061 </v>
   <v>       0.00606061 </v>
   <v>       0.00606061 </v>
   <v>       0.00606061 </v>
   <v>       0.00606061 </v>
   <v>       0.00606061 </v>
   <v>       0.00606061 </v>
   <v>       0.00606061 </v>
   <v>       0.00606061 </v>
   <v>       0.00606061 </v>
   <v>       0.00606061 </v>
   <v>       0.00606061 </v>
   <v>       0.00606061 </v>
   <v>       0.00606061 </v>
   <v>       0.00606061 </v>
   <v>       0.00606061 </v>
   <v>       0.00606061 </v>
   <v>       0.00606061 </v>
   <v>       0.00606061 </v>
   <v>       0.00606061 </v>
   <v>       0.00606061 </v>
   <v>       0.00606061 </v>
   <v>       0.00606061 </v>
   <v>       0.00606061 </v>
   <v>       0.00606061 </v>
   <v>       0.00606061 </v>
   <v>       0.00606061 </v>
   <v>       0.00606061 </v>
   <v>       0.00606061 </v>
   <v>       0.00606061 </v>
   <v>       0.00606061 </v>
   <v>       0.00606061 </v>
   <v>       0.00606061 </v>
   <v>       0.00606061 </v>
   <v>       0.00606061 </v>
   <v>       0.00606061 </v>
   <v>       0.00606061 </v>
   <v>       0.00606061 </v>
   <v>       0.00606061 </v>
   <v>       0.00606061 </v>
   <v>       0.00606061 </v>
   <v>       0.00606061 </v>
   <v>       0.00606061 </v>
   <v>       0.00606061 </v>
   <v>       0.00606061 </v>
   <v>       0.00606061 </v>
   <v>       0.00606061 </v>
   <v>       0.00606061 </v>
   <v>       0.00606061 </v>
   <v>       0.00606061 </v>
   <v>       0.00606061 </v>
   <v>       0.00606061 </v>
   <v>       0.00606061 </v>
   <v>       0.00606061 </v>
   <v>       0.00606061 </v>
   <v>       0.00606061 </v>
   <v>       0.00606061 </v>
   <v>       0.00606061 </v>
   <v>       0.00606061 </v>
   <v>       0.00606061 </v>
   <v>       0.00606061 </v>
   <v>       0.00606061 </v>
   <v>       0.00606061 </v>
   <v>       0.00606061 </v>
   <v>       0.00606061 </v>
   <v>       0.00606061 </v>
   <v>       0.00606061 </v>
   <v>       0.00606061 </v>
   <v>       0.00606061 </v>
   <v>       0.00606061 </v>
   <v>       0.00606061 </v>
   <v>       0.00606061 </v>
   <v>       0.00606061 </v>
   <v>       0.00606061 </v>
   <v>       0.00606061 </v>
   <v>       0.00606061 </v>
   <v>       0.00606061 </v>
   <v>       0.00606061 </v>
   <v>       0.00606061 </v>
   <v>       0.00606061 </v>
   <v>       0.00606061 </v>
   <v>       0.00606061 </v>
   <v>       0.00606061 </v>
   <v>       0.00606061 </v>
   <v>       0.00606061 </v>
   <v>       0.00606061 </v>
   <v>       0.00606061 </v>
   <v>       0.00606061 </v>
   <v>       0.00606061 </v>
   <v>       0.00606061 </v>
   <v>       0.00606061 </v>
   <v>       0.00606061 </v>
   <v>       0.00606061 </v>
   <v>       0.00606061 </v>
   <v>       0.00606061 </v>
   <v>       0.00606061 </v>
   <v>       0.00606061 </v>
   <v>       0.00606061 </v>
   <v>       0.00606061 </v>
   <v>       0.00606061 </v>
   <v>       0.00606061 </v>
   <v>       0.00606061 </v>
   <v>       0.00606061 </v>
   <v>       0.00606061 </v>
   <v>       0.00606061 </v>
   <v>       0.00606061 </v>
   <v>       0.00606061 </v>
   <v>       0.00606061 </v>
   <v>       0.00606061 </v>
   <v>       0.00606061 </v>
   <v>       0.00606061 </v>
   <v>       0.00606061 </v>
   <v>       0.00606061 </v>
   <v>       0.00606061 </v>
   <v>       0.00606061 </v>
   <v>       0.00606061 </v>
   <v>       0.00606061 </v>
   <v>       0.00606061 </v>
   <v>       0.00606061 </v>
   <v>       0.00606061 </v>
   <v>       0.00606061 </v>
   <v>       0.00606061 </v>
   <v>       0.00606061 </v>
   <v>       0.00606061 </v>
   <v>       0.00606061 </v>
   <v>       0.00606061 </v>
   <v>       0.00606061 </v>
   <v>       0.00606061 </v>
   <v>       0.00606061 </v>
   <v>       0.00606061 </v>
   <v>       0.00606061 </v>
   <v>       0.00606061 </v>
   <v>       0.00606061 </v>
   <v>       0.00606061 </v>
   <v>       0.00606061 </v>
   <v>       0.00606061 </v>
   <v>       0.00606061 </v>
   <v>       0.00606061 </v>
   <v>       0.00606061 </v>
   <v>       0.00606061 </v>
   <v>       0.00606061 </v>
   <v>       0.00606061 </v>
   <v>       0.00606061 </v>
  </varray>
 </kpoints>
 <parameters>
  <separator name="general" >
   <i type="string" name="SYSTEM">unknown system</i>
   <i type="logical" name="LCOMPAT"> F  </i>
  </separator>
  <separator name="electronic" >
   <i type="string" name="PREC">a</i>
   <i name="ENMAX">    520.00000000</i>
   <i name="ENAUG">    342.92400000</i>
   <i name="EDIFF">      0.00001000</i>
   <i type="int" name="IALGO">    38</i>
   <i type="int" name="IWAVPR">    11</i>
   <i type="int" name="NBANDS">    16</i>
   <i name="NELECT">     20.00000000</i>
   <i type="int" name="TURBO">     0</i>
   <i type="int" name="IRESTART">     0</i>
   <i type="int" name="NREBOOT">     0</i>
   <i type="int" name="NMIN">     0</i>
   <i name="EREF">      0.00000000</i>
   <separator name="electronic smearing" >
    <i type="int" name="ISMEAR">     0</i>
    <i name="SIGMA">      0.02000000</i>
    <i name="KSPACING">      0.50000000</i>
    <i type="logical" name="KGAMMA"> T  </i>
   </separator>
   <separator name="electronic projectors" >
    <i type="logical" name="LREAL"> F  </i>
    <v name="ROPT">      0.00000000</v>
    <i type="int" name="LMAXPAW">  -100</i>
    <i type="int" name="LMAXMIX">     2</i>
    <i type="logical" name="NLSPLINE"> F  </i>
   </separator>
   <separator name="electronic startup" >
    <i type="int" name="ISTART">     0</i>
    <i type="int" name="ICHARG">     2</i>
    <i type="int" name="INIWAV">     1</i>
   </separator>
   <separator name="electronic spin" >
    <i type="int" name="ISPIN">     1</i>
    <i type="logical" name="LNONCOLLINEAR"> F  </i>
    <v name="MAGMOM">      1.00000000      1.00000000      1.00000000      1.00000000</v>
    <i name="NUPDOWN">     -1.00000000</i>
    <i type="logical" name="LSORBIT"> F  </i>
    <v name="SAXIS">      0.00000000      0.00000000      1.00000000</v>
    <i type="logical" name="LSPIRAL"> F  </i>
    <v name="QSPIRAL">      0.00000000      0.00000000      0.00000000</v>
    <i type="logical" name="LZEROZ"> F  </i>
   </separator>
   <separator name="electronic exchange-correlation" >
    <i type="logical" name="LASPH"> F  </i>
    <i type="logical" name="LMETAGGA"> F  </i>
   </separator>
   <separator name="electronic convergence" >
    <i type="int" name="NELM">   250</i>
    <i type="int" name="NELMDL">    -5</i>
    <i type="int" name="NELMIN">     6</i>
    <i name="ENINI">    520.00000000</i>
    <separator name="electronic convergence detail" >
     <i type="logical" name="LDIAG"> T  </i>
     <i type="logical" name="LSUBROT"> F  </i>
     <i name="WEIMIN">      0.00100000</i>
     <i name="EBREAK">      0.00000016</i>
     <i name="DEPER">      0.30000000</i>
     <i type="int" name="NRMM">     4</i>
     <i name="TIME">      0.40000000</i>
    </separator>
   </separator>
   <separator name="electronic mixer" >
    <i name="AMIX">      0.40000000</i>
    <i name="BMIX">      1.00000000</i>
    <i name="AMIN">      0.10000000</i>
    <i name="AMIX_MAG">      1.60000000</i>
    <i name="BMIX_MAG">      1.00000000</i>
    <separator name="electronic mixer details" >
     <i type="int" name="IMIX">     4</i>
     <i type="logical" name="MIXFIRST"> F  </i>
     <i type="int" name="MAXMIX">   -45</i>
     <i name="WC">    100.00000000</i>
     <i type="int" name="INIMIX">     1</i>
     <i type="int" name="MIXPRE">     1</i>
     <i type="int" name="MREMOVE">     5</i>
    </separator>
   </separator>
   <separator name="electronic dipolcorrection" >
    <i type="logical" name="LDIPOL"> F  </i>
    <i type="logical" name="LMONO"> F  </i>
    <i type="int" name="IDIPOL">     0</i>
    <i name="EPSILON">      1.00000000</i>
    <v name="DIPOL">   -100.00000000   -100.00000000   -100.00000000</v>
    <i name="EFIELD">      0.00000000</i>
   </separator>
  </separator>
  <separator name="grids" >
   <i type="int" name="NGX">    24</i>
   <i type="int" name="NGY">    36</i>
   <i type="int" name="NGZ">   150</i>
   <i type="int" name="NGXF">    48</i>
   <i type="int" name="NGYF">    72</i>
   <i type="int" name="NGZF">   300</i>
   <i type="logical" name="ADDGRID"> F  </i>
  </separator>
  <separator name="ionic" >
   <i type="int" name="NSW">   200</i>
   <i type="int" name="IBRION">     2</i>
   <i type="int" name="ISIF">     2</i>
   <i name="PSTRESS">      0.00000000</i>
   <i name="EDIFFG">     -0.01000000</i>
   <i type="int" name="NFREE">     1</i>
   <i name="POTIM">      0.30000000</i>
   <i name="SMASS">     -3.00000000</i>
   <i name="SCALEE">      1.00000000</i>
  </separator>
  <separator name="ionic md" >
   <i name="TEBEG">      0.00010000</i>
   <i name="TEEND">      0.00010000</i>
   <i type="int" name="NBLOCK">     1</i>
   <i type="int" name="KBLOCK">   200</i>
   <i type="int" name="NPACO">   256</i>
   <i name="APACO">     16.00000000</i>
  </separator>
  <separator name="symmetry" >
   <i type="int" name="ISYM">     2</i>
   <i name="SYMPREC">      0.00001000</i>
  </separator>
  <separator name="dos" >
   <i type="logical" name="LORBIT"> F  </i>
   <v name="RWIGS">     -1.00000000</v>
   <i type="int" name="NEDOS">   301</i>
   <i name="EMIN">     10.00000000</i>
   <i name="EMAX">    -10.00000000</i>
   <i name="EFERMI">      0.00000000</i>
  </separator>
  <separator name="writing" >
   <i type="int" name="NWRITE">     2</i>
   <i type="logical" name="LWAVE"> F  </i>
   <i type="logical" name="LCHARG"> F  </i>
   <i type="logical" name="LPARD"> F  </i>
   <i type="logical" name="LVTOT"> F  </i>
   <i type="logical" name="LVHAR"> F  </i>
   <i type="logical" name="LELF"> F  </i>
   <i type="logical" name="LOPTICS"> F  </i>
   <v name="STM">      0.00000000      0.00000000      0.00000000      0.00000000      0.00000000      0.00000000      0.00000000</v>
  </separator>
  <separator name="performance" >
   <i type="int" name="NPAR">     4</i>
   <i type="int" name="NSIM">     4</i>
   <i type="int" name="NBLK">    -1</i>
   <i type="logical" name="LPLANE"> T  </i>
   <i type="logical" name="LSCALAPACK"> T  </i>
   <i type="logical" name="LSCAAWARE"> F  </i>
   <i type="logical" name="LSCALU"> F  </i>
   <i type="logical" name="LASYNC"> F  </i>
   <i type="logical" name="LORBITALREAL"> F  </i>
  </separator>
  <separator name="miscellaneous" >
   <i type="int" name="IDIOT">     3</i>
   <i type="logical" name="LMUSIC"> F  </i>
   <v name="POMASS">     30.97400000</v>
   <v name="DARWINR">      0.00000000</v>
   <v name="DARWINV">      1.00000000</v>
   <i type="logical" name="LCORR"> T  </i>
  </separator>
  <i type="logical" name="GGA_COMPAT"> T  </i>
  <i type="logical" name="LBERRY"> F  </i>
  <i type="int" name="ICORELEVEL">     0</i>
  <i type="logical" name="LDAU"> F  </i>
  <i type="int" name="I_CONSTRAINED_M">     0</i>
  <separator name="electronic exchange-correlation" >
   <i type="string" name="GGA">--</i>
   <i type="int" name="VOSKOWN">     0</i>
   <i type="logical" name="LHFCALC"> F  </i>
   <i type="string" name="PRECFOCK"></i>
   <i type="logical" name="LSYMGRAD"> F  </i>
   <i type="logical" name="LHFONE"> F  </i>
   <i type="logical" name="LRHFCALC"> F  </i>
   <i type="logical" name="LTHOMAS"> F  </i>
   <i type="logical" name="LMODELHF"> F  </i>
   <i name="ENCUT4O">     -1.00000000</i>
   <i type="int" name="EXXOEP">     0</i>
   <i type="int" name="FOURORBIT">     0</i>
   <i name="AEXX">      0.00000000</i>
   <i name="HFALPHA">      0.00000000</i>
   <i name="MCALPHA">      0.00000000</i>
   <i name="ALDAX">      1.00000000</i>
   <i name="AGGAX">      1.00000000</i>
   <i name="ALDAC">      1.00000000</i>
   <i name="AGGAC">      1.00000000</i>
   <i type="int" name="NKREDX">     1</i>
   <i type="int" name="NKREDY">     1</i>
   <i type="int" name="NKREDZ">     1</i>
   <i type="logical" name="SHIFTRED"> F  </i>
   <i type="logical" name="ODDONLY"> F  </i>
   <i type="logical" name="EVENONLY"> F  </i>
   <i type="int" name="LMAXFOCK">     0</i>
   <i type="int" name="NMAXFOCKAE">     0</i>
   <i type="logical" name="LFOCKAEDFT"> F  </i>
   <i name="HFSCREEN">      0.00000000</i>
   <i name="HFSCREENC">      0.00000000</i>
   <i type="int" name="NBANDSGWLOW">     0</i>
  </separator>
  <separator name="vdW DFT" >
   <i type="logical" name="LUSE_VDW"> F  </i>
   <i name="Zab_VDW">     -0.84910000</i>
   <i name="PARAM1">      0.12340000</i>
   <i name="PARAM2">      1.00000000</i>
   <i name="PARAM3">      0.00000000</i>
  </separator>
  <separator name="model GW" >
   <i type="int" name="MODEL_GW">     0</i>
   <i name="MODEL_EPS0">     45.25839356</i>
   <i name="MODEL_ALPHA">      1.00000000</i>
  </separator>
  <separator name="linear response parameters" >
   <i type="logical" name="LEPSILON"> F  </i>
   <i type="logical" name="LRPA"> F  </i>
   <i type="logical" name="LNABLA"> F  </i>
   <i type="logical" name="LVEL"> F  </i>
   <i type="int" name="KINTER">     0</i>
   <i name="CSHIFT">      0.10000000</i>
   <i name="OMEGAMAX">     -1.00000000</i>
   <i name="DEG_THRESHOLD">      0.00200000</i>
  </separator>
  <separator name="orbital magnetization" >
   <i type="logical" name="NUCIND"> F  </i>
   <v name="MAGPOS">      0.00000000      0.00000000      0.00000000</v>
   <i type="logical" name="LNICSALL"> T  </i>
   <i type="logical" name="ORBITALMAG"> F  </i>
   <i type="logical" name="LMAGBLOCH"> F  </i>
   <i type="logical" name="LCHIMAG"> F  </i>
   <i type="logical" name="LGAUGE"> T  </i>
   <i type="int" name="MAGATOM">     0</i>
   <v name="MAGDIPOL">      0.00000000      0.00000000      0.00000000</v>
   <v name="AVECCONST">      0.00000000      0.00000000      0.00000000</v>
  </separator>
  <separator name="response functions" >
   <i type="logical" name="LADDER"> F  </i>
   <i type="logical" name="LFXC"> F  </i>
   <i type="logical" name="LHARTREE"> T  </i>
   <i type="int" name="IBSE">     0</i>
   <v type="int" name="KPOINT">    -1     0     0     0</v>
   <i type="logical" name="LTCTE"> F  </i>
   <i type="logical" name="LTETE"> F  </i>
   <i type="logical" name="LTRIPLET"> F  </i>
   <i type="logical" name="LFXCEPS"> F  </i>
   <i type="logical" name="LFXHEG"> F  </i>
   <i type="int" name="NATURALO">     0</i>
   <i type="logical" name="L2ORDER"> F  </i>
   <i type="logical" name="LUSEW"> F  </i>
   <i name="ENCUTGW">     -2.00000000</i>
   <i name="ENCUTGWSOFT">     -2.00000000</i>
   <i name="ENCUTLF">     -1.00000000</i>
   <i type="int" name="LMAXMP2">    -1</i>
   <i name="SCISSOR">      0.00000000</i>
   <i type="int" name="NOMEGA">     0</i>
   <i type="int" name="NOMEGAR">     0</i>
   <i type="int" name="NBANDSGW">    -1</i>
   <i type="int" name="NBANDSO">    -1</i>
   <i type="int" name="NBANDSV">    -1</i>
   <i type="int" name="NELM">   250</i>
   <i type="int" name="NELMHF">     1</i>
   <i type="int" name="DIM">     3</i>
   <i type="int" name="ANTIRES">     0</i>
   <i name="OMEGAMAX">    -30.00000000</i>
   <i name="OMEGAMIN">    -30.00000000</i>
   <i name="OMEGATL">   -200.00000000</i>
   <i type="int" name="OMEGAGRID">     0</i>
   <i name="CSHIFT">     -0.10000000</i>
   <i type="logical" name="SELFENERGY"> F  </i>
   <i type="logical" name="LSPECTRAL"> F  </i>
   <i type="logical" name="LSPECTRALGW"> F  </i>
   <i type="logical" name="LSINGLES"> F  </i>
   <i type="logical" name="LFERMIGW"> F  </i>
   <i type="logical" name="ODDONLYGW"> F  </i>
   <i type="logical" name="EVENONLYGW"> F  </i>
   <i type="int" name="NKREDLFX">     1</i>
   <i type="int" name="NKREDLFY">     1</i>
   <i type="int" name="NKREDLFZ">     1</i>
   <i type="int" name="MAXMEM">  1800</i>
   <i type="int" name="TELESCOPE">     0</i>
   <i type="int" name="TAUPAR">     1</i>
   <i type="int" name="OMEGAPAR">    -1</i>
   <i name="LAMBDA">      1.00000000</i>
  </separator>
  <separator name="External order field" >
   <i name="OFIELD_KAPPA">      0.00000000</i>
   <v name="OFIELD_K">      0.00000000      0.00000000      0.00000000</v>
   <i name="OFIELD_Q6_NEAR">      0.00000000</i>
   <i name="OFIELD_Q6_FAR">      0.00000000</i>
   <i name="OFIELD_A">      0.00000000</i>
  </separator>
 </parameters>
 <atominfo>
  <atoms>       4 </atoms>
  <types>       1 </types>
  <array name="atoms" >
   <dimension dim="1">ion</dimension>
   <field type="string">element</field>
   <field type="int">atomtype</field>
   <set>
    <rc><c>P </c><c>   1</c></rc>
    <rc><c>P </c><c>   1</c></rc>
    <rc><c>P </c><c>   1</c></rc>
    <rc><c>P </c><c>   1</c></rc>
   </set>
  </array>
  <array name="atomtypes" >
   <dimension dim="1">type</dimension>
   <field type="int">atomspertype</field>
   <field type="string">element</field>
   <field>mass</field>
   <field>valence</field>
   <field type="string">pseudopotential</field>
   <set>
    <rc><c>   4</c><c>P </c><c>     30.97400000</c><c>      5.00000000</c><c>  PAW_PBE P 06Sep2000                   </c></rc>
   </set>
  </array>
 </atominfo>
 <structure name="initialpos" >
  <crystal>
   <varray name="basis" >
    <v>       3.25968600      -0.03730700       0.00000000 </v>
    <v>      -0.05231200       4.62305500      -0.00005300 </v>
    <v>       0.00000000       0.00000000      20.02439000 </v>
   </varray>
   <i name="volume">    301.72262371 </i>
   <varray name="rec_basis" >
    <v>       0.30681775       0.00347178       0.00000000 </v>
    <v>       0.00247595       0.21633520       0.00000000 </v>
    <v>       0.00000001       0.00000057       0.04993910 </v>
   </varray>
  </crystal>
  <varray name="positions" >
   <v>       0.50000000       0.91077300       0.55252100 </v>
   <v>       0.50000000       0.08922700       0.44747900 </v>
   <v>       0.00000000       0.41076900       0.44747900 </v>
   <v>       0.00000000       0.58923100       0.55252100 </v>
  </varray>
 </structure>
 <calculation>
  <scstep>
   <time name="dav">    1.31    1.31</time>
   <time name="total">    1.33    1.33</time>
   <energy>
    <i name="alphaZ">      5.31667470 </i>
    <i name="ewald">   1891.22068488 </i>
    <i name="hartreedc">  -2484.65048649 </i>
    <i name="XCdc">     13.14540534 </i>
    <i name="pawpsdc">    559.04011960 </i>
    <i name="pawaedc">   -526.39432044 </i>
    <i name="eentropy">     -0.00062718 </i>
    <i name="bandstr">    -28.31465099 </i>
    <i name="atom">    704.16778566 </i>
    <i name="e_fr_energy">    133.53058508 </i>
    <i name="e_wo_entrp">    133.53121226 </i>
    <i name="e_0_energy">    133.53089867 </i>
   </energy>
  </scstep>
  <scstep>
   <time name="dav">    1.72    1.72</time>
   <time name="total">    1.73    1.73</time>
   <energy>
    <i name="e_fr_energy">     -6.28769633 </i>
    <i name="e_wo_entrp">     -6.28768944 </i>
    <i name="e_0_energy">     -6.28769289 </i>
   </energy>
  </scstep>
  <scstep>
   <time name="dav">    1.61    1.61</time>
   <time name="total">    1.61    1.62</time>
   <energy>
    <i name="e_fr_energy">    -21.34831886 </i>
    <i name="e_wo_entrp">    -21.34831886 </i>
    <i name="e_0_energy">    -21.34831886 </i>
   </energy>
  </scstep>
  <scstep>
   <time name="dav">    1.64    1.65</time>
   <time name="total">    1.65    1.65</time>
   <energy>
    <i name="e_fr_energy">    -21.65513089 </i>
    <i name="e_wo_entrp">    -21.65513089 </i>
    <i name="e_0_energy">    -21.65513089 </i>
   </energy>
  </scstep>
  <scstep>
   <time name="dav">    1.74    1.74</time>
   <time name="total">    1.81    1.81</time>
   <energy>
    <i name="e_fr_energy">    -21.66466491 </i>
    <i name="e_wo_entrp">    -21.66466491 </i>
    <i name="e_0_energy">    -21.66466491 </i>
   </energy>
  </scstep>
  <scstep>
   <time name="dav">    1.56    1.56</time>
   <time name="total">    1.65    1.65</time>
   <energy>
    <i name="e_fr_energy">    -21.50731343 </i>
    <i name="e_wo_entrp">    -21.50731343 </i>
    <i name="e_0_energy">    -21.50731343 </i>
   </energy>
  </scstep>
  <scstep>
   <time name="dav">    1.52    1.52</time>
   <time name="total">    1.61    1.61</time>
   <energy>
    <i name="e_fr_energy">    -21.43589821 </i>
    <i name="e_wo_entrp">    -21.43589821 </i>
    <i name="e_0_energy">    -21.43589821 </i>
   </energy>
  </scstep>
  <scstep>
   <time name="dav">    1.59    1.59</time>
   <time name="total">    1.67    1.67</time>
   <energy>
    <i name="e_fr_energy">    -21.43492691 </i>
    <i name="e_wo_entrp">    -21.43492691 </i>
    <i name="e_0_energy">    -21.43492691 </i>
   </energy>
  </scstep>
  <scstep>
   <time name="dav">    1.84    1.84</time>
   <time name="total">    1.93    1.93</time>
   <energy>
    <i name="e_fr_energy">    -21.43476111 </i>
    <i name="e_wo_entrp">    -21.43476111 </i>
    <i name="e_0_energy">    -21.43476111 </i>
   </energy>
  </scstep>
  <scstep>
   <time name="dav">    1.56    1.56</time>
   <time name="total">    1.64    1.64</time>
   <energy>
    <i name="e_fr_energy">    -21.43450719 </i>
    <i name="e_wo_entrp">    -21.43450719 </i>
    <i name="e_0_energy">    -21.43450719 </i>
   </energy>
  </scstep>
  <scstep>
   <time name="dav">    1.60    1.60</time>
   <time name="total">    1.69    1.69</time>
   <energy>
    <i name="e_fr_energy">    -21.43440210 </i>
    <i name="e_wo_entrp">    -21.43440210 </i>
    <i name="e_0_energy">    -21.43440210 </i>
   </energy>
  </scstep>
  <scstep>
   <time name="dav">    1.40    1.40</time>
   <time name="total">    1.49    1.49</time>
   <energy>
    <i name="e_fr_energy">    -21.43478485 </i>
    <i name="e_wo_entrp">    -21.43478485 </i>
    <i name="e_0_energy">    -21.43478485 </i>
   </energy>
  </scstep>
  <scstep>
   <time name="dav">    1.41    1.41</time>
   <time name="total">    1.50    1.50</time>
   <energy>
    <i name="e_fr_energy">    -21.43487246 </i>
    <i name="e_wo_entrp">    -21.43487246 </i>
    <i name="e_0_energy">    -21.43487246 </i>
   </energy>
  </scstep>
  <scstep>
   <time name="dav">    1.29    1.29</time>
   <time name="total">    1.37    1.38</time>
   <energy>
    <i name="e_fr_energy">    -21.43502856 </i>
    <i name="e_wo_entrp">    -21.43502856 </i>
    <i name="e_0_energy">    -21.43502856 </i>
   </energy>
  </scstep>
  <scstep>
   <time name="dav">    1.35    1.35</time>
   <time name="total">    1.44    1.44</time>
   <energy>
    <i name="e_fr_energy">    -21.43507768 </i>
    <i name="e_wo_entrp">    -21.43507768 </i>
    <i name="e_0_energy">    -21.43507768 </i>
   </energy>
  </scstep>
  <scstep>
   <time name="dav">    1.28    1.28</time>
   <time name="total">    1.37    1.37</time>
   <energy>
    <i name="e_fr_energy">    -21.43511564 </i>
    <i name="e_wo_entrp">    -21.43511564 </i>
    <i name="e_0_energy">    -21.43511564 </i>
   </energy>
  </scstep>
  <scstep>
   <time name="dav">    1.32    1.32</time>
   <time name="total">    1.33    1.33</time>
   <energy>
    <i name="alphaZ">      5.31667470 </i>
    <i name="ewald">   1891.22068488 </i>
    <i name="hartreedc">  -2500.67162158 </i>
    <i name="XCdc">     14.23322120 </i>
    <i name="pawpsdc">   2158.92797832 </i>
    <i name="pawaedc">  -2126.64101538 </i>
    <i name="eentropy">     -0.00000000 </i>
    <i name="bandstr">   -167.98882574 </i>
    <i name="atom">    704.16778566 </i>
    <i name="e_fr_energy">    -21.43511793 </i>
    <i name="e_wo_entrp">    -21.43511793 </i>
    <i name="e_0_energy">    -21.43511793 </i>
   </energy>
  </scstep>
  <structure>
   <crystal>
    <varray name="basis" >
     <v>       3.25968600      -0.03730700       0.00000000 </v>
     <v>      -0.05231200       4.62305500      -0.00005300 </v>
     <v>       0.00000000       0.00000000      20.02439000 </v>
    </varray>
    <i name="volume">    301.72262371 </i>
    <varray name="rec_basis" >
     <v>       0.30681775       0.00347178       0.00000000 </v>
     <v>       0.00247595       0.21633520       0.00000000 </v>
     <v>       0.00000001       0.00000057       0.04993910 </v>
    </varray>
   </crystal>
   <varray name="positions" >
    <v>       0.50000000       0.91077300       0.55252100 </v>
    <v>       0.50000000       0.08922700       0.44747900 </v>
    <v>       0.00000000       0.41076900       0.44747900 </v>
    <v>       0.00000000       0.58923100       0.55252100 </v>
   </varray>
  </structure>
  <varray name="forces" >
   <v>       0.31674697       0.08012846       0.01194268 </v>
   <v>      -0.31674697      -0.08012846      -0.01194268 </v>
   <v>       0.31674444       0.08009519      -0.01194200 </v>
   <v>      -0.31674444      -0.08009519       0.01194200 </v>
  </varray>
  <varray name="stress" >
   <v>       6.94617418       6.84589099      -0.00005058 </v>
   <v>       6.84589096       2.33812080       0.00033860 </v>
   <v>      -0.00005060       0.00033861       0.20194972 </v>
  </varray>
  <energy>
   <i name="e_fr_energy">    -21.43511793 </i>
   <i name="e_wo_entrp">    -21.43511793 </i>
   <i name="e_0_energy">     -0.00000000 </i>
  </energy>
  <time name="totalsc">   27.57   27.60</time>
 </calculation>
 <calculation>
  <scstep>
   <time name="dav">    1.33    1.33</time>
   <time name="total">    1.42    1.42</time>
   <energy>
    <i name="alphaZ">      5.31667470 </i>
    <i name="ewald">   1890.46165052 </i>
    <i name="hartreedc">  -2500.10441828 </i>
    <i name="XCdc">     14.21838250 </i>
    <i name="pawpsdc">   2158.43486849 </i>
    <i name="pawaedc">  -2126.14796905 </i>
    <i name="eentropy">     -0.00000000 </i>
    <i name="bandstr">   -167.78937322 </i>
    <i name="atom">    704.16778566 </i>
    <i name="e_fr_energy">    -21.44239868 </i>
    <i name="e_wo_entrp">    -21.44239868 </i>
    <i name="e_0_energy">    -21.44239868 </i>
   </energy>
  </scstep>
  <scstep>
   <time name="dav">    1.60    1.60</time>
   <time name="total">    1.68    1.69</time>
   <energy>
    <i name="e_fr_energy">    -21.44354999 </i>
    <i name="e_wo_entrp">    -21.44354999 </i>
    <i name="e_0_energy">    -21.44354999 </i>
   </energy>
  </scstep>
  <scstep>
   <time name="dav">    1.73    1.73</time>
   <time name="total">    1.81    1.82</time>
   <energy>
    <i name="e_fr_energy">    -21.44348289 </i>
    <i name="e_wo_entrp">    -21.44348289 </i>
    <i name="e_0_energy">    -21.44348289 </i>
   </energy>
  </scstep>
  <scstep>
   <time name="dav">    1.56    1.56</time>
   <time name="total">    1.65    1.65</time>
   <energy>
    <i name="e_fr_energy">    -21.44346775 </i>
    <i name="e_wo_entrp">    -21.44346775 </i>
    <i name="e_0_energy">    -21.44346775 </i>
   </energy>
  </scstep>
  <scstep>
   <time name="dav">    1.28    1.28</time>
   <time name="total">    1.36    1.36</time>
   <energy>
    <i name="e_fr_energy">    -21.44346993 </i>
    <i name="e_wo_entrp">    -21.44346993 </i>
    <i name="e_0_energy">    -21.44346993 </i>
   </energy>
  </scstep>
  <scstep>
   <time name="dav">    1.16    1.17</time>
   <time name="total">    1.18    1.18</time>
   <energy>
    <i name="alphaZ">      5.31667470 </i>
    <i name="ewald">   1890.46165052 </i>
    <i name="hartreedc">  -2500.09551267 </i>
    <i name="XCdc">     14.21565047 </i>
    <i name="pawpsdc">   2146.51825387 </i>
    <i name="pawaedc">  -2114.22674372 </i>
    <i name="eentropy">     -0.00000000 </i>
    <i name="bandstr">   -167.80122967 </i>
    <i name="atom">    704.16778566 </i>
    <i name="e_fr_energy">    -21.44347085 </i>
    <i name="e_wo_entrp">    -21.44347085 </i>
    <i name="e_0_energy">    -21.44347085 </i>
   </energy>
  </scstep>
  <structure>
   <crystal>
    <varray name="basis" >
     <v>       3.25968600      -0.03730700       0.00000000 </v>
     <v>      -0.05231200       4.62305500      -0.00005300 </v>
     <v>       0.00000000       0.00000000      20.02439000 </v>
    </varray>
    <i name="volume">    301.72262371 </i>
    <varray name="rec_basis" >
     <v>       0.30681775       0.00347178       0.00000000 </v>
     <v>       0.00247595       0.21633520       0.00000000 </v>
     <v>       0.00000001       0.00000057       0.04993910 </v>
    </varray>
   </crystal>
   <varray name="positions" >
    <v>       0.50282109       0.91129746       0.55253826 </v>
    <v>       0.49717891       0.08870254       0.44746174 </v>
    <v>       0.00282106       0.41129325       0.44746174 </v>
    <v>      -0.00282106       0.58870675       0.55253826 </v>
   </varray>
  </structure>
  <varray name="forces" >
   <v>       0.11453146       0.01301426       0.01262259 </v>
   <v>      -0.11453146      -0.01301426      -0.01262259 </v>
   <v>       0.11452947       0.01298711      -0.01262278 </v>
   <v>      -0.11452947      -0.01298711       0.01262278 </v>
  </varray>
  <varray name="stress" >
   <v>       6.43338040       4.09018252      -0.00002635 </v>
   <v>       4.09018253       1.40239399       0.00028791 </v>
   <v>      -0.00002628       0.00028786       0.22010296 </v>
  </varray>
  <energy>
   <i name="e_fr_energy">    -21.44347085 </i>
   <i name="e_wo_entrp">    -21.44347085 </i>
   <i name="e_0_energy">     -0.00000000 </i>
  </energy>
  <time name="totalsc">    9.88    9.89</time>
 </calculation>
 <calculation>
  <scstep>
   <time name="dav">    1.34    1.34</time>
   <time name="total">    1.42    1.42</time>
   <energy>
    <i name="alphaZ">      5.31667470 </i>
    <i name="ewald">   1890.06566598 </i>
    <i name="hartreedc">  -2499.78993563 </i>
    <i name="XCdc">     14.20785429 </i>
    <i name="pawpsdc">   2146.53879433 </i>
    <i name="pawaedc">  -2114.24731575 </i>
    <i name="eentropy">     -0.00000000 </i>
    <i name="bandstr">   -167.70389060 </i>
    <i name="atom">    704.16778566 </i>
    <i name="e_fr_energy">    -21.44436701 </i>
    <i name="e_wo_entrp">    -21.44436701 </i>
    <i name="e_0_energy">    -21.44436701 </i>
   </energy>
  </scstep>
  <scstep>
   <time name="dav">    1.58    1.58</time>
   <time name="total">    1.67    1.67</time>
   <energy>
    <i name="e_fr_energy">    -21.44470153 </i>
    <i name="e_wo_entrp">    -21.44470153 </i>
    <i name="e_0_energy">    -21.44470153 </i>
   </energy>
  </scstep>
  <scstep>
   <time name="dav">    1.72    1.72</time>
   <time name="total">    1.81    1.81</time>
   <energy>
    <i name="e_fr_energy">    -21.44468267 </i>
    <i name="e_wo_entrp">    -21.44468267 </i>
    <i name="e_0_energy">    -21.44468267 </i>
   </energy>
  </scstep>
  <scstep>
   <time name="dav">    1.35    1.35</time>
   <time name="total">    1.43    1.44</time>
   <energy>
    <i name="e_fr_energy">    -21.44467795 </i>
    <i name="e_wo_entrp">    -21.44467795 </i>
    <i name="e_0_energy">    -21.44467795 </i>
   </energy>
  </scstep>
  <scstep>
   <time name="dav">    1.09    1.09</time>
   <time name="total">    1.18    1.18</time>
   <energy>
    <i name="e_fr_energy">    -21.44467842 </i>
    <i name="e_wo_entrp">    -21.44467842 </i>
    <i name="e_0_energy">    -21.44467842 </i>
   </energy>
  </scstep>
  <scstep>
   <time name="dav">    1.03    1.03</time>
   <time name="total">    1.04    1.04</time>
   <energy>
    <i name="alphaZ">      5.31667470 </i>
    <i name="ewald">   1890.06566598 </i>
    <i name="hartreedc">  -2499.79092730 </i>
    <i name="XCdc">     14.20663822 </i>
    <i name="pawpsdc">   2140.64999415 </i>
    <i name="pawaedc">  -2108.35630326 </i>
    <i name="eentropy">     -0.00000000 </i>
    <i name="bandstr">   -167.70420668 </i>
    <i name="atom">    704.16778566 </i>
    <i name="e_fr_energy">    -21.44467853 </i>
    <i name="e_wo_entrp">    -21.44467853 </i>
    <i name="e_0_energy">    -21.44467853 </i>
   </energy>
  </scstep>
  <structure>
   <crystal>
    <varray name="basis" >
     <v>       3.25968600      -0.03730700       0.00000000 </v>
     <v>      -0.05231200       4.62305500      -0.00005300 </v>
     <v>       0.00000000       0.00000000      20.02439000 </v>
    </varray>
    <i name="volume">    301.72262371 </i>
    <varray name="rec_basis" >
     <v>       0.30681775       0.00347178       0.00000000 </v>
     <v>       0.00247595       0.21633520       0.00000000 </v>
     <v>       0.00000001       0.00000057       0.04993910 </v>
    </varray>
   </crystal>
   <varray name="positions" >
    <v>       0.50434379       0.91158054       0.55254758 </v>
    <v>       0.49565621       0.08841946       0.44745242 </v>
    <v>       0.00434375       0.41157622       0.44745242 </v>
    <v>      -0.00434375       0.58842378       0.55254758 </v>
   </varray>
  </structure>
  <varray name="forces" >
   <v>       0.00801927      -0.01866135       0.01286740 </v>
   <v>      -0.00801927       0.01866135      -0.01286740 </v>
   <v>       0.00801764      -0.01868542      -0.01286805 </v>
   <v>      -0.00801764       0.01868542       0.01286805 </v>
  </varray>
  <varray name="stress" >
   <v>       6.21082047       2.65073735      -0.00001398 </v>
   <v>       2.65073734       0.96641247       0.00025920 </v>
   <v>      -0.00001389       0.00025913       0.22201497 </v>
  </varray>
  <energy>
   <i name="e_fr_energy">    -21.44467853 </i>
   <i name="e_wo_entrp">    -21.44467853 </i>
   <i name="e_0_energy">     -0.00000000 </i>
  </energy>
  <time name="totalsc">    9.32    9.33</time>
 </calculation>
 <calculation>
  <scstep>
   <time name="dav">    1.36    1.37</time>
   <time name="total">    1.45    1.45</time>
   <energy>
    <i name="alphaZ">      5.31667470 </i>
    <i name="ewald">   1890.05275364 </i>
    <i name="hartreedc">  -2499.78298694 </i>
    <i name="XCdc">     14.20640530 </i>
    <i name="pawpsdc">   2140.63729271 </i>
    <i name="pawaedc">  -2108.34361261 </i>
    <i name="eentropy">     -0.00000000 </i>
    <i name="bandstr">   -167.69899195 </i>
    <i name="atom">    704.16778566 </i>
    <i name="e_fr_energy">    -21.44467950 </i>
    <i name="e_wo_entrp">    -21.44467950 </i>
    <i name="e_0_energy">    -21.44467950 </i>
   </energy>
  </scstep>
  <scstep>
   <time name="dav">    0.99    0.99</time>
   <time name="total">    1.07    1.07</time>
   <energy>
    <i name="e_fr_energy">    -21.44467985 </i>
    <i name="e_wo_entrp">    -21.44467985 </i>
    <i name="e_0_energy">    -21.44467985 </i>
   </energy>
  </scstep>
  <scstep>
   <time name="dav">    0.97    0.97</time>
   <time name="total">    1.05    1.06</time>
   <energy>
    <i name="e_fr_energy">    -21.44467989 </i>
    <i name="e_wo_entrp">    -21.44467989 </i>
    <i name="e_0_energy">    -21.44467989 </i>
   </energy>
  </scstep>
  <scstep>
   <time name="dav">    0.97    0.97</time>
   <time name="total">    1.06    1.06</time>
   <energy>
    <i name="e_fr_energy">    -21.44467992 </i>
    <i name="e_wo_entrp">    -21.44467992 </i>
    <i name="e_0_energy">    -21.44467992 </i>
   </energy>
  </scstep>
  <scstep>
   <time name="dav">    0.98    0.98</time>
   <time name="total">    1.07    1.07</time>
   <energy>
    <i name="e_fr_energy">    -21.44467996 </i>
    <i name="e_wo_entrp">    -21.44467996 </i>
    <i name="e_0_energy">    -21.44467996 </i>
   </energy>
  </scstep>
  <scstep>
   <time name="dav">    0.99    0.99</time>
   <time name="total">    1.01    1.01</time>
   <energy>
    <i name="alphaZ">      5.31667470 </i>
    <i name="ewald">   1890.05275364 </i>
    <i name="hartreedc">  -2499.78679840 </i>
    <i name="XCdc">     14.20639946 </i>
    <i name="pawpsdc">   2140.46283857 </i>
    <i name="pawaedc">  -2108.16908937 </i>
    <i name="eentropy">     -0.00000000 </i>
    <i name="bandstr">   -167.69524423 </i>
    <i name="atom">    704.16778566 </i>
    <i name="e_fr_energy">    -21.44467998 </i>
    <i name="e_wo_entrp">    -21.44467998 </i>
    <i name="e_0_energy">    -21.44467998 </i>
   </energy>
  </scstep>
  <structure>
   <crystal>
    <varray name="basis" >
     <v>       3.25968600      -0.03730700       0.00000000 </v>
     <v>      -0.05231200       4.62305500      -0.00005300 </v>
     <v>       0.00000000       0.00000000      20.02439000 </v>
    </varray>
    <i name="volume">    301.72262371 </i>
    <varray name="rec_basis" >
     <v>       0.30681775       0.00347178       0.00000000 </v>
     <v>       0.00247595       0.21633520       0.00000000 </v>
     <v>       0.00000001       0.00000057       0.04993910 </v>
    </varray>
   </crystal>
   <varray name="positions" >
    <v>       0.50439406       0.91158989       0.55254789 </v>
    <v>       0.49560594       0.08841011       0.44745211 </v>
    <v>       0.00439402       0.41158556       0.44745211 </v>
    <v>      -0.00439402       0.58841444       0.55254789 </v>
   </varray>
  </structure>
  <varray name="forces" >
   <v>       0.00455295      -0.01968167       0.01286933 </v>
   <v>      -0.00455295       0.01968167      -0.01286933 </v>
   <v>       0.00455131      -0.01970572      -0.01287002 </v>
   <v>      -0.00455131       0.01970572       0.01287002 </v>
  </varray>
  <varray name="stress" >
   <v>       6.20490077       2.61163145      -0.00001339 </v>
   <v>       2.61163150       0.95086182       0.00025891 </v>
   <v>      -0.00001337       0.00025886       0.21643602 </v>
  </varray>
  <energy>
   <i name="e_fr_energy">    -21.44467998 </i>
   <i name="e_wo_entrp">    -21.44467998 </i>
   <i name="e_0_energy">     -0.00000000 </i>
  </energy>
  <time name="totalsc">    7.47    7.48</time>
 </calculation>
 <calculation>
  <scstep>
   <time name="dav">    1.37    1.37</time>
   <time name="total">    1.46    1.46</time>
   <energy>
    <i name="alphaZ">      5.31667470 </i>
    <i name="ewald">   1889.76025269 </i>
    <i name="hartreedc">  -2499.48410700 </i>
    <i name="XCdc">     14.20675258 </i>
    <i name="pawpsdc">   2140.46107842 </i>
    <i name="pawaedc">  -2108.16732906 </i>
    <i name="eentropy">     -0.00000000 </i>
    <i name="bandstr">   -167.70582520 </i>
    <i name="atom">    704.16778566 </i>
    <i name="e_fr_energy">    -21.44471721 </i>
    <i name="e_wo_entrp">    -21.44471721 </i>
    <i name="e_0_energy">    -21.44471721 </i>
   </energy>
  </scstep>
  <scstep>
   <time name="dav">    1.54    1.55</time>
   <time name="total">    1.63    1.63</time>
   <energy>
    <i name="e_fr_energy">    -21.44472733 </i>
    <i name="e_wo_entrp">    -21.44472733 </i>
    <i name="e_0_energy">    -21.44472733 </i>
   </energy>
  </scstep>
  <scstep>
   <time name="dav">    1.02    1.02</time>
   <time name="total">    1.10    1.10</time>
   <energy>
    <i name="e_fr_energy">    -21.44472703 </i>
    <i name="e_wo_entrp">    -21.44472703 </i>
    <i name="e_0_energy">    -21.44472703 </i>
   </energy>
  </scstep>
  <scstep>
   <time name="dav">    0.96    0.96</time>
   <time name="total">    1.04    1.04</time>
   <energy>
    <i name="e_fr_energy">    -21.44472716 </i>
    <i name="e_wo_entrp">    -21.44472716 </i>
    <i name="e_0_energy">    -21.44472716 </i>
   </energy>
  </scstep>
  <scstep>
   <time name="dav">    0.97    0.97</time>
   <time name="total">    1.05    1.06</time>
   <energy>
    <i name="e_fr_energy">    -21.44472721 </i>
    <i name="e_wo_entrp">    -21.44472721 </i>
    <i name="e_0_energy">    -21.44472721 </i>
   </energy>
  </scstep>
  <scstep>
   <time name="dav">    0.98    0.98</time>
   <time name="total">    0.99    0.99</time>
   <energy>
    <i name="alphaZ">      5.31667470 </i>
    <i name="ewald">   1889.76025269 </i>
    <i name="hartreedc">  -2499.48510706 </i>
    <i name="XCdc">     14.20697135 </i>
    <i name="pawpsdc">   2141.24924539 </i>
    <i name="pawaedc">  -2108.95585982 </i>
    <i name="eentropy">     -0.00000000 </i>
    <i name="bandstr">   -167.70469014 </i>
    <i name="atom">    704.16778566 </i>
    <i name="e_fr_energy">    -21.44472722 </i>
    <i name="e_wo_entrp">    -21.44472722 </i>
    <i name="e_0_energy">    -21.44472722 </i>
   </energy>
  </scstep>
  <structure>
   <crystal>
    <varray name="basis" >
     <v>       3.25968600      -0.03730700       0.00000000 </v>
     <v>      -0.05231200       4.62305500      -0.00005300 </v>
     <v>       0.00000000       0.00000000      20.02439000 </v>
    </varray>
    <i name="volume">    301.72262371 </i>
    <varray name="rec_basis" >
     <v>       0.30681775       0.00347178       0.00000000 </v>
     <v>       0.00247595       0.21633520       0.00000000 </v>
     <v>       0.00000001       0.00000057       0.04993910 </v>
    </varray>
   </crystal>
   <varray name="positions" >
    <v>       0.50445312       0.91145629       0.55256867 </v>
    <v>       0.49554688       0.08854371       0.44743133 </v>
    <v>       0.00445306       0.41145180       0.44743134 </v>
    <v>      -0.00445306       0.58854820       0.55256866 </v>
   </varray>
  </structure>
  <varray name="forces" >
   <v>       0.00054712      -0.00439997       0.00485501 </v>
   <v>      -0.00054712       0.00439997      -0.00485501 </v>
   <v>       0.00054570      -0.00441932      -0.00485569 </v>
   <v>      -0.00054570       0.00441932       0.00485569 </v>
  </varray>
  <varray name="stress" >
   <v>       6.25528951       2.56006416      -0.00001541 </v>
   <v>       2.56006420       1.12551248       0.00020556 </v>
   <v>      -0.00001538       0.00020551       0.03772319 </v>
  </varray>
  <energy>
   <i name="e_fr_energy">    -21.44472722 </i>
   <i name="e_wo_entrp">    -21.44472722 </i>
   <i name="e_0_energy">     -0.00000000 </i>
  </energy>
  <time name="totalsc">    7.96    7.98</time>
  <eigenvalues>
   <array>
    <dimension dim="1">band</dimension>
    <dimension dim="2">kpoint</dimension>
    <dimension dim="3">spin</dimension>
    <field>eigene</field>
    <field>occ</field>
    <set>
     <set comment="spin 1">
      <set comment="kpoint 1">
       <r>  -17.2715    1.0000 </r>
       <r>  -14.8243    1.0000 </r>
       <r>  -11.4152    1.0000 </r>
       <r>   -7.9645    1.0000 </r>
       <r>   -6.9675    1.0000 </r>
       <r>   -6.8105    1.0000 </r>
       <r>   -5.4124    1.0000 </r>
       <r>   -3.9727    1.0000 </r>
       <r>   -3.8519    1.0000 </r>
       <r>   -2.2535    1.0000 </r>
       <r>   -1.4064    0.0000 </r>
       <r>   -0.4309    0.0000 </r>
       <r>    0.6163    0.0000 </r>
       <r>    1.2261    0.0000 </r>
       <r>    2.1390    0.0000 </r>
       <r>    2.3173    0.0000 </r>
      </set>
      <set comment="kpoint 2">
       <r>  -17.2462    1.0000 </r>
       <r>  -14.7979    1.0000 </r>
       <r>  -11.4209    1.0000 </r>
       <r>   -7.9451    1.0000 </r>
       <r>   -6.9785    1.0000 </r>
       <r>   -6.7881    1.0000 </r>
       <r>   -5.5859    1.0000 </r>
       <r>   -4.0341    1.0000 </r>
       <r>   -3.9607    1.0000 </r>
       <r>   -2.2508    1.0000 </r>
       <r>   -1.3826    0.0000 </r>
       <r>   -0.1970    0.0000 </r>
       <r>    0.8102    0.0000 </r>
       <r>    1.1001    0.0000 </r>
       <r>    2.1653    0.0000 </r>
       <r>    2.3456    0.0000 </r>
      </set>
      <set comment="kpoint 3">
       <r>  -17.1703    1.0000 </r>
       <r>  -14.7189    1.0000 </r>
       <r>  -11.4429    1.0000 </r>
       <r>   -7.8875    1.0000 </r>
       <r>   -7.0269    1.0000 </r>
       <r>   -6.7212    1.0000 </r>
       <r>   -6.0139    1.0000 </r>
       <r>   -4.4655    1.0000 </r>
       <r>   -3.9285    1.0000 </r>
       <r>   -2.2609    1.0000 </r>
       <r>   -1.3116    0.0000 </r>
       <r>    0.4309    0.0000 </r>
       <r>    0.6167    0.0000 </r>
       <r>    1.4573    0.0000 </r>
       <r>    2.2412    0.0000 </r>
       <r>    2.4301    0.0000 </r>
      </set>
      <set comment="kpoint 4">
       <r>  -17.0442    1.0000 </r>
       <r>  -14.5874    1.0000 </r>
       <r>  -11.4950    1.0000 </r>
       <r>   -7.7937    1.0000 </r>
       <r>   -7.1638    1.0000 </r>
       <r>   -6.6171    1.0000 </r>
       <r>   -6.5286    1.0000 </r>
       <r>   -4.9358    1.0000 </r>
       <r>   -3.8849    1.0000 </r>
       <r>   -2.3049    1.0000 </r>
       <r>   -1.1942    0.0000 </r>
       <r>    0.1158    0.0000 </r>
       <r>    1.3118    0.0000 </r>
       <r>    2.0738    0.0000 </r>
       <r>    2.3370    0.0000 </r>
       <r>    2.5706    0.0000 </r>
      </set>
      <set comment="kpoint 5">
       <r>  -16.8684    1.0000 </r>
       <r>  -14.4037    1.0000 </r>
       <r>  -11.6003    1.0000 </r>
       <r>   -7.6676    1.0000 </r>
       <r>   -7.4665    1.0000 </r>
       <r>   -7.0317    1.0000 </r>
       <r>   -6.4559    1.0000 </r>
       <r>   -5.2692    1.0000 </r>
       <r>   -3.8481    1.0000 </r>
       <r>   -2.3939    1.0000 </r>
       <r>   -1.0328    0.0000 </r>
       <r>   -0.3895    0.0000 </r>
       <r>    2.1118    0.0000 </r>
       <r>    2.1254    0.0000 </r>
       <r>    2.3164    0.0000 </r>
       <r>    2.6859    0.0000 </r>
      </set>
      <set comment="kpoint 6">
       <r>  -16.6436    1.0000 </r>
       <r>  -14.1681    1.0000 </r>
       <r>  -11.7857    1.0000 </r>
       <r>   -7.9569    1.0000 </r>
       <r>   -7.5157    1.0000 </r>
       <r>   -7.4217    1.0000 </r>
       <r>   -6.2658    1.0000 </r>
       <r>   -5.3974    1.0000 </r>
       <r>   -3.8474    1.0000 </r>
       <r>   -2.5378    1.0000 </r>
       <r>   -0.8322    0.0000 </r>
       <r>   -0.8121    0.0000 </r>
       <r>    1.5577    0.0000 </r>
       <r>    1.5601    0.0000 </r>
       <r>    2.8033    0.0000 </r>
       <r>    2.9001    0.0000 </r>
      </set>
      <set comment="kpoint 7">
       <r>  -16.3712    1.0000 </r>
       <r>  -13.8811    1.0000 </r>
       <r>  -12.0693    1.0000 </r>
       <r>   -8.5673    1.0000 </r>
       <r>   -7.6660    1.0000 </r>
       <r>   -7.3495    1.0000 </r>
       <r>   -6.0424    1.0000 </r>
       <r>   -5.3701    1.0000 </r>
       <r>   -3.9157    1.0000 </r>
       <r>   -2.7426    1.0000 </r>
       <r>   -1.0832    0.0000 </r>
       <r>   -0.6058    0.0000 </r>
       <r>    0.9027    0.0000 </r>
       <r>    1.0066    0.0000 </r>
       <r>    2.3492    0.0000 </r>
       <r>    3.2025    0.0000 </r>
      </set>
      <set comment="kpoint 8">
       <r>  -16.0525    1.0000 </r>
       <r>  -13.5435    1.0000 </r>
       <r>  -12.4474    1.0000 </r>
       <r>   -9.2239    1.0000 </r>
       <r>   -7.7575    1.0000 </r>
       <r>   -7.1879    1.0000 </r>
       <r>   -5.7945    1.0000 </r>
       <r>   -5.2588    1.0000 </r>
       <r>   -4.0590    1.0000 </r>
       <r>   -3.0053    1.0000 </r>
       <r>   -1.1647    0.0000 </r>
       <r>   -0.4070    0.0000 </r>
       <r>    0.2835    0.0000 </r>
       <r>    0.5558    0.0000 </r>
       <r>    1.8467    0.0000 </r>
       <r>    3.2313    0.0000 </r>
      </set>
      <set comment="kpoint 9">
       <r>  -15.6899    1.0000 </r>
       <r>  -13.1576    1.0000 </r>
       <r>  -12.8939    1.0000 </r>
       <r>   -9.8835    1.0000 </r>
       <r>   -7.7184    1.0000 </r>
       <r>   -7.0614    1.0000 </r>
       <r>   -5.5359    1.0000 </r>
       <r>   -5.1172    1.0000 </r>
       <r>   -4.2291    1.0000 </r>
       <r>   -3.3107    1.0000 </r>
       <r>   -1.0689    0.0000 </r>
       <r>   -0.4343    0.0000 </r>
       <r>   -0.2550    0.0000 </r>
       <r>    0.4314    0.0000 </r>
       <r>    1.3486    0.0000 </r>
       <r>    2.8477    0.0000 </r>
      </set>
      <set comment="kpoint 10">
       <r>  -15.2863    1.0000 </r>
       <r>  -13.3850    1.0000 </r>
       <r>  -12.7175    1.0000 </r>
       <r>  -10.5242    1.0000 </r>
       <r>   -7.5853    1.0000 </r>
       <r>   -7.0099    1.0000 </r>
       <r>   -5.2878    1.0000 </r>
       <r>   -4.9904    1.0000 </r>
       <r>   -4.3431    1.0000 </r>
       <r>   -3.6331    1.0000 </r>
       <r>   -0.8524    0.0000 </r>
       <r>   -0.7027    0.0000 </r>
       <r>   -0.6604    0.0000 </r>
       <r>    0.6637    0.0000 </r>
       <r>    0.8664    0.0000 </r>
       <r>    2.4060    0.0000 </r>
      </set>
      <set comment="kpoint 11">
       <r>  -14.8462    1.0000 </r>
       <r>  -13.8840    1.0000 </r>
       <r>  -12.2342    1.0000 </r>
       <r>  -11.1337    1.0000 </r>
       <r>   -7.3997    1.0000 </r>
       <r>   -7.0624    1.0000 </r>
       <r>   -5.0809    1.0000 </r>
       <r>   -4.9233    1.0000 </r>
       <r>   -4.3337    1.0000 </r>
       <r>   -3.9390    1.0000 </r>
       <r>   -0.9633    0.0000 </r>
       <r>   -0.9433    0.0000 </r>
       <r>   -0.4849    0.0000 </r>
       <r>    0.3635    0.0000 </r>
       <r>    1.0621    0.0000 </r>
       <r>    1.9445    0.0000 </r>
      </set>
      <set comment="kpoint 12">
       <r>  -14.3757    1.0000 </r>
       <r>  -14.3757    1.0000 </r>
       <r>  -11.7052    1.0000 </r>
       <r>  -11.7052    1.0000 </r>
       <r>   -7.2078    1.0000 </r>
       <r>   -7.2078    1.0000 </r>
       <r>   -4.9513    1.0000 </r>
       <r>   -4.9513    1.0000 </r>
       <r>   -4.1877    1.0000 </r>
       <r>   -4.1877    1.0000 </r>
       <r>   -1.0437    0.0000 </r>
       <r>   -1.0437    0.0000 </r>
       <r>   -0.0855    0.0000 </r>
       <r>   -0.0855    0.0000 </r>
       <r>    1.4893    0.0000 </r>
       <r>    1.4893    0.0000 </r>
      </set>
      <set comment="kpoint 13">
       <r>  -17.2500    1.0000 </r>
       <r>  -14.8537    1.0000 </r>
       <r>  -11.4261    1.0000 </r>
       <r>   -8.1178    1.0000 </r>
       <r>   -6.8768    1.0000 </r>
       <r>   -6.7144    1.0000 </r>
       <r>   -5.3961    1.0000 </r>
       <r>   -3.8746    1.0000 </r>
       <r>   -3.8660    1.0000 </r>
       <r>   -2.4657    1.0000 </r>
       <r>   -1.2097    0.0000 </r>
       <r>   -0.4150    0.0000 </r>
       <r>    0.5742    0.0000 </r>
       <r>    1.2116    0.0000 </r>
       <r>    2.1993    0.0000 </r>
       <r>    2.3477    0.0000 </r>
      </set>
      <set comment="kpoint 14">
       <r>  -17.2236    1.0000 </r>
       <r>  -14.8286    1.0000 </r>
       <r>  -11.4337    1.0000 </r>
       <r>   -8.1051    1.0000 </r>
       <r>   -6.8836    1.0000 </r>
       <r>   -6.6869    1.0000 </r>
       <r>   -5.5736    1.0000 </r>
       <r>   -4.0510    1.0000 </r>
       <r>   -3.8501    1.0000 </r>
       <r>   -2.4651    1.0000 </r>
       <r>   -1.1856    0.0000 </r>
       <r>   -0.1747    0.0000 </r>
       <r>    0.7996    0.0000 </r>
       <r>    1.0519    0.0000 </r>
       <r>    2.2267    0.0000 </r>
       <r>    2.3776    0.0000 </r>
      </set>
      <set comment="kpoint 15">
       <r>  -17.1468    1.0000 </r>
       <r>  -14.7512    1.0000 </r>
       <r>  -11.4547    1.0000 </r>
       <r>   -8.0619    1.0000 </r>
       <r>   -6.9157    1.0000 </r>
       <r>   -6.6373    1.0000 </r>
       <r>   -5.9829    1.0000 </r>
       <r>   -4.4866    1.0000 </r>
       <r>   -3.8170    1.0000 </r>
       <r>   -2.4650    1.0000 </r>
       <r>   -1.1273    0.0000 </r>
       <r>    0.4572    0.0000 </r>
       <r>    0.6362    0.0000 </r>
       <r>    1.3837    0.0000 </r>
       <r>    2.3012    0.0000 </r>
       <r>    2.4636    0.0000 </r>
      </set>
      <set comment="kpoint 16">
       <r>  -17.0197    1.0000 </r>
       <r>  -14.6218    1.0000 </r>
       <r>  -11.5030    1.0000 </r>
       <r>   -7.9996    1.0000 </r>
       <r>   -7.0155    1.0000 </r>
       <r>   -6.7072    1.0000 </r>
       <r>   -6.3238    1.0000 </r>
       <r>   -4.9656    1.0000 </r>
       <r>   -3.7798    1.0000 </r>
       <r>   -2.4852    1.0000 </r>
       <r>   -1.0347    0.0000 </r>
       <r>    0.1412    0.0000 </r>
       <r>    1.3349    0.0000 </r>
       <r>    2.0102    0.0000 </r>
       <r>    2.3935    0.0000 </r>
       <r>    2.6051    0.0000 </r>
      </set>
      <set comment="kpoint 17">
       <r>  -16.8429    1.0000 </r>
       <r>  -14.4408    1.0000 </r>
       <r>  -11.6012    1.0000 </r>
       <r>   -7.9640    1.0000 </r>
       <r>   -7.2231    1.0000 </r>
       <r>   -7.1112    1.0000 </r>
       <r>   -6.2650    1.0000 </r>
       <r>   -5.3064    1.0000 </r>
       <r>   -3.7594    1.0000 </r>
       <r>   -2.5416    1.0000 </r>
       <r>   -0.9055    0.0000 </r>
       <r>   -0.3431    0.0000 </r>
       <r>    2.0142    0.0000 </r>
       <r>    2.1019    0.0000 </r>
       <r>    2.4203    0.0000 </r>
       <r>    2.6665    0.0000 </r>
      </set>
      <set comment="kpoint 18">
       <r>  -16.6173    1.0000 </r>
       <r>  -14.2092    1.0000 </r>
       <r>  -11.7765    1.0000 </r>
       <r>   -8.1390    1.0000 </r>
       <r>   -7.4914    1.0000 </r>
       <r>   -7.3881    1.0000 </r>
       <r>   -6.0912    1.0000 </r>
       <r>   -5.4360    1.0000 </r>
       <r>   -3.7863    1.0000 </r>
       <r>   -2.6496    1.0000 </r>
       <r>   -0.7393    0.0000 </r>
       <r>   -0.7324    0.0000 </r>
       <r>    1.4797    0.0000 </r>
       <r>    1.5685    0.0000 </r>
       <r>    2.6945    0.0000 </r>
       <r>    3.0500    0.0000 </r>
      </set>
      <set comment="kpoint 19">
       <r>  -16.3440    1.0000 </r>
       <r>  -13.9291    1.0000 </r>
       <r>  -12.0470    1.0000 </r>
       <r>   -8.6367    1.0000 </r>
       <r>   -7.7357    1.0000 </r>
       <r>   -7.3364    1.0000 </r>
       <r>   -5.8774    1.0000 </r>
       <r>   -5.4113    1.0000 </r>
       <r>   -3.8876    1.0000 </r>
       <r>   -2.8200    1.0000 </r>
       <r>   -0.9630    0.0000 </r>
       <r>   -0.5439    0.0000 </r>
       <r>    0.9140    0.0000 </r>
       <r>    0.9288    0.0000 </r>
       <r>    2.3937    0.0000 </r>
       <r>    3.2871    0.0000 </r>
      </set>
      <set comment="kpoint 20">
       <r>  -16.0247    1.0000 </r>
       <r>  -13.6070    1.0000 </r>
       <r>  -12.4046    1.0000 </r>
       <r>   -9.2599    1.0000 </r>
       <r>   -7.8276    1.0000 </r>
       <r>   -7.2046    1.0000 </r>
       <r>   -5.6426    1.0000 </r>
       <r>   -5.3153    1.0000 </r>
       <r>   -4.0513    1.0000 </r>
       <r>   -3.0513    1.0000 </r>
       <r>   -1.0113    0.0000 </r>
       <r>   -0.3660    0.0000 </r>
       <r>    0.3204    0.0000 </r>
       <r>    0.4426    0.0000 </r>
       <r>    1.9557    0.0000 </r>
       <r>    3.1934    0.0000 </r>
      </set>
      <set comment="kpoint 21">
       <r>  -15.6615    1.0000 </r>
       <r>  -13.2927    1.0000 </r>
       <r>  -12.7766    1.0000 </r>
       <r>   -9.9065    1.0000 </r>
       <r>   -7.7864    1.0000 </r>
       <r>   -7.0808    1.0000 </r>
       <r>   -5.4072    1.0000 </r>
       <r>   -5.2157    1.0000 </r>
       <r>   -4.2057    1.0000 </r>
       <r>   -3.3264    1.0000 </r>
       <r>   -0.9140    0.0000 </r>
       <r>   -0.4202    0.0000 </r>
       <r>   -0.1949    0.0000 </r>
       <r>    0.2989    0.0000 </r>
       <r>    1.5114    0.0000 </r>
       <r>    2.8184    0.0000 </r>
      </set>
      <set comment="kpoint 22">
       <r>  -15.2577    1.0000 </r>
       <r>  -13.4369    1.0000 </r>
       <r>  -12.6820    1.0000 </r>
       <r>  -10.5406    1.0000 </r>
       <r>   -7.6475    1.0000 </r>
       <r>   -7.0223    1.0000 </r>
       <r>   -5.2015    1.0000 </r>
       <r>   -5.1597    1.0000 </r>
       <r>   -4.2604    1.0000 </r>
       <r>   -3.6137    1.0000 </r>
       <r>   -0.8590    0.0000 </r>
       <r>   -0.7082    0.0000 </r>
       <r>   -0.4338    0.0000 </r>
       <r>    0.4567    0.0000 </r>
       <r>    1.1309    0.0000 </r>
       <r>    2.3833    0.0000 </r>
      </set>
      <set comment="kpoint 23">
       <r>  -14.8178    1.0000 </r>
       <r>  -13.8971    1.0000 </r>
       <r>  -12.2371    1.0000 </r>
       <r>  -11.1460    1.0000 </r>
       <r>   -7.4514    1.0000 </r>
       <r>   -7.0704    1.0000 </r>
       <r>   -5.1377    1.0000 </r>
       <r>   -5.0670    1.0000 </r>
       <r>   -4.1976    1.0000 </r>
       <r>   -3.8727    1.0000 </r>
       <r>   -1.0472    0.0000 </r>
       <r>   -0.9392    0.0000 </r>
       <r>   -0.1930    0.0000 </r>
       <r>    0.3589    0.0000 </r>
       <r>    1.1308    0.0000 </r>
       <r>    1.9276    0.0000 </r>
      </set>
      <set comment="kpoint 24">
       <r>  -14.3771    1.0000 </r>
       <r>  -14.3489    1.0000 </r>
       <r>  -11.7202    1.0000 </r>
       <r>  -11.7136    1.0000 </r>
       <r>   -7.2439    1.0000 </r>
       <r>   -7.2199    1.0000 </r>
       <r>   -5.1331    1.0000 </r>
       <r>   -5.0339    1.0000 </r>
       <r>   -4.0700    1.0000 </r>
       <r>   -4.0588    1.0000 </r>
       <r>   -1.1408    0.0000 </r>
       <r>   -1.0120    0.0000 </r>
       <r>   -0.0082    0.0000 </r>
       <r>    0.1950    0.0000 </r>
       <r>    1.4774    0.0000 </r>
       <r>    1.4805    0.0000 </r>
      </set>
      <set comment="kpoint 25">
       <r>  -14.8419    1.0000 </r>
       <r>  -13.8622    1.0000 </r>
       <r>  -12.2362    1.0000 </r>
       <r>  -11.1557    1.0000 </r>
       <r>   -7.4212    1.0000 </r>
       <r>   -7.0797    1.0000 </r>
       <r>   -5.1845    1.0000 </r>
       <r>   -5.0758    1.0000 </r>
       <r>   -4.2022    1.0000 </r>
       <r>   -3.8583    1.0000 </r>
       <r>   -1.0594    0.0000 </r>
       <r>   -0.8983    0.0000 </r>
       <r>   -0.3739    0.0000 </r>
       <r>    0.6108    0.0000 </r>
       <r>    1.0879    0.0000 </r>
       <r>    1.9032    0.0000 </r>
      </set>
      <set comment="kpoint 26">
       <r>  -15.2784    1.0000 </r>
       <r>  -13.3854    1.0000 </r>
       <r>  -12.6968    1.0000 </r>
       <r>  -10.5522    1.0000 </r>
       <r>   -7.6173    1.0000 </r>
       <r>   -7.0112    1.0000 </r>
       <r>   -5.3180    1.0000 </r>
       <r>   -5.1371    1.0000 </r>
       <r>   -4.2662    1.0000 </r>
       <r>   -3.6011    1.0000 </r>
       <r>   -0.8264    0.0000 </r>
       <r>   -0.7699    0.0000 </r>
       <r>   -0.5160    0.0000 </r>
       <r>    0.5999    0.0000 </r>
       <r>    1.1952    0.0000 </r>
       <r>    2.3486    0.0000 </r>
      </set>
      <set comment="kpoint 27">
       <r>  -15.6794    1.0000 </r>
       <r>  -13.2390    1.0000 </r>
       <r>  -12.7930    1.0000 </r>
       <r>   -9.9189    1.0000 </r>
       <r>   -7.7600    1.0000 </r>
       <r>   -7.0532    1.0000 </r>
       <r>   -5.5126    1.0000 </r>
       <r>   -5.2155    1.0000 </r>
       <r>   -4.2275    1.0000 </r>
       <r>   -3.3149    1.0000 </r>
       <r>   -0.9627    0.0000 </r>
       <r>   -0.5214    0.0000 </r>
       <r>   -0.1020    0.0000 </r>
       <r>    0.3306    0.0000 </r>
       <r>    1.6601    0.0000 </r>
       <r>    2.7795    0.0000 </r>
      </set>
      <set comment="kpoint 28">
       <r>  -16.0401    1.0000 </r>
       <r>  -13.5821    1.0000 </r>
       <r>  -12.3920    1.0000 </r>
       <r>   -9.2719    1.0000 </r>
       <r>   -7.8071    1.0000 </r>
       <r>   -7.1695    1.0000 </r>
       <r>   -5.7327    1.0000 </r>
       <r>   -5.3224    1.0000 </r>
       <r>   -4.0952    1.0000 </r>
       <r>   -3.0376    1.0000 </r>
       <r>   -1.0654    0.0000 </r>
       <r>   -0.3873    0.0000 </r>
       <r>    0.3464    0.0000 </r>
       <r>    0.4537    0.0000 </r>
       <r>    2.1325    0.0000 </r>
       <r>    3.1510    0.0000 </r>
      </set>
      <set comment="kpoint 29">
       <r>  -16.3571    1.0000 </r>
       <r>  -13.9122    1.0000 </r>
       <r>  -12.0271    1.0000 </r>
       <r>   -8.6455    1.0000 </r>
       <r>   -7.7227    1.0000 </r>
       <r>   -7.3023    1.0000 </r>
       <r>   -5.9498    1.0000 </r>
       <r>   -5.4215    1.0000 </r>
       <r>   -3.9471    1.0000 </r>
       <r>   -2.8015    1.0000 </r>
       <r>   -1.0083    0.0000 </r>
       <r>   -0.5435    0.0000 </r>
       <r>    0.7592    0.0000 </r>
       <r>    1.0831    0.0000 </r>
       <r>    2.5710    0.0000 </r>
       <r>    3.2724    0.0000 </r>
      </set>
      <set comment="kpoint 30">
       <r>  -16.6281    1.0000 </r>
       <r>  -14.1966    1.0000 </r>
       <r>  -11.7548    1.0000 </r>
       <r>   -8.1365    1.0000 </r>
       <r>   -7.4878    1.0000 </r>
       <r>   -7.3656    1.0000 </r>
       <r>   -6.1428    1.0000 </r>
       <r>   -5.4502    1.0000 </r>
       <r>   -3.8500    1.0000 </r>
       <r>   -2.6259    1.0000 </r>
       <r>   -0.7720    0.0000 </r>
       <r>   -0.7438    0.0000 </r>
       <r>    1.3066    0.0000 </r>
       <r>    1.7379    0.0000 </r>
       <r>    2.7691    0.0000 </r>
       <r>    3.0301    0.0000 </r>
      </set>
      <set comment="kpoint 31">
       <r>  -16.8515    1.0000 </r>
       <r>  -14.4313    1.0000 </r>
       <r>  -11.5810    1.0000 </r>
       <r>   -7.9446    1.0000 </r>
       <r>   -7.2178    1.0000 </r>
       <r>   -7.1248    1.0000 </r>
       <r>   -6.2869    1.0000 </r>
       <r>   -5.3260    1.0000 </r>
       <r>   -3.8173    1.0000 </r>
       <r>   -2.5147    1.0000 </r>
       <r>   -0.9162    0.0000 </r>
       <r>   -0.3830    0.0000 </r>
       <r>    1.8826    0.0000 </r>
       <r>    2.2721    0.0000 </r>
       <r>    2.3456    0.0000 </r>
       <r>    2.6341    0.0000 </r>
      </set>
      <set comment="kpoint 32">
       <r>  -17.0261    1.0000 </r>
       <r>  -14.6150    1.0000 </r>
       <r>  -11.4864    1.0000 </r>
       <r>   -7.9796    1.0000 </r>
       <r>   -7.0131    1.0000 </r>
       <r>   -6.7673    1.0000 </r>
       <r>   -6.2865    1.0000 </r>
       <r>   -4.9891    1.0000 </r>
       <r>   -3.8258    1.0000 </r>
       <r>   -2.4591    1.0000 </r>
       <r>   -1.0485    0.0000 </r>
       <r>    0.0953    0.0000 </r>
       <r>    1.3108    0.0000 </r>
       <r>    2.1162    0.0000 </r>
       <r>    2.3575    0.0000 </r>
       <r>    2.5951    0.0000 </r>
      </set>
      <set comment="kpoint 33">
       <r>  -17.1510    1.0000 </r>
       <r>  -14.7468    1.0000 </r>
       <r>  -11.4431    1.0000 </r>
       <r>   -8.0475    1.0000 </r>
       <r>   -6.9136    1.0000 </r>
       <r>   -6.6880    1.0000 </r>
       <r>   -5.9434    1.0000 </r>
       <r>   -4.5090    1.0000 </r>
       <r>   -3.8479    1.0000 </r>
       <r>   -2.4440    1.0000 </r>
       <r>   -1.1403    0.0000 </r>
       <r>    0.4348    0.0000 </r>
       <r>    0.5704    0.0000 </r>
       <r>    1.4750    0.0000 </r>
       <r>    2.2928    0.0000 </r>
       <r>    2.4568    0.0000 </r>
      </set>
      <set comment="kpoint 34">
       <r>  -17.2258    1.0000 </r>
       <r>  -14.8264    1.0000 </r>
       <r>  -11.4277    1.0000 </r>
       <r>   -8.0976    1.0000 </r>
       <r>   -6.8824    1.0000 </r>
       <r>   -6.7097    1.0000 </r>
       <r>   -5.5541    1.0000 </r>
       <r>   -4.0669    1.0000 </r>
       <r>   -3.8642    1.0000 </r>
       <r>   -2.4533    1.0000 </r>
       <r>   -1.1942    0.0000 </r>
       <r>   -0.1878    0.0000 </r>
       <r>    0.7414    0.0000 </r>
       <r>    1.1210    0.0000 </r>
       <r>    2.2223    0.0000 </r>
       <r>    2.3742    0.0000 </r>
      </set>
      <set comment="kpoint 35">
       <r>  -17.1859    1.0000 </r>
       <r>  -14.9421    1.0000 </r>
       <r>  -11.4457    1.0000 </r>
       <r>   -8.4685    1.0000 </r>
       <r>   -6.6907    1.0000 </r>
       <r>   -6.4409    1.0000 </r>
       <r>   -5.3479    1.0000 </r>
       <r>   -3.9133    1.0000 </r>
       <r>   -3.6076    1.0000 </r>
       <r>   -2.8740    1.0000 </r>
       <r>   -0.8431    0.0000 </r>
       <r>   -0.3661    0.0000 </r>
       <r>    0.4503    0.0000 </r>
       <r>    1.1768    0.0000 </r>
       <r>    2.3718    0.0000 </r>
       <r>    2.4382    0.0000 </r>
      </set>
      <set comment="kpoint 36">
       <r>  -17.1586    1.0000 </r>
       <r>  -14.9186    1.0000 </r>
       <r>  -11.4519    1.0000 </r>
       <r>   -8.4607    1.0000 </r>
       <r>   -6.6909    1.0000 </r>
       <r>   -6.4258    1.0000 </r>
       <r>   -5.5132    1.0000 </r>
       <r>   -4.0976    1.0000 </r>
       <r>   -3.5857    1.0000 </r>
       <r>   -2.8717    1.0000 </r>
       <r>   -0.8242    0.0000 </r>
       <r>   -0.1190    0.0000 </r>
       <r>    0.6824    0.0000 </r>
       <r>    1.0118    0.0000 </r>
       <r>    2.3978    0.0000 </r>
       <r>    2.4694    0.0000 </r>
      </set>
      <set comment="kpoint 37">
       <r>  -17.0808    1.0000 </r>
       <r>  -14.8436    1.0000 </r>
       <r>  -11.4653    1.0000 </r>
       <r>   -8.4285    1.0000 </r>
       <r>   -6.7009    1.0000 </r>
       <r>   -6.4790    1.0000 </r>
       <r>   -5.8233    1.0000 </r>
       <r>   -4.5522    1.0000 </r>
       <r>   -3.5656    1.0000 </r>
       <r>   -2.8588    1.0000 </r>
       <r>   -0.7812    0.0000 </r>
       <r>    0.5151    0.0000 </r>
       <r>    0.6322    0.0000 </r>
       <r>    1.2615    0.0000 </r>
       <r>    2.4643    0.0000 </r>
       <r>    2.5561    0.0000 </r>
      </set>
      <set comment="kpoint 38">
       <r>  -16.9530    1.0000 </r>
       <r>  -14.7176    1.0000 </r>
       <r>  -11.4990    1.0000 </r>
       <r>   -8.3852    1.0000 </r>
       <r>   -6.7798    1.0000 </r>
       <r>   -6.7631    1.0000 </r>
       <r>   -5.9442    1.0000 </r>
       <r>   -5.0557    1.0000 </r>
       <r>   -3.5633    1.0000 </r>
       <r>   -2.8505    1.0000 </r>
       <r>   -0.7151    0.0000 </r>
       <r>    0.1815    0.0000 </r>
       <r>    1.3769    0.0000 </r>
       <r>    1.9255    0.0000 </r>
       <r>    2.4237    0.0000 </r>
       <r>    2.5810    0.0000 </r>
      </set>
      <set comment="kpoint 39">
       <r>  -16.7756    1.0000 </r>
       <r>  -14.5417    1.0000 </r>
       <r>  -11.5755    1.0000 </r>
       <r>   -8.3685    1.0000 </r>
       <r>   -7.2252    1.0000 </r>
       <r>   -6.9425    1.0000 </r>
       <r>   -5.8647    1.0000 </r>
       <r>   -5.4099    1.0000 </r>
       <r>   -3.6017    1.0000 </r>
       <r>   -2.8616    1.0000 </r>
       <r>   -0.6258    0.0000 </r>
       <r>   -0.2319    0.0000 </r>
       <r>    1.7040    0.0000 </r>
       <r>    2.1778    0.0000 </r>
       <r>    2.5282    0.0000 </r>
       <r>    2.6823    0.0000 </r>
      </set>
      <set comment="kpoint 40">
       <r>  -16.5495    1.0000 </r>
       <r>  -14.3179    1.0000 </r>
       <r>  -11.7230    1.0000 </r>
       <r>   -8.4774    1.0000 </r>
       <r>   -7.6146    1.0000 </r>
       <r>   -7.1850    1.0000 </r>
       <r>   -5.7127    1.0000 </r>
       <r>   -5.5332    1.0000 </r>
       <r>   -3.7068    1.0000 </r>
       <r>   -2.9094    1.0000 </r>
       <r>   -0.5282    0.0000 </r>
       <r>   -0.5127    0.0000 </r>
       <r>    1.1418    0.0000 </r>
       <r>    1.7550    0.0000 </r>
       <r>    2.7302    0.0000 </r>
       <r>    3.1338    0.0000 </r>
      </set>
      <set comment="kpoint 41">
       <r>  -16.2761    1.0000 </r>
       <r>  -14.0508    1.0000 </r>
       <r>  -11.9615    1.0000 </r>
       <r>   -8.8324    1.0000 </r>
       <r>   -7.8677    1.0000 </r>
       <r>   -7.2853    1.0000 </r>
       <r>   -5.5311    1.0000 </r>
       <r>   -5.5114    1.0000 </r>
       <r>   -3.8799    1.0000 </r>
       <r>   -3.0092    1.0000 </r>
       <r>   -0.6629    0.0000 </r>
       <r>   -0.3774    0.0000 </r>
       <r>    0.5827    0.0000 </r>
[...]
       <r>    3.3522    0.0000 </r>
       <r>    3.5303    0.0000 </r>
      </set>
      <set comment="kpoint 161">
       <r>  -15.4756    1.0000 </r>
       <r>  -15.1488    1.0000 </r>
       <r>  -10.7923    1.0000 </r>
       <r>  -10.4975    1.0000 </r>
       <r>   -7.8569    1.0000 </r>
       <r>   -7.6990    1.0000 </r>
       <r>   -5.1476    1.0000 </r>
       <r>   -4.9826    1.0000 </r>
       <r>   -3.8059    1.0000 </r>
       <r>   -3.7477    1.0000 </r>
       <r>    0.2487    0.0000 </r>
       <r>    0.7554    0.0000 </r>
       <r>    1.2300    0.0000 </r>
       <r>    1.4493    0.0000 </r>
       <r>    3.3930    0.0000 </r>
       <r>    3.4427    0.0000 </r>
      </set>
      <set comment="kpoint 162">
       <r>  -15.7260    1.0000 </r>
       <r>  -15.4096    1.0000 </r>
       <r>  -10.7059    1.0000 </r>
       <r>  -10.3874    1.0000 </r>
       <r>   -7.4440    1.0000 </r>
       <r>   -7.3190    1.0000 </r>
       <r>   -5.1187    1.0000 </r>
       <r>   -4.8402    1.0000 </r>
       <r>   -3.7361    1.0000 </r>
       <r>   -3.6016    1.0000 </r>
       <r>    0.3127    0.0000 </r>
       <r>    0.7058    0.0000 </r>
       <r>    1.2771    0.0000 </r>
       <r>    1.5762    0.0000 </r>
       <r>    3.1341    0.0000 </r>
       <r>    3.3587    0.0000 </r>
      </set>
      <set comment="kpoint 163">
       <r>  -15.9344    1.0000 </r>
       <r>  -15.6293    1.0000 </r>
       <r>  -10.7096    1.0000 </r>
       <r>  -10.3830    1.0000 </r>
       <r>   -6.8710    1.0000 </r>
       <r>   -6.7625    1.0000 </r>
       <r>   -5.1790    1.0000 </r>
       <r>   -4.8366    1.0000 </r>
       <r>   -3.6541    1.0000 </r>
       <r>   -3.3658    1.0000 </r>
       <r>    0.4715    0.0000 </r>
       <r>    0.7421    0.0000 </r>
       <r>    1.2422    0.0000 </r>
       <r>    1.6018    0.0000 </r>
       <r>    2.5535    0.0000 </r>
       <r>    2.7532    0.0000 </r>
      </set>
      <set comment="kpoint 164">
       <r>  -16.0976    1.0000 </r>
       <r>  -15.8041    1.0000 </r>
       <r>  -10.7521    1.0000 </r>
       <r>  -10.4264    1.0000 </r>
       <r>   -6.2115    1.0000 </r>
       <r>   -6.1081    1.0000 </r>
       <r>   -5.2589    1.0000 </r>
       <r>   -4.8947    1.0000 </r>
       <r>   -3.5883    1.0000 </r>
       <r>   -3.1913    1.0000 </r>
       <r>    0.6644    0.0000 </r>
       <r>    0.8313    0.0000 </r>
       <r>    1.1432    0.0000 </r>
       <r>    1.5227    0.0000 </r>
       <r>    1.8914    0.0000 </r>
       <r>    2.0217    0.0000 </r>
      </set>
      <set comment="kpoint 165">
       <r>  -16.2137    1.0000 </r>
       <r>  -15.9319    1.0000 </r>
       <r>  -10.7991    1.0000 </r>
       <r>  -10.4783    1.0000 </r>
       <r>   -5.5399    1.0000 </r>
       <r>   -5.4423    1.0000 </r>
       <r>   -5.3185    1.0000 </r>
       <r>   -4.9599    1.0000 </r>
       <r>   -3.5973    1.0000 </r>
       <r>   -3.1241    1.0000 </r>
       <r>    0.5606    0.0000 </r>
       <r>    0.6938    0.0000 </r>
       <r>    1.1175    0.0000 </r>
       <r>    1.3215    0.0000 </r>
       <r>    1.6215    0.0000 </r>
       <r>    1.6375    0.0000 </r>
      </set>
      <set comment="kpoint 166">
       <r>  -16.2813    1.0000 </r>
       <r>  -16.0115    1.0000 </r>
       <r>  -10.8324    1.0000 </r>
       <r>  -10.5174    1.0000 </r>
       <r>   -5.3743    1.0000 </r>
       <r>   -5.0101    1.0000 </r>
       <r>   -4.9590    1.0000 </r>
       <r>   -4.8414    1.0000 </r>
       <r>   -3.6968    1.0000 </r>
       <r>   -3.1732    1.0000 </r>
       <r>    0.1838    0.0000 </r>
       <r>    0.2384    0.0000 </r>
       <r>    1.1793    0.0000 </r>
       <r>    1.4010    0.0000 </r>
       <r>    1.5513    0.0000 </r>
       <r>    1.6427    0.0000 </r>
      </set>
     </set>
    </set>
   </array>
  </eigenvalues>
  <separator name="orbital magnetization" >
   <v name="MAGDIPOLOUT">      0.00000000      0.00000000      0.00000000</v>
  </separator>
  <dos>
   <i name="efermi">     -2.11555762 </i>
   <total>
    <array>
     <dimension dim="1">gridpoints</dimension>
     <dimension dim="2">spin</dimension>
     <field>energy</field>
     <field>total</field>
     <field>integrated</field>
     <set>
      <set comment="spin 1">
       <r>   -18.3180     0.0000     0.0000 </r>
       <r>   -18.2412     0.0000     0.0000 </r>
       <r>   -18.1645     0.0000     0.0000 </r>
       <r>   -18.0878     0.0000     0.0000 </r>
       <r>   -18.0110     0.0000     0.0000 </r>
       <r>   -17.9343     0.0000     0.0000 </r>
       <r>   -17.8575     0.0000     0.0000 </r>
       <r>   -17.7808     0.0000     0.0000 </r>
       <r>   -17.7040     0.0000     0.0000 </r>
       <r>   -17.6273     0.0000     0.0000 </r>
       <r>   -17.5506     0.0000     0.0000 </r>
       <r>   -17.4738     0.0000     0.0000 </r>
       <r>   -17.3971     0.0000     0.0000 </r>
       <r>   -17.3203     0.0000     0.0000 </r>
       <r>   -17.2436     0.3030     0.0233 </r>
       <r>   -17.1668     0.7840     0.0834 </r>
       <r>   -17.0901     0.7280     0.1393 </r>
       <r>   -17.0134     1.0277     0.2182 </r>
       <r>   -16.9366     0.7718     0.2774 </r>
       <r>   -16.8599     0.7300     0.3334 </r>
       <r>   -16.7831     0.9563     0.4068 </r>
       <r>   -16.7064     0.8106     0.4690 </r>
       <r>   -16.6296     0.9688     0.5434 </r>
       <r>   -16.5529     0.6286     0.5916 </r>
       <r>   -16.4761     1.1283     0.6782 </r>
       <r>   -16.3994     0.5715     0.7220 </r>
       <r>   -16.3227     1.0392     0.8018 </r>
       <r>   -16.2459     1.1520     0.8902 </r>
       <r>   -16.1692     0.6815     0.9425 </r>
       <r>   -16.0924     0.6976     0.9961 </r>
       <r>   -16.0157     1.2357     1.0909 </r>
       <r>   -15.9389     0.9329     1.1625 </r>
       <r>   -15.8622     0.9352     1.2342 </r>
       <r>   -15.7855     0.6316     1.2827 </r>
       <r>   -15.7087     0.8929     1.3512 </r>
       <r>   -15.6320     1.4955     1.4660 </r>
       <r>   -15.5552     0.7738     1.5254 </r>
       <r>   -15.4785     1.1023     1.6100 </r>
       <r>   -15.4017     1.1096     1.6951 </r>
       <r>   -15.3250     0.7067     1.7494 </r>
       <r>   -15.2483     1.3560     1.8534 </r>
       <r>   -15.1715     1.2808     1.9517 </r>
       <r>   -15.0948     1.1132     2.0372 </r>
       <r>   -15.0180     1.1751     2.1273 </r>
       <r>   -14.9413     1.0936     2.2113 </r>
       <r>   -14.8645     1.5808     2.3326 </r>
       <r>   -14.7878     2.0864     2.4927 </r>
       <r>   -14.7111     1.4225     2.6019 </r>
       <r>   -14.6343     1.5602     2.7216 </r>
       <r>   -14.5576     1.0269     2.8004 </r>
       <r>   -14.4808     0.8962     2.8692 </r>
       <r>   -14.4041     1.4254     2.9786 </r>
       <r>   -14.3273     1.3445     3.0818 </r>
       <r>   -14.2506     1.1699     3.1715 </r>
       <r>   -14.1739     1.4161     3.2802 </r>
       <r>   -14.0971     1.2469     3.3759 </r>
       <r>   -14.0204     0.8818     3.4436 </r>
       <r>   -13.9436     1.0898     3.5272 </r>
       <r>   -13.8669     1.7398     3.6607 </r>
       <r>   -13.7901     1.1977     3.7527 </r>
       <r>   -13.7134     0.3290     3.7779 </r>
       <r>   -13.6366     0.5221     3.8180 </r>
       <r>   -13.5599     0.5011     3.8564 </r>
       <r>   -13.4832     0.5643     3.8997 </r>
       <r>   -13.4064     0.4926     3.9375 </r>
       <r>   -13.3297     0.3408     3.9637 </r>
       <r>   -13.2529     0.1825     3.9777 </r>
       <r>   -13.1762     0.1477     3.9890 </r>
       <r>   -13.0994     0.1430     4.0000 </r>
       <r>   -13.0227     0.0000     4.0000 </r>
       <r>   -12.9460     0.0000     4.0000 </r>
       <r>   -12.8692     0.1515     4.0116 </r>
       <r>   -12.7925     0.1084     4.0199 </r>
       <r>   -12.7157     0.3164     4.0442 </r>
       <r>   -12.6390     0.3847     4.0738 </r>
       <r>   -12.5622     0.6141     4.1209 </r>
       <r>   -12.4855     0.2011     4.1363 </r>
       <r>   -12.4088     0.3674     4.1645 </r>
       <r>   -12.3320     0.7437     4.2216 </r>
       <r>   -12.2553     0.5367     4.2628 </r>
       <r>   -12.1785     1.6521     4.3896 </r>
       <r>   -12.1018     0.9783     4.4646 </r>
       <r>   -12.0250     1.2506     4.5606 </r>
       <r>   -11.9483     0.9854     4.6362 </r>
       <r>   -11.8716     1.1719     4.7262 </r>
       <r>   -11.7948     0.9563     4.7996 </r>
       <r>   -11.7181     1.5686     4.9199 </r>
       <r>   -11.6413     1.0501     5.0005 </r>
       <r>   -11.5646     1.6655     5.1283 </r>
       <r>   -11.4878     1.3160     5.2293 </r>
       <r>   -11.4111     4.0291     5.5385 </r>
       <r>   -11.3343     2.3710     5.7205 </r>
       <r>   -11.2576     1.3253     5.8222 </r>
       <r>   -11.1809     1.5510     5.9412 </r>
       <r>   -11.1041     0.9342     6.0129 </r>
       <r>   -11.0274     1.5440     6.1314 </r>
       <r>   -10.9506     1.0467     6.2118 </r>
       <r>   -10.8739     0.1843     6.2259 </r>
       <r>   -10.7971     1.1868     6.3170 </r>
       <r>   -10.7204     1.2069     6.4096 </r>
       <r>   -10.6437     0.7592     6.4679 </r>
       <r>   -10.5669     0.4837     6.5050 </r>
       <r>   -10.4902     1.3063     6.6052 </r>
       <r>   -10.4134     0.8747     6.6724 </r>
       <r>   -10.3367     0.9448     6.7449 </r>
       <r>   -10.2599     0.1656     6.7576 </r>
       <r>   -10.1832     0.0639     6.7625 </r>
       <r>   -10.1065     1.4500     6.8738 </r>
       <r>   -10.0297     0.8111     6.9360 </r>
       <r>    -9.9530     0.6761     6.9879 </r>
       <r>    -9.8762     0.4257     7.0206 </r>
       <r>    -9.7995     0.4031     7.0515 </r>
       <r>    -9.7227     0.8841     7.1193 </r>
       <r>    -9.6460     0.6598     7.1700 </r>
       <r>    -9.5693     0.6796     7.2221 </r>
       <r>    -9.4925     0.1067     7.2303 </r>
       <r>    -9.4158     0.3208     7.2549 </r>
       <r>    -9.3390     0.4417     7.2888 </r>
       <r>    -9.2623     0.9390     7.3609 </r>
       <r>    -9.1855     1.0907     7.4446 </r>
       <r>    -9.1088     0.2700     7.4653 </r>
       <r>    -9.0320     0.0966     7.4727 </r>
       <r>    -8.9553     0.0000     7.4727 </r>
       <r>    -8.8786     0.3443     7.4992 </r>
       <r>    -8.8018     1.2783     7.5973 </r>
       <r>    -8.7251     0.4300     7.6303 </r>
       <r>    -8.6483     0.0996     7.6379 </r>
       <r>    -8.5716     0.2772     7.6592 </r>
       <r>    -8.4948     0.1244     7.6687 </r>
       <r>    -8.4181     0.9159     7.7390 </r>
       <r>    -8.3414     0.6803     7.7912 </r>
       <r>    -8.2646     0.1144     7.8000 </r>
       <r>    -8.1879     0.2643     7.8203 </r>
       <r>    -8.1111     1.9429     7.9694 </r>
       <r>    -8.0344     1.9524     8.1192 </r>
       <r>    -7.9576     2.4567     8.3078 </r>
       <r>    -7.8809     1.8538     8.4500 </r>
       <r>    -7.8042     1.7158     8.5817 </r>
       <r>    -7.7274     1.6893     8.7113 </r>
       <r>    -7.6507     2.9980     8.9414 </r>
       <r>    -7.5739     1.7616     9.0766 </r>
       <r>    -7.4972     1.3568     9.1807 </r>
       <r>    -7.4204     1.7042     9.3115 </r>
       <r>    -7.3437     2.4927     9.5028 </r>
       <r>    -7.2670     2.8253     9.7196 </r>
       <r>    -7.1902     3.1384     9.9605 </r>
       <r>    -7.1135     3.4459    10.2249 </r>
       <r>    -7.0367     2.7465    10.4357 </r>
       <r>    -6.9600     2.1546    10.6011 </r>
       <r>    -6.8832     1.3862    10.7075 </r>
       <r>    -6.8065     0.7863    10.7678 </r>
       <r>    -6.7297     1.4440    10.8786 </r>
       <r>    -6.6530     2.9301    11.1035 </r>
       <r>    -6.5763     0.8347    11.1675 </r>
       <r>    -6.4995     1.4785    11.2810 </r>
       <r>    -6.4228     2.3650    11.4625 </r>
       <r>    -6.3460     1.0000    11.5392 </r>
       <r>    -6.2693     1.4085    11.6473 </r>
       <r>    -6.1925     1.9840    11.7996 </r>
       <r>    -6.1158     1.0748    11.8821 </r>
       <r>    -6.0391     1.5003    11.9972 </r>
       <r>    -5.9623     2.0318    12.1531 </r>
       <r>    -5.8856     2.3150    12.3308 </r>
       <r>    -5.8088     1.6222    12.4553 </r>
       <r>    -5.7321     1.3077    12.5557 </r>
       <r>    -5.6553     3.6305    12.8343 </r>
       <r>    -5.5786     2.8012    13.0492 </r>
       <r>    -5.5019     3.7227    13.3349 </r>
       <r>    -5.4251     4.0980    13.6494 </r>
       <r>    -5.3484     4.0741    13.9621 </r>
       <r>    -5.2716     2.9288    14.1869 </r>
       <r>    -5.1949     2.7506    14.3979 </r>
       <r>    -5.1181     2.9867    14.6272 </r>
       <r>    -5.0414     2.3254    14.8056 </r>
       <r>    -4.9647     2.7480    15.0165 </r>
       <r>    -4.8879     2.0692    15.1753 </r>
       <r>    -4.8112     1.4291    15.2850 </r>
       <r>    -4.7344     1.2242    15.3789 </r>
       <r>    -4.6577     0.7876    15.4394 </r>
       <r>    -4.5809     1.5867    15.5612 </r>
       <r>    -4.5042     1.9231    15.7087 </r>
       <r>    -4.4274     0.9308    15.7802 </r>
       <r>    -4.3507     0.7048    15.8343 </r>
       <r>    -4.2740     0.6888    15.8871 </r>
       <r>    -4.1972     2.0136    16.0416 </r>
       <r>    -4.1205     2.4459    16.2294 </r>
       <r>    -4.0437     2.9309    16.4543 </r>
       <r>    -3.9670     2.5065    16.6466 </r>
       <r>    -3.8902     2.8039    16.8618 </r>
       <r>    -3.8135     4.3356    17.1946 </r>
       <r>    -3.7368     3.3384    17.4508 </r>
       <r>    -3.6600     3.1974    17.6961 </r>
       <r>    -3.5833     4.5852    18.0480 </r>
       <r>    -3.5065     2.6294    18.2498 </r>
       <r>    -3.4298     2.5758    18.4475 </r>
       <r>    -3.3530     2.6937    18.6542 </r>
       <r>    -3.2763     4.4091    18.9926 </r>
       <r>    -3.1996     3.2638    19.2431 </r>
       <r>    -3.1228     1.1555    19.3317 </r>
       <r>    -3.0461     0.9618    19.4055 </r>
       <r>    -2.9693     0.9260    19.4766 </r>
       <r>    -2.8926     1.2821    19.5750 </r>
       <r>    -2.8158     1.9871    19.7275 </r>
       <r>    -2.7391     0.8808    19.7951 </r>
       <r>    -2.6624     0.0937    19.8023 </r>
       <r>    -2.5856     0.2859    19.8242 </r>
       <r>    -2.5089     0.4234    19.8567 </r>
       <r>    -2.4321     1.1056    19.9416 </r>
       <r>    -2.3554     0.2081    19.9575 </r>
       <r>    -2.2786     0.1768    19.9711 </r>
       <r>    -2.2019     0.3764    20.0000 </r>
       <r>    -2.1252     0.0001    20.0000 </r>
       <r>    -2.0484     0.0000    20.0000 </r>
       <r>    -1.9717     0.0000    20.0000 </r>
       <r>    -1.8949     0.0000    20.0000 </r>
       <r>    -1.8182     0.0000    20.0000 </r>
       <r>    -1.7414     0.0000    20.0000 </r>
       <r>    -1.6647     0.0000    20.0000 </r>
       <r>    -1.5879     0.0000    20.0000 </r>
       <r>    -1.5112     0.0000    20.0000 </r>
       <r>    -1.4345     0.0019    20.0001 </r>
       <r>    -1.3577     0.2289    20.0177 </r>
       <r>    -1.2810     0.1616    20.0301 </r>
       <r>    -1.2042     0.1956    20.0451 </r>
       <r>    -1.1275     1.2112    20.1381 </r>
       <r>    -1.0507     1.0908    20.2218 </r>
       <r>    -0.9740     1.6535    20.3487 </r>
       <r>    -0.8973     1.7451    20.4826 </r>
       <r>    -0.8205     1.5982    20.6053 </r>
       <r>    -0.7438     1.9023    20.7512 </r>
       <r>    -0.6670     1.8961    20.8968 </r>
       <r>    -0.5903     1.7217    21.0289 </r>
       <r>    -0.5135     1.6286    21.1539 </r>
       <r>    -0.4368     1.5679    21.2742 </r>
       <r>    -0.3601     3.1865    21.5187 </r>
       <r>    -0.2833     1.6937    21.6487 </r>
       <r>    -0.2066     2.2799    21.8237 </r>
       <r>    -0.1298     2.3301    22.0025 </r>
       <r>    -0.0531     2.5578    22.1988 </r>
       <r>     0.0237     3.1297    22.4390 </r>
       <r>     0.1004     2.4868    22.6298 </r>
       <r>     0.1771     3.9992    22.9367 </r>
       <r>     0.2539     3.3890    23.1968 </r>
       <r>     0.3306     4.0198    23.5053 </r>
       <r>     0.4074     2.4867    23.6962 </r>
       <r>     0.4841     4.9086    24.0729 </r>
       <r>     0.5609     4.1113    24.3884 </r>
       <r>     0.6376     3.5906    24.6639 </r>
       <r>     0.7144     4.2936    24.9934 </r>
       <r>     0.7911     3.9279    25.2949 </r>
       <r>     0.8678     3.6291    25.5734 </r>
       <r>     0.9446     3.1738    25.8169 </r>
       <r>     1.0213     2.4325    26.0036 </r>
       <r>     1.0981     2.3787    26.1862 </r>
       <r>     1.1748     3.8782    26.4838 </r>
       <r>     1.2516     3.0389    26.7170 </r>
       <r>     1.3283     2.5030    26.9091 </r>
       <r>     1.4050     2.6491    27.1124 </r>
       <r>     1.4818     2.9377    27.3379 </r>
       <r>     1.5585     1.9788    27.4897 </r>
       <r>     1.6353     3.0142    27.7210 </r>
       <r>     1.7120     2.0008    27.8746 </r>
       <r>     1.7888     1.0868    27.9580 </r>
       <r>     1.8655     2.6763    28.1634 </r>
       <r>     1.9422     2.6708    28.3683 </r>
       <r>     2.0190     2.0868    28.5285 </r>
       <r>     2.0957     1.9140    28.6754 </r>
       <r>     2.1725     2.8582    28.8947 </r>
       <r>     2.2492     2.7736    29.1076 </r>
       <r>     2.3260     1.5385    29.2257 </r>
       <r>     2.4027     3.9794    29.5310 </r>
       <r>     2.4794     3.2318    29.7791 </r>
       <r>     2.5562     1.9741    29.9306 </r>
       <r>     2.6329     3.7211    30.2161 </r>
       <r>     2.7097     3.1967    30.4615 </r>
       <r>     2.7864     2.7510    30.6726 </r>
       <r>     2.8632     2.7283    30.8819 </r>
       <r>     2.9399     2.1565    31.0474 </r>
       <r>     3.0167     1.3214    31.1489 </r>
       <r>     3.0934     2.6484    31.3521 </r>
       <r>     3.1701     1.3476    31.4555 </r>
       <r>     3.2469     1.7832    31.5924 </r>
       <r>     3.3236     1.7279    31.7250 </r>
       <r>     3.4004     1.3125    31.8257 </r>
       <r>     3.4771     1.1544    31.9143 </r>
       <r>     3.5539     0.6404    31.9634 </r>
       <r>     3.6306     0.2290    31.9810 </r>
       <r>     3.7073     0.2474    32.0000 </r>
       <r>     3.7841     0.0000    32.0000 </r>
       <r>     3.8608     0.0000    32.0000 </r>
       <r>     3.9376     0.0000    32.0000 </r>
       <r>     4.0143     0.0000    32.0000 </r>
       <r>     4.0911     0.0000    32.0000 </r>
       <r>     4.1678     0.0000    32.0000 </r>
       <r>     4.2445     0.0000    32.0000 </r>
       <r>     4.3213     0.0000    32.0000 </r>
       <r>     4.3980     0.0000    32.0000 </r>
       <r>     4.4748     0.0000    32.0000 </r>
       <r>     4.5515     0.0000    32.0000 </r>
       <r>     4.6283     0.0000    32.0000 </r>
       <r>     4.7050     0.0000    32.0000 </r>
      </set>
     </set>
    </array>
   </total>
  </dos>
 </calculation>
 <structure name="finalpos" >
  <crystal>
   <varray name="basis" >
    <v>       3.25968600      -0.03730700       0.00000000 </v>
    <v>      -0.05231200       4.62305500      -0.00005300 </v>
    <v>       0.00000000       0.00000000      20.02439000 </v>
   </varray>
   <i name="volume">    301.72262371 </i>
   <varray name="rec_basis" >
    <v>       0.30681775       0.00347178       0.00000000 </v>
    <v>       0.00247595       0.21633520       0.00000000 </v>
    <v>       0.00000001       0.00000057       0.04993910 </v>
   </varray>
  </crystal>
  <varray name="positions" >
   <v>       0.50445312       0.91145629       0.55256867 </v>
   <v>       0.49554688       0.08854371       0.44743133 </v>
   <v>       0.00445306       0.41145180       0.44743134 </v>
   <v>      -0.00445306       0.58854820       0.55256866 </v>
  </varray>
 </structure>
</modeling>
