<?xml version="1.0" encoding="ISO-8859-1"?>
<modeling>
 <generator>
  <i name="program" type="string">vasp </i>
  <i name="version" type="string">5.4.1  </i>
  <i name="subversion" type="string">24Jun15 (build Nov 20 2020 10:29:34) complex                          parallel </i>
  <i name="platform" type="string">IFC91_ompi </i>
  <i name="date" type="string">2021 09 09 </i>
  <i name="time" type="string">14:52:56 </i>
 </generator>
 <incar>
  <i type="string" name="PREC">a</i>
  <i type="string" name="ALGO"> Normal</i>
  <i type="int" name="ISPIN">     1</i>
  <i type="int" name="ICHARG">     2</i>
  <i type="int" name="NELM">   250</i>
  <i type="int" name="NELMDL">    -5</i>
  <i type="int" name="NELMIN">     6</i>
  <i type="int" name="IBRION">     2</i>
  <i name="EDIFF">      0.00001000</i>
  <i name="EDIFFG">     -0.01000000</i>
  <i type="int" name="NSW">   200</i>
  <i type="int" name="ISIF">     2</i>
  <i name="ENCUT">    520.00000000</i>
  <i name="POTIM">      0.30000000</i>
  <i type="logical" name="LREAL"> F  </i>
  <i type="int" name="ISMEAR">     0</i>
  <i name="SIGMA">      0.02000000</i>
  <i type="logical" name="LWAVE"> F  </i>
  <i type="logical" name="LCHARG"> F  </i>
  <i type="logical" name="LAECHG"> F  </i>
  <v type="int" name="KPOINT_BSE">    -1     0     0     0</v>
  <i type="int" name="NELM">   250</i>
 </incar>
 <kpoints>
  <generation param="Gamma">
   <v type="int" name="divisions">      21       15        1 </v>
   <v name="usershift">      0.00000000       0.00000000       0.00000000 </v>
   <v name="genvec1">      0.04761905      -0.00000000       0.00000000 </v>
   <v name="genvec2">      0.00000000       0.06666667       0.00000000 </v>
   <v name="genvec3">     -0.00000000       0.00000000       1.00000000 </v>
   <v name="shift">      0.00000000       0.00000000       0.00000000 </v>
  </generation>
  <varray name="kpointlist" >
   <v>       0.00000000       0.00000000       0.00000000 </v>
   <v>       0.04761905       0.00000000       0.00000000 </v>
   <v>       0.09523810       0.00000000       0.00000000 </v>
   <v>       0.14285714       0.00000000       0.00000000 </v>
   <v>       0.19047619      -0.00000000       0.00000000 </v>
   <v>       0.23809524       0.00000000       0.00000000 </v>
   <v>       0.28571429       0.00000000       0.00000000 </v>
   <v>       0.33333333       0.00000000       0.00000000 </v>
   <v>       0.38095238      -0.00000000       0.00000000 </v>
   <v>       0.42857143      -0.00000000       0.00000000 </v>
   <v>       0.47619048       0.00000000       0.00000000 </v>
   <v>      -0.00000000       0.06666667       0.00000000 </v>
   <v>       0.04761905       0.06666667       0.00000000 </v>
   <v>       0.09523810       0.06666667       0.00000000 </v>
   <v>       0.14285714       0.06666667       0.00000000 </v>
   <v>       0.19047619       0.06666667       0.00000000 </v>
   <v>       0.23809524       0.06666667       0.00000000 </v>
   <v>       0.28571429       0.06666667       0.00000000 </v>
   <v>       0.33333333       0.06666667       0.00000000 </v>
   <v>       0.38095238       0.06666667       0.00000000 </v>
   <v>       0.42857143       0.06666667       0.00000000 </v>
   <v>       0.47619048       0.06666667       0.00000000 </v>
   <v>      -0.47619048       0.06666667       0.00000000 </v>
   <v>      -0.42857143       0.06666667       0.00000000 </v>
   <v>      -0.38095238       0.06666667       0.00000000 </v>
   <v>      -0.33333333       0.06666667       0.00000000 </v>
   <v>      -0.28571429       0.06666667       0.00000000 </v>
   <v>      -0.23809524       0.06666667       0.00000000 </v>
   <v>      -0.19047619       0.06666667       0.00000000 </v>
   <v>      -0.14285714       0.06666667       0.00000000 </v>
   <v>      -0.09523810       0.06666667       0.00000000 </v>
   <v>      -0.04761905       0.06666667       0.00000000 </v>
   <v>       0.00000000       0.13333333       0.00000000 </v>
   <v>       0.04761905       0.13333333       0.00000000 </v>
   <v>       0.09523810       0.13333333       0.00000000 </v>
   <v>       0.14285714       0.13333333       0.00000000 </v>
   <v>       0.19047619       0.13333333       0.00000000 </v>
   <v>       0.23809524       0.13333333       0.00000000 </v>
   <v>       0.28571429       0.13333333       0.00000000 </v>
   <v>       0.33333333       0.13333333       0.00000000 </v>
   <v>       0.38095238       0.13333333       0.00000000 </v>
   <v>       0.42857143       0.13333333       0.00000000 </v>
   <v>       0.47619048       0.13333333       0.00000000 </v>
   <v>      -0.47619048       0.13333333       0.00000000 </v>
   <v>      -0.42857143       0.13333333       0.00000000 </v>
   <v>      -0.38095238       0.13333333       0.00000000 </v>
   <v>      -0.33333333       0.13333333       0.00000000 </v>
   <v>      -0.28571429       0.13333333       0.00000000 </v>
   <v>      -0.23809524       0.13333333       0.00000000 </v>
   <v>      -0.19047619       0.13333333       0.00000000 </v>
   <v>      -0.14285714       0.13333333       0.00000000 </v>
   <v>      -0.09523810       0.13333333       0.00000000 </v>
   <v>      -0.04761905       0.13333333       0.00000000 </v>
   <v>      -0.00000000       0.20000000       0.00000000 </v>
   <v>       0.04761905       0.20000000       0.00000000 </v>
   <v>       0.09523810       0.20000000       0.00000000 </v>
   <v>       0.14285714       0.20000000       0.00000000 </v>
   <v>       0.19047619       0.20000000       0.00000000 </v>
   <v>       0.23809524       0.20000000       0.00000000 </v>
   <v>       0.28571429       0.20000000       0.00000000 </v>
   <v>       0.33333333       0.20000000       0.00000000 </v>
   <v>       0.38095238       0.20000000       0.00000000 </v>
   <v>       0.42857143       0.20000000       0.00000000 </v>
   <v>       0.47619048       0.20000000       0.00000000 </v>
   <v>      -0.47619048       0.20000000       0.00000000 </v>
   <v>      -0.42857143       0.20000000       0.00000000 </v>
   <v>      -0.38095238       0.20000000       0.00000000 </v>
   <v>      -0.33333333       0.20000000       0.00000000 </v>
   <v>      -0.28571429       0.20000000       0.00000000 </v>
   <v>      -0.23809524       0.20000000       0.00000000 </v>
   <v>      -0.19047619       0.20000000       0.00000000 </v>
   <v>      -0.14285714       0.20000000       0.00000000 </v>
   <v>      -0.09523810       0.20000000       0.00000000 </v>
   <v>      -0.04761905       0.20000000       0.00000000 </v>
   <v>      -0.00000000       0.26666667       0.00000000 </v>
   <v>       0.04761905       0.26666667       0.00000000 </v>
   <v>       0.09523810       0.26666667       0.00000000 </v>
   <v>       0.14285714       0.26666667       0.00000000 </v>
   <v>       0.19047619       0.26666667       0.00000000 </v>
   <v>       0.23809524       0.26666667       0.00000000 </v>
   <v>       0.28571429       0.26666667       0.00000000 </v>
   <v>       0.33333333       0.26666667       0.00000000 </v>
   <v>       0.38095238       0.26666667       0.00000000 </v>
   <v>       0.42857143       0.26666667       0.00000000 </v>
   <v>       0.47619048       0.26666667       0.00000000 </v>
   <v>      -0.47619048       0.26666667       0.00000000 </v>
   <v>      -0.42857143       0.26666667       0.00000000 </v>
   <v>      -0.38095238       0.26666667       0.00000000 </v>
   <v>      -0.33333333       0.26666667       0.00000000 </v>
   <v>      -0.28571429       0.26666667       0.00000000 </v>
   <v>      -0.23809524       0.26666667       0.00000000 </v>
   <v>      -0.19047619       0.26666667       0.00000000 </v>
   <v>      -0.14285714       0.26666667       0.00000000 </v>
   <v>      -0.09523810       0.26666667       0.00000000 </v>
   <v>      -0.04761905       0.26666667       0.00000000 </v>
   <v>      -0.00000000       0.33333333       0.00000000 </v>
   <v>       0.04761905       0.33333333       0.00000000 </v>
   <v>       0.09523810       0.33333333       0.00000000 </v>
   <v>       0.14285714       0.33333333       0.00000000 </v>
   <v>       0.19047619       0.33333333       0.00000000 </v>
   <v>       0.23809524       0.33333333       0.00000000 </v>
   <v>       0.28571429       0.33333333       0.00000000 </v>
   <v>       0.33333333       0.33333333       0.00000000 </v>
   <v>       0.38095238       0.33333333       0.00000000 </v>
   <v>       0.42857143       0.33333333       0.00000000 </v>
   <v>       0.47619048       0.33333333       0.00000000 </v>
   <v>      -0.47619048       0.33333333       0.00000000 </v>
   <v>      -0.42857143       0.33333333       0.00000000 </v>
   <v>      -0.38095238       0.33333333       0.00000000 </v>
   <v>      -0.33333333       0.33333333       0.00000000 </v>
   <v>      -0.28571429       0.33333333       0.00000000 </v>
   <v>      -0.23809524       0.33333333       0.00000000 </v>
   <v>      -0.19047619       0.33333333       0.00000000 </v>
   <v>      -0.14285714       0.33333333       0.00000000 </v>
   <v>      -0.09523810       0.33333333       0.00000000 </v>
   <v>      -0.04761905       0.33333333       0.00000000 </v>
   <v>      -0.00000000       0.40000000       0.00000000 </v>
   <v>       0.04761905       0.40000000       0.00000000 </v>
   <v>       0.09523810       0.40000000       0.00000000 </v>
   <v>       0.14285714       0.40000000       0.00000000 </v>
   <v>       0.19047619       0.40000000       0.00000000 </v>
   <v>       0.23809524       0.40000000       0.00000000 </v>
   <v>       0.28571429       0.40000000       0.00000000 </v>
   <v>       0.33333333       0.40000000       0.00000000 </v>
   <v>       0.38095238       0.40000000       0.00000000 </v>
   <v>       0.42857143       0.40000000       0.00000000 </v>
   <v>       0.47619048       0.40000000       0.00000000 </v>
   <v>      -0.47619048       0.40000000       0.00000000 </v>
   <v>      -0.42857143       0.40000000       0.00000000 </v>
   <v>      -0.38095238       0.40000000       0.00000000 </v>
   <v>      -0.33333333       0.40000000       0.00000000 </v>
   <v>      -0.28571429       0.40000000       0.00000000 </v>
   <v>      -0.23809524       0.40000000       0.00000000 </v>
   <v>      -0.19047619       0.40000000       0.00000000 </v>
   <v>      -0.14285714       0.40000000       0.00000000 </v>
   <v>      -0.09523810       0.40000000       0.00000000 </v>
   <v>      -0.04761905       0.40000000       0.00000000 </v>
   <v>       0.00000000       0.46666667       0.00000000 </v>
   <v>       0.04761905       0.46666667       0.00000000 </v>
   <v>       0.09523810       0.46666667       0.00000000 </v>
   <v>       0.14285714       0.46666667       0.00000000 </v>
   <v>       0.19047619       0.46666667       0.00000000 </v>
   <v>       0.23809524       0.46666667       0.00000000 </v>
   <v>       0.28571429       0.46666667       0.00000000 </v>
   <v>       0.33333333       0.46666667       0.00000000 </v>
   <v>       0.38095238       0.46666667       0.00000000 </v>
   <v>       0.42857143       0.46666667       0.00000000 </v>
   <v>       0.47619048       0.46666667       0.00000000 </v>
   <v>      -0.47619048       0.46666667       0.00000000 </v>
   <v>      -0.42857143       0.46666667       0.00000000 </v>
   <v>      -0.38095238       0.46666667       0.00000000 </v>
   <v>      -0.33333333       0.46666667       0.00000000 </v>
   <v>      -0.28571429       0.46666667       0.00000000 </v>
   <v>      -0.23809524       0.46666667       0.00000000 </v>
   <v>      -0.19047619       0.46666667       0.00000000 </v>
   <v>      -0.14285714       0.46666667       0.00000000 </v>
   <v>      -0.09523810       0.46666667       0.00000000 </v>
   <v>      -0.04761905       0.46666667       0.00000000 </v>
  </varray>
  <varray name="weights" >
   <v>       0.00317460 </v>
   <v>       0.00634921 </v>
   <v>       0.00634921 </v>
   <v>       0.00634921 </v>
   <v>       0.00634921 </v>
   <v>       0.00634921 </v>
   <v>       0.00634921 </v>
   <v>       0.00634921 </v>
   <v>       0.00634921 </v>
   <v>       0.00634921 </v>
   <v>       0.00634921 </v>
   <v>       0.00634921 </v>
   <v>       0.00634921 </v>
   <v>       0.00634921 </v>
   <v>       0.00634921 </v>
   <v>       0.00634921 </v>
   <v>       0.00634921 </v>
   <v>       0.00634921 </v>
   <v>       0.00634921 </v>
   <v>       0.00634921 </v>
   <v>       0.00634921 </v>
   <v>       0.00634921 </v>
   <v>       0.00634921 </v>
   <v>       0.00634921 </v>
   <v>       0.00634921 </v>
   <v>       0.00634921 </v>
   <v>       0.00634921 </v>
   <v>       0.00634921 </v>
   <v>       0.00634921 </v>
   <v>       0.00634921 </v>
   <v>       0.00634921 </v>
   <v>       0.00634921 </v>
   <v>       0.00634921 </v>
   <v>       0.00634921 </v>
   <v>       0.00634921 </v>
   <v>       0.00634921 </v>
   <v>       0.00634921 </v>
   <v>       0.00634921 </v>
   <v>       0.00634921 </v>
   <v>       0.00634921 </v>
   <v>       0.00634921 </v>
   <v>       0.00634921 </v>
   <v>       0.00634921 </v>
   <v>       0.00634921 </v>
   <v>       0.00634921 </v>
   <v>       0.00634921 </v>
   <v>       0.00634921 </v>
   <v>       0.00634921 </v>
   <v>       0.00634921 </v>
   <v>       0.00634921 </v>
   <v>       0.00634921 </v>
   <v>       0.00634921 </v>
   <v>       0.00634921 </v>
   <v>       0.00634921 </v>
   <v>       0.00634921 </v>
   <v>       0.00634921 </v>
   <v>       0.00634921 </v>
   <v>       0.00634921 </v>
   <v>       0.00634921 </v>
   <v>       0.00634921 </v>
   <v>       0.00634921 </v>
   <v>       0.00634921 </v>
   <v>       0.00634921 </v>
   <v>       0.00634921 </v>
   <v>       0.00634921 </v>
   <v>       0.00634921 </v>
   <v>       0.00634921 </v>
   <v>       0.00634921 </v>
   <v>       0.00634921 </v>
   <v>       0.00634921 </v>
   <v>       0.00634921 </v>
   <v>       0.00634921 </v>
   <v>       0.00634921 </v>
   <v>       0.00634921 </v>
   <v>       0.00634921 </v>
   <v>       0.00634921 </v>
   <v>       0.00634921 </v>
   <v>       0.00634921 </v>
   <v>       0.00634921 </v>
   <v>       0.00634921 </v>
   <v>       0.00634921 </v>
   <v>       0.00634921 </v>
   <v>       0.00634921 </v>
   <v>       0.00634921 </v>
   <v>       0.00634921 </v>
   <v>       0.00634921 </v>
   <v>       0.00634921 </v>
   <v>       0.00634921 </v>
   <v>       0.00634921 </v>
   <v>       0.00634921 </v>
   <v>       0.00634921 </v>
   <v>       0.00634921 </v>
   <v>       0.00634921 </v>
   <v>       0.00634921 </v>
   <v>       0.00634921 </v>
   <v>       0.00634921 </v>
   <v>       0.00634921 </v>
   <v>       0.00634921 </v>
   <v>       0.00634921 </v>
   <v>       0.00634921 </v>
   <v>       0.00634921 </v>
   <v>       0.00634921 </v>
   <v>       0.00634921 </v>
   <v>       0.00634921 </v>
   <v>       0.00634921 </v>
   <v>       0.00634921 </v>
   <v>       0.00634921 </v>
   <v>       0.00634921 </v>
   <v>       0.00634921 </v>
   <v>       0.00634921 </v>
   <v>       0.00634921 </v>
   <v>       0.00634921 </v>
   <v>       0.00634921 </v>
   <v>       0.00634921 </v>
   <v>       0.00634921 </v>
   <v>       0.00634921 </v>
   <v>       0.00634921 </v>
   <v>       0.00634921 </v>
   <v>       0.00634921 </v>
   <v>       0.00634921 </v>
   <v>       0.00634921 </v>
   <v>       0.00634921 </v>
   <v>       0.00634921 </v>
   <v>       0.00634921 </v>
   <v>       0.00634921 </v>
   <v>       0.00634921 </v>
   <v>       0.00634921 </v>
   <v>       0.00634921 </v>
   <v>       0.00634921 </v>
   <v>       0.00634921 </v>
   <v>       0.00634921 </v>
   <v>       0.00634921 </v>
   <v>       0.00634921 </v>
   <v>       0.00634921 </v>
   <v>       0.00634921 </v>
   <v>       0.00634921 </v>
   <v>       0.00634921 </v>
   <v>       0.00634921 </v>
   <v>       0.00634921 </v>
   <v>       0.00634921 </v>
   <v>       0.00634921 </v>
   <v>       0.00634921 </v>
   <v>       0.00634921 </v>
   <v>       0.00634921 </v>
   <v>       0.00634921 </v>
   <v>       0.00634921 </v>
   <v>       0.00634921 </v>
   <v>       0.00634921 </v>
   <v>       0.00634921 </v>
   <v>       0.00634921 </v>
   <v>       0.00634921 </v>
   <v>       0.00634921 </v>
   <v>       0.00634921 </v>
   <v>       0.00634921 </v>
   <v>       0.00634921 </v>
   <v>       0.00634921 </v>
   <v>       0.00634921 </v>
   <v>       0.00634921 </v>
  </varray>
 </kpoints>
 <parameters>
  <separator name="general" >
   <i type="string" name="SYSTEM">unknown system</i>
   <i type="logical" name="LCOMPAT"> F  </i>
  </separator>
  <separator name="electronic" >
   <i type="string" name="PREC">a</i>
   <i name="ENMAX">    520.00000000</i>
   <i name="ENAUG">    342.92400000</i>
   <i name="EDIFF">      0.00001000</i>
   <i type="int" name="IALGO">    38</i>
   <i type="int" name="IWAVPR">    11</i>
   <i type="int" name="NBANDS">    16</i>
   <i name="NELECT">     20.00000000</i>
   <i type="int" name="TURBO">     0</i>
   <i type="int" name="IRESTART">     0</i>
   <i type="int" name="NREBOOT">     0</i>
   <i type="int" name="NMIN">     0</i>
   <i name="EREF">      0.00000000</i>
   <separator name="electronic smearing" >
    <i type="int" name="ISMEAR">     0</i>
    <i name="SIGMA">      0.02000000</i>
    <i name="KSPACING">      0.50000000</i>
    <i type="logical" name="KGAMMA"> T  </i>
   </separator>
   <separator name="electronic projectors" >
    <i type="logical" name="LREAL"> F  </i>
    <v name="ROPT">      0.00000000</v>
    <i type="int" name="LMAXPAW">  -100</i>
    <i type="int" name="LMAXMIX">     2</i>
    <i type="logical" name="NLSPLINE"> F  </i>
   </separator>
   <separator name="electronic startup" >
    <i type="int" name="ISTART">     0</i>
    <i type="int" name="ICHARG">     2</i>
    <i type="int" name="INIWAV">     1</i>
   </separator>
   <separator name="electronic spin" >
    <i type="int" name="ISPIN">     1</i>
    <i type="logical" name="LNONCOLLINEAR"> F  </i>
    <v name="MAGMOM">      1.00000000      1.00000000      1.00000000      1.00000000</v>
    <i name="NUPDOWN">     -1.00000000</i>
    <i type="logical" name="LSORBIT"> F  </i>
    <v name="SAXIS">      0.00000000      0.00000000      1.00000000</v>
    <i type="logical" name="LSPIRAL"> F  </i>
    <v name="QSPIRAL">      0.00000000      0.00000000      0.00000000</v>
    <i type="logical" name="LZEROZ"> F  </i>
   </separator>
   <separator name="electronic exchange-correlation" >
    <i type="logical" name="LASPH"> F  </i>
    <i type="logical" name="LMETAGGA"> F  </i>
   </separator>
   <separator name="electronic convergence" >
    <i type="int" name="NELM">   250</i>
    <i type="int" name="NELMDL">    -5</i>
    <i type="int" name="NELMIN">     6</i>
    <i name="ENINI">    520.00000000</i>
    <separator name="electronic convergence detail" >
     <i type="logical" name="LDIAG"> T  </i>
     <i type="logical" name="LSUBROT"> F  </i>
     <i name="WEIMIN">      0.00100000</i>
     <i name="EBREAK">      0.00000016</i>
     <i name="DEPER">      0.30000000</i>
     <i type="int" name="NRMM">     4</i>
     <i name="TIME">      0.40000000</i>
    </separator>
   </separator>
   <separator name="electronic mixer" >
    <i name="AMIX">      0.40000000</i>
    <i name="BMIX">      1.00000000</i>
    <i name="AMIN">      0.10000000</i>
    <i name="AMIX_MAG">      1.60000000</i>
    <i name="BMIX_MAG">      1.00000000</i>
    <separator name="electronic mixer details" >
     <i type="int" name="IMIX">     4</i>
     <i type="logical" name="MIXFIRST"> F  </i>
     <i type="int" name="MAXMIX">   -45</i>
     <i name="WC">    100.00000000</i>
     <i type="int" name="INIMIX">     1</i>
     <i type="int" name="MIXPRE">     1</i>
     <i type="int" name="MREMOVE">     5</i>
    </separator>
   </separator>
   <separator name="electronic dipolcorrection" >
    <i type="logical" name="LDIPOL"> F  </i>
    <i type="logical" name="LMONO"> F  </i>
    <i type="int" name="IDIPOL">     0</i>
    <i name="EPSILON">      1.00000000</i>
    <v name="DIPOL">   -100.00000000   -100.00000000   -100.00000000</v>
    <i name="EFIELD">      0.00000000</i>
   </separator>
  </separator>
  <separator name="grids" >
   <i type="int" name="NGX">    28</i>
   <i type="int" name="NGY">    36</i>
   <i type="int" name="NGZ">   150</i>
   <i type="int" name="NGXF">    56</i>
   <i type="int" name="NGYF">    72</i>
   <i type="int" name="NGZF">   300</i>
   <i type="logical" name="ADDGRID"> F  </i>
  </separator>
  <separator name="ionic" >
   <i type="int" name="NSW">   200</i>
   <i type="int" name="IBRION">     2</i>
   <i type="int" name="ISIF">     2</i>
   <i name="PSTRESS">      0.00000000</i>
   <i name="EDIFFG">     -0.01000000</i>
   <i type="int" name="NFREE">     1</i>
   <i name="POTIM">      0.30000000</i>
   <i name="SMASS">     -3.00000000</i>
   <i name="SCALEE">      1.00000000</i>
  </separator>
  <separator name="ionic md" >
   <i name="TEBEG">      0.00010000</i>
   <i name="TEEND">      0.00010000</i>
   <i type="int" name="NBLOCK">     1</i>
   <i type="int" name="KBLOCK">   200</i>
   <i type="int" name="NPACO">   256</i>
   <i name="APACO">     16.00000000</i>
  </separator>
  <separator name="symmetry" >
   <i type="int" name="ISYM">     2</i>
   <i name="SYMPREC">      0.00001000</i>
  </separator>
  <separator name="dos" >
   <i type="logical" name="LORBIT"> F  </i>
   <v name="RWIGS">     -1.00000000</v>
   <i type="int" name="NEDOS">   301</i>
   <i name="EMIN">     10.00000000</i>
   <i name="EMAX">    -10.00000000</i>
   <i name="EFERMI">      0.00000000</i>
  </separator>
  <separator name="writing" >
   <i type="int" name="NWRITE">     2</i>
   <i type="logical" name="LWAVE"> F  </i>
   <i type="logical" name="LCHARG"> F  </i>
   <i type="logical" name="LPARD"> F  </i>
   <i type="logical" name="LVTOT"> F  </i>
   <i type="logical" name="LVHAR"> F  </i>
   <i type="logical" name="LELF"> F  </i>
   <i type="logical" name="LOPTICS"> F  </i>
   <v name="STM">      0.00000000      0.00000000      0.00000000      0.00000000      0.00000000      0.00000000      0.00000000</v>
  </separator>
  <separator name="performance" >
   <i type="int" name="NPAR">     4</i>
   <i type="int" name="NSIM">     4</i>
   <i type="int" name="NBLK">    -1</i>
   <i type="logical" name="LPLANE"> T  </i>
   <i type="logical" name="LSCALAPACK"> T  </i>
   <i type="logical" name="LSCAAWARE"> F  </i>
   <i type="logical" name="LSCALU"> F  </i>
   <i type="logical" name="LASYNC"> F  </i>
   <i type="logical" name="LORBITALREAL"> F  </i>
  </separator>
  <separator name="miscellaneous" >
   <i type="int" name="IDIOT">     3</i>
   <i type="logical" name="LMUSIC"> F  </i>
   <v name="POMASS">     30.97400000</v>
   <v name="DARWINR">      0.00000000</v>
   <v name="DARWINV">      1.00000000</v>
   <i type="logical" name="LCORR"> T  </i>
  </separator>
  <i type="logical" name="GGA_COMPAT"> T  </i>
  <i type="logical" name="LBERRY"> F  </i>
  <i type="int" name="ICORELEVEL">     0</i>
  <i type="logical" name="LDAU"> F  </i>
  <i type="int" name="I_CONSTRAINED_M">     0</i>
  <separator name="electronic exchange-correlation" >
   <i type="string" name="GGA">--</i>
   <i type="int" name="VOSKOWN">     0</i>
   <i type="logical" name="LHFCALC"> F  </i>
   <i type="string" name="PRECFOCK"></i>
   <i type="logical" name="LSYMGRAD"> F  </i>
   <i type="logical" name="LHFONE"> F  </i>
   <i type="logical" name="LRHFCALC"> F  </i>
   <i type="logical" name="LTHOMAS"> F  </i>
   <i type="logical" name="LMODELHF"> F  </i>
   <i name="ENCUT4O">     -1.00000000</i>
   <i type="int" name="EXXOEP">     0</i>
   <i type="int" name="FOURORBIT">     0</i>
   <i name="AEXX">      0.00000000</i>
   <i name="HFALPHA">      0.00000000</i>
   <i name="MCALPHA">      0.00000000</i>
   <i name="ALDAX">      1.00000000</i>
   <i name="AGGAX">      1.00000000</i>
   <i name="ALDAC">      1.00000000</i>
   <i name="AGGAC">      1.00000000</i>
   <i type="int" name="NKREDX">     1</i>
   <i type="int" name="NKREDY">     1</i>
   <i type="int" name="NKREDZ">     1</i>
   <i type="logical" name="SHIFTRED"> F  </i>
   <i type="logical" name="ODDONLY"> F  </i>
   <i type="logical" name="EVENONLY"> F  </i>
   <i type="int" name="LMAXFOCK">     0</i>
   <i type="int" name="NMAXFOCKAE">     0</i>
   <i type="logical" name="LFOCKAEDFT"> F  </i>
   <i name="HFSCREEN">      0.00000000</i>
   <i name="HFSCREENC">      0.00000000</i>
   <i type="int" name="NBANDSGWLOW">     0</i>
  </separator>
  <separator name="vdW DFT" >
   <i type="logical" name="LUSE_VDW"> F  </i>
   <i name="Zab_VDW">     -0.84910000</i>
   <i name="PARAM1">      0.12340000</i>
   <i name="PARAM2">      1.00000000</i>
   <i name="PARAM3">      0.00000000</i>
  </separator>
  <separator name="model GW" >
   <i type="int" name="MODEL_GW">     0</i>
   <i name="MODEL_EPS0">     45.76755877</i>
   <i name="MODEL_ALPHA">      1.00000000</i>
  </separator>
  <separator name="linear response parameters" >
   <i type="logical" name="LEPSILON"> F  </i>
   <i type="logical" name="LRPA"> F  </i>
   <i type="logical" name="LNABLA"> F  </i>
   <i type="logical" name="LVEL"> F  </i>
   <i type="int" name="KINTER">     0</i>
   <i name="CSHIFT">      0.10000000</i>
   <i name="OMEGAMAX">     -1.00000000</i>
   <i name="DEG_THRESHOLD">      0.00200000</i>
  </separator>
  <separator name="orbital magnetization" >
   <i type="logical" name="NUCIND"> F  </i>
   <v name="MAGPOS">      0.00000000      0.00000000      0.00000000</v>
   <i type="logical" name="LNICSALL"> T  </i>
   <i type="logical" name="ORBITALMAG"> F  </i>
   <i type="logical" name="LMAGBLOCH"> F  </i>
   <i type="logical" name="LCHIMAG"> F  </i>
   <i type="logical" name="LGAUGE"> T  </i>
   <i type="int" name="MAGATOM">     0</i>
   <v name="MAGDIPOL">      0.00000000      0.00000000      0.00000000</v>
   <v name="AVECCONST">      0.00000000      0.00000000      0.00000000</v>
  </separator>
  <separator name="response functions" >
   <i type="logical" name="LADDER"> F  </i>
   <i type="logical" name="LFXC"> F  </i>
   <i type="logical" name="LHARTREE"> T  </i>
   <i type="int" name="IBSE">     0</i>
   <v type="int" name="KPOINT">    -1     0     0     0</v>
   <i type="logical" name="LTCTE"> F  </i>
   <i type="logical" name="LTETE"> F  </i>
   <i type="logical" name="LTRIPLET"> F  </i>
   <i type="logical" name="LFXCEPS"> F  </i>
   <i type="logical" name="LFXHEG"> F  </i>
   <i type="int" name="NATURALO">     0</i>
   <i type="logical" name="L2ORDER"> F  </i>
   <i type="logical" name="LUSEW"> F  </i>
   <i name="ENCUTGW">     -2.00000000</i>
   <i name="ENCUTGWSOFT">     -2.00000000</i>
   <i name="ENCUTLF">     -1.00000000</i>
   <i type="int" name="LMAXMP2">    -1</i>
   <i name="SCISSOR">      0.00000000</i>
   <i type="int" name="NOMEGA">     0</i>
   <i type="int" name="NOMEGAR">     0</i>
   <i type="int" name="NBANDSGW">    -1</i>
   <i type="int" name="NBANDSO">    -1</i>
   <i type="int" name="NBANDSV">    -1</i>
   <i type="int" name="NELM">   250</i>
   <i type="int" name="NELMHF">     1</i>
   <i type="int" name="DIM">     3</i>
   <i type="int" name="ANTIRES">     0</i>
   <i name="OMEGAMAX">    -30.00000000</i>
   <i name="OMEGAMIN">    -30.00000000</i>
   <i name="OMEGATL">   -200.00000000</i>
   <i type="int" name="OMEGAGRID">     0</i>
   <i name="CSHIFT">     -0.10000000</i>
   <i type="logical" name="SELFENERGY"> F  </i>
   <i type="logical" name="LSPECTRAL"> F  </i>
   <i type="logical" name="LSPECTRALGW"> F  </i>
   <i type="logical" name="LSINGLES"> F  </i>
   <i type="logical" name="LFERMIGW"> F  </i>
   <i type="logical" name="ODDONLYGW"> F  </i>
   <i type="logical" name="EVENONLYGW"> F  </i>
   <i type="int" name="NKREDLFX">     1</i>
   <i type="int" name="NKREDLFY">     1</i>
   <i type="int" name="NKREDLFZ">     1</i>
   <i type="int" name="MAXMEM">  1800</i>
   <i type="int" name="TELESCOPE">     0</i>
   <i type="int" name="TAUPAR">     1</i>
   <i type="int" name="OMEGAPAR">    -1</i>
   <i name="LAMBDA">      1.00000000</i>
  </separator>
  <separator name="External order field" >
   <i name="OFIELD_KAPPA">      0.00000000</i>
   <v name="OFIELD_K">      0.00000000      0.00000000      0.00000000</v>
   <i name="OFIELD_Q6_NEAR">      0.00000000</i>
   <i name="OFIELD_Q6_FAR">      0.00000000</i>
   <i name="OFIELD_A">      0.00000000</i>
  </separator>
 </parameters>
 <atominfo>
  <atoms>       4 </atoms>
  <types>       1 </types>
  <array name="atoms" >
   <dimension dim="1">ion</dimension>
   <field type="string">element</field>
   <field type="int">atomtype</field>
   <set>
    <rc><c>P </c><c>   1</c></rc>
    <rc><c>P </c><c>   1</c></rc>
    <rc><c>P </c><c>   1</c></rc>
    <rc><c>P </c><c>   1</c></rc>
   </set>
  </array>
  <array name="atomtypes" >
   <dimension dim="1">type</dimension>
   <field type="int">atomspertype</field>
   <field type="string">element</field>
   <field>mass</field>
   <field>valence</field>
   <field type="string">pseudopotential</field>
   <set>
    <rc><c>   4</c><c>P </c><c>     30.97400000</c><c>      5.00000000</c><c>  PAW_PBE P 06Sep2000                   </c></rc>
   </set>
  </array>
 </atominfo>
 <structure name="initialpos" >
  <crystal>
   <varray name="basis" >
    <v>       3.29683300       0.04946400       0.00000000 </v>
    <v>       0.06935800       4.62283100      -0.00005300 </v>
    <v>       0.00000000       0.00000000      20.02439000 </v>
   </varray>
   <i name="volume">    305.11705844 </i>
   <varray name="rec_basis" >
    <v>       0.30338969      -0.00455186       0.00000000 </v>
    <v>      -0.00324625       0.21636637       0.00000000 </v>
    <v>      -0.00000001       0.00000057       0.04993910 </v>
   </varray>
  </crystal>
  <varray name="positions" >
   <v>       0.50000000       0.91077300       0.55252100 </v>
   <v>       0.50000000       0.08922700       0.44747900 </v>
   <v>       0.00000000       0.41076900       0.44747900 </v>
   <v>       0.00000000       0.58923100       0.55252100 </v>
  </varray>
 </structure>
 <calculation>
  <scstep>
   <time name="dav">    1.48    1.49</time>
   <time name="total">    1.51    1.52</time>
   <energy>
    <i name="alphaZ">      5.25752656 </i>
    <i name="ewald">   1864.24793970 </i>
    <i name="hartreedc">  -2457.92092699 </i>
    <i name="XCdc">     13.03609609 </i>
    <i name="pawpsdc">    559.04011960 </i>
    <i name="pawaedc">   -526.39432044 </i>
    <i name="eentropy">     -0.00076012 </i>
    <i name="bandstr">    -27.23907386 </i>
    <i name="atom">    704.16778566 </i>
    <i name="e_fr_energy">    134.19438621 </i>
    <i name="e_wo_entrp">    134.19514633 </i>
    <i name="e_0_energy">    134.19476627 </i>
   </energy>
  </scstep>
  <scstep>
   <time name="dav">    2.00    2.00</time>
   <time name="total">    2.00    2.00</time>
   <energy>
    <i name="e_fr_energy">     -6.23880708 </i>
    <i name="e_wo_entrp">     -6.23880708 </i>
    <i name="e_0_energy">     -6.23880708 </i>
   </energy>
  </scstep>
  <scstep>
   <time name="dav">    1.83    1.83</time>
   <time name="total">    1.84    1.84</time>
   <energy>
    <i name="e_fr_energy">    -21.32972562 </i>
    <i name="e_wo_entrp">    -21.32972562 </i>
    <i name="e_0_energy">    -21.32972562 </i>
   </energy>
  </scstep>
  <scstep>
   <time name="dav">    1.88    1.88</time>
   <time name="total">    1.88    1.89</time>
   <energy>
    <i name="e_fr_energy">    -21.63999498 </i>
    <i name="e_wo_entrp">    -21.63999498 </i>
    <i name="e_0_energy">    -21.63999498 </i>
   </energy>
  </scstep>
  <scstep>
   <time name="dav">    1.99    1.99</time>
   <time name="total">    2.08    2.09</time>
   <energy>
    <i name="e_fr_energy">    -21.64891557 </i>
    <i name="e_wo_entrp">    -21.64891557 </i>
    <i name="e_0_energy">    -21.64891557 </i>
   </energy>
  </scstep>
  <scstep>
   <time name="dav">    1.79    1.79</time>
   <time name="total">    1.90    1.91</time>
   <energy>
    <i name="e_fr_energy">    -21.50201805 </i>
    <i name="e_wo_entrp">    -21.50201805 </i>
    <i name="e_0_energy">    -21.50201805 </i>
   </energy>
  </scstep>
  <scstep>
   <time name="dav">    1.72    1.72</time>
   <time name="total">    1.84    1.84</time>
   <energy>
    <i name="e_fr_energy">    -21.43327180 </i>
    <i name="e_wo_entrp">    -21.43327180 </i>
    <i name="e_0_energy">    -21.43327180 </i>
   </energy>
  </scstep>
  <scstep>
   <time name="dav">    1.81    1.81</time>
   <time name="total">    1.92    1.93</time>
   <energy>
    <i name="e_fr_energy">    -21.43258331 </i>
    <i name="e_wo_entrp">    -21.43258331 </i>
    <i name="e_0_energy">    -21.43258331 </i>
   </energy>
  </scstep>
  <scstep>
   <time name="dav">    2.11    2.11</time>
   <time name="total">    2.22    2.22</time>
   <energy>
    <i name="e_fr_energy">    -21.43242761 </i>
    <i name="e_wo_entrp">    -21.43242761 </i>
    <i name="e_0_energy">    -21.43242761 </i>
   </energy>
  </scstep>
  <scstep>
   <time name="dav">    1.79    1.79</time>
   <time name="total">    1.90    1.90</time>
   <energy>
    <i name="e_fr_energy">    -21.43221831 </i>
    <i name="e_wo_entrp">    -21.43221831 </i>
    <i name="e_0_energy">    -21.43221831 </i>
   </energy>
  </scstep>
  <scstep>
   <time name="dav">    1.83    1.83</time>
   <time name="total">    1.94    1.95</time>
   <energy>
    <i name="e_fr_energy">    -21.43213197 </i>
    <i name="e_wo_entrp">    -21.43213197 </i>
    <i name="e_0_energy">    -21.43213197 </i>
   </energy>
  </scstep>
  <scstep>
   <time name="dav">    1.60    1.60</time>
   <time name="total">    1.71    1.71</time>
   <energy>
    <i name="e_fr_energy">    -21.43251021 </i>
    <i name="e_wo_entrp">    -21.43251021 </i>
    <i name="e_0_energy">    -21.43251021 </i>
   </energy>
  </scstep>
  <scstep>
   <time name="dav">    1.61    1.61</time>
   <time name="total">    1.72    1.72</time>
   <energy>
    <i name="e_fr_energy">    -21.43259503 </i>
    <i name="e_wo_entrp">    -21.43259503 </i>
    <i name="e_0_energy">    -21.43259503 </i>
   </energy>
  </scstep>
  <scstep>
   <time name="dav">    1.48    1.48</time>
   <time name="total">    1.59    1.59</time>
   <energy>
    <i name="e_fr_energy">    -21.43274494 </i>
    <i name="e_wo_entrp">    -21.43274494 </i>
    <i name="e_0_energy">    -21.43274494 </i>
   </energy>
  </scstep>
  <scstep>
   <time name="dav">    1.54    1.54</time>
   <time name="total">    1.65    1.66</time>
   <energy>
    <i name="e_fr_energy">    -21.43278371 </i>
    <i name="e_wo_entrp">    -21.43278371 </i>
    <i name="e_0_energy">    -21.43278371 </i>
   </energy>
  </scstep>
  <scstep>
   <time name="dav">    1.45    1.45</time>
   <time name="total">    1.56    1.56</time>
   <energy>
    <i name="e_fr_energy">    -21.43281664 </i>
    <i name="e_wo_entrp">    -21.43281664 </i>
    <i name="e_0_energy">    -21.43281664 </i>
   </energy>
  </scstep>
  <scstep>
   <time name="dav">    1.48    1.48</time>
   <time name="total">    1.50    1.50</time>
   <energy>
    <i name="alphaZ">      5.25752656 </i>
    <i name="ewald">   1864.24793970 </i>
    <i name="hartreedc">  -2473.37023687 </i>
    <i name="XCdc">     14.10584902 </i>
    <i name="pawpsdc">   2108.71002942 </i>
    <i name="pawaedc">  -2076.40556657 </i>
    <i name="eentropy">     -0.00000000 </i>
    <i name="bandstr">   -168.14614664 </i>
    <i name="atom">    704.16778566 </i>
    <i name="e_fr_energy">    -21.43281971 </i>
    <i name="e_wo_entrp">    -21.43281971 </i>
    <i name="e_0_energy">    -21.43281971 </i>
   </energy>
  </scstep>
  <structure>
   <crystal>
    <varray name="basis" >
     <v>       3.29683300       0.04946400       0.00000000 </v>
     <v>       0.06935800       4.62283100      -0.00005300 </v>
     <v>       0.00000000       0.00000000      20.02439000 </v>
    </varray>
    <i name="volume">    305.11705844 </i>
    <varray name="rec_basis" >
     <v>       0.30338969      -0.00455186       0.00000000 </v>
     <v>      -0.00324625       0.21636637       0.00000000 </v>
     <v>      -0.00000001       0.00000057       0.04993910 </v>
    </varray>
   </crystal>
   <varray name="positions" >
    <v>       0.50000000       0.91077300       0.55252100 </v>
    <v>       0.50000000       0.08922700       0.44747900 </v>
    <v>       0.00000000       0.41076900       0.44747900 </v>
    <v>       0.00000000       0.58923100       0.55252100 </v>
   </varray>
  </structure>
  <varray name="forces" >
   <v>      -0.38994849       0.03905195      -0.00290703 </v>
   <v>       0.38994849      -0.03905195       0.00290703 </v>
   <v>      -0.38994536       0.03901980       0.00290844 </v>
   <v>       0.38994536      -0.03901980      -0.00290844 </v>
  </varray>
  <varray name="stress" >
   <v>       0.80597648      -8.56177590       0.00005856 </v>
   <v>      -8.56177591       0.70226743       0.00035102 </v>
   <v>       0.00005853       0.00035104      -0.12913031 </v>
  </varray>
  <energy>
   <i name="e_fr_energy">    -21.43281971 </i>
   <i name="e_wo_entrp">    -21.43281971 </i>
   <i name="e_0_energy">     -0.00000000 </i>
  </energy>
  <time name="totalsc">   31.54   31.59</time>
 </calculation>
 <calculation>
  <scstep>
   <time name="dav">    1.54    1.54</time>
   <time name="total">    1.65    1.66</time>
   <energy>
    <i name="alphaZ">      5.25752656 </i>
    <i name="ewald">   1864.03361187 </i>
    <i name="hartreedc">  -2473.28232855 </i>
    <i name="XCdc">     14.09837807 </i>
    <i name="pawpsdc">   2108.27974760 </i>
    <i name="pawaedc">  -2075.97535310 </i>
    <i name="eentropy">     -0.00000000 </i>
    <i name="bandstr">   -168.02304101 </i>
    <i name="atom">    704.16778566 </i>
    <i name="e_fr_energy">    -21.44367290 </i>
    <i name="e_wo_entrp">    -21.44367290 </i>
    <i name="e_0_energy">    -21.44367290 </i>
   </energy>
  </scstep>
  <scstep>
   <time name="dav">    1.84    1.84</time>
   <time name="total">    1.95    1.96</time>
   <energy>
    <i name="e_fr_energy">    -21.44532062 </i>
    <i name="e_wo_entrp">    -21.44532062 </i>
    <i name="e_0_energy">    -21.44532062 </i>
   </energy>
  </scstep>
  <scstep>
   <time name="dav">    1.95    1.95</time>
   <time name="total">    2.06    2.07</time>
   <energy>
    <i name="e_fr_energy">    -21.44522490 </i>
    <i name="e_wo_entrp">    -21.44522490 </i>
    <i name="e_0_energy">    -21.44522490 </i>
   </energy>
  </scstep>
  <scstep>
   <time name="dav">    1.81    1.81</time>
   <time name="total">    1.92    1.92</time>
   <energy>
    <i name="e_fr_energy">    -21.44520403 </i>
    <i name="e_wo_entrp">    -21.44520403 </i>
    <i name="e_0_energy">    -21.44520403 </i>
   </energy>
  </scstep>
  <scstep>
   <time name="dav">    1.54    1.54</time>
   <time name="total">    1.65    1.65</time>
   <energy>
    <i name="e_fr_energy">    -21.44520671 </i>
    <i name="e_wo_entrp">    -21.44520671 </i>
    <i name="e_0_energy">    -21.44520671 </i>
   </energy>
  </scstep>
  <scstep>
   <time name="dav">    1.31    1.31</time>
   <time name="total">    1.34    1.34</time>
   <energy>
    <i name="alphaZ">      5.25752656 </i>
    <i name="ewald">   1864.03361187 </i>
    <i name="hartreedc">  -2473.27186750 </i>
    <i name="XCdc">     14.09610590 </i>
    <i name="pawpsdc">   2100.58000795 </i>
    <i name="pawaedc">  -2068.27238164 </i>
    <i name="eentropy">     -0.00000000 </i>
    <i name="bandstr">   -168.03599640 </i>
    <i name="atom">    704.16778566 </i>
    <i name="e_fr_energy">    -21.44520761 </i>
    <i name="e_wo_entrp">    -21.44520761 </i>
    <i name="e_0_energy">    -21.44520761 </i>
   </energy>
  </scstep>
  <structure>
   <crystal>
    <varray name="basis" >
     <v>       3.29683300       0.04946400       0.00000000 </v>
     <v>       0.06935800       4.62283100      -0.00005300 </v>
     <v>       0.00000000       0.00000000      20.02439000 </v>
    </varray>
    <i name="volume">    305.11705844 </i>
    <varray name="rec_basis" >
     <v>       0.30338969      -0.00455186       0.00000000 </v>
     <v>      -0.00324625       0.21636637       0.00000000 </v>
     <v>      -0.00000001       0.00000057       0.04993910 </v>
    </varray>
   </crystal>
   <varray name="positions" >
    <v>       0.49657041       0.91105422       0.55251680 </v>
    <v>       0.50342959       0.08894578       0.44748320 </v>
    <v>      -0.00342956       0.41105002       0.44748320 </v>
    <v>       0.00342956       0.58894998       0.55251680 </v>
   </varray>
  </structure>
  <varray name="forces" >
   <v>      -0.15582776      -0.00962413      -0.00029590 </v>
   <v>       0.15582776       0.00962413       0.00029590 </v>
   <v>      -0.15582509      -0.00965097       0.00029738 </v>
   <v>       0.15582509       0.00965097      -0.00029738 </v>
  </varray>
  <varray name="stress" >
   <v>       0.29648365      -5.43993512       0.00003221 </v>
   <v>      -5.43993517       0.08787874       0.00029496 </v>
   <v>       0.00003214       0.00029497      -0.07385563 </v>
  </varray>
  <energy>
   <i name="e_fr_energy">    -21.44520761 </i>
   <i name="e_wo_entrp">    -21.44520761 </i>
   <i name="e_0_energy">     -0.00000000 </i>
  </energy>
  <time name="totalsc">   11.35   11.37</time>
 </calculation>
 <calculation>
  <scstep>
   <time name="dav">    1.53    1.53</time>
   <time name="total">    1.64    1.65</time>
   <energy>
    <i name="alphaZ">      5.25752656 </i>
    <i name="ewald">   1863.91994939 </i>
    <i name="hartreedc">  -2473.21827050 </i>
    <i name="XCdc">     14.09161753 </i>
    <i name="pawpsdc">   2100.58683345 </i>
    <i name="pawaedc">  -2068.27922106 </i>
    <i name="eentropy">     -0.00000000 </i>
    <i name="bandstr">   -167.97309074 </i>
    <i name="atom">    704.16778566 </i>
    <i name="e_fr_energy">    -21.44686971 </i>
    <i name="e_wo_entrp">    -21.44686971 </i>
    <i name="e_0_energy">    -21.44686971 </i>
   </energy>
  </scstep>
  <scstep>
   <time name="dav">    1.82    1.82</time>
   <time name="total">    1.93    1.93</time>
   <energy>
    <i name="e_fr_energy">    -21.44756283 </i>
    <i name="e_wo_entrp">    -21.44756283 </i>
    <i name="e_0_energy">    -21.44756283 </i>
   </energy>
  </scstep>
  <scstep>
   <time name="dav">    1.98    1.98</time>
   <time name="total">    2.09    2.09</time>
   <energy>
    <i name="e_fr_energy">    -21.44752413 </i>
    <i name="e_wo_entrp">    -21.44752413 </i>
    <i name="e_0_energy">    -21.44752413 </i>
   </energy>
  </scstep>
  <scstep>
   <time name="dav">    1.77    1.77</time>
   <time name="total">    1.88    1.89</time>
   <energy>
    <i name="e_fr_energy">    -21.44751545 </i>
    <i name="e_wo_entrp">    -21.44751545 </i>
    <i name="e_0_energy">    -21.44751545 </i>
   </energy>
  </scstep>
  <scstep>
   <time name="dav">    1.26    1.26</time>
   <time name="total">    1.37    1.37</time>
   <energy>
    <i name="e_fr_energy">    -21.44751618 </i>
    <i name="e_wo_entrp">    -21.44751618 </i>
    <i name="e_0_energy">    -21.44751618 </i>
   </energy>
  </scstep>
  <scstep>
   <time name="dav">    1.19    1.19</time>
   <time name="total">    1.21    1.21</time>
   <energy>
    <i name="alphaZ">      5.25752656 </i>
    <i name="ewald">   1863.91994939 </i>
    <i name="hartreedc">  -2473.21777370 </i>
    <i name="XCdc">     14.09055520 </i>
    <i name="pawpsdc">   2096.53763286 </i>
    <i name="pawaedc">  -2064.22840226 </i>
    <i name="eentropy">     -0.00000000 </i>
    <i name="bandstr">   -167.97479006 </i>
    <i name="atom">    704.16778566 </i>
    <i name="e_fr_energy">    -21.44751635 </i>
    <i name="e_wo_entrp">    -21.44751635 </i>
    <i name="e_0_energy">    -21.44751635 </i>
   </energy>
  </scstep>
  <structure>
   <crystal>
    <varray name="basis" >
     <v>       3.29683300       0.04946400       0.00000000 </v>
     <v>       0.06935800       4.62283100      -0.00005300 </v>
     <v>       0.00000000       0.00000000      20.02439000 </v>
    </varray>
    <i name="volume">    305.11705844 </i>
    <varray name="rec_basis" >
     <v>       0.30338969      -0.00455186       0.00000000 </v>
     <v>      -0.00324625       0.21636637       0.00000000 </v>
     <v>      -0.00000001       0.00000057       0.04993910 </v>
    </varray>
   </crystal>
   <varray name="positions" >
    <v>       0.49434826       0.91123643       0.55251408 </v>
    <v>       0.50565174       0.08876357       0.44748592 </v>
    <v>      -0.00565168       0.41123210       0.44748593 </v>
    <v>       0.00565168       0.58876790       0.55251407 </v>
   </varray>
  </structure>
  <varray name="forces" >
   <v>      -0.00616477      -0.03331093       0.00120184 </v>
   <v>       0.00616477       0.03331093      -0.00120184 </v>
   <v>      -0.00616260      -0.03333423      -0.00120091 </v>
   <v>       0.00616260       0.03333423       0.00120091 </v>
  </varray>
  <varray name="stress" >
   <v>       0.06417799      -3.46246879       0.00001529 </v>
   <v>      -3.46246873      -0.18532907       0.00025929 </v>
   <v>       0.00001524       0.00025941      -0.04140403 </v>
  </varray>
  <energy>
   <i name="e_fr_energy">    -21.44751635 </i>
   <i name="e_wo_entrp">    -21.44751635 </i>
   <i name="e_0_energy">     -0.00000000 </i>
  </energy>
  <time name="totalsc">   10.90   10.92</time>
 </calculation>
 <calculation>
  <scstep>
   <time name="dav">    1.59    1.59</time>
   <time name="total">    1.70    1.70</time>
   <energy>
    <i name="alphaZ">      5.25752656 </i>
    <i name="ewald">   1863.91802741 </i>
    <i name="hartreedc">  -2473.21792286 </i>
    <i name="XCdc">     14.09048530 </i>
    <i name="pawpsdc">   2096.53096503 </i>
    <i name="pawaedc">  -2064.22173896 </i>
    <i name="eentropy">     -0.00000000 </i>
    <i name="bandstr">   -167.97264518 </i>
    <i name="atom">    704.16778566 </i>
    <i name="e_fr_energy">    -21.44751704 </i>
    <i name="e_wo_entrp">    -21.44751704 </i>
    <i name="e_0_energy">    -21.44751704 </i>
   </energy>
  </scstep>
  <scstep>
   <time name="dav">    1.14    1.14</time>
   <time name="total">    1.25    1.25</time>
   <energy>
    <i name="e_fr_energy">    -21.44751731 </i>
    <i name="e_wo_entrp">    -21.44751731 </i>
    <i name="e_0_energy">    -21.44751731 </i>
   </energy>
  </scstep>
  <scstep>
   <time name="dav">    1.13    1.13</time>
   <time name="total">    1.24    1.24</time>
   <energy>
    <i name="e_fr_energy">    -21.44751736 </i>
    <i name="e_wo_entrp">    -21.44751736 </i>
    <i name="e_0_energy">    -21.44751736 </i>
   </energy>
  </scstep>
  <scstep>
   <time name="dav">    1.11    1.11</time>
   <time name="total">    1.23    1.23</time>
   <energy>
    <i name="e_fr_energy">    -21.44751740 </i>
    <i name="e_wo_entrp">    -21.44751740 </i>
    <i name="e_0_energy">    -21.44751740 </i>
   </energy>
  </scstep>
  <scstep>
   <time name="dav">    1.13    1.13</time>
   <time name="total">    1.24    1.24</time>
   <energy>
    <i name="e_fr_energy">    -21.44751744 </i>
    <i name="e_wo_entrp">    -21.44751744 </i>
    <i name="e_0_energy">    -21.44751744 </i>
   </energy>
  </scstep>
  <scstep>
   <time name="dav">    1.11    1.11</time>
   <time name="total">    1.13    1.13</time>
   <energy>
    <i name="alphaZ">      5.25752656 </i>
    <i name="ewald">   1863.91802741 </i>
    <i name="hartreedc">  -2473.22001934 </i>
    <i name="XCdc">     14.09048384 </i>
    <i name="pawpsdc">   2096.46916625 </i>
    <i name="pawaedc">  -2064.15991542 </i>
    <i name="eentropy">     -0.00000000 </i>
    <i name="bandstr">   -167.97057242 </i>
    <i name="atom">    704.16778566 </i>
    <i name="e_fr_energy">    -21.44751746 </i>
    <i name="e_wo_entrp">    -21.44751746 </i>
    <i name="e_0_energy">    -21.44751746 </i>
   </energy>
  </scstep>
  <structure>
   <crystal>
    <varray name="basis" >
     <v>       3.29683300       0.04946400       0.00000000 </v>
     <v>       0.06935800       4.62283100      -0.00005300 </v>
     <v>       0.00000000       0.00000000      20.02439000 </v>
    </varray>
    <i name="volume">    305.11705844 </i>
    <varray name="rec_basis" >
     <v>       0.30338969      -0.00455186       0.00000000 </v>
     <v>      -0.00324625       0.21636637       0.00000000 </v>
     <v>      -0.00000001       0.00000057       0.04993910 </v>
    </varray>
   </crystal>
   <varray name="positions" >
    <v>       0.49430706       0.91123981       0.55251403 </v>
    <v>       0.50569294       0.08876019       0.44748597 </v>
    <v>      -0.00569288       0.41123547       0.44748598 </v>
    <v>       0.00569288       0.58876453       0.55251402 </v>
   </varray>
  </structure>
  <varray name="forces" >
   <v>      -0.00363796      -0.03369235       0.00121732 </v>
   <v>       0.00363796       0.03369235      -0.00121732 </v>
   <v>      -0.00363581      -0.03371563      -0.00121642 </v>
   <v>       0.00363581       0.03371563       0.00121642 </v>
  </varray>
  <varray name="stress" >
   <v>       0.06102712      -3.43624969       0.00001523 </v>
   <v>      -3.43624960      -0.19070384       0.00025940 </v>
   <v>       0.00001524       0.00025936      -0.04341306 </v>
  </varray>
  <energy>
   <i name="e_fr_energy">    -21.44751746 </i>
   <i name="e_wo_entrp">    -21.44751746 </i>
   <i name="e_0_energy">     -0.00000000 </i>
  </energy>
  <time name="totalsc">    8.56    8.58</time>
 </calculation>
 <calculation>
  <scstep>
   <time name="dav">    1.57    1.57</time>
   <time name="total">    1.68    1.68</time>
   <energy>
    <i name="alphaZ">      5.25752656 </i>
    <i name="ewald">   1864.04504788 </i>
    <i name="hartreedc">  -2473.29528259 </i>
    <i name="XCdc">     14.09529424 </i>
    <i name="pawpsdc">   2096.46930480 </i>
    <i name="pawaedc">  -2064.16005379 </i>
    <i name="eentropy">     -0.00000000 </i>
    <i name="bandstr">   -168.02722000 </i>
    <i name="atom">    704.16778566 </i>
    <i name="e_fr_energy">    -21.44759725 </i>
    <i name="e_wo_entrp">    -21.44759725 </i>
    <i name="e_0_energy">    -21.44759725 </i>
   </energy>
  </scstep>
  <scstep>
   <time name="dav">    1.88    1.88</time>
   <time name="total">    1.99    1.99</time>
   <energy>
    <i name="e_fr_energy">    -21.44761508 </i>
    <i name="e_wo_entrp">    -21.44761508 </i>
    <i name="e_0_energy">    -21.44761508 </i>
   </energy>
  </scstep>
  <scstep>
   <time name="dav">    1.23    1.23</time>
   <time name="total">    1.35    1.35</time>
   <energy>
    <i name="e_fr_energy">    -21.44761496 </i>
    <i name="e_wo_entrp">    -21.44761496 </i>
    <i name="e_0_energy">    -21.44761496 </i>
   </energy>
  </scstep>
  <scstep>
   <time name="dav">    1.17    1.17</time>
   <time name="total">    1.28    1.28</time>
   <energy>
    <i name="e_fr_energy">    -21.44761534 </i>
    <i name="e_wo_entrp">    -21.44761534 </i>
    <i name="e_0_energy">    -21.44761534 </i>
   </energy>
  </scstep>
  <scstep>
   <time name="dav">    1.14    1.14</time>
   <time name="total">    1.25    1.25</time>
   <energy>
    <i name="e_fr_energy">    -21.44761530 </i>
    <i name="e_wo_entrp">    -21.44761530 </i>
    <i name="e_0_energy">    -21.44761530 </i>
   </energy>
  </scstep>
  <scstep>
   <time name="dav">    1.09    1.09</time>
   <time name="total">    1.11    1.11</time>
   <energy>
    <i name="alphaZ">      5.25752656 </i>
    <i name="ewald">   1864.04504788 </i>
    <i name="hartreedc">  -2473.29652392 </i>
    <i name="XCdc">     14.09589584 </i>
    <i name="pawpsdc">   2099.74569739 </i>
    <i name="pawaedc">  -2067.43771997 </i>
    <i name="eentropy">     -0.00000000 </i>
    <i name="bandstr">   -168.02532476 </i>
    <i name="atom">    704.16778566 </i>
    <i name="e_fr_energy">    -21.44761532 </i>
    <i name="e_wo_entrp">    -21.44761532 </i>
    <i name="e_0_energy">    -21.44761532 </i>
   </energy>
  </scstep>
  <structure>
   <crystal>
    <varray name="basis" >
     <v>       3.29683300       0.04946400       0.00000000 </v>
     <v>       0.06935800       4.62283100      -0.00005300 </v>
     <v>       0.00000000       0.00000000      20.02439000 </v>
    </varray>
    <i name="volume">    305.11705844 </i>
    <varray name="rec_basis" >
     <v>       0.30338969      -0.00455186       0.00000000 </v>
     <v>      -0.00324625       0.21636637       0.00000000 </v>
     <v>      -0.00000001       0.00000057       0.04993910 </v>
    </varray>
   </crystal>
   <varray name="positions" >
    <v>       0.49424934       0.91100351       0.55251598 </v>
    <v>       0.50575066       0.08899649       0.44748402 </v>
    <v>      -0.00575058       0.41099901       0.44748402 </v>
    <v>       0.00575058       0.58900099       0.55251598 </v>
   </varray>
  </structure>
  <varray name="forces" >
   <v>      -0.00008998      -0.00954453      -0.00283021 </v>
   <v>       0.00008998       0.00954453       0.00283021 </v>
   <v>      -0.00008816      -0.00956326       0.00283009 </v>
   <v>       0.00008816       0.00956326      -0.00283009 </v>
  </varray>
  <varray name="stress" >
   <v>       0.15662359      -3.39201663       0.00001834 </v>
   <v>      -3.39201659       0.13849843       0.00020638 </v>
   <v>       0.00001831       0.00020645      -0.13553460 </v>
  </varray>
  <energy>
   <i name="e_fr_energy">    -21.44761532 </i>
   <i name="e_wo_entrp">    -21.44761532 </i>
   <i name="e_0_energy">     -0.00000000 </i>
  </energy>
  <time name="totalsc">    9.37    9.39</time>
  <eigenvalues>
   <array>
    <dimension dim="1">band</dimension>
    <dimension dim="2">kpoint</dimension>
    <dimension dim="3">spin</dimension>
    <field>eigene</field>
    <field>occ</field>
    <set>
     <set comment="spin 1">
      <set comment="kpoint 1">
       <r>  -17.2274    1.0000 </r>
       <r>  -14.7651    1.0000 </r>
       <r>  -11.4389    1.0000 </r>
       <r>   -7.9327    1.0000 </r>
       <r>   -6.9759    1.0000 </r>
       <r>   -6.7743    1.0000 </r>
       <r>   -5.5713    1.0000 </r>
       <r>   -4.0042    1.0000 </r>
       <r>   -3.9331    1.0000 </r>
       <r>   -2.2761    1.0000 </r>
       <r>   -1.3739    0.0000 </r>
       <r>   -0.6136    0.0000 </r>
       <r>    0.3746    0.0000 </r>
       <r>    1.0768    0.0000 </r>
       <r>    2.1369    0.0000 </r>
       <r>    2.2995    0.0000 </r>
      </set>
      <set comment="kpoint 2">
       <r>  -17.2004    1.0000 </r>
       <r>  -14.7369    1.0000 </r>
       <r>  -11.4479    1.0000 </r>
       <r>   -7.9122    1.0000 </r>
       <r>   -6.9939    1.0000 </r>
       <r>   -6.7505    1.0000 </r>
       <r>   -5.7471    1.0000 </r>
       <r>   -4.1876    1.0000 </r>
       <r>   -3.9226    1.0000 </r>
       <r>   -2.2761    1.0000 </r>
       <r>   -1.3487    0.0000 </r>
       <r>   -0.3693    0.0000 </r>
       <r>    0.5726    0.0000 </r>
       <r>    0.9540    0.0000 </r>
       <r>    2.1649    0.0000 </r>
       <r>    2.3297    0.0000 </r>
      </set>
      <set comment="kpoint 3">
       <r>  -17.1193    1.0000 </r>
       <r>  -14.6524    1.0000 </r>
       <r>  -11.4803    1.0000 </r>
       <r>   -7.8514    1.0000 </r>
       <r>   -7.0678    1.0000 </r>
       <r>   -6.6801    1.0000 </r>
       <r>   -6.1750    1.0000 </r>
       <r>   -4.6118    1.0000 </r>
       <r>   -3.8924    1.0000 </r>
       <r>   -2.2954    1.0000 </r>
       <r>   -1.2734    0.0000 </r>
       <r>    0.2845    0.0000 </r>
       <r>    0.4303    0.0000 </r>
       <r>    1.2752    0.0000 </r>
       <r>    2.2444    0.0000 </r>
       <r>    2.4201    0.0000 </r>
      </set>
      <set comment="kpoint 4">
       <r>  -16.9847    1.0000 </r>
       <r>  -14.5116    1.0000 </r>
       <r>  -11.5525    1.0000 </r>
       <r>   -7.7528    1.0000 </r>
       <r>   -7.2593    1.0000 </r>
       <r>   -6.6975    1.0000 </r>
       <r>   -6.5507    1.0000 </r>
       <r>   -5.0442    1.0000 </r>
       <r>   -3.8546    1.0000 </r>
       <r>   -2.3550    1.0000 </r>
       <r>   -1.1493    0.0000 </r>
       <r>   -0.0623    0.0000 </r>
       <r>    1.1964    0.0000 </r>
       <r>    1.8832    0.0000 </r>
       <r>    2.3132    0.0000 </r>
       <r>    2.5705    0.0000 </r>
      </set>
      <set comment="kpoint 5">
       <r>  -16.7970    1.0000 </r>
       <r>  -14.3150    1.0000 </r>
       <r>  -11.6898    1.0000 </r>
       <r>   -7.6388    1.0000 </r>
       <r>   -7.6209    1.0000 </r>
       <r>   -7.1575    1.0000 </r>
       <r>   -6.3965    1.0000 </r>
       <r>   -5.3129    1.0000 </r>
       <r>   -3.8324    1.0000 </r>
       <r>   -2.4663    1.0000 </r>
       <r>   -0.9796    0.0000 </r>
       <r>   -0.5486    0.0000 </r>
       <r>    1.8813    0.0000 </r>
       <r>    1.9270    0.0000 </r>
       <r>    2.2189    0.0000 </r>
       <r>    2.6910    0.0000 </r>
      </set>
      <set comment="kpoint 6">
       <r>  -16.5574    1.0000 </r>
       <r>  -14.0629    1.0000 </r>
       <r>  -11.9181    1.0000 </r>
       <r>   -8.1933    1.0000 </r>
       <r>   -7.5040    1.0000 </r>
       <r>   -7.4644    1.0000 </r>
       <r>   -6.1959    1.0000 </r>
       <r>   -5.3849    1.0000 </r>
       <r>   -3.8600    1.0000 </r>
       <r>   -2.6382    1.0000 </r>
       <r>   -0.9291    0.0000 </r>
       <r>   -0.7718    0.0000 </r>
       <r>    1.3017    0.0000 </r>
       <r>    1.3547    0.0000 </r>
       <r>    2.6217    0.0000 </r>
       <r>    2.9431    0.0000 </r>
      </set>
      <set comment="kpoint 7">
       <r>  -16.2672    1.0000 </r>
       <r>  -13.7561    1.0000 </r>
       <r>  -12.2487    1.0000 </r>
       <r>   -8.8419    1.0000 </r>
       <r>   -7.6959    1.0000 </r>
       <r>   -7.2972    1.0000 </r>
       <r>   -5.9621    1.0000 </r>
       <r>   -5.3253    1.0000 </r>
       <r>   -3.9670    1.0000 </r>
       <r>   -2.8738    1.0000 </r>
       <r>   -1.1343    0.0000 </r>
       <r>   -0.5490    0.0000 </r>
       <r>    0.6505    0.0000 </r>
       <r>    0.8191    0.0000 </r>
       <r>    2.1664    0.0000 </r>
       <r>    3.2714    0.0000 </r>
      </set>
      <set comment="kpoint 8">
       <r>  -15.9284    1.0000 </r>
       <r>  -13.3958    1.0000 </r>
       <r>  -12.6678    1.0000 </r>
       <r>   -9.5186    1.0000 </r>
       <r>   -7.7366    1.0000 </r>
       <r>   -7.1436    1.0000 </r>
       <r>   -5.7061    1.0000 </r>
       <r>   -5.2011    1.0000 </r>
       <r>   -4.1393    1.0000 </r>
       <r>   -3.1645    1.0000 </r>
       <r>   -1.1419    0.0000 </r>
       <r>   -0.4099    0.0000 </r>
       <r>    0.0486    0.0000 </r>
       <r>    0.4567    0.0000 </r>
       <r>    1.6575    0.0000 </r>
       <r>    3.0258    0.0000 </r>
      </set>
      <set comment="kpoint 9">
       <r>  -15.5436    1.0000 </r>
       <r>  -13.1549    1.0000 </r>
       <r>  -12.9735    1.0000 </r>
       <r>  -10.1876    1.0000 </r>
       <r>   -7.6563    1.0000 </r>
       <r>   -7.0407    1.0000 </r>
       <r>   -5.4456    1.0000 </r>
       <r>   -5.0641    1.0000 </r>
       <r>   -4.3060    1.0000 </r>
       <r>   -3.4889    1.0000 </r>
       <r>   -0.9842    0.0000 </r>
       <r>   -0.5607    0.0000 </r>
       <r>   -0.4508    0.0000 </r>
       <r>    0.4985    0.0000 </r>
       <r>    1.1492    0.0000 </r>
       <r>    2.6121    0.0000 </r>
      </set>
      <set comment="kpoint 10">
       <r>  -15.1169    1.0000 </r>
       <r>  -13.6553    1.0000 </r>
       <r>  -12.5132    1.0000 </r>
       <r>  -10.8301    1.0000 </r>
       <r>   -7.4960    1.0000 </r>
       <r>   -7.0304    1.0000 </r>
       <r>   -5.2073    1.0000 </r>
       <r>   -4.9624    1.0000 </r>
       <r>   -4.3789    1.0000 </r>
       <r>   -3.8153    1.0000 </r>
       <r>   -0.8693    0.0000 </r>
       <r>   -0.8353    0.0000 </r>
       <r>   -0.6423    0.0000 </r>
       <r>    0.6119    0.0000 </r>
       <r>    0.8472    0.0000 </r>
       <r>    2.1529    0.0000 </r>
      </set>
      <set comment="kpoint 11">
       <r>  -14.6538    1.0000 </r>
       <r>  -14.1625    1.0000 </r>
       <r>  -11.9982    1.0000 </r>
       <r>  -11.4357    1.0000 </r>
       <r>   -7.3021    1.0000 </r>
       <r>   -7.1281    1.0000 </r>
       <r>   -5.0277    1.0000 </r>
       <r>   -4.9421    1.0000 </r>
       <r>   -4.3074    1.0000 </r>
       <r>   -4.1039    1.0000 </r>
       <r>   -1.0303    0.0000 </r>
       <r>   -1.0179    0.0000 </r>
       <r>   -0.2899    0.0000 </r>
       <r>    0.1477    0.0000 </r>
       <r>    1.2371    0.0000 </r>
       <r>    1.6857    0.0000 </r>
      </set>
      <set comment="kpoint 12">
       <r>  -17.2059    1.0000 </r>
       <r>  -14.7953    1.0000 </r>
       <r>  -11.4475    1.0000 </r>
       <r>   -8.0899    1.0000 </r>
       <r>   -6.8795    1.0000 </r>
       <r>   -6.6811    1.0000 </r>
       <r>   -5.5550    1.0000 </r>
       <r>   -4.0190    1.0000 </r>
       <r>   -3.8377    1.0000 </r>
       <r>   -2.4774    1.0000 </r>
       <r>   -1.1872    0.0000 </r>
       <r>   -0.5969    0.0000 </r>
       <r>    0.3318    0.0000 </r>
       <r>    1.0618    0.0000 </r>
       <r>    2.1954    0.0000 </r>
       <r>    2.3298    0.0000 </r>
      </set>
      <set comment="kpoint 13">
       <r>  -17.1804    1.0000 </r>
       <r>  -14.7657    1.0000 </r>
       <r>  -11.4510    1.0000 </r>
       <r>   -8.0684    1.0000 </r>
       <r>   -6.8903    1.0000 </r>
       <r>   -6.6830    1.0000 </r>
       <r>   -5.7082    1.0000 </r>
       <r>   -4.2214    1.0000 </r>
       <r>   -3.8349    1.0000 </r>
       <r>   -2.4658    1.0000 </r>
       <r>   -1.1716    0.0000 </r>
       <r>   -0.3617    0.0000 </r>
       <r>    0.5041    0.0000 </r>
       <r>    0.9780    0.0000 </r>
       <r>    2.2193    0.0000 </r>
       <r>    2.3577    0.0000 </r>
      </set>
      <set comment="kpoint 14">
       <r>  -17.1008    1.0000 </r>
       <r>  -14.6801    1.0000 </r>
       <r>  -11.4753    1.0000 </r>
       <r>   -8.0181    1.0000 </r>
       <r>   -6.9419    1.0000 </r>
       <r>   -6.6825    1.0000 </r>
       <r>   -6.0749    1.0000 </r>
       <r>   -4.6605    1.0000 </r>
       <r>   -3.8225    1.0000 </r>
       <r>   -2.4635    1.0000 </r>
       <r>   -1.1147    0.0000 </r>
       <r>    0.2848    0.0000 </r>
       <r>    0.3774    0.0000 </r>
       <r>    1.3096    0.0000 </r>
       <r>    2.2922    0.0000 </r>
       <r>    2.4455    0.0000 </r>
      </set>
      <set comment="kpoint 15">
       <r>  -16.9678    1.0000 </r>
       <r>  -14.5388    1.0000 </r>
       <r>  -11.5372    1.0000 </r>
       <r>   -7.9590    1.0000 </r>
       <r>   -7.0818    1.0000 </r>
       <r>   -6.8552    1.0000 </r>
       <r>   -6.3100    1.0000 </r>
       <r>   -5.1029    1.0000 </r>
       <r>   -3.8108    1.0000 </r>
       <r>   -2.4928    1.0000 </r>
       <r>   -1.0166    0.0000 </r>
       <r>   -0.0826    0.0000 </r>
       <r>    1.1905    0.0000 </r>
       <r>    1.9501    0.0000 </r>
       <r>    2.2509    0.0000 </r>
       <r>    2.5103    0.0000 </r>
      </set>
      <set comment="kpoint 16">
       <r>  -16.7818    1.0000 </r>
       <r>  -14.3421    1.0000 </r>
       <r>  -11.6627    1.0000 </r>
       <r>   -7.9823    1.0000 </r>
       <r>   -7.3015    1.0000 </r>
       <r>   -7.2397    1.0000 </r>
       <r>   -6.2504    1.0000 </r>
       <r>   -5.3721    1.0000 </r>
       <r>   -3.8214    1.0000 </r>
       <r>   -2.5708    1.0000 </r>
       <r>   -0.8751    0.0000 </r>
       <r>   -0.5369    0.0000 </r>
       <r>    1.6608    0.0000 </r>
       <r>    2.0580    0.0000 </r>
       <r>    2.2495    0.0000 </r>
       <r>    2.6485    0.0000 </r>
      </set>
      <set comment="kpoint 17">
       <r>  -16.5440    1.0000 </r>
       <r>  -14.0909    1.0000 </r>
       <r>  -11.8791    1.0000 </r>
       <r>   -8.3197    1.0000 </r>
       <r>   -7.5663    1.0000 </r>
       <r>   -7.3636    1.0000 </r>
       <r>   -6.0919    1.0000 </r>
       <r>   -5.4393    1.0000 </r>
       <r>   -3.8838    1.0000 </r>
       <r>   -2.7115    1.0000 </r>
       <r>   -0.8811    0.0000 </r>
       <r>   -0.6938    0.0000 </r>
       <r>    1.0828    0.0000 </r>
       <r>    1.5050    0.0000 </r>
       <r>    2.7273    0.0000 </r>
       <r>    3.0513    0.0000 </r>
      </set>
      <set comment="kpoint 18">
       <r>  -16.2558    1.0000 </r>
       <r>  -13.7874    1.0000 </r>
       <r>  -12.1982    1.0000 </r>
       <r>   -8.9063    1.0000 </r>
       <r>   -7.7485    1.0000 </r>
       <r>   -7.2589    1.0000 </r>
       <r>   -5.8917    1.0000 </r>
       <r>   -5.3818    1.0000 </r>
       <r>   -4.0122    1.0000 </r>
       <r>   -2.9194    1.0000 </r>
       <r>   -1.0544    0.0000 </r>
       <r>   -0.4991    0.0000 </r>
       <r>    0.5653    0.0000 </r>
       <r>    0.8481    0.0000 </r>
       <r>    2.4384    0.0000 </r>
       <r>    3.2192    0.0000 </r>
      </set>
      <set comment="kpoint 19">
       <r>  -15.9192    1.0000 </r>
       <r>  -13.4397    1.0000 </r>
       <r>  -12.6001    1.0000 </r>
       <r>   -9.5621    1.0000 </r>
       <r>   -7.7803    1.0000 </r>
       <r>   -7.1245    1.0000 </r>
       <r>   -5.6726    1.0000 </r>
       <r>   -5.2777    1.0000 </r>
       <r>   -4.1705    1.0000 </r>
       <r>   -3.1834    1.0000 </r>
       <r>   -1.0451    0.0000 </r>
       <r>   -0.4358    0.0000 </r>
       <r>    0.2291    0.0000 </r>
       <r>    0.2818    0.0000 </r>
       <r>    1.9761    0.0000 </r>
       <r>    2.9481    0.0000 </r>
      </set>
      <set comment="kpoint 20">
       <r>  -15.5372    1.0000 </r>
       <r>  -13.2145    1.0000 </r>
       <r>  -12.8883    1.0000 </r>
       <r>  -10.2211    1.0000 </r>
       <r>   -7.6898    1.0000 </r>
       <r>   -7.0323    1.0000 </r>
       <r>   -5.4597    1.0000 </r>
       <r>   -5.1843    1.0000 </r>
       <r>   -4.2746    1.0000 </r>
       <r>   -3.4763    1.0000 </r>
       <r>   -0.8864    0.0000 </r>
       <r>   -0.6829    0.0000 </r>
       <r>   -0.2979    0.0000 </r>
       <r>    0.4287    0.0000 </r>
       <r>    1.4849    0.0000 </r>
       <r>    2.5448    0.0000 </r>
      </set>
      <set comment="kpoint 21">
       <r>  -15.1141    1.0000 </r>
       <r>  -13.6344    1.0000 </r>
       <r>  -12.5086    1.0000 </r>
       <r>  -10.8567    1.0000 </r>
       <r>   -7.5185    1.0000 </r>
       <r>   -7.0375    1.0000 </r>
       <r>   -5.2869    1.0000 </r>
       <r>   -5.1171    1.0000 </r>
       <r>   -4.2679    1.0000 </r>
       <r>   -3.7595    1.0000 </r>
       <r>   -0.9709    0.0000 </r>
       <r>   -0.7607    0.0000 </r>
       <r>   -0.5489    0.0000 </r>
       <r>    0.7177    0.0000 </r>
       <r>    1.0383    0.0000 </r>
       <r>    2.0995    0.0000 </r>
      </set>
      <set comment="kpoint 22">
       <r>  -14.6561    1.0000 </r>
       <r>  -14.1329    1.0000 </r>
       <r>  -12.0033    1.0000 </r>
       <r>  -11.4554    1.0000 </r>
       <r>   -7.3141    1.0000 </r>
       <r>   -7.1568    1.0000 </r>
       <r>   -5.1880    1.0000 </r>
       <r>   -5.0581    1.0000 </r>
       <r>   -4.1733    1.0000 </r>
       <r>   -3.9951    1.0000 </r>
       <r>   -1.1403    0.0000 </r>
       <r>   -0.9569    0.0000 </r>
       <r>   -0.2279    0.0000 </r>
       <r>    0.4485    0.0000 </r>
       <r>    1.2358    0.0000 </r>
       <r>    1.6561    0.0000 </r>
      </set>
      <set comment="kpoint 23">
       <r>  -14.6221    1.0000 </r>
       <r>  -14.1738    1.0000 </r>
       <r>  -12.0081    1.0000 </r>
       <r>  -11.4452    1.0000 </r>
       <r>   -7.3507    1.0000 </r>
       <r>   -7.1341    1.0000 </r>
       <r>   -5.1620    1.0000 </r>
       <r>   -5.0442    1.0000 </r>
       <r>   -4.1653    1.0000 </r>
       <r>   -4.0124    1.0000 </r>
       <r>   -1.1354    0.0000 </r>
       <r>   -0.9808    0.0000 </r>
       <r>    0.0186    0.0000 </r>
       <r>    0.1564    0.0000 </r>
       <r>    1.2594    0.0000 </r>
       <r>    1.6749    0.0000 </r>
      </set>
      <set comment="kpoint 24">
       <r>  -15.0850    1.0000 </r>
       <r>  -13.6884    1.0000 </r>
       <r>  -12.5015    1.0000 </r>
       <r>  -10.8432    1.0000 </r>
       <r>   -7.5583    1.0000 </r>
       <r>   -7.0394    1.0000 </r>
       <r>   -5.1655    1.0000 </r>
       <r>   -5.1329    1.0000 </r>
       <r>   -4.2657    1.0000 </r>
       <r>   -3.7779    1.0000 </r>
       <r>   -0.9668    0.0000 </r>
       <r>   -0.8177    0.0000 </r>
       <r>   -0.3291    0.0000 </r>
       <r>    0.4294    0.0000 </r>
       <r>    1.0566    0.0000 </r>
       <r>    2.1379    0.0000 </r>
      </set>
      <set comment="kpoint 25">
       <r>  -15.5122    1.0000 </r>
       <r>  -13.3082    1.0000 </r>
       <r>  -12.8426    1.0000 </r>
       <r>  -10.2059    1.0000 </r>
       <r>   -7.7263    1.0000 </r>
       <r>   -7.0594    1.0000 </r>
       <r>   -5.3161    1.0000 </r>
       <r>   -5.1916    1.0000 </r>
       <r>   -4.2592    1.0000 </r>
       <r>   -3.4922    1.0000 </r>
       <r>   -0.8636    0.0000 </r>
       <r>   -0.5386    0.0000 </r>
       <r>   -0.3589    0.0000 </r>
       <r>    0.3388    0.0000 </r>
       <r>    1.3209    0.0000 </r>
       <r>    2.5921    0.0000 </r>
      </set>
      <set comment="kpoint 26">
       <r>  -15.8978    1.0000 </r>
       <r>  -13.4826    1.0000 </r>
       <r>  -12.6058    1.0000 </r>
       <r>   -9.5468    1.0000 </r>
       <r>   -7.8095    1.0000 </r>
       <r>   -7.1662    1.0000 </r>
       <r>   -5.5483    1.0000 </r>
       <r>   -5.2699    1.0000 </r>
       <r>   -4.1256    1.0000 </r>
       <r>   -3.2000    1.0000 </r>
       <r>   -0.9761    0.0000 </r>
       <r>   -0.3691    0.0000 </r>
       <r>    0.0728    0.0000 </r>
       <r>    0.3444    0.0000 </r>
       <r>    1.7584    0.0000 </r>
       <r>    2.9988    0.0000 </r>
      </set>
      <set comment="kpoint 27">
       <r>  -16.2377    1.0000 </r>
       <r>  -13.8129    1.0000 </r>
       <r>  -12.2208    1.0000 </r>
       <r>   -8.8933    1.0000 </r>
       <r>   -7.7679    1.0000 </r>
       <r>   -7.3032    1.0000 </r>
       <r>   -5.7907    1.0000 </r>
       <r>   -5.3694    1.0000 </r>
       <r>   -3.9414    1.0000 </r>
       <r>   -2.9407    1.0000 </r>
       <r>   -0.9938    0.0000 </r>
       <r>   -0.4964    0.0000 </r>
       <r>    0.6564    0.0000 </r>
       <r>    0.7439    0.0000 </r>
       <r>    2.2079    0.0000 </r>
       <r>    3.2970    0.0000 </r>
      </set>
      <set comment="kpoint 28">
       <r>  -16.5291    1.0000 </r>
       <r>  -14.1091    1.0000 </r>
       <r>  -11.9064    1.0000 </r>
       <r>   -8.3160    1.0000 </r>
       <r>   -7.5737    1.0000 </r>
       <r>   -7.3992    1.0000 </r>
       <r>   -6.0179    1.0000 </r>
       <r>   -5.4223    1.0000 </r>
       <r>   -3.8018    1.0000 </r>
       <r>   -2.7391    1.0000 </r>
       <r>   -0.8300    0.0000 </r>
       <r>   -0.6913    0.0000 </r>
       <r>    1.2900    0.0000 </r>
       <r>    1.2972    0.0000 </r>
       <r>    2.5772    0.0000 </r>
       <r>    3.0871    0.0000 </r>
      </set>
      <set comment="kpoint 29">
       <r>  -16.7700    1.0000 </r>
       <r>  -14.3554    1.0000 </r>
       <r>  -11.6893    1.0000 </r>
       <r>   -8.0006    1.0000 </r>
       <r>   -7.3146    1.0000 </r>
       <r>   -7.2286    1.0000 </r>
       <r>   -6.2116    1.0000 </r>
       <r>   -5.3480    1.0000 </r>
       <r>   -3.7438    1.0000 </r>
       <r>   -2.6030    1.0000 </r>
       <r>   -0.8650    0.0000 </r>
       <r>   -0.4870    0.0000 </r>
       <r>    1.8367    0.0000 </r>
       <r>    1.8443    0.0000 </r>
       <r>    2.3346    0.0000 </r>
       <r>    2.6739    0.0000 </r>
      </set>
      <set comment="kpoint 30">
       <r>  -16.9590    1.0000 </r>
       <r>  -14.5483    1.0000 </r>
       <r>  -11.5596    1.0000 </r>
       <r>   -7.9838    1.0000 </r>
       <r>   -7.0863    1.0000 </r>
       <r>   -6.7964    1.0000 </r>
       <r>   -6.3363    1.0000 </r>
       <r>   -5.0724    1.0000 </r>
       <r>   -3.7482    1.0000 </r>
       <r>   -2.5250    1.0000 </r>
       <r>   -1.0016    0.0000 </r>
       <r>   -0.0245    0.0000 </r>
       <r>    1.2223    0.0000 </r>
       <r>    1.8022    0.0000 </r>
       <r>    2.3687    0.0000 </r>
       <r>    2.6066    0.0000 </r>
      </set>
      <set comment="kpoint 31">
       <r>  -17.0950    1.0000 </r>
       <r>  -14.6863    1.0000 </r>
       <r>  -11.4912    1.0000 </r>
       <r>   -8.0368    1.0000 </r>
       <r>   -6.9456    1.0000 </r>
       <r>   -6.6036    1.0000 </r>
       <r>   -6.1373    1.0000 </r>
       <r>   -4.6301    1.0000 </r>
       <r>   -3.7804    1.0000 </r>
       <r>   -2.4898    1.0000 </r>
       <r>   -1.0996    0.0000 </r>
       <r>    0.3150    0.0000 </r>
       <r>    0.4639    0.0000 </r>
       <r>    1.1833    0.0000 </r>
       <r>    2.3033    0.0000 </r>
       <r>    2.4546    0.0000 </r>
      </set>
      <set comment="kpoint 32">
       <r>  -17.1774    1.0000 </r>
       <r>  -14.7688    1.0000 </r>
       <r>  -11.4592    1.0000 </r>
       <r>   -8.0781    1.0000 </r>
       <r>   -6.8924    1.0000 </r>
       <r>   -6.6485    1.0000 </r>
       <r>   -5.7376    1.0000 </r>
       <r>   -4.1998    1.0000 </r>
       <r>   -3.8153    1.0000 </r>
       <r>   -2.4809    1.0000 </r>
       <r>   -1.1611    0.0000 </r>
       <r>   -0.3442    0.0000 </r>
       <r>    0.5633    0.0000 </r>
       <r>    0.9011    0.0000 </r>
       <r>    2.2251    0.0000 </r>
       <r>    2.3622    0.0000 </r>
      </set>
      <set comment="kpoint 33">
       <r>  -17.1419    1.0000 </r>
       <r>  -14.8856    1.0000 </r>
       <r>  -11.4606    1.0000 </r>
       <r>   -8.4442    1.0000 </r>
       <r>   -6.6852    1.0000 </r>
       <r>   -6.4155    1.0000 </r>
       <r>   -5.5068    1.0000 </r>
       <r>   -4.0654    1.0000 </r>
       <r>   -3.5801    1.0000 </r>
       <r>   -2.8753    1.0000 </r>
       <r>   -0.8291    0.0000 </r>
       <r>   -0.5465    0.0000 </r>
       <r>    0.2067    0.0000 </r>
       <r>    1.0255    0.0000 </r>
       <r>    2.3632    0.0000 </r>
       <r>    2.4202    0.0000 </r>
      </set>
      <set comment="kpoint 34">
       <r>  -17.1178    1.0000 </r>
       <r>  -14.8548    1.0000 </r>
       <r>  -11.4581    1.0000 </r>
       <r>   -8.4235    1.0000 </r>
       <r>   -6.6863    1.0000 </r>
       <r>   -6.4625    1.0000 </r>
       <r>   -5.6179    1.0000 </r>
       <r>   -4.2869    1.0000 </r>
       <r>   -3.5930    1.0000 </r>
       <r>   -2.8575    1.0000 </r>
       <r>   -0.8188    0.0000 </r>
       <r>   -0.3209    0.0000 </r>
       <r>    0.3870    0.0000 </r>
       <r>    0.9655    0.0000 </r>
       <r>    2.3816    0.0000 </r>
       <r>    2.4456    0.0000 </r>
      </set>
      <set comment="kpoint 35">
       <r>  -17.0399    1.0000 </r>
       <r>  -14.7690    1.0000 </r>
       <r>  -11.4692    1.0000 </r>
       <r>   -8.3826    1.0000 </r>
       <r>   -6.7089    1.0000 </r>
       <r>   -6.6037    1.0000 </r>
       <r>   -5.8550    1.0000 </r>
       <r>   -4.7571    1.0000 </r>
       <r>   -3.6106    1.0000 </r>
       <r>   -2.8356    1.0000 </r>
       <r>   -0.7791    0.0000 </r>
       <r>    0.3161    0.0000 </r>
       <r>    0.3420    0.0000 </r>
       <r>    1.2753    0.0000 </r>
       <r>    2.4399    0.0000 </r>
       <r>    2.5305    0.0000 </r>
      </set>
      <set comment="kpoint 36">
       <r>  -16.9086    1.0000 </r>
       <r>  -14.6286    1.0000 </r>
       <r>  -11.5104    1.0000 </r>
       <r>   -8.3437    1.0000 </r>
       <r>   -6.9432    1.0000 </r>
       <r>   -6.8050    1.0000 </r>
       <r>   -5.9488    1.0000 </r>
       <r>   -5.2273    1.0000 </r>
       <r>   -3.6501    1.0000 </r>
       <r>   -2.8277    1.0000 </r>
       <r>   -0.7112    0.0000 </r>
       <r>   -0.0459    0.0000 </r>
       <r>    1.1967    0.0000 </r>
       <r>    1.9540    0.0000 </r>
       <r>    1.9615    0.0000 </r>
       <r>    2.5554    0.0000 </r>
      </set>
      <set comment="kpoint 37">
       <r>  -16.7246    1.0000 </r>
       <r>  -14.4345    1.0000 </r>
       <r>  -11.6083    1.0000 </r>
       <r>   -8.3708    1.0000 </r>
       <r>   -7.3591    1.0000 </r>
       <r>   -7.0163    1.0000 </r>
       <r>   -5.8965    1.0000 </r>
       <r>   -5.5010    1.0000 </r>
       <r>   -3.7331    1.0000 </r>
       <r>   -2.8517    1.0000 </r>
       <r>   -0.6133    0.0000 </r>
       <r>   -0.4193    0.0000 </r>
       <r>    1.2690    0.0000 </r>
       <r>    2.2887    0.0000 </r>
       <r>    2.3153    0.0000 </r>
       <r>    2.6841    0.0000 </r>
      </set>
      <set comment="kpoint 38">
       <r>  -16.4891    1.0000 </r>
       <r>  -14.1891    1.0000 </r>
       <r>  -11.7933    1.0000 </r>
       <r>   -8.5971    1.0000 </r>
       <r>   -7.6954    1.0000 </r>
       <r>   -7.2010    1.0000 </r>
       <r>   -5.7779    1.0000 </r>
       <r>   -5.5576    1.0000 </r>
       <r>   -3.8759    1.0000 </r>
       <r>   -2.9260    1.0000 </r>
       <r>   -0.6731    0.0000 </r>
       <r>   -0.4859    0.0000 </r>
       <r>    0.7042    0.0000 </r>
       <r>    1.8468    0.0000 </r>
       <r>    2.7699    0.0000 </r>
       <r>    3.0757    0.0000 </r>
      </set>
      <set comment="kpoint 39">
       <r>  -16.2036    1.0000 </r>
       <r>  -13.8977    1.0000 </r>
       <r>  -12.0792    1.0000 </r>
       <r>   -9.0728    1.0000 </r>
       <r>   -7.8826    1.0000 </r>
       <r>   -7.2093    1.0000 </r>
       <r>   -5.6326    1.0000 </r>
       <r>   -5.5098    1.0000 </r>
       <r>   -4.0590    1.0000 </r>
       <r>   -3.0603    1.0000 </r>
       <r>   -0.7676    0.0000 </r>
       <r>   -0.3604    0.0000 </r>
       <r>    0.2234    0.0000 </r>
       <r>    1.2074    0.0000 </r>
       <r>    2.6950    0.0000 </r>
       <r>    3.0644    0.0000 </r>
      </set>
      <set comment="kpoint 40">
       <r>  -15.8705    1.0000 </r>
       <r>  -13.5811    1.0000 </r>
       <r>  -12.4370    1.0000 </r>
       <r>   -9.6751    1.0000 </r>
       <r>   -7.9109    1.0000 </r>
       <r>   -7.1159    1.0000 </r>
       <r>   -5.4921    1.0000 </r>
       <r>   -5.4594    1.0000 </r>
       <r>   -4.2062    1.0000 </r>
       <r>   -3.2438    1.0000 </r>
       <r>   -0.7127    0.0000 </r>
       <r>   -0.4877    0.0000 </r>
       <r>    0.1100    0.0000 </r>
       <r>    0.5794    0.0000 </r>
       <r>    2.4178    0.0000 </r>
       <r>    2.7885    0.0000 </r>
      </set>
      <set comment="kpoint 41">
       <r>  -15.4931    1.0000 </r>
       <r>  -13.3745    1.0000 </r>
       <r>  -12.7007    1.0000 </r>
       <r>  -10.3065    1.0000 </r>
       <r>   -7.8077    1.0000 </r>
       <r>   -7.0330    1.0000 </r>
       <r>   -5.4550    1.0000 </r>
       <r>   -5.3940    1.0000 </r>
       <r>   -4.2272    1.0000 </r>
       <r>   -3.4430    1.0000 </r>
       <r>   -0.8267    0.0000 </r>
       <r>   -0.5617    0.0000 </r>
       <r>    0.0420    0.0000 </r>
       <r>    0.3430    0.0000 </r>
       <r>    2.0215    0.0000 </r>
       <r>    2.4064    0.0000 </r>
      </set>
      <set comment="kpoint 42">
       <r>  -15.0767    1.0000 </r>
       <r>  -13.6307    1.0000 </r>
       <r>  -12.4837    1.0000 </r>
       <r>  -10.9235    1.0000 </r>
       <r>   -7.6147    1.0000 </r>
       <r>   -7.0523    1.0000 </r>
       <r>   -5.4387    1.0000 </r>
       <r>   -5.3747    1.0000 </r>
       <r>   -4.1210    1.0000 </r>
       <r>   -3.6230    1.0000 </r>
       <r>   -1.0899    0.0000 </r>
       <r>   -0.5906    0.0000 </r>
       <r>   -0.1256    0.0000 </r>
       <r>    0.6477    0.0000 </r>
       <r>    1.5889    0.0000 </r>
       <r>    1.9943    0.0000 </r>
[...]
       <r>    3.2107    0.0000 </r>
       <r>    3.4969    0.0000 </r>
      </set>
      <set comment="kpoint 153">
       <r>  -15.2900    1.0000 </r>
       <r>  -15.1492    1.0000 </r>
       <r>  -10.9337    1.0000 </r>
       <r>  -10.5644    1.0000 </r>
       <r>   -7.9228    1.0000 </r>
       <r>   -7.7830    1.0000 </r>
       <r>   -5.3150    1.0000 </r>
       <r>   -4.9659    1.0000 </r>
       <r>   -3.8158    1.0000 </r>
       <r>   -3.7646    1.0000 </r>
       <r>    0.3815    0.0000 </r>
       <r>    0.5898    0.0000 </r>
       <r>    1.0572    0.0000 </r>
       <r>    1.4965    0.0000 </r>
       <r>    3.2387    0.0000 </r>
       <r>    3.4200    0.0000 </r>
      </set>
      <set comment="kpoint 154">
       <r>  -15.5706    1.0000 </r>
       <r>  -15.4049    1.0000 </r>
       <r>  -10.7704    1.0000 </r>
       <r>  -10.4220    1.0000 </r>
       <r>   -7.6218    1.0000 </r>
       <r>   -7.4221    1.0000 </r>
       <r>   -5.1591    1.0000 </r>
       <r>   -4.8382    1.0000 </r>
       <r>   -3.7285    1.0000 </r>
       <r>   -3.6930    1.0000 </r>
       <r>    0.3819    0.0000 </r>
       <r>    0.5270    0.0000 </r>
       <r>    1.1819    0.0000 </r>
       <r>    1.6025    0.0000 </r>
       <r>    3.0238    0.0000 </r>
       <r>    3.3216    0.0000 </r>
      </set>
      <set comment="kpoint 155">
       <r>  -15.8071    1.0000 </r>
       <r>  -15.6202    1.0000 </r>
       <r>  -10.7232    1.0000 </r>
       <r>  -10.3978    1.0000 </r>
       <r>   -7.1210    1.0000 </r>
       <r>   -6.8663    1.0000 </r>
       <r>   -5.1538    1.0000 </r>
       <r>   -4.8469    1.0000 </r>
       <r>   -3.5677    1.0000 </r>
       <r>   -3.5349    1.0000 </r>
       <r>    0.4822    0.0000 </r>
       <r>    0.5238    0.0000 </r>
       <r>    1.2122    0.0000 </r>
       <r>    1.5994    0.0000 </r>
       <r>    2.4431    0.0000 </r>
       <r>    2.7441    0.0000 </r>
      </set>
      <set comment="kpoint 156">
       <r>  -15.9957    1.0000 </r>
       <r>  -15.7895    1.0000 </r>
       <r>  -10.7410    1.0000 </r>
       <r>  -10.4296    1.0000 </r>
       <r>   -6.4933    1.0000 </r>
       <r>   -6.2018    1.0000 </r>
       <r>   -5.2133    1.0000 </r>
       <r>   -4.9060    1.0000 </r>
       <r>   -3.4900    1.0000 </r>
       <r>   -3.3491    1.0000 </r>
       <r>    0.5398    0.0000 </r>
       <r>    0.6378    0.0000 </r>
       <r>    1.1565    0.0000 </r>
       <r>    1.4391    0.0000 </r>
       <r>    1.8526    0.0000 </r>
       <r>    1.9715    0.0000 </r>
      </set>
      <set comment="kpoint 157">
       <r>  -16.1340    1.0000 </r>
       <r>  -15.9098    1.0000 </r>
       <r>  -10.7793    1.0000 </r>
       <r>  -10.4729    1.0000 </r>
       <r>   -5.8203    1.0000 </r>
       <r>   -5.5298    1.0000 </r>
       <r>   -5.2676    1.0000 </r>
       <r>   -4.9653    1.0000 </r>
       <r>   -3.5141    1.0000 </r>
       <r>   -3.2548    1.0000 </r>
       <r>    0.3386    0.0000 </r>
       <r>    0.5182    0.0000 </r>
       <r>    1.1536    0.0000 </r>
       <r>    1.1918    0.0000 </r>
       <r>    1.5065    0.0000 </r>
       <r>    1.6524    0.0000 </r>
      </set>
      <set comment="kpoint 158">
       <r>  -16.2208    1.0000 </r>
       <r>  -15.9792    1.0000 </r>
       <r>  -10.8117    1.0000 </r>
       <r>  -10.5042    1.0000 </r>
       <r>   -5.3511    1.0000 </r>
       <r>   -5.2075    1.0000 </r>
       <r>   -5.0033    1.0000 </r>
       <r>   -4.9182    1.0000 </r>
       <r>   -3.6507    1.0000 </r>
       <r>   -3.2749    1.0000 </r>
       <r>   -0.0525    0.0000 </r>
       <r>    0.0812    0.0000 </r>
       <r>    1.2130    0.0000 </r>
       <r>    1.2296    0.0000 </r>
       <r>    1.4748    0.0000 </r>
       <r>    1.5782    0.0000 </r>
      </set>
     </set>
    </set>
   </array>
  </eigenvalues>
  <separator name="orbital magnetization" >
   <v name="MAGDIPOLOUT">      0.00000000      0.00000000      0.00000000</v>
  </separator>
  <dos>
   <i name="efermi">     -2.18856711 </i>
   <total>
    <array>
     <dimension dim="1">gridpoints</dimension>
     <dimension dim="2">spin</dimension>
     <field>energy</field>
     <field>total</field>
     <field>integrated</field>
     <set>
      <set comment="spin 1">
       <r>   -18.2758     0.0000     0.0000 </r>
       <r>   -18.1989     0.0000     0.0000 </r>
       <r>   -18.1220     0.0000     0.0000 </r>
       <r>   -18.0451     0.0000     0.0000 </r>
       <r>   -17.9683     0.0000     0.0000 </r>
       <r>   -17.8914     0.0000     0.0000 </r>
       <r>   -17.8145     0.0000     0.0000 </r>
       <r>   -17.7376     0.0000     0.0000 </r>
       <r>   -17.6607     0.0000     0.0000 </r>
       <r>   -17.5839     0.0000     0.0000 </r>
       <r>   -17.5070     0.0000     0.0000 </r>
       <r>   -17.4301     0.0000     0.0000 </r>
       <r>   -17.3532     0.0000     0.0000 </r>
       <r>   -17.2763     0.0000     0.0000 </r>
       <r>   -17.1994     0.3037     0.0233 </r>
       <r>   -17.1226     0.7708     0.0826 </r>
       <r>   -17.0457     0.7783     0.1424 </r>
       <r>   -16.9688     0.9701     0.2170 </r>
       <r>   -16.8919     0.8749     0.2843 </r>
       <r>   -16.8150     0.5996     0.3304 </r>
       <r>   -16.7382     1.0995     0.4149 </r>
       <r>   -16.6613     0.8888     0.4833 </r>
       <r>   -16.5844     0.7964     0.5445 </r>
       <r>   -16.5075     0.6756     0.5964 </r>
       <r>   -16.4306     1.3708     0.7018 </r>
       <r>   -16.3538     0.5895     0.7471 </r>
       <r>   -16.2769     0.4845     0.7844 </r>
       <r>   -16.2000     1.6274     0.9095 </r>
       <r>   -16.1231     0.6647     0.9606 </r>
       <r>   -16.0462     0.7767     1.0203 </r>
       <r>   -15.9694     0.9851     1.0960 </r>
       <r>   -15.8925     1.0273     1.1750 </r>
       <r>   -15.8156     0.9771     1.2501 </r>
       <r>   -15.7387     0.8735     1.3173 </r>
       <r>   -15.6618     0.9288     1.3887 </r>
       <r>   -15.5850     0.9165     1.4592 </r>
       <r>   -15.5081     1.2179     1.5528 </r>
       <r>   -15.4312     1.1178     1.6387 </r>
       <r>   -15.3543     1.0737     1.7213 </r>
       <r>   -15.2774     1.0769     1.8041 </r>
       <r>   -15.2006     0.9121     1.8742 </r>
       <r>   -15.1237     1.0744     1.9568 </r>
       <r>   -15.0468     1.2976     2.0566 </r>
       <r>   -14.9699     1.7296     2.1895 </r>
       <r>   -14.8930     0.9453     2.2622 </r>
       <r>   -14.8162     1.2902     2.3614 </r>
       <r>   -14.7393     2.2534     2.5346 </r>
       <r>   -14.6624     0.7261     2.5905 </r>
       <r>   -14.5855     2.3057     2.7677 </r>
       <r>   -14.5086     1.2997     2.8676 </r>
       <r>   -14.4318     1.1418     2.9554 </r>
       <r>   -14.3549     1.1646     3.0450 </r>
       <r>   -14.2780     1.2779     3.1432 </r>
       <r>   -14.2011     0.7842     3.2035 </r>
       <r>   -14.1242     2.1368     3.3678 </r>
       <r>   -14.0474     1.4571     3.4798 </r>
       <r>   -13.9705     0.8413     3.5445 </r>
       <r>   -13.8936     1.2760     3.6426 </r>
       <r>   -13.8167     0.5227     3.6828 </r>
       <r>   -13.7398     0.9913     3.7590 </r>
       <r>   -13.6630     0.8026     3.8207 </r>
       <r>   -13.5861     0.7423     3.8778 </r>
       <r>   -13.5092     0.3008     3.9009 </r>
       <r>   -13.4323     0.4146     3.9328 </r>
       <r>   -13.3554     0.3643     3.9608 </r>
       <r>   -13.2786     0.1771     3.9744 </r>
       <r>   -13.2017     0.1380     3.9850 </r>
       <r>   -13.1248     0.1925     3.9998 </r>
       <r>   -13.0479     0.0027     4.0000 </r>
       <r>   -12.9710     0.0938     4.0072 </r>
       <r>   -12.8942     0.1274     4.0170 </r>
       <r>   -12.8173     0.2682     4.0376 </r>
       <r>   -12.7404     0.0065     4.0381 </r>
       <r>   -12.6635     0.3930     4.0683 </r>
       <r>   -12.5866     0.3899     4.0983 </r>
       <r>   -12.5097     0.3024     4.1216 </r>
       <r>   -12.4329     1.2605     4.2185 </r>
       <r>   -12.3560     0.3528     4.2456 </r>
       <r>   -12.2791     0.4506     4.2802 </r>
       <r>   -12.2022     1.1571     4.3692 </r>
       <r>   -12.1253     0.5301     4.4099 </r>
       <r>   -12.0485     2.0261     4.5657 </r>
       <r>   -11.9716     1.7074     4.6970 </r>
       <r>   -11.8947     0.9755     4.7720 </r>
       <r>   -11.8178     0.8625     4.8383 </r>
       <r>   -11.7409     1.0243     4.9170 </r>
       <r>   -11.6641     1.4187     5.0261 </r>
       <r>   -11.5872     0.8562     5.0919 </r>
       <r>   -11.5103     2.1461     5.2569 </r>
       <r>   -11.4334     4.5882     5.6097 </r>
       <r>   -11.3565     1.7201     5.7419 </r>
       <r>   -11.2797     0.8279     5.8056 </r>
       <r>   -11.2028     1.9577     5.9561 </r>
       <r>   -11.1259     0.6177     6.0036 </r>
       <r>   -11.0490     1.0464     6.0840 </r>
       <r>   -10.9721     1.5068     6.1999 </r>
       <r>   -10.8953     0.6470     6.2496 </r>
       <r>   -10.8184     1.2290     6.3441 </r>
       <r>   -10.7415     1.2509     6.4403 </r>
       <r>   -10.6646     0.5517     6.4827 </r>
       <r>   -10.5877     0.5023     6.5213 </r>
       <r>   -10.5109     0.6572     6.5718 </r>
       <r>   -10.4340     0.9697     6.6464 </r>
       <r>   -10.3571     1.0317     6.7257 </r>
       <r>   -10.2802     0.4942     6.7637 </r>
       <r>   -10.2033     0.7348     6.8202 </r>
       <r>   -10.1265     0.6731     6.8719 </r>
       <r>   -10.0496     1.1282     6.9586 </r>
       <r>    -9.9727     0.5799     7.0032 </r>
       <r>    -9.8958     0.2751     7.0244 </r>
       <r>    -9.8189     0.2495     7.0436 </r>
       <r>    -9.7421     0.3488     7.0704 </r>
       <r>    -9.6652     1.2245     7.1645 </r>
       <r>    -9.5883     0.9200     7.2353 </r>
       <r>    -9.5114     0.5636     7.2786 </r>
       <r>    -9.4345     0.0515     7.2825 </r>
       <r>    -9.3577     0.0018     7.2827 </r>
       <r>    -9.2808     1.1841     7.3737 </r>
       <r>    -9.2039     0.8341     7.4378 </r>
       <r>    -9.1270     0.1273     7.4476 </r>
       <r>    -9.0501     0.2434     7.4663 </r>
       <r>    -8.9733     0.0946     7.4736 </r>
       <r>    -8.8964     0.5256     7.5140 </r>
       <r>    -8.8195     1.1160     7.5998 </r>
       <r>    -8.7426     0.6599     7.6505 </r>
       <r>    -8.6657     0.0033     7.6508 </r>
       <r>    -8.5889     0.2469     7.6698 </r>
       <r>    -8.5120     0.0835     7.6762 </r>
       <r>    -8.4351     0.2647     7.6965 </r>
       <r>    -8.3582     1.0349     7.7761 </r>
       <r>    -8.2813     0.5156     7.8157 </r>
       <r>    -8.2045     0.0737     7.8214 </r>
       <r>    -8.1276     0.9616     7.8953 </r>
       <r>    -8.0507     2.4230     8.0816 </r>
       <r>    -7.9738     2.0732     8.2410 </r>
       <r>    -7.8969     1.6793     8.3701 </r>
       <r>    -7.8201     2.2034     8.5395 </r>
       <r>    -7.7432     2.5312     8.7341 </r>
       <r>    -7.6663     1.9569     8.8845 </r>
       <r>    -7.5894     1.6252     9.0095 </r>
       <r>    -7.5125     2.0061     9.1637 </r>
       <r>    -7.4356     1.6852     9.2933 </r>
       <r>    -7.3588     2.6483     9.4969 </r>
       <r>    -7.2819     2.3799     9.6799 </r>
       <r>    -7.2050     4.0548     9.9916 </r>
       <r>    -7.1281     2.8737    10.2125 </r>
       <r>    -7.0512     3.2361    10.4613 </r>
       <r>    -6.9744     1.8946    10.6070 </r>
       <r>    -6.8975     1.3214    10.7086 </r>
       <r>    -6.8206     1.4450    10.8197 </r>
       <r>    -6.7437     1.5166    10.9363 </r>
       <r>    -6.6668     2.0421    11.0932 </r>
       <r>    -6.5900     1.4894    11.2078 </r>
       <r>    -6.5131     1.5570    11.3275 </r>
       <r>    -6.4362     1.6797    11.4566 </r>
       <r>    -6.3593     1.1088    11.5418 </r>
       <r>    -6.2824     1.8279    11.6824 </r>
       <r>    -6.2056     1.6222    11.8071 </r>
       <r>    -6.1287     1.7267    11.9398 </r>
       <r>    -6.0518     1.6843    12.0693 </r>
       <r>    -5.9749     1.7669    12.2052 </r>
       <r>    -5.8980     2.0296    12.3612 </r>
       <r>    -5.8212     1.1833    12.4522 </r>
       <r>    -5.7443     2.1460    12.6171 </r>
       <r>    -5.6674     3.0392    12.8508 </r>
       <r>    -5.5905     3.8901    13.1499 </r>
       <r>    -5.5136     3.3312    13.4060 </r>
       <r>    -5.4368     4.3611    13.7413 </r>
       <r>    -5.3599     3.7075    14.0263 </r>
       <r>    -5.2830     2.9089    14.2499 </r>
       <r>    -5.2061     2.4572    14.4388 </r>
       <r>    -5.1292     3.3596    14.6971 </r>
       <r>    -5.0524     2.3108    14.8748 </r>
       <r>    -4.9755     2.4861    15.0659 </r>
       <r>    -4.8986     2.0717    15.2252 </r>
       <r>    -4.8217     1.5999    15.3482 </r>
       <r>    -4.7448     0.9096    15.4181 </r>
       <r>    -4.6680     1.3043    15.5184 </r>
       <r>    -4.5911     1.5038    15.6340 </r>
       <r>    -4.5142     1.7646    15.7697 </r>
       <r>    -4.4373     0.5135    15.8091 </r>
       <r>    -4.3604     0.9849    15.8849 </r>
       <r>    -4.2836     0.7649    15.9437 </r>
       <r>    -4.2067     1.9588    16.0943 </r>
       <r>    -4.1298     2.7323    16.3043 </r>
       <r>    -4.0529     2.4371    16.4917 </r>
       <r>    -3.9760     2.4870    16.6829 </r>
       <r>    -3.8992     2.7150    16.8916 </r>
       <r>    -3.8223     3.0913    17.1293 </r>
       <r>    -3.7454     4.6297    17.4852 </r>
       <r>    -3.6685     3.6552    17.7662 </r>
       <r>    -3.5916     3.4380    18.0305 </r>
       <r>    -3.5148     2.8105    18.2466 </r>
       <r>    -3.4379     3.8272    18.5408 </r>
       <r>    -3.3610     2.7992    18.7560 </r>
       <r>    -3.2841     3.1012    18.9945 </r>
       <r>    -3.2072     3.5271    19.2656 </r>
       <r>    -3.1304     1.4663    19.3784 </r>
       <r>    -3.0535     0.6831    19.4309 </r>
       <r>    -2.9766     0.5364    19.4721 </r>
       <r>    -2.8997     1.9795    19.6243 </r>
       <r>    -2.8228     1.7085    19.7556 </r>
       <r>    -2.7459     0.5062    19.7946 </r>
       <r>    -2.6691     0.2793    19.8160 </r>
       <r>    -2.5922     0.3023    19.8393 </r>
       <r>    -2.5153     0.3324    19.8648 </r>
       <r>    -2.4384     1.1646    19.9544 </r>
       <r>    -2.3615     0.0686    19.9596 </r>
       <r>    -2.2847     0.3076    19.9833 </r>
       <r>    -2.2078     0.2173    20.0000 </r>
       <r>    -2.1309     0.0000    20.0000 </r>
       <r>    -2.0540     0.0000    20.0000 </r>
       <r>    -1.9771     0.0000    20.0000 </r>
       <r>    -1.9003     0.0000    20.0000 </r>
       <r>    -1.8234     0.0000    20.0000 </r>
       <r>    -1.7465     0.0000    20.0000 </r>
       <r>    -1.6696     0.0000    20.0000 </r>
       <r>    -1.5927     0.0000    20.0000 </r>
       <r>    -1.5159     0.0000    20.0000 </r>
       <r>    -1.4390     0.0000    20.0000 </r>
       <r>    -1.3621     0.0941    20.0072 </r>
       <r>    -1.2852     0.1869    20.0216 </r>
       <r>    -1.2083     0.1718    20.0348 </r>
       <r>    -1.1315     1.2397    20.1301 </r>
       <r>    -1.0546     1.3175    20.2314 </r>
       <r>    -0.9777     1.5427    20.3500 </r>
       <r>    -0.9008     1.2020    20.4424 </r>
       <r>    -0.8239     2.6660    20.6474 </r>
       <r>    -0.7471     1.6746    20.7761 </r>
       <r>    -0.6702     1.3304    20.8784 </r>
       <r>    -0.5933     1.8172    21.0181 </r>
       <r>    -0.5164     2.6895    21.2249 </r>
       <r>    -0.4395     2.0954    21.3860 </r>
       <r>    -0.3627     2.2951    21.5624 </r>
       <r>    -0.2858     3.3053    21.8165 </r>
       <r>    -0.2089     1.7532    21.9513 </r>
       <r>    -0.1320     3.1610    22.1943 </r>
       <r>    -0.0551     2.3229    22.3729 </r>
       <r>     0.0217     3.6169    22.6510 </r>
       <r>     0.0986     3.2404    22.9001 </r>
       <r>     0.1755     3.5119    23.1701 </r>
       <r>     0.2524     2.9927    23.4002 </r>
       <r>     0.3293     3.1084    23.6392 </r>
       <r>     0.4061     5.6722    24.0753 </r>
       <r>     0.4830     4.5159    24.4224 </r>
       <r>     0.5599     3.7965    24.7143 </r>
       <r>     0.6368     3.7276    25.0009 </r>
       <r>     0.7137     3.3294    25.2569 </r>
       <r>     0.7905     2.6686    25.4620 </r>
       <r>     0.8674     4.5913    25.8150 </r>
       <r>     0.9443     2.2696    25.9895 </r>
       <r>     1.0212     3.3163    26.2444 </r>
       <r>     1.0981     3.0367    26.4779 </r>
       <r>     1.1749     2.5668    26.6752 </r>
       <r>     1.2518     3.6454    26.9555 </r>
       <r>     1.3287     2.9610    27.1831 </r>
       <r>     1.4056     1.6810    27.3124 </r>
       <r>     1.4825     1.9064    27.4589 </r>
       <r>     1.5593     3.1367    27.7001 </r>
       <r>     1.6362     2.2760    27.8751 </r>
       <r>     1.7131     2.3413    28.0551 </r>
       <r>     1.7900     1.4487    28.1665 </r>
       <r>     1.8669     3.0353    28.3998 </r>
       <r>     1.9437     2.5340    28.5946 </r>
       <r>     2.0206     2.6985    28.8021 </r>
       <r>     2.0975     1.3722    28.9076 </r>
       <r>     2.1744     2.1680    29.0743 </r>
       <r>     2.2513     2.7828    29.2882 </r>
       <r>     2.3282     2.4481    29.4764 </r>
       <r>     2.4050     2.3073    29.6538 </r>
       <r>     2.4819     3.9354    29.9564 </r>
       <r>     2.5588     2.2251    30.1274 </r>
       <r>     2.6357     3.9584    30.4317 </r>
       <r>     2.7126     3.1113    30.6709 </r>
       <r>     2.7894     1.9800    30.8232 </r>
       <r>     2.8663     2.4120    31.0086 </r>
       <r>     2.9432     2.2280    31.1799 </r>
       <r>     3.0201     1.5939    31.3024 </r>
       <r>     3.0970     1.7622    31.4379 </r>
       <r>     3.1738     1.2681    31.5354 </r>
       <r>     3.2507     1.7327    31.6686 </r>
       <r>     3.3276     2.3636    31.8503 </r>
       <r>     3.4045     0.3272    31.8755 </r>
       <r>     3.4814     0.5334    31.9165 </r>
       <r>     3.5582     0.5904    31.9619 </r>
       <r>     3.6351     0.2883    31.9840 </r>
       <r>     3.7120     0.0465    31.9876 </r>
       <r>     3.7889     0.1612    32.0000 </r>
       <r>     3.8658     0.0000    32.0000 </r>
       <r>     3.9426     0.0000    32.0000 </r>
       <r>     4.0195     0.0000    32.0000 </r>
       <r>     4.0964     0.0000    32.0000 </r>
       <r>     4.1733     0.0000    32.0000 </r>
       <r>     4.2502     0.0000    32.0000 </r>
       <r>     4.3270     0.0000    32.0000 </r>
       <r>     4.4039     0.0000    32.0000 </r>
       <r>     4.4808     0.0000    32.0000 </r>
       <r>     4.5577     0.0000    32.0000 </r>
       <r>     4.6346     0.0000    32.0000 </r>
       <r>     4.7114     0.0000    32.0000 </r>
       <r>     4.7883     0.0000    32.0000 </r>
      </set>
     </set>
    </array>
   </total>
  </dos>
 </calculation>
 <structure name="finalpos" >
  <crystal>
   <varray name="basis" >
    <v>       3.29683300       0.04946400       0.00000000 </v>
    <v>       0.06935800       4.62283100      -0.00005300 </v>
    <v>       0.00000000       0.00000000      20.02439000 </v>
   </varray>
   <i name="volume">    305.11705844 </i>
   <varray name="rec_basis" >
    <v>       0.30338969      -0.00455186       0.00000000 </v>
    <v>      -0.00324625       0.21636637       0.00000000 </v>
    <v>      -0.00000001       0.00000057       0.04993910 </v>
   </varray>
  </crystal>
  <varray name="positions" >
   <v>       0.49424934       0.91100351       0.55251598 </v>
   <v>       0.50575066       0.08899649       0.44748402 </v>
   <v>      -0.00575058       0.41099901       0.44748402 </v>
   <v>       0.00575058       0.58900099       0.55251598 </v>
  </varray>
 </structure>
</modeling>
