<?xml version="1.0" encoding="ISO-8859-1"?>
<modeling>
 <generator>
  <i name="program" type="string">vasp </i>
  <i name="version" type="string">5.4.1  </i>
  <i name="subversion" type="string">24Jun15 (build Nov 20 2020 10:29:34) complex                          parallel </i>
  <i name="platform" type="string">IFC91_ompi </i>
  <i name="date" type="string">2021 09 09 </i>
  <i name="time" type="string">14:51:42 </i>
 </generator>
 <incar>
  <i type="string" name="PREC">a</i>
  <i type="string" name="ALGO"> Normal</i>
  <i type="int" name="ISPIN">     1</i>
  <i type="int" name="ICHARG">     2</i>
  <i type="int" name="NELM">   250</i>
  <i type="int" name="NELMDL">    -5</i>
  <i type="int" name="NELMIN">     6</i>
  <i type="int" name="IBRION">     2</i>
  <i name="EDIFF">      0.00001000</i>
  <i name="EDIFFG">     -0.01000000</i>
  <i type="int" name="NSW">   200</i>
  <i type="int" name="ISIF">     2</i>
  <i name="ENCUT">    520.00000000</i>
  <i name="POTIM">      0.30000000</i>
  <i type="logical" name="LREAL"> F  </i>
  <i type="int" name="ISMEAR">     0</i>
  <i name="SIGMA">      0.02000000</i>
  <i type="logical" name="LWAVE"> F  </i>
  <i type="logical" name="LCHARG"> F  </i>
  <i type="logical" name="LAECHG"> F  </i>
  <v type="int" name="KPOINT_BSE">    -1     0     0     0</v>
  <i type="int" name="NELM">   250</i>
 </incar>
 <kpoints>
  <generation param="Gamma">
   <v type="int" name="divisions">      21       15        1 </v>
   <v name="usershift">      0.00000000       0.00000000       0.00000000 </v>
   <v name="genvec1">      0.04761905       0.00000000       0.00000000 </v>
   <v name="genvec2">     -0.00000000       0.06666667       0.00000000 </v>
   <v name="genvec3">      0.00000000       0.00000000       1.00000000 </v>
   <v name="shift">      0.00000000       0.00000000       0.00000000 </v>
  </generation>
  <varray name="kpointlist" >
   <v>       0.00000000       0.00000000       0.00000000 </v>
   <v>       0.04761905       0.00000000       0.00000000 </v>
   <v>       0.09523810       0.00000000       0.00000000 </v>
   <v>       0.14285714       0.00000000       0.00000000 </v>
   <v>       0.19047619       0.00000000       0.00000000 </v>
   <v>       0.23809524       0.00000000       0.00000000 </v>
   <v>       0.28571429       0.00000000       0.00000000 </v>
   <v>       0.33333333      -0.00000000       0.00000000 </v>
   <v>       0.38095238       0.00000000       0.00000000 </v>
   <v>       0.42857143       0.00000000       0.00000000 </v>
   <v>       0.47619048       0.00000000       0.00000000 </v>
   <v>       0.00000000       0.06666667       0.00000000 </v>
   <v>       0.04761905       0.06666667       0.00000000 </v>
   <v>       0.09523810       0.06666667       0.00000000 </v>
   <v>       0.14285714       0.06666667       0.00000000 </v>
   <v>       0.19047619       0.06666667       0.00000000 </v>
   <v>       0.23809524       0.06666667       0.00000000 </v>
   <v>       0.28571429       0.06666667       0.00000000 </v>
   <v>       0.33333333       0.06666667       0.00000000 </v>
   <v>       0.38095238       0.06666667       0.00000000 </v>
   <v>       0.42857143       0.06666667       0.00000000 </v>
   <v>       0.47619048       0.06666667       0.00000000 </v>
   <v>      -0.47619048       0.06666667       0.00000000 </v>
   <v>      -0.42857143       0.06666667       0.00000000 </v>
   <v>      -0.38095238       0.06666667       0.00000000 </v>
   <v>      -0.33333333       0.06666667       0.00000000 </v>
   <v>      -0.28571429       0.06666667       0.00000000 </v>
   <v>      -0.23809524       0.06666667       0.00000000 </v>
   <v>      -0.19047619       0.06666667       0.00000000 </v>
   <v>      -0.14285714       0.06666667       0.00000000 </v>
   <v>      -0.09523810       0.06666667       0.00000000 </v>
   <v>      -0.04761905       0.06666667       0.00000000 </v>
   <v>       0.00000000       0.13333333       0.00000000 </v>
   <v>       0.04761905       0.13333333       0.00000000 </v>
   <v>       0.09523810       0.13333333       0.00000000 </v>
   <v>       0.14285714       0.13333333       0.00000000 </v>
   <v>       0.19047619       0.13333333       0.00000000 </v>
   <v>       0.23809524       0.13333333       0.00000000 </v>
   <v>       0.28571429       0.13333333       0.00000000 </v>
   <v>       0.33333333       0.13333333       0.00000000 </v>
   <v>       0.38095238       0.13333333       0.00000000 </v>
   <v>       0.42857143       0.13333333       0.00000000 </v>
   <v>       0.47619048       0.13333333       0.00000000 </v>
   <v>      -0.47619048       0.13333333       0.00000000 </v>
   <v>      -0.42857143       0.13333333       0.00000000 </v>
   <v>      -0.38095238       0.13333333       0.00000000 </v>
   <v>      -0.33333333       0.13333333       0.00000000 </v>
   <v>      -0.28571429       0.13333333       0.00000000 </v>
   <v>      -0.23809524       0.13333333       0.00000000 </v>
   <v>      -0.19047619       0.13333333       0.00000000 </v>
   <v>      -0.14285714       0.13333333       0.00000000 </v>
   <v>      -0.09523810       0.13333333       0.00000000 </v>
   <v>      -0.04761905       0.13333333       0.00000000 </v>
   <v>       0.00000000       0.20000000       0.00000000 </v>
   <v>       0.04761905       0.20000000       0.00000000 </v>
   <v>       0.09523810       0.20000000       0.00000000 </v>
   <v>       0.14285714       0.20000000       0.00000000 </v>
   <v>       0.19047619       0.20000000       0.00000000 </v>
   <v>       0.23809524       0.20000000       0.00000000 </v>
   <v>       0.28571429       0.20000000       0.00000000 </v>
   <v>       0.33333333       0.20000000       0.00000000 </v>
   <v>       0.38095238       0.20000000       0.00000000 </v>
   <v>       0.42857143       0.20000000       0.00000000 </v>
   <v>       0.47619048       0.20000000       0.00000000 </v>
   <v>      -0.47619048       0.20000000       0.00000000 </v>
   <v>      -0.42857143       0.20000000       0.00000000 </v>
   <v>      -0.38095238       0.20000000       0.00000000 </v>
   <v>      -0.33333333       0.20000000       0.00000000 </v>
   <v>      -0.28571429       0.20000000       0.00000000 </v>
   <v>      -0.23809524       0.20000000       0.00000000 </v>
   <v>      -0.19047619       0.20000000       0.00000000 </v>
   <v>      -0.14285714       0.20000000       0.00000000 </v>
   <v>      -0.09523810       0.20000000       0.00000000 </v>
   <v>      -0.04761905       0.20000000       0.00000000 </v>
   <v>       0.00000000       0.26666667       0.00000000 </v>
   <v>       0.04761905       0.26666667       0.00000000 </v>
   <v>       0.09523810       0.26666667       0.00000000 </v>
   <v>       0.14285714       0.26666667       0.00000000 </v>
   <v>       0.19047619       0.26666667       0.00000000 </v>
   <v>       0.23809524       0.26666667       0.00000000 </v>
   <v>       0.28571429       0.26666667       0.00000000 </v>
   <v>       0.33333333       0.26666667       0.00000000 </v>
   <v>       0.38095238       0.26666667       0.00000000 </v>
   <v>       0.42857143       0.26666667       0.00000000 </v>
   <v>       0.47619048       0.26666667       0.00000000 </v>
   <v>      -0.47619048       0.26666667       0.00000000 </v>
   <v>      -0.42857143       0.26666667       0.00000000 </v>
   <v>      -0.38095238       0.26666667       0.00000000 </v>
   <v>      -0.33333333       0.26666667       0.00000000 </v>
   <v>      -0.28571429       0.26666667       0.00000000 </v>
   <v>      -0.23809524       0.26666667       0.00000000 </v>
   <v>      -0.19047619       0.26666667       0.00000000 </v>
   <v>      -0.14285714       0.26666667       0.00000000 </v>
   <v>      -0.09523810       0.26666667       0.00000000 </v>
   <v>      -0.04761905       0.26666667       0.00000000 </v>
   <v>       0.00000000       0.33333333       0.00000000 </v>
   <v>       0.04761905       0.33333333       0.00000000 </v>
   <v>       0.09523810       0.33333333       0.00000000 </v>
   <v>       0.14285714       0.33333333       0.00000000 </v>
   <v>       0.19047619       0.33333333       0.00000000 </v>
   <v>       0.23809524       0.33333333       0.00000000 </v>
   <v>       0.28571429       0.33333333       0.00000000 </v>
   <v>       0.33333333       0.33333333       0.00000000 </v>
   <v>       0.38095238       0.33333333       0.00000000 </v>
   <v>       0.42857143       0.33333333       0.00000000 </v>
   <v>       0.47619048       0.33333333       0.00000000 </v>
   <v>      -0.47619048       0.33333333       0.00000000 </v>
   <v>      -0.42857143       0.33333333       0.00000000 </v>
   <v>      -0.38095238       0.33333333       0.00000000 </v>
   <v>      -0.33333333       0.33333333       0.00000000 </v>
   <v>      -0.28571429       0.33333333       0.00000000 </v>
   <v>      -0.23809524       0.33333333       0.00000000 </v>
   <v>      -0.19047619       0.33333333       0.00000000 </v>
   <v>      -0.14285714       0.33333333       0.00000000 </v>
   <v>      -0.09523810       0.33333333       0.00000000 </v>
   <v>      -0.04761905       0.33333333       0.00000000 </v>
   <v>       0.00000000       0.40000000       0.00000000 </v>
   <v>       0.04761905       0.40000000       0.00000000 </v>
   <v>       0.09523810       0.40000000       0.00000000 </v>
   <v>       0.14285714       0.40000000       0.00000000 </v>
   <v>       0.19047619       0.40000000       0.00000000 </v>
   <v>       0.23809524       0.40000000       0.00000000 </v>
   <v>       0.28571429       0.40000000       0.00000000 </v>
   <v>       0.33333333       0.40000000       0.00000000 </v>
   <v>       0.38095238       0.40000000       0.00000000 </v>
   <v>       0.42857143       0.40000000       0.00000000 </v>
   <v>       0.47619048       0.40000000       0.00000000 </v>
   <v>      -0.47619048       0.40000000       0.00000000 </v>
   <v>      -0.42857143       0.40000000       0.00000000 </v>
   <v>      -0.38095238       0.40000000       0.00000000 </v>
   <v>      -0.33333333       0.40000000       0.00000000 </v>
   <v>      -0.28571429       0.40000000       0.00000000 </v>
   <v>      -0.23809524       0.40000000       0.00000000 </v>
   <v>      -0.19047619       0.40000000       0.00000000 </v>
   <v>      -0.14285714       0.40000000       0.00000000 </v>
   <v>      -0.09523810       0.40000000       0.00000000 </v>
   <v>      -0.04761905       0.40000000       0.00000000 </v>
   <v>      -0.00000000       0.46666667       0.00000000 </v>
   <v>       0.04761905       0.46666667       0.00000000 </v>
   <v>       0.09523810       0.46666667       0.00000000 </v>
   <v>       0.14285714       0.46666667       0.00000000 </v>
   <v>       0.19047619       0.46666667       0.00000000 </v>
   <v>       0.23809524       0.46666667       0.00000000 </v>
   <v>       0.28571429       0.46666667       0.00000000 </v>
   <v>       0.33333333       0.46666667       0.00000000 </v>
   <v>       0.38095238       0.46666667       0.00000000 </v>
   <v>       0.42857143       0.46666667       0.00000000 </v>
   <v>       0.47619048       0.46666667       0.00000000 </v>
   <v>      -0.47619048       0.46666667       0.00000000 </v>
   <v>      -0.42857143       0.46666667       0.00000000 </v>
   <v>      -0.38095238       0.46666667       0.00000000 </v>
   <v>      -0.33333333       0.46666667       0.00000000 </v>
   <v>      -0.28571429       0.46666667       0.00000000 </v>
   <v>      -0.23809524       0.46666667       0.00000000 </v>
   <v>      -0.19047619       0.46666667       0.00000000 </v>
   <v>      -0.14285714       0.46666667       0.00000000 </v>
   <v>      -0.09523810       0.46666667       0.00000000 </v>
   <v>      -0.04761905       0.46666667       0.00000000 </v>
  </varray>
  <varray name="weights" >
   <v>       0.00317460 </v>
   <v>       0.00634921 </v>
   <v>       0.00634921 </v>
   <v>       0.00634921 </v>
   <v>       0.00634921 </v>
   <v>       0.00634921 </v>
   <v>       0.00634921 </v>
   <v>       0.00634921 </v>
   <v>       0.00634921 </v>
   <v>       0.00634921 </v>
   <v>       0.00634921 </v>
   <v>       0.00634921 </v>
   <v>       0.00634921 </v>
   <v>       0.00634921 </v>
   <v>       0.00634921 </v>
   <v>       0.00634921 </v>
   <v>       0.00634921 </v>
   <v>       0.00634921 </v>
   <v>       0.00634921 </v>
   <v>       0.00634921 </v>
   <v>       0.00634921 </v>
   <v>       0.00634921 </v>
   <v>       0.00634921 </v>
   <v>       0.00634921 </v>
   <v>       0.00634921 </v>
   <v>       0.00634921 </v>
   <v>       0.00634921 </v>
   <v>       0.00634921 </v>
   <v>       0.00634921 </v>
   <v>       0.00634921 </v>
   <v>       0.00634921 </v>
   <v>       0.00634921 </v>
   <v>       0.00634921 </v>
   <v>       0.00634921 </v>
   <v>       0.00634921 </v>
   <v>       0.00634921 </v>
   <v>       0.00634921 </v>
   <v>       0.00634921 </v>
   <v>       0.00634921 </v>
   <v>       0.00634921 </v>
   <v>       0.00634921 </v>
   <v>       0.00634921 </v>
   <v>       0.00634921 </v>
   <v>       0.00634921 </v>
   <v>       0.00634921 </v>
   <v>       0.00634921 </v>
   <v>       0.00634921 </v>
   <v>       0.00634921 </v>
   <v>       0.00634921 </v>
   <v>       0.00634921 </v>
   <v>       0.00634921 </v>
   <v>       0.00634921 </v>
   <v>       0.00634921 </v>
   <v>       0.00634921 </v>
   <v>       0.00634921 </v>
   <v>       0.00634921 </v>
   <v>       0.00634921 </v>
   <v>       0.00634921 </v>
   <v>       0.00634921 </v>
   <v>       0.00634921 </v>
   <v>       0.00634921 </v>
   <v>       0.00634921 </v>
   <v>       0.00634921 </v>
   <v>       0.00634921 </v>
   <v>       0.00634921 </v>
   <v>       0.00634921 </v>
   <v>       0.00634921 </v>
   <v>       0.00634921 </v>
   <v>       0.00634921 </v>
   <v>       0.00634921 </v>
   <v>       0.00634921 </v>
   <v>       0.00634921 </v>
   <v>       0.00634921 </v>
   <v>       0.00634921 </v>
   <v>       0.00634921 </v>
   <v>       0.00634921 </v>
   <v>       0.00634921 </v>
   <v>       0.00634921 </v>
   <v>       0.00634921 </v>
   <v>       0.00634921 </v>
   <v>       0.00634921 </v>
   <v>       0.00634921 </v>
   <v>       0.00634921 </v>
   <v>       0.00634921 </v>
   <v>       0.00634921 </v>
   <v>       0.00634921 </v>
   <v>       0.00634921 </v>
   <v>       0.00634921 </v>
   <v>       0.00634921 </v>
   <v>       0.00634921 </v>
   <v>       0.00634921 </v>
   <v>       0.00634921 </v>
   <v>       0.00634921 </v>
   <v>       0.00634921 </v>
   <v>       0.00634921 </v>
   <v>       0.00634921 </v>
   <v>       0.00634921 </v>
   <v>       0.00634921 </v>
   <v>       0.00634921 </v>
   <v>       0.00634921 </v>
   <v>       0.00634921 </v>
   <v>       0.00634921 </v>
   <v>       0.00634921 </v>
   <v>       0.00634921 </v>
   <v>       0.00634921 </v>
   <v>       0.00634921 </v>
   <v>       0.00634921 </v>
   <v>       0.00634921 </v>
   <v>       0.00634921 </v>
   <v>       0.00634921 </v>
   <v>       0.00634921 </v>
   <v>       0.00634921 </v>
   <v>       0.00634921 </v>
   <v>       0.00634921 </v>
   <v>       0.00634921 </v>
   <v>       0.00634921 </v>
   <v>       0.00634921 </v>
   <v>       0.00634921 </v>
   <v>       0.00634921 </v>
   <v>       0.00634921 </v>
   <v>       0.00634921 </v>
   <v>       0.00634921 </v>
   <v>       0.00634921 </v>
   <v>       0.00634921 </v>
   <v>       0.00634921 </v>
   <v>       0.00634921 </v>
   <v>       0.00634921 </v>
   <v>       0.00634921 </v>
   <v>       0.00634921 </v>
   <v>       0.00634921 </v>
   <v>       0.00634921 </v>
   <v>       0.00634921 </v>
   <v>       0.00634921 </v>
   <v>       0.00634921 </v>
   <v>       0.00634921 </v>
   <v>       0.00634921 </v>
   <v>       0.00634921 </v>
   <v>       0.00634921 </v>
   <v>       0.00634921 </v>
   <v>       0.00634921 </v>
   <v>       0.00634921 </v>
   <v>       0.00634921 </v>
   <v>       0.00634921 </v>
   <v>       0.00634921 </v>
   <v>       0.00634921 </v>
   <v>       0.00634921 </v>
   <v>       0.00634921 </v>
   <v>       0.00634921 </v>
   <v>       0.00634921 </v>
   <v>       0.00634921 </v>
   <v>       0.00634921 </v>
   <v>       0.00634921 </v>
   <v>       0.00634921 </v>
   <v>       0.00634921 </v>
   <v>       0.00634921 </v>
   <v>       0.00634921 </v>
   <v>       0.00634921 </v>
   <v>       0.00634921 </v>
  </varray>
 </kpoints>
 <parameters>
  <separator name="general" >
   <i type="string" name="SYSTEM">unknown system</i>
   <i type="logical" name="LCOMPAT"> F  </i>
  </separator>
  <separator name="electronic" >
   <i type="string" name="PREC">a</i>
   <i name="ENMAX">    520.00000000</i>
   <i name="ENAUG">    342.92400000</i>
   <i name="EDIFF">      0.00001000</i>
   <i type="int" name="IALGO">    38</i>
   <i type="int" name="IWAVPR">    11</i>
   <i type="int" name="NBANDS">    16</i>
   <i name="NELECT">     20.00000000</i>
   <i type="int" name="TURBO">     0</i>
   <i type="int" name="IRESTART">     0</i>
   <i type="int" name="NREBOOT">     0</i>
   <i type="int" name="NMIN">     0</i>
   <i name="EREF">      0.00000000</i>
   <separator name="electronic smearing" >
    <i type="int" name="ISMEAR">     0</i>
    <i name="SIGMA">      0.02000000</i>
    <i name="KSPACING">      0.50000000</i>
    <i type="logical" name="KGAMMA"> T  </i>
   </separator>
   <separator name="electronic projectors" >
    <i type="logical" name="LREAL"> F  </i>
    <v name="ROPT">      0.00000000</v>
    <i type="int" name="LMAXPAW">  -100</i>
    <i type="int" name="LMAXMIX">     2</i>
    <i type="logical" name="NLSPLINE"> F  </i>
   </separator>
   <separator name="electronic startup" >
    <i type="int" name="ISTART">     0</i>
    <i type="int" name="ICHARG">     2</i>
    <i type="int" name="INIWAV">     1</i>
   </separator>
   <separator name="electronic spin" >
    <i type="int" name="ISPIN">     1</i>
    <i type="logical" name="LNONCOLLINEAR"> F  </i>
    <v name="MAGMOM">      1.00000000      1.00000000      1.00000000      1.00000000</v>
    <i name="NUPDOWN">     -1.00000000</i>
    <i type="logical" name="LSORBIT"> F  </i>
    <v name="SAXIS">      0.00000000      0.00000000      1.00000000</v>
    <i type="logical" name="LSPIRAL"> F  </i>
    <v name="QSPIRAL">      0.00000000      0.00000000      0.00000000</v>
    <i type="logical" name="LZEROZ"> F  </i>
   </separator>
   <separator name="electronic exchange-correlation" >
    <i type="logical" name="LASPH"> F  </i>
    <i type="logical" name="LMETAGGA"> F  </i>
   </separator>
   <separator name="electronic convergence" >
    <i type="int" name="NELM">   250</i>
    <i type="int" name="NELMDL">    -5</i>
    <i type="int" name="NELMIN">     6</i>
    <i name="ENINI">    520.00000000</i>
    <separator name="electronic convergence detail" >
     <i type="logical" name="LDIAG"> T  </i>
     <i type="logical" name="LSUBROT"> F  </i>
     <i name="WEIMIN">      0.00100000</i>
     <i name="EBREAK">      0.00000016</i>
     <i name="DEPER">      0.30000000</i>
     <i type="int" name="NRMM">     4</i>
     <i name="TIME">      0.40000000</i>
    </separator>
   </separator>
   <separator name="electronic mixer" >
    <i name="AMIX">      0.40000000</i>
    <i name="BMIX">      1.00000000</i>
    <i name="AMIN">      0.10000000</i>
    <i name="AMIX_MAG">      1.60000000</i>
    <i name="BMIX_MAG">      1.00000000</i>
    <separator name="electronic mixer details" >
     <i type="int" name="IMIX">     4</i>
     <i type="logical" name="MIXFIRST"> F  </i>
     <i type="int" name="MAXMIX">   -45</i>
     <i name="WC">    100.00000000</i>
     <i type="int" name="INIMIX">     1</i>
     <i type="int" name="MIXPRE">     1</i>
     <i type="int" name="MREMOVE">     5</i>
    </separator>
   </separator>
   <separator name="electronic dipolcorrection" >
    <i type="logical" name="LDIPOL"> F  </i>
    <i type="logical" name="LMONO"> F  </i>
    <i type="int" name="IDIPOL">     0</i>
    <i name="EPSILON">      1.00000000</i>
    <v name="DIPOL">   -100.00000000   -100.00000000   -100.00000000</v>
    <i name="EFIELD">      0.00000000</i>
   </separator>
  </separator>
  <separator name="grids" >
   <i type="int" name="NGX">    28</i>
   <i type="int" name="NGY">    36</i>
   <i type="int" name="NGZ">   150</i>
   <i type="int" name="NGXF">    56</i>
   <i type="int" name="NGYF">    72</i>
   <i type="int" name="NGZF">   300</i>
   <i type="logical" name="ADDGRID"> F  </i>
  </separator>
  <separator name="ionic" >
   <i type="int" name="NSW">   200</i>
   <i type="int" name="IBRION">     2</i>
   <i type="int" name="ISIF">     2</i>
   <i name="PSTRESS">      0.00000000</i>
   <i name="EDIFFG">     -0.01000000</i>
   <i type="int" name="NFREE">     1</i>
   <i name="POTIM">      0.30000000</i>
   <i name="SMASS">     -3.00000000</i>
   <i name="SCALEE">      1.00000000</i>
  </separator>
  <separator name="ionic md" >
   <i name="TEBEG">      0.00010000</i>
   <i name="TEEND">      0.00010000</i>
   <i type="int" name="NBLOCK">     1</i>
   <i type="int" name="KBLOCK">   200</i>
   <i type="int" name="NPACO">   256</i>
   <i name="APACO">     16.00000000</i>
  </separator>
  <separator name="symmetry" >
   <i type="int" name="ISYM">     2</i>
   <i name="SYMPREC">      0.00001000</i>
  </separator>
  <separator name="dos" >
   <i type="logical" name="LORBIT"> F  </i>
   <v name="RWIGS">     -1.00000000</v>
   <i type="int" name="NEDOS">   301</i>
   <i name="EMIN">     10.00000000</i>
   <i name="EMAX">    -10.00000000</i>
   <i name="EFERMI">      0.00000000</i>
  </separator>
  <separator name="writing" >
   <i type="int" name="NWRITE">     2</i>
   <i type="logical" name="LWAVE"> F  </i>
   <i type="logical" name="LCHARG"> F  </i>
   <i type="logical" name="LPARD"> F  </i>
   <i type="logical" name="LVTOT"> F  </i>
   <i type="logical" name="LVHAR"> F  </i>
   <i type="logical" name="LELF"> F  </i>
   <i type="logical" name="LOPTICS"> F  </i>
   <v name="STM">      0.00000000      0.00000000      0.00000000      0.00000000      0.00000000      0.00000000      0.00000000</v>
  </separator>
  <separator name="performance" >
   <i type="int" name="NPAR">     4</i>
   <i type="int" name="NSIM">     4</i>
   <i type="int" name="NBLK">    -1</i>
   <i type="logical" name="LPLANE"> T  </i>
   <i type="logical" name="LSCALAPACK"> T  </i>
   <i type="logical" name="LSCAAWARE"> F  </i>
   <i type="logical" name="LSCALU"> F  </i>
   <i type="logical" name="LASYNC"> F  </i>
   <i type="logical" name="LORBITALREAL"> F  </i>
  </separator>
  <separator name="miscellaneous" >
   <i type="int" name="IDIOT">     3</i>
   <i type="logical" name="LMUSIC"> F  </i>
   <v name="POMASS">     30.97400000</v>
   <v name="DARWINR">      0.00000000</v>
   <v name="DARWINV">      1.00000000</v>
   <i type="logical" name="LCORR"> T  </i>
  </separator>
  <i type="logical" name="GGA_COMPAT"> T  </i>
  <i type="logical" name="LBERRY"> F  </i>
  <i type="int" name="ICORELEVEL">     0</i>
  <i type="logical" name="LDAU"> F  </i>
  <i type="int" name="I_CONSTRAINED_M">     0</i>
  <separator name="electronic exchange-correlation" >
   <i type="string" name="GGA">--</i>
   <i type="int" name="VOSKOWN">     0</i>
   <i type="logical" name="LHFCALC"> F  </i>
   <i type="string" name="PRECFOCK"></i>
   <i type="logical" name="LSYMGRAD"> F  </i>
   <i type="logical" name="LHFONE"> F  </i>
   <i type="logical" name="LRHFCALC"> F  </i>
   <i type="logical" name="LTHOMAS"> F  </i>
   <i type="logical" name="LMODELHF"> F  </i>
   <i name="ENCUT4O">     -1.00000000</i>
   <i type="int" name="EXXOEP">     0</i>
   <i type="int" name="FOURORBIT">     0</i>
   <i name="AEXX">      0.00000000</i>
   <i name="HFALPHA">      0.00000000</i>
   <i name="MCALPHA">      0.00000000</i>
   <i name="ALDAX">      1.00000000</i>
   <i name="AGGAX">      1.00000000</i>
   <i name="ALDAC">      1.00000000</i>
   <i name="AGGAC">      1.00000000</i>
   <i type="int" name="NKREDX">     1</i>
   <i type="int" name="NKREDY">     1</i>
   <i type="int" name="NKREDZ">     1</i>
   <i type="logical" name="SHIFTRED"> F  </i>
   <i type="logical" name="ODDONLY"> F  </i>
   <i type="logical" name="EVENONLY"> F  </i>
   <i type="int" name="LMAXFOCK">     0</i>
   <i type="int" name="NMAXFOCKAE">     0</i>
   <i type="logical" name="LFOCKAEDFT"> F  </i>
   <i name="HFSCREEN">      0.00000000</i>
   <i name="HFSCREENC">      0.00000000</i>
   <i type="int" name="NBANDSGWLOW">     0</i>
  </separator>
  <separator name="vdW DFT" >
   <i type="logical" name="LUSE_VDW"> F  </i>
   <i name="Zab_VDW">     -0.84910000</i>
   <i name="PARAM1">      0.12340000</i>
   <i name="PARAM2">      1.00000000</i>
   <i name="PARAM3">      0.00000000</i>
  </separator>
  <separator name="model GW" >
   <i type="int" name="MODEL_GW">     0</i>
   <i name="MODEL_EPS0">     45.76755877</i>
   <i name="MODEL_ALPHA">      1.00000000</i>
  </separator>
  <separator name="linear response parameters" >
   <i type="logical" name="LEPSILON"> F  </i>
   <i type="logical" name="LRPA"> F  </i>
   <i type="logical" name="LNABLA"> F  </i>
   <i type="logical" name="LVEL"> F  </i>
   <i type="int" name="KINTER">     0</i>
   <i name="CSHIFT">      0.10000000</i>
   <i name="OMEGAMAX">     -1.00000000</i>
   <i name="DEG_THRESHOLD">      0.00200000</i>
  </separator>
  <separator name="orbital magnetization" >
   <i type="logical" name="NUCIND"> F  </i>
   <v name="MAGPOS">      0.00000000      0.00000000      0.00000000</v>
   <i type="logical" name="LNICSALL"> T  </i>
   <i type="logical" name="ORBITALMAG"> F  </i>
   <i type="logical" name="LMAGBLOCH"> F  </i>
   <i type="logical" name="LCHIMAG"> F  </i>
   <i type="logical" name="LGAUGE"> T  </i>
   <i type="int" name="MAGATOM">     0</i>
   <v name="MAGDIPOL">      0.00000000      0.00000000      0.00000000</v>
   <v name="AVECCONST">      0.00000000      0.00000000      0.00000000</v>
  </separator>
  <separator name="response functions" >
   <i type="logical" name="LADDER"> F  </i>
   <i type="logical" name="LFXC"> F  </i>
   <i type="logical" name="LHARTREE"> T  </i>
   <i type="int" name="IBSE">     0</i>
   <v type="int" name="KPOINT">    -1     0     0     0</v>
   <i type="logical" name="LTCTE"> F  </i>
   <i type="logical" name="LTETE"> F  </i>
   <i type="logical" name="LTRIPLET"> F  </i>
   <i type="logical" name="LFXCEPS"> F  </i>
   <i type="logical" name="LFXHEG"> F  </i>
   <i type="int" name="NATURALO">     0</i>
   <i type="logical" name="L2ORDER"> F  </i>
   <i type="logical" name="LUSEW"> F  </i>
   <i name="ENCUTGW">     -2.00000000</i>
   <i name="ENCUTGWSOFT">     -2.00000000</i>
   <i name="ENCUTLF">     -1.00000000</i>
   <i type="int" name="LMAXMP2">    -1</i>
   <i name="SCISSOR">      0.00000000</i>
   <i type="int" name="NOMEGA">     0</i>
   <i type="int" name="NOMEGAR">     0</i>
   <i type="int" name="NBANDSGW">    -1</i>
   <i type="int" name="NBANDSO">    -1</i>
   <i type="int" name="NBANDSV">    -1</i>
   <i type="int" name="NELM">   250</i>
   <i type="int" name="NELMHF">     1</i>
   <i type="int" name="DIM">     3</i>
   <i type="int" name="ANTIRES">     0</i>
   <i name="OMEGAMAX">    -30.00000000</i>
   <i name="OMEGAMIN">    -30.00000000</i>
   <i name="OMEGATL">   -200.00000000</i>
   <i type="int" name="OMEGAGRID">     0</i>
   <i name="CSHIFT">     -0.10000000</i>
   <i type="logical" name="SELFENERGY"> F  </i>
   <i type="logical" name="LSPECTRAL"> F  </i>
   <i type="logical" name="LSPECTRALGW"> F  </i>
   <i type="logical" name="LSINGLES"> F  </i>
   <i type="logical" name="LFERMIGW"> F  </i>
   <i type="logical" name="ODDONLYGW"> F  </i>
   <i type="logical" name="EVENONLYGW"> F  </i>
   <i type="int" name="NKREDLFX">     1</i>
   <i type="int" name="NKREDLFY">     1</i>
   <i type="int" name="NKREDLFZ">     1</i>
   <i type="int" name="MAXMEM">  1800</i>
   <i type="int" name="TELESCOPE">     0</i>
   <i type="int" name="TAUPAR">     1</i>
   <i type="int" name="OMEGAPAR">    -1</i>
   <i name="LAMBDA">      1.00000000</i>
  </separator>
  <separator name="External order field" >
   <i name="OFIELD_KAPPA">      0.00000000</i>
   <v name="OFIELD_K">      0.00000000      0.00000000      0.00000000</v>
   <i name="OFIELD_Q6_NEAR">      0.00000000</i>
   <i name="OFIELD_Q6_FAR">      0.00000000</i>
   <i name="OFIELD_A">      0.00000000</i>
  </separator>
 </parameters>
 <atominfo>
  <atoms>       4 </atoms>
  <types>       1 </types>
  <array name="atoms" >
   <dimension dim="1">ion</dimension>
   <field type="string">element</field>
   <field type="int">atomtype</field>
   <set>
    <rc><c>P </c><c>   1</c></rc>
    <rc><c>P </c><c>   1</c></rc>
    <rc><c>P </c><c>   1</c></rc>
    <rc><c>P </c><c>   1</c></rc>
   </set>
  </array>
  <array name="atomtypes" >
   <dimension dim="1">type</dimension>
   <field type="int">atomspertype</field>
   <field type="string">element</field>
   <field>mass</field>
   <field>valence</field>
   <field type="string">pseudopotential</field>
   <set>
    <rc><c>   4</c><c>P </c><c>     30.97400000</c><c>      5.00000000</c><c>  PAW_PBE P 06Sep2000                   </c></rc>
   </set>
  </array>
 </atominfo>
 <structure name="initialpos" >
  <crystal>
   <varray name="basis" >
    <v>       3.29683300      -0.04946400       0.00000000 </v>
    <v>      -0.06935800       4.62283100      -0.00005300 </v>
    <v>       0.00000000       0.00000000      20.02439000 </v>
   </varray>
   <i name="volume">    305.11705844 </i>
   <varray name="rec_basis" >
    <v>       0.30338969       0.00455186       0.00000000 </v>
    <v>       0.00324625       0.21636637       0.00000000 </v>
    <v>       0.00000001       0.00000057       0.04993910 </v>
   </varray>
  </crystal>
  <varray name="positions" >
   <v>       0.50000000       0.91077300       0.55252100 </v>
   <v>       0.50000000       0.08922700       0.44747900 </v>
   <v>       0.00000000       0.41076900       0.44747900 </v>
   <v>       0.00000000       0.58923100       0.55252100 </v>
  </varray>
 </structure>
 <calculation>
  <scstep>
   <time name="dav">    1.49    1.49</time>
   <time name="total">    1.51    1.52</time>
   <energy>
    <i name="alphaZ">      5.25752656 </i>
    <i name="ewald">   1864.24793970 </i>
    <i name="hartreedc">  -2457.92092699 </i>
    <i name="XCdc">     13.03609609 </i>
    <i name="pawpsdc">    559.04011960 </i>
    <i name="pawaedc">   -526.39432044 </i>
    <i name="eentropy">     -0.00030128 </i>
    <i name="bandstr">    -28.30007170 </i>
    <i name="atom">    704.16778566 </i>
    <i name="e_fr_energy">    133.13384721 </i>
    <i name="e_wo_entrp">    133.13414849 </i>
    <i name="e_0_energy">    133.13399785 </i>
   </energy>
  </scstep>
  <scstep>
   <time name="dav">    1.96    1.96</time>
   <time name="total">    1.96    1.97</time>
   <energy>
    <i name="e_fr_energy">     -6.08862897 </i>
    <i name="e_wo_entrp">     -6.08862897 </i>
    <i name="e_0_energy">     -6.08862897 </i>
   </energy>
  </scstep>
  <scstep>
   <time name="dav">    1.80    1.80</time>
   <time name="total">    1.81    1.81</time>
   <energy>
    <i name="e_fr_energy">    -21.31689051 </i>
    <i name="e_wo_entrp">    -21.31689051 </i>
    <i name="e_0_energy">    -21.31689051 </i>
   </energy>
  </scstep>
  <scstep>
   <time name="dav">    1.87    1.87</time>
   <time name="total">    1.87    1.88</time>
   <energy>
    <i name="e_fr_energy">    -21.63877103 </i>
    <i name="e_wo_entrp">    -21.63877103 </i>
    <i name="e_0_energy">    -21.63877103 </i>
   </energy>
  </scstep>
  <scstep>
   <time name="dav">    1.96    1.96</time>
   <time name="total">    2.06    2.06</time>
   <energy>
    <i name="e_fr_energy">    -21.64889317 </i>
    <i name="e_wo_entrp">    -21.64889317 </i>
    <i name="e_0_energy">    -21.64889317 </i>
   </energy>
  </scstep>
  <scstep>
   <time name="dav">    1.79    1.79</time>
   <time name="total">    1.90    1.90</time>
   <energy>
    <i name="e_fr_energy">    -21.50200810 </i>
    <i name="e_wo_entrp">    -21.50200810 </i>
    <i name="e_0_energy">    -21.50200810 </i>
   </energy>
  </scstep>
  <scstep>
   <time name="dav">    1.72    1.72</time>
   <time name="total">    1.83    1.83</time>
   <energy>
    <i name="e_fr_energy">    -21.43326638 </i>
    <i name="e_wo_entrp">    -21.43326638 </i>
    <i name="e_0_energy">    -21.43326638 </i>
   </energy>
  </scstep>
  <scstep>
   <time name="dav">    1.80    1.80</time>
   <time name="total">    1.91    1.91</time>
   <energy>
    <i name="e_fr_energy">    -21.43258344 </i>
    <i name="e_wo_entrp">    -21.43258344 </i>
    <i name="e_0_energy">    -21.43258344 </i>
   </energy>
  </scstep>
  <scstep>
   <time name="dav">    2.10    2.10</time>
   <time name="total">    2.21    2.22</time>
   <energy>
    <i name="e_fr_energy">    -21.43242944 </i>
    <i name="e_wo_entrp">    -21.43242944 </i>
    <i name="e_0_energy">    -21.43242944 </i>
   </energy>
  </scstep>
  <scstep>
   <time name="dav">    1.79    1.79</time>
   <time name="total">    1.90    1.90</time>
   <energy>
    <i name="e_fr_energy">    -21.43222139 </i>
    <i name="e_wo_entrp">    -21.43222139 </i>
    <i name="e_0_energy">    -21.43222139 </i>
   </energy>
  </scstep>
  <scstep>
   <time name="dav">    1.83    1.83</time>
   <time name="total">    1.94    1.94</time>
   <energy>
    <i name="e_fr_energy">    -21.43213132 </i>
    <i name="e_wo_entrp">    -21.43213132 </i>
    <i name="e_0_energy">    -21.43213132 </i>
   </energy>
  </scstep>
  <scstep>
   <time name="dav">    1.59    1.59</time>
   <time name="total">    1.70    1.70</time>
   <energy>
    <i name="e_fr_energy">    -21.43250862 </i>
    <i name="e_wo_entrp">    -21.43250862 </i>
    <i name="e_0_energy">    -21.43250862 </i>
   </energy>
  </scstep>
  <scstep>
   <time name="dav">    1.60    1.60</time>
   <time name="total">    1.72    1.72</time>
   <energy>
    <i name="e_fr_energy">    -21.43259558 </i>
    <i name="e_wo_entrp">    -21.43259558 </i>
    <i name="e_0_energy">    -21.43259558 </i>
   </energy>
  </scstep>
  <scstep>
   <time name="dav">    1.48    1.48</time>
   <time name="total">    1.60    1.60</time>
   <energy>
    <i name="e_fr_energy">    -21.43274415 </i>
    <i name="e_wo_entrp">    -21.43274415 </i>
    <i name="e_0_energy">    -21.43274415 </i>
   </energy>
  </scstep>
  <scstep>
   <time name="dav">    1.54    1.54</time>
   <time name="total">    1.65    1.65</time>
   <energy>
    <i name="e_fr_energy">    -21.43278354 </i>
    <i name="e_wo_entrp">    -21.43278354 </i>
    <i name="e_0_energy">    -21.43278354 </i>
   </energy>
  </scstep>
  <scstep>
   <time name="dav">    1.45    1.45</time>
   <time name="total">    1.56    1.57</time>
   <energy>
    <i name="e_fr_energy">    -21.43281683 </i>
    <i name="e_wo_entrp">    -21.43281683 </i>
    <i name="e_0_energy">    -21.43281683 </i>
   </energy>
  </scstep>
  <scstep>
   <time name="dav">    1.48    1.48</time>
   <time name="total">    1.50    1.50</time>
   <energy>
    <i name="alphaZ">      5.25752656 </i>
    <i name="ewald">   1864.24793970 </i>
    <i name="hartreedc">  -2473.37024207 </i>
    <i name="XCdc">     14.10585226 </i>
    <i name="pawpsdc">   2108.72307818 </i>
    <i name="pawaedc">  -2076.41861613 </i>
    <i name="eentropy">     -0.00000000 </i>
    <i name="bandstr">   -168.14614383 </i>
    <i name="atom">    704.16778566 </i>
    <i name="e_fr_energy">    -21.43281966 </i>
    <i name="e_wo_entrp">    -21.43281966 </i>
    <i name="e_0_energy">    -21.43281966 </i>
   </energy>
  </scstep>
  <structure>
   <crystal>
    <varray name="basis" >
     <v>       3.29683300      -0.04946400       0.00000000 </v>
     <v>      -0.06935800       4.62283100      -0.00005300 </v>
     <v>       0.00000000       0.00000000      20.02439000 </v>
    </varray>
    <i name="volume">    305.11705844 </i>
    <varray name="rec_basis" >
     <v>       0.30338969       0.00455186       0.00000000 </v>
     <v>       0.00324625       0.21636637       0.00000000 </v>
     <v>       0.00000001       0.00000057       0.04993910 </v>
    </varray>
   </crystal>
   <varray name="positions" >
    <v>       0.50000000       0.91077300       0.55252100 </v>
    <v>       0.50000000       0.08922700       0.44747900 </v>
    <v>       0.00000000       0.41076900       0.44747900 </v>
    <v>       0.00000000       0.58923100       0.55252100 </v>
   </varray>
  </structure>
  <varray name="forces" >
   <v>       0.38994908       0.03905699      -0.00290187 </v>
   <v>      -0.38994908      -0.03905699       0.00290187 </v>
   <v>       0.38994532       0.03902499       0.00290438 </v>
   <v>      -0.38994532      -0.03902499      -0.00290438 </v>
  </varray>
  <varray name="stress" >
   <v>       0.80566859       8.56173564      -0.00005889 </v>
   <v>       8.56173570       0.70229082       0.00035067 </v>
   <v>      -0.00005893       0.00035064      -0.12900690 </v>
  </varray>
  <energy>
   <i name="e_fr_energy">    -21.43281966 </i>
   <i name="e_wo_entrp">    -21.43281966 </i>
   <i name="e_0_energy">     -0.00000000 </i>
  </energy>
  <time name="totalsc">   31.40   31.44</time>
 </calculation>
 <calculation>
  <scstep>
   <time name="dav">    1.53    1.53</time>
   <time name="total">    1.64    1.64</time>
   <energy>
    <i name="alphaZ">      5.25752656 </i>
    <i name="ewald">   1864.03346644 </i>
    <i name="hartreedc">  -2473.28227796 </i>
    <i name="XCdc">     14.09837913 </i>
    <i name="pawpsdc">   2108.30033613 </i>
    <i name="pawaedc">  -2075.99593961 </i>
    <i name="eentropy">     -0.00000000 </i>
    <i name="bandstr">   -168.02294853 </i>
    <i name="atom">    704.16778566 </i>
    <i name="e_fr_energy">    -21.44367218 </i>
    <i name="e_wo_entrp">    -21.44367218 </i>
    <i name="e_0_energy">    -21.44367218 </i>
   </energy>
  </scstep>
  <scstep>
   <time name="dav">    1.83    1.83</time>
   <time name="total">    1.95    1.95</time>
   <energy>
    <i name="e_fr_energy">    -21.44532071 </i>
    <i name="e_wo_entrp">    -21.44532071 </i>
    <i name="e_0_energy">    -21.44532071 </i>
   </energy>
  </scstep>
  <scstep>
   <time name="dav">    1.96    1.96</time>
   <time name="total">    2.07    2.07</time>
   <energy>
    <i name="e_fr_energy">    -21.44522490 </i>
    <i name="e_wo_entrp">    -21.44522490 </i>
    <i name="e_0_energy">    -21.44522490 </i>
   </energy>
  </scstep>
  <scstep>
   <time name="dav">    1.81    1.81</time>
   <time name="total">    1.92    1.92</time>
   <energy>
    <i name="e_fr_energy">    -21.44520402 </i>
    <i name="e_wo_entrp">    -21.44520402 </i>
    <i name="e_0_energy">    -21.44520402 </i>
   </energy>
  </scstep>
  <scstep>
   <time name="dav">    1.54    1.54</time>
   <time name="total">    1.65    1.65</time>
   <energy>
    <i name="e_fr_energy">    -21.44520670 </i>
    <i name="e_wo_entrp">    -21.44520670 </i>
    <i name="e_0_energy">    -21.44520670 </i>
   </energy>
  </scstep>
  <scstep>
   <time name="dav">    1.31    1.31</time>
   <time name="total">    1.33    1.34</time>
   <energy>
    <i name="alphaZ">      5.25752656 </i>
    <i name="ewald">   1864.03346644 </i>
    <i name="hartreedc">  -2473.27176351 </i>
    <i name="XCdc">     14.09610438 </i>
    <i name="pawpsdc">   2100.57889335 </i>
    <i name="pawaedc">  -2068.27126669 </i>
    <i name="eentropy">     -0.00000000 </i>
    <i name="bandstr">   -168.03595380 </i>
    <i name="atom">    704.16778566 </i>
    <i name="e_fr_energy">    -21.44520761 </i>
    <i name="e_wo_entrp">    -21.44520761 </i>
    <i name="e_0_energy">    -21.44520761 </i>
   </energy>
  </scstep>
  <structure>
   <crystal>
    <varray name="basis" >
     <v>       3.29683300      -0.04946400       0.00000000 </v>
     <v>      -0.06935800       4.62283100      -0.00005300 </v>
     <v>       0.00000000       0.00000000      20.02439000 </v>
    </varray>
    <i name="volume">    305.11705844 </i>
    <varray name="rec_basis" >
     <v>       0.30338969       0.00455186       0.00000000 </v>
     <v>       0.00324625       0.21636637       0.00000000 </v>
     <v>       0.00000001       0.00000057       0.04993910 </v>
    </varray>
   </crystal>
   <varray name="positions" >
    <v>       0.50342960       0.91105425       0.55251681 </v>
    <v>       0.49657040       0.08894575       0.44748319 </v>
    <v>       0.00342956       0.41105005       0.44748320 </v>
    <v>      -0.00342956       0.58894995       0.55251680 </v>
   </varray>
  </structure>
  <varray name="forces" >
   <v>       0.15582801      -0.00962700      -0.00029813 </v>
   <v>      -0.15582801       0.00962700       0.00029813 </v>
   <v>       0.15582538      -0.00965378       0.00029818 </v>
   <v>      -0.15582538       0.00965378      -0.00029818 </v>
  </varray>
  <varray name="stress" >
   <v>       0.29646182       5.43993406      -0.00003356 </v>
   <v>       5.43993395       0.08782709       0.00029388 </v>
   <v>      -0.00003358       0.00029391      -0.07389457 </v>
  </varray>
  <energy>
   <i name="e_fr_energy">    -21.44520761 </i>
   <i name="e_wo_entrp">    -21.44520761 </i>
   <i name="e_0_energy">     -0.00000000 </i>
  </energy>
  <time name="totalsc">   11.34   11.36</time>
 </calculation>
 <calculation>
  <scstep>
   <time name="dav">    1.53    1.53</time>
   <time name="total">    1.64    1.64</time>
   <energy>
    <i name="alphaZ">      5.25752656 </i>
    <i name="ewald">   1863.91971051 </i>
    <i name="hartreedc">  -2473.21807714 </i>
    <i name="XCdc">     14.09161505 </i>
    <i name="pawpsdc">   2100.58586190 </i>
    <i name="pawaedc">  -2068.27824917 </i>
    <i name="eentropy">     -0.00000000 </i>
    <i name="bandstr">   -167.97304284 </i>
    <i name="atom">    704.16778566 </i>
    <i name="e_fr_energy">    -21.44686947 </i>
    <i name="e_wo_entrp">    -21.44686947 </i>
    <i name="e_0_energy">    -21.44686947 </i>
   </energy>
  </scstep>
  <scstep>
   <time name="dav">    1.81    1.81</time>
   <time name="total">    1.92    1.93</time>
   <energy>
    <i name="e_fr_energy">    -21.44756283 </i>
    <i name="e_wo_entrp">    -21.44756283 </i>
    <i name="e_0_energy">    -21.44756283 </i>
   </energy>
  </scstep>
  <scstep>
   <time name="dav">    1.98    1.98</time>
   <time name="total">    2.09    2.09</time>
   <energy>
    <i name="e_fr_energy">    -21.44752410 </i>
    <i name="e_wo_entrp">    -21.44752410 </i>
    <i name="e_0_energy">    -21.44752410 </i>
   </energy>
  </scstep>
  <scstep>
   <time name="dav">    1.77    1.77</time>
   <time name="total">    1.89    1.89</time>
   <energy>
    <i name="e_fr_energy">    -21.44751541 </i>
    <i name="e_wo_entrp">    -21.44751541 </i>
    <i name="e_0_energy">    -21.44751541 </i>
   </energy>
  </scstep>
  <scstep>
   <time name="dav">    1.26    1.26</time>
   <time name="total">    1.37    1.37</time>
   <energy>
    <i name="e_fr_energy">    -21.44751615 </i>
    <i name="e_wo_entrp">    -21.44751615 </i>
    <i name="e_0_energy">    -21.44751615 </i>
   </energy>
  </scstep>
  <scstep>
   <time name="dav">    1.18    1.18</time>
   <time name="total">    1.20    1.21</time>
   <energy>
    <i name="alphaZ">      5.25752656 </i>
    <i name="ewald">   1863.91971051 </i>
    <i name="hartreedc">  -2473.21756130 </i>
    <i name="XCdc">     14.09055247 </i>
    <i name="pawpsdc">   2096.53615005 </i>
    <i name="pawaedc">  -2064.22691893 </i>
    <i name="eentropy">     -0.00000000 </i>
    <i name="bandstr">   -167.97476134 </i>
    <i name="atom">    704.16778566 </i>
    <i name="e_fr_energy">    -21.44751631 </i>
    <i name="e_wo_entrp">    -21.44751631 </i>
    <i name="e_0_energy">    -21.44751631 </i>
   </energy>
  </scstep>
  <structure>
   <crystal>
    <varray name="basis" >
     <v>       3.29683300      -0.04946400       0.00000000 </v>
     <v>      -0.06935800       4.62283100      -0.00005300 </v>
     <v>       0.00000000       0.00000000      20.02439000 </v>
    </varray>
    <i name="volume">    305.11705844 </i>
    <varray name="rec_basis" >
     <v>       0.30338969       0.00455186       0.00000000 </v>
     <v>       0.00324625       0.21636637       0.00000000 </v>
     <v>       0.00000001       0.00000057       0.04993910 </v>
    </varray>
   </crystal>
   <varray name="positions" >
    <v>       0.50565173       0.91123648       0.55251409 </v>
    <v>       0.49434827       0.08876352       0.44748591 </v>
    <v>       0.00565167       0.41123215       0.44748592 </v>
    <v>      -0.00565167       0.58876785       0.55251408 </v>
   </varray>
  </structure>
  <varray name="forces" >
   <v>       0.00616611      -0.03331539       0.00119845 </v>
   <v>      -0.00616611       0.03331539      -0.00119845 </v>
   <v>       0.00616405      -0.03333879      -0.00119936 </v>
   <v>      -0.00616405       0.03333879       0.00119936 </v>
  </varray>
  <varray name="stress" >
   <v>       0.06415125       3.46248281      -0.00001700 </v>
   <v>       3.46248280      -0.18541116       0.00026006 </v>
   <v>      -0.00001699       0.00026010      -0.04145524 </v>
  </varray>
  <energy>
   <i name="e_fr_energy">    -21.44751631 </i>
   <i name="e_wo_entrp">    -21.44751631 </i>
   <i name="e_0_energy">     -0.00000000 </i>
  </energy>
  <time name="totalsc">   10.88   10.90</time>
 </calculation>
 <calculation>
  <scstep>
   <time name="dav">    1.59    1.59</time>
   <time name="total">    1.70    1.70</time>
   <energy>
    <i name="alphaZ">      5.25752656 </i>
    <i name="ewald">   1863.91778641 </i>
    <i name="hartreedc">  -2473.21770871 </i>
    <i name="XCdc">     14.09048256 </i>
    <i name="pawpsdc">   2096.52945742 </i>
    <i name="pawaedc">  -2064.22023084 </i>
    <i name="eentropy">     -0.00000000 </i>
    <i name="bandstr">   -167.97261607 </i>
    <i name="atom">    704.16778566 </i>
    <i name="e_fr_energy">    -21.44751701 </i>
    <i name="e_wo_entrp">    -21.44751701 </i>
    <i name="e_0_energy">    -21.44751701 </i>
   </energy>
  </scstep>
  <scstep>
   <time name="dav">    1.14    1.14</time>
   <time name="total">    1.25    1.25</time>
   <energy>
    <i name="e_fr_energy">    -21.44751728 </i>
    <i name="e_wo_entrp">    -21.44751728 </i>
    <i name="e_0_energy">    -21.44751728 </i>
   </energy>
  </scstep>
  <scstep>
   <time name="dav">    1.13    1.13</time>
   <time name="total">    1.24    1.24</time>
   <energy>
    <i name="e_fr_energy">    -21.44751733 </i>
    <i name="e_wo_entrp">    -21.44751733 </i>
    <i name="e_0_energy">    -21.44751733 </i>
   </energy>
  </scstep>
  <scstep>
   <time name="dav">    1.11    1.11</time>
   <time name="total">    1.22    1.23</time>
   <energy>
    <i name="e_fr_energy">    -21.44751737 </i>
    <i name="e_wo_entrp">    -21.44751737 </i>
    <i name="e_0_energy">    -21.44751737 </i>
   </energy>
  </scstep>
  <scstep>
   <time name="dav">    1.13    1.13</time>
   <time name="total">    1.24    1.24</time>
   <energy>
    <i name="e_fr_energy">    -21.44751740 </i>
    <i name="e_wo_entrp">    -21.44751740 </i>
    <i name="e_0_energy">    -21.44751740 </i>
   </energy>
  </scstep>
  <scstep>
   <time name="dav">    1.11    1.11</time>
   <time name="total">    1.13    1.13</time>
   <energy>
    <i name="alphaZ">      5.25752656 </i>
    <i name="ewald">   1863.91778641 </i>
    <i name="hartreedc">  -2473.21980394 </i>
    <i name="XCdc">     14.09048112 </i>
    <i name="pawpsdc">   2096.46767918 </i>
    <i name="pawaedc">  -2064.15842782 </i>
    <i name="eentropy">     -0.00000000 </i>
    <i name="bandstr">   -167.97054459 </i>
    <i name="atom">    704.16778566 </i>
    <i name="e_fr_energy">    -21.44751743 </i>
    <i name="e_wo_entrp">    -21.44751743 </i>
    <i name="e_0_energy">    -21.44751743 </i>
   </energy>
  </scstep>
  <structure>
   <crystal>
    <varray name="basis" >
     <v>       3.29683300      -0.04946400       0.00000000 </v>
     <v>      -0.06935800       4.62283100      -0.00005300 </v>
     <v>       0.00000000       0.00000000      20.02439000 </v>
    </varray>
    <i name="volume">    305.11705844 </i>
    <varray name="rec_basis" >
     <v>       0.30338969       0.00455186       0.00000000 </v>
     <v>       0.00324625       0.21636637       0.00000000 </v>
     <v>       0.00000001       0.00000057       0.04993910 </v>
    </varray>
   </crystal>
   <varray name="positions" >
    <v>       0.50569294       0.91123986       0.55251404 </v>
    <v>       0.49430706       0.08876014       0.44748596 </v>
    <v>       0.00569288       0.41123553       0.44748597 </v>
    <v>      -0.00569288       0.58876447       0.55251403 </v>
   </varray>
  </structure>
  <varray name="forces" >
   <v>       0.00363787      -0.03369696       0.00121391 </v>
   <v>      -0.00363787       0.03369696      -0.00121391 </v>
   <v>       0.00363587      -0.03372029      -0.00121485 </v>
   <v>      -0.00363587       0.03372029       0.00121485 </v>
  </varray>
  <varray name="stress" >
   <v>       0.06099931       3.43625006      -0.00001664 </v>
   <v>       3.43625002      -0.19078909       0.00025954 </v>
   <v>      -0.00001665       0.00025959      -0.04346833 </v>
  </varray>
  <energy>
   <i name="e_fr_energy">    -21.44751743 </i>
   <i name="e_wo_entrp">    -21.44751743 </i>
   <i name="e_0_energy">     -0.00000000 </i>
  </energy>
  <time name="totalsc">    8.56    8.57</time>
 </calculation>
 <calculation>
  <scstep>
   <time name="dav">    1.57    1.57</time>
   <time name="total">    1.68    1.68</time>
   <energy>
    <i name="alphaZ">      5.25752656 </i>
    <i name="ewald">   1864.04490314 </i>
    <i name="hartreedc">  -2473.29514745 </i>
    <i name="XCdc">     14.09529266 </i>
    <i name="pawpsdc">   2096.46783096 </i>
    <i name="pawaedc">  -2064.15857944 </i>
    <i name="eentropy">     -0.00000000 </i>
    <i name="bandstr">   -168.02720935 </i>
    <i name="atom">    704.16778566 </i>
    <i name="e_fr_energy">    -21.44759726 </i>
    <i name="e_wo_entrp">    -21.44759726 </i>
    <i name="e_0_energy">    -21.44759726 </i>
   </energy>
  </scstep>
  <scstep>
   <time name="dav">    1.86    1.86</time>
   <time name="total">    1.97    1.97</time>
   <energy>
    <i name="e_fr_energy">    -21.44761507 </i>
    <i name="e_wo_entrp">    -21.44761507 </i>
    <i name="e_0_energy">    -21.44761507 </i>
   </energy>
  </scstep>
  <scstep>
   <time name="dav">    1.24    1.24</time>
   <time name="total">    1.35    1.36</time>
   <energy>
    <i name="e_fr_energy">    -21.44761495 </i>
    <i name="e_wo_entrp">    -21.44761495 </i>
    <i name="e_0_energy">    -21.44761495 </i>
   </energy>
  </scstep>
  <scstep>
   <time name="dav">    1.16    1.16</time>
   <time name="total">    1.28    1.28</time>
   <energy>
    <i name="e_fr_energy">    -21.44761533 </i>
    <i name="e_wo_entrp">    -21.44761533 </i>
    <i name="e_0_energy">    -21.44761533 </i>
   </energy>
  </scstep>
  <scstep>
   <time name="dav">    1.15    1.15</time>
   <time name="total">    1.26    1.26</time>
   <energy>
    <i name="e_fr_energy">    -21.44761529 </i>
    <i name="e_wo_entrp">    -21.44761529 </i>
    <i name="e_0_energy">    -21.44761529 </i>
   </energy>
  </scstep>
  <scstep>
   <time name="dav">    1.09    1.09</time>
   <time name="total">    1.11    1.11</time>
   <energy>
    <i name="alphaZ">      5.25752656 </i>
    <i name="ewald">   1864.04490314 </i>
    <i name="hartreedc">  -2473.29639156 </i>
    <i name="XCdc">     14.09589427 </i>
    <i name="pawpsdc">   2099.74387081 </i>
    <i name="pawaedc">  -2067.43589305 </i>
    <i name="eentropy">     -0.00000000 </i>
    <i name="bandstr">   -168.02531114 </i>
    <i name="atom">    704.16778566 </i>
    <i name="e_fr_energy">    -21.44761532 </i>
    <i name="e_wo_entrp">    -21.44761532 </i>
    <i name="e_0_energy">    -21.44761532 </i>
   </energy>
  </scstep>
  <structure>
   <crystal>
    <varray name="basis" >
     <v>       3.29683300      -0.04946400       0.00000000 </v>
     <v>      -0.06935800       4.62283100      -0.00005300 </v>
     <v>       0.00000000       0.00000000      20.02439000 </v>
    </varray>
    <i name="volume">    305.11705844 </i>
    <varray name="rec_basis" >
     <v>       0.30338969       0.00455186       0.00000000 </v>
     <v>       0.00324625       0.21636637       0.00000000 </v>
     <v>       0.00000001       0.00000057       0.04993910 </v>
    </varray>
   </crystal>
   <varray name="positions" >
    <v>       0.50575068       0.91100353       0.55251599 </v>
    <v>       0.49424932       0.08899647       0.44748401 </v>
    <v>       0.00575059       0.41099903       0.44748401 </v>
    <v>      -0.00575059       0.58900097       0.55251599 </v>
   </varray>
  </structure>
  <varray name="forces" >
   <v>       0.00008883      -0.00954532      -0.00283229 </v>
   <v>      -0.00008883       0.00954532       0.00283229 </v>
   <v>       0.00008713      -0.00956407       0.00283153 </v>
   <v>      -0.00008713       0.00956407      -0.00283153 </v>
  </varray>
  <varray name="stress" >
   <v>       0.15661072       3.39200477      -0.00001953 </v>
   <v>       3.39200474       0.13846846       0.00020778 </v>
   <v>      -0.00001956       0.00020784      -0.13557363 </v>
  </varray>
  <energy>
   <i name="e_fr_energy">    -21.44761532 </i>
   <i name="e_wo_entrp">    -21.44761532 </i>
   <i name="e_0_energy">     -0.00000000 </i>
  </energy>
  <time name="totalsc">    9.36    9.37</time>
  <eigenvalues>
   <array>
    <dimension dim="1">band</dimension>
    <dimension dim="2">kpoint</dimension>
    <dimension dim="3">spin</dimension>
    <field>eigene</field>
    <field>occ</field>
    <set>
     <set comment="spin 1">
      <set comment="kpoint 1">
       <r>  -17.2274    1.0000 </r>
       <r>  -14.7651    1.0000 </r>
       <r>  -11.4389    1.0000 </r>
       <r>   -7.9327    1.0000 </r>
       <r>   -6.9759    1.0000 </r>
       <r>   -6.7743    1.0000 </r>
       <r>   -5.5713    1.0000 </r>
       <r>   -4.0042    1.0000 </r>
       <r>   -3.9331    1.0000 </r>
       <r>   -2.2761    1.0000 </r>
       <r>   -1.3739    0.0000 </r>
       <r>   -0.6136    0.0000 </r>
       <r>    0.3746    0.0000 </r>
       <r>    1.0768    0.0000 </r>
       <r>    2.1369    0.0000 </r>
       <r>    2.2995    0.0000 </r>
      </set>
      <set comment="kpoint 2">
       <r>  -17.2004    1.0000 </r>
       <r>  -14.7369    1.0000 </r>
       <r>  -11.4479    1.0000 </r>
       <r>   -7.9122    1.0000 </r>
       <r>   -6.9939    1.0000 </r>
       <r>   -6.7505    1.0000 </r>
       <r>   -5.7471    1.0000 </r>
       <r>   -4.1876    1.0000 </r>
       <r>   -3.9226    1.0000 </r>
       <r>   -2.2761    1.0000 </r>
       <r>   -1.3487    0.0000 </r>
       <r>   -0.3693    0.0000 </r>
       <r>    0.5726    0.0000 </r>
       <r>    0.9540    0.0000 </r>
       <r>    2.1649    0.0000 </r>
       <r>    2.3297    0.0000 </r>
      </set>
      <set comment="kpoint 3">
       <r>  -17.1193    1.0000 </r>
       <r>  -14.6524    1.0000 </r>
       <r>  -11.4803    1.0000 </r>
       <r>   -7.8514    1.0000 </r>
       <r>   -7.0678    1.0000 </r>
       <r>   -6.6801    1.0000 </r>
       <r>   -6.1750    1.0000 </r>
       <r>   -4.6118    1.0000 </r>
       <r>   -3.8924    1.0000 </r>
       <r>   -2.2954    1.0000 </r>
       <r>   -1.2734    0.0000 </r>
       <r>    0.2845    0.0000 </r>
       <r>    0.4303    0.0000 </r>
       <r>    1.2752    0.0000 </r>
       <r>    2.2444    0.0000 </r>
       <r>    2.4201    0.0000 </r>
      </set>
      <set comment="kpoint 4">
       <r>  -16.9847    1.0000 </r>
       <r>  -14.5116    1.0000 </r>
       <r>  -11.5525    1.0000 </r>
       <r>   -7.7528    1.0000 </r>
       <r>   -7.2593    1.0000 </r>
       <r>   -6.6975    1.0000 </r>
       <r>   -6.5507    1.0000 </r>
       <r>   -5.0442    1.0000 </r>
       <r>   -3.8546    1.0000 </r>
       <r>   -2.3550    1.0000 </r>
       <r>   -1.1493    0.0000 </r>
       <r>   -0.0623    0.0000 </r>
       <r>    1.1964    0.0000 </r>
       <r>    1.8832    0.0000 </r>
       <r>    2.3132    0.0000 </r>
       <r>    2.5705    0.0000 </r>
      </set>
      <set comment="kpoint 5">
       <r>  -16.7970    1.0000 </r>
       <r>  -14.3150    1.0000 </r>
       <r>  -11.6898    1.0000 </r>
       <r>   -7.6388    1.0000 </r>
       <r>   -7.6209    1.0000 </r>
       <r>   -7.1575    1.0000 </r>
       <r>   -6.3965    1.0000 </r>
       <r>   -5.3129    1.0000 </r>
       <r>   -3.8324    1.0000 </r>
       <r>   -2.4663    1.0000 </r>
       <r>   -0.9796    0.0000 </r>
       <r>   -0.5486    0.0000 </r>
       <r>    1.8813    0.0000 </r>
       <r>    1.9270    0.0000 </r>
       <r>    2.2189    0.0000 </r>
       <r>    2.6910    0.0000 </r>
      </set>
      <set comment="kpoint 6">
       <r>  -16.5574    1.0000 </r>
       <r>  -14.0629    1.0000 </r>
       <r>  -11.9181    1.0000 </r>
       <r>   -8.1933    1.0000 </r>
       <r>   -7.5040    1.0000 </r>
       <r>   -7.4644    1.0000 </r>
       <r>   -6.1959    1.0000 </r>
       <r>   -5.3849    1.0000 </r>
       <r>   -3.8600    1.0000 </r>
       <r>   -2.6382    1.0000 </r>
       <r>   -0.9291    0.0000 </r>
       <r>   -0.7718    0.0000 </r>
       <r>    1.3017    0.0000 </r>
       <r>    1.3547    0.0000 </r>
       <r>    2.6217    0.0000 </r>
       <r>    2.9431    0.0000 </r>
      </set>
      <set comment="kpoint 7">
       <r>  -16.2672    1.0000 </r>
       <r>  -13.7561    1.0000 </r>
       <r>  -12.2487    1.0000 </r>
       <r>   -8.8419    1.0000 </r>
       <r>   -7.6959    1.0000 </r>
       <r>   -7.2972    1.0000 </r>
       <r>   -5.9621    1.0000 </r>
       <r>   -5.3253    1.0000 </r>
       <r>   -3.9670    1.0000 </r>
       <r>   -2.8738    1.0000 </r>
       <r>   -1.1343    0.0000 </r>
       <r>   -0.5490    0.0000 </r>
       <r>    0.6505    0.0000 </r>
       <r>    0.8191    0.0000 </r>
       <r>    2.1664    0.0000 </r>
       <r>    3.2714    0.0000 </r>
      </set>
      <set comment="kpoint 8">
       <r>  -15.9284    1.0000 </r>
       <r>  -13.3958    1.0000 </r>
       <r>  -12.6678    1.0000 </r>
       <r>   -9.5186    1.0000 </r>
       <r>   -7.7366    1.0000 </r>
       <r>   -7.1436    1.0000 </r>
       <r>   -5.7061    1.0000 </r>
       <r>   -5.2011    1.0000 </r>
       <r>   -4.1393    1.0000 </r>
       <r>   -3.1645    1.0000 </r>
       <r>   -1.1419    0.0000 </r>
       <r>   -0.4099    0.0000 </r>
       <r>    0.0486    0.0000 </r>
       <r>    0.4567    0.0000 </r>
       <r>    1.6575    0.0000 </r>
       <r>    3.0258    0.0000 </r>
      </set>
      <set comment="kpoint 9">
       <r>  -15.5436    1.0000 </r>
       <r>  -13.1549    1.0000 </r>
       <r>  -12.9735    1.0000 </r>
       <r>  -10.1876    1.0000 </r>
       <r>   -7.6563    1.0000 </r>
       <r>   -7.0407    1.0000 </r>
       <r>   -5.4456    1.0000 </r>
       <r>   -5.0641    1.0000 </r>
       <r>   -4.3060    1.0000 </r>
       <r>   -3.4889    1.0000 </r>
       <r>   -0.9842    0.0000 </r>
       <r>   -0.5607    0.0000 </r>
       <r>   -0.4508    0.0000 </r>
       <r>    0.4985    0.0000 </r>
       <r>    1.1492    0.0000 </r>
       <r>    2.6121    0.0000 </r>
      </set>
      <set comment="kpoint 10">
       <r>  -15.1169    1.0000 </r>
       <r>  -13.6553    1.0000 </r>
       <r>  -12.5132    1.0000 </r>
       <r>  -10.8301    1.0000 </r>
       <r>   -7.4960    1.0000 </r>
       <r>   -7.0304    1.0000 </r>
       <r>   -5.2073    1.0000 </r>
       <r>   -4.9624    1.0000 </r>
       <r>   -4.3789    1.0000 </r>
       <r>   -3.8153    1.0000 </r>
       <r>   -0.8693    0.0000 </r>
       <r>   -0.8353    0.0000 </r>
       <r>   -0.6423    0.0000 </r>
       <r>    0.6119    0.0000 </r>
       <r>    0.8472    0.0000 </r>
       <r>    2.1529    0.0000 </r>
      </set>
      <set comment="kpoint 11">
       <r>  -14.6538    1.0000 </r>
       <r>  -14.1625    1.0000 </r>
       <r>  -11.9982    1.0000 </r>
       <r>  -11.4357    1.0000 </r>
       <r>   -7.3021    1.0000 </r>
       <r>   -7.1281    1.0000 </r>
       <r>   -5.0277    1.0000 </r>
       <r>   -4.9421    1.0000 </r>
       <r>   -4.3074    1.0000 </r>
       <r>   -4.1039    1.0000 </r>
       <r>   -1.0303    0.0000 </r>
       <r>   -1.0179    0.0000 </r>
       <r>   -0.2899    0.0000 </r>
       <r>    0.1477    0.0000 </r>
       <r>    1.2371    0.0000 </r>
       <r>    1.6857    0.0000 </r>
      </set>
      <set comment="kpoint 12">
       <r>  -17.2059    1.0000 </r>
       <r>  -14.7953    1.0000 </r>
       <r>  -11.4475    1.0000 </r>
       <r>   -8.0899    1.0000 </r>
       <r>   -6.8795    1.0000 </r>
       <r>   -6.6811    1.0000 </r>
       <r>   -5.5550    1.0000 </r>
       <r>   -4.0190    1.0000 </r>
       <r>   -3.8377    1.0000 </r>
       <r>   -2.4774    1.0000 </r>
       <r>   -1.1872    0.0000 </r>
       <r>   -0.5969    0.0000 </r>
       <r>    0.3318    0.0000 </r>
       <r>    1.0618    0.0000 </r>
       <r>    2.1954    0.0000 </r>
       <r>    2.3298    0.0000 </r>
      </set>
      <set comment="kpoint 13">
       <r>  -17.1774    1.0000 </r>
       <r>  -14.7688    1.0000 </r>
       <r>  -11.4592    1.0000 </r>
       <r>   -8.0781    1.0000 </r>
       <r>   -6.8924    1.0000 </r>
       <r>   -6.6485    1.0000 </r>
       <r>   -5.7376    1.0000 </r>
       <r>   -4.1998    1.0000 </r>
       <r>   -3.8153    1.0000 </r>
       <r>   -2.4809    1.0000 </r>
       <r>   -1.1611    0.0000 </r>
       <r>   -0.3442    0.0000 </r>
       <r>    0.5633    0.0000 </r>
       <r>    0.9011    0.0000 </r>
       <r>    2.2251    0.0000 </r>
       <r>    2.3622    0.0000 </r>
      </set>
      <set comment="kpoint 14">
       <r>  -17.0950    1.0000 </r>
       <r>  -14.6863    1.0000 </r>
       <r>  -11.4912    1.0000 </r>
       <r>   -8.0368    1.0000 </r>
       <r>   -6.9456    1.0000 </r>
       <r>   -6.6036    1.0000 </r>
       <r>   -6.1373    1.0000 </r>
       <r>   -4.6301    1.0000 </r>
       <r>   -3.7804    1.0000 </r>
       <r>   -2.4898    1.0000 </r>
       <r>   -1.0996    0.0000 </r>
       <r>    0.3150    0.0000 </r>
       <r>    0.4639    0.0000 </r>
       <r>    1.1833    0.0000 </r>
       <r>    2.3033    0.0000 </r>
       <r>    2.4546    0.0000 </r>
      </set>
      <set comment="kpoint 15">
       <r>  -16.9590    1.0000 </r>
       <r>  -14.5483    1.0000 </r>
       <r>  -11.5596    1.0000 </r>
       <r>   -7.9838    1.0000 </r>
       <r>   -7.0863    1.0000 </r>
       <r>   -6.7964    1.0000 </r>
       <r>   -6.3363    1.0000 </r>
       <r>   -5.0724    1.0000 </r>
       <r>   -3.7482    1.0000 </r>
       <r>   -2.5250    1.0000 </r>
       <r>   -1.0016    0.0000 </r>
       <r>   -0.0245    0.0000 </r>
       <r>    1.2223    0.0000 </r>
       <r>    1.8022    0.0000 </r>
       <r>    2.3687    0.0000 </r>
       <r>    2.6066    0.0000 </r>
      </set>
      <set comment="kpoint 16">
       <r>  -16.7700    1.0000 </r>
       <r>  -14.3554    1.0000 </r>
       <r>  -11.6893    1.0000 </r>
       <r>   -8.0006    1.0000 </r>
       <r>   -7.3146    1.0000 </r>
       <r>   -7.2286    1.0000 </r>
       <r>   -6.2116    1.0000 </r>
       <r>   -5.3480    1.0000 </r>
       <r>   -3.7438    1.0000 </r>
       <r>   -2.6030    1.0000 </r>
       <r>   -0.8650    0.0000 </r>
       <r>   -0.4870    0.0000 </r>
       <r>    1.8367    0.0000 </r>
       <r>    1.8443    0.0000 </r>
       <r>    2.3346    0.0000 </r>
       <r>    2.6739    0.0000 </r>
      </set>
      <set comment="kpoint 17">
       <r>  -16.5291    1.0000 </r>
       <r>  -14.1091    1.0000 </r>
       <r>  -11.9064    1.0000 </r>
       <r>   -8.3160    1.0000 </r>
       <r>   -7.5737    1.0000 </r>
       <r>   -7.3992    1.0000 </r>
       <r>   -6.0179    1.0000 </r>
       <r>   -5.4223    1.0000 </r>
       <r>   -3.8018    1.0000 </r>
       <r>   -2.7391    1.0000 </r>
       <r>   -0.8300    0.0000 </r>
       <r>   -0.6913    0.0000 </r>
       <r>    1.2900    0.0000 </r>
       <r>    1.2972    0.0000 </r>
       <r>    2.5772    0.0000 </r>
       <r>    3.0875    0.0000 </r>
      </set>
      <set comment="kpoint 18">
       <r>  -16.2377    1.0000 </r>
       <r>  -13.8129    1.0000 </r>
       <r>  -12.2208    1.0000 </r>
       <r>   -8.8933    1.0000 </r>
       <r>   -7.7679    1.0000 </r>
       <r>   -7.3032    1.0000 </r>
       <r>   -5.7907    1.0000 </r>
       <r>   -5.3694    1.0000 </r>
       <r>   -3.9414    1.0000 </r>
       <r>   -2.9407    1.0000 </r>
       <r>   -0.9938    0.0000 </r>
       <r>   -0.4964    0.0000 </r>
       <r>    0.6564    0.0000 </r>
       <r>    0.7439    0.0000 </r>
       <r>    2.2079    0.0000 </r>
       <r>    3.3091    0.0000 </r>
      </set>
      <set comment="kpoint 19">
       <r>  -15.8978    1.0000 </r>
       <r>  -13.4826    1.0000 </r>
       <r>  -12.6058    1.0000 </r>
       <r>   -9.5468    1.0000 </r>
       <r>   -7.8095    1.0000 </r>
       <r>   -7.1662    1.0000 </r>
       <r>   -5.5483    1.0000 </r>
       <r>   -5.2699    1.0000 </r>
       <r>   -4.1256    1.0000 </r>
       <r>   -3.2000    1.0000 </r>
       <r>   -0.9761    0.0000 </r>
       <r>   -0.3691    0.0000 </r>
       <r>    0.0728    0.0000 </r>
       <r>    0.3444    0.0000 </r>
       <r>    1.7584    0.0000 </r>
       <r>    2.9988    0.0000 </r>
      </set>
      <set comment="kpoint 20">
       <r>  -15.5122    1.0000 </r>
       <r>  -13.3082    1.0000 </r>
       <r>  -12.8426    1.0000 </r>
       <r>  -10.2059    1.0000 </r>
       <r>   -7.7263    1.0000 </r>
       <r>   -7.0594    1.0000 </r>
       <r>   -5.3161    1.0000 </r>
       <r>   -5.1916    1.0000 </r>
       <r>   -4.2592    1.0000 </r>
       <r>   -3.4922    1.0000 </r>
       <r>   -0.8636    0.0000 </r>
       <r>   -0.5386    0.0000 </r>
       <r>   -0.3589    0.0000 </r>
       <r>    0.3388    0.0000 </r>
       <r>    1.3209    0.0000 </r>
       <r>    2.5921    0.0000 </r>
      </set>
      <set comment="kpoint 21">
       <r>  -15.0850    1.0000 </r>
       <r>  -13.6884    1.0000 </r>
       <r>  -12.5015    1.0000 </r>
       <r>  -10.8432    1.0000 </r>
       <r>   -7.5583    1.0000 </r>
       <r>   -7.0394    1.0000 </r>
       <r>   -5.1655    1.0000 </r>
       <r>   -5.1329    1.0000 </r>
       <r>   -4.2657    1.0000 </r>
       <r>   -3.7779    1.0000 </r>
       <r>   -0.9668    0.0000 </r>
       <r>   -0.8177    0.0000 </r>
       <r>   -0.3291    0.0000 </r>
       <r>    0.4294    0.0000 </r>
       <r>    1.0566    0.0000 </r>
       <r>    2.1379    0.0000 </r>
      </set>
      <set comment="kpoint 22">
       <r>  -14.6221    1.0000 </r>
       <r>  -14.1738    1.0000 </r>
       <r>  -12.0081    1.0000 </r>
       <r>  -11.4452    1.0000 </r>
       <r>   -7.3507    1.0000 </r>
       <r>   -7.1341    1.0000 </r>
       <r>   -5.1620    1.0000 </r>
       <r>   -5.0442    1.0000 </r>
       <r>   -4.1653    1.0000 </r>
       <r>   -4.0124    1.0000 </r>
       <r>   -1.1354    0.0000 </r>
       <r>   -0.9808    0.0000 </r>
       <r>    0.0186    0.0000 </r>
       <r>    0.1564    0.0000 </r>
       <r>    1.2594    0.0000 </r>
       <r>    1.6749    0.0000 </r>
      </set>
      <set comment="kpoint 23">
       <r>  -14.6561    1.0000 </r>
       <r>  -14.1329    1.0000 </r>
       <r>  -12.0033    1.0000 </r>
       <r>  -11.4554    1.0000 </r>
       <r>   -7.3141    1.0000 </r>
       <r>   -7.1568    1.0000 </r>
       <r>   -5.1880    1.0000 </r>
       <r>   -5.0581    1.0000 </r>
       <r>   -4.1733    1.0000 </r>
       <r>   -3.9951    1.0000 </r>
       <r>   -1.1403    0.0000 </r>
       <r>   -0.9569    0.0000 </r>
       <r>   -0.2279    0.0000 </r>
       <r>    0.4485    0.0000 </r>
       <r>    1.2358    0.0000 </r>
       <r>    1.6561    0.0000 </r>
      </set>
      <set comment="kpoint 24">
       <r>  -15.1141    1.0000 </r>
       <r>  -13.6344    1.0000 </r>
       <r>  -12.5086    1.0000 </r>
       <r>  -10.8567    1.0000 </r>
       <r>   -7.5185    1.0000 </r>
       <r>   -7.0375    1.0000 </r>
       <r>   -5.2869    1.0000 </r>
       <r>   -5.1171    1.0000 </r>
       <r>   -4.2679    1.0000 </r>
       <r>   -3.7595    1.0000 </r>
       <r>   -0.9709    0.0000 </r>
       <r>   -0.7607    0.0000 </r>
       <r>   -0.5489    0.0000 </r>
       <r>    0.7177    0.0000 </r>
       <r>    1.0383    0.0000 </r>
       <r>    2.0995    0.0000 </r>
      </set>
      <set comment="kpoint 25">
       <r>  -15.5372    1.0000 </r>
       <r>  -13.2145    1.0000 </r>
       <r>  -12.8883    1.0000 </r>
       <r>  -10.2211    1.0000 </r>
       <r>   -7.6898    1.0000 </r>
       <r>   -7.0323    1.0000 </r>
       <r>   -5.4597    1.0000 </r>
       <r>   -5.1843    1.0000 </r>
       <r>   -4.2746    1.0000 </r>
       <r>   -3.4763    1.0000 </r>
       <r>   -0.8864    0.0000 </r>
       <r>   -0.6829    0.0000 </r>
       <r>   -0.2979    0.0000 </r>
       <r>    0.4287    0.0000 </r>
       <r>    1.4849    0.0000 </r>
       <r>    2.5448    0.0000 </r>
      </set>
      <set comment="kpoint 26">
       <r>  -15.9192    1.0000 </r>
       <r>  -13.4397    1.0000 </r>
       <r>  -12.6001    1.0000 </r>
       <r>   -9.5621    1.0000 </r>
       <r>   -7.7803    1.0000 </r>
       <r>   -7.1245    1.0000 </r>
       <r>   -5.6726    1.0000 </r>
       <r>   -5.2777    1.0000 </r>
       <r>   -4.1705    1.0000 </r>
       <r>   -3.1834    1.0000 </r>
       <r>   -1.0451    0.0000 </r>
       <r>   -0.4358    0.0000 </r>
       <r>    0.2291    0.0000 </r>
       <r>    0.2818    0.0000 </r>
       <r>    1.9761    0.0000 </r>
       <r>    2.9481    0.0000 </r>
      </set>
      <set comment="kpoint 27">
       <r>  -16.2558    1.0000 </r>
       <r>  -13.7874    1.0000 </r>
       <r>  -12.1982    1.0000 </r>
       <r>   -8.9063    1.0000 </r>
       <r>   -7.7485    1.0000 </r>
       <r>   -7.2589    1.0000 </r>
       <r>   -5.8917    1.0000 </r>
       <r>   -5.3818    1.0000 </r>
       <r>   -4.0122    1.0000 </r>
       <r>   -2.9194    1.0000 </r>
       <r>   -1.0544    0.0000 </r>
       <r>   -0.4991    0.0000 </r>
       <r>    0.5653    0.0000 </r>
       <r>    0.8481    0.0000 </r>
       <r>    2.4384    0.0000 </r>
       <r>    3.2192    0.0000 </r>
      </set>
      <set comment="kpoint 28">
       <r>  -16.5440    1.0000 </r>
       <r>  -14.0909    1.0000 </r>
       <r>  -11.8791    1.0000 </r>
       <r>   -8.3197    1.0000 </r>
       <r>   -7.5663    1.0000 </r>
       <r>   -7.3636    1.0000 </r>
       <r>   -6.0919    1.0000 </r>
       <r>   -5.4393    1.0000 </r>
       <r>   -3.8838    1.0000 </r>
       <r>   -2.7115    1.0000 </r>
       <r>   -0.8811    0.0000 </r>
       <r>   -0.6938    0.0000 </r>
       <r>    1.0828    0.0000 </r>
       <r>    1.5050    0.0000 </r>
       <r>    2.7273    0.0000 </r>
       <r>    3.0513    0.0000 </r>
      </set>
      <set comment="kpoint 29">
       <r>  -16.7818    1.0000 </r>
       <r>  -14.3421    1.0000 </r>
       <r>  -11.6627    1.0000 </r>
       <r>   -7.9823    1.0000 </r>
       <r>   -7.3015    1.0000 </r>
       <r>   -7.2397    1.0000 </r>
       <r>   -6.2504    1.0000 </r>
       <r>   -5.3721    1.0000 </r>
       <r>   -3.8214    1.0000 </r>
       <r>   -2.5708    1.0000 </r>
       <r>   -0.8751    0.0000 </r>
       <r>   -0.5369    0.0000 </r>
       <r>    1.6608    0.0000 </r>
       <r>    2.0580    0.0000 </r>
       <r>    2.2495    0.0000 </r>
       <r>    2.6485    0.0000 </r>
      </set>
      <set comment="kpoint 30">
       <r>  -16.9678    1.0000 </r>
       <r>  -14.5388    1.0000 </r>
       <r>  -11.5372    1.0000 </r>
       <r>   -7.9590    1.0000 </r>
       <r>   -7.0818    1.0000 </r>
       <r>   -6.8552    1.0000 </r>
       <r>   -6.3100    1.0000 </r>
       <r>   -5.1029    1.0000 </r>
       <r>   -3.8108    1.0000 </r>
       <r>   -2.4928    1.0000 </r>
       <r>   -1.0166    0.0000 </r>
       <r>   -0.0826    0.0000 </r>
       <r>    1.1905    0.0000 </r>
       <r>    1.9501    0.0000 </r>
       <r>    2.2509    0.0000 </r>
       <r>    2.5103    0.0000 </r>
      </set>
      <set comment="kpoint 31">
       <r>  -17.1008    1.0000 </r>
       <r>  -14.6801    1.0000 </r>
       <r>  -11.4753    1.0000 </r>
       <r>   -8.0181    1.0000 </r>
       <r>   -6.9419    1.0000 </r>
       <r>   -6.6825    1.0000 </r>
       <r>   -6.0749    1.0000 </r>
       <r>   -4.6605    1.0000 </r>
       <r>   -3.8225    1.0000 </r>
       <r>   -2.4635    1.0000 </r>
       <r>   -1.1147    0.0000 </r>
       <r>    0.2848    0.0000 </r>
       <r>    0.3774    0.0000 </r>
       <r>    1.3096    0.0000 </r>
       <r>    2.2922    0.0000 </r>
       <r>    2.4455    0.0000 </r>
      </set>
      <set comment="kpoint 32">
       <r>  -17.1804    1.0000 </r>
       <r>  -14.7657    1.0000 </r>
       <r>  -11.4510    1.0000 </r>
       <r>   -8.0684    1.0000 </r>
       <r>   -6.8903    1.0000 </r>
       <r>   -6.6830    1.0000 </r>
       <r>   -5.7082    1.0000 </r>
       <r>   -4.2214    1.0000 </r>
       <r>   -3.8349    1.0000 </r>
       <r>   -2.4658    1.0000 </r>
       <r>   -1.1716    0.0000 </r>
       <r>   -0.3617    0.0000 </r>
       <r>    0.5041    0.0000 </r>
       <r>    0.9780    0.0000 </r>
       <r>    2.2193    0.0000 </r>
       <r>    2.3577    0.0000 </r>
      </set>
      <set comment="kpoint 33">
       <r>  -17.1419    1.0000 </r>
       <r>  -14.8856    1.0000 </r>
       <r>  -11.4606    1.0000 </r>
       <r>   -8.4442    1.0000 </r>
       <r>   -6.6852    1.0000 </r>
       <r>   -6.4155    1.0000 </r>
       <r>   -5.5068    1.0000 </r>
       <r>   -4.0654    1.0000 </r>
       <r>   -3.5801    1.0000 </r>
       <r>   -2.8753    1.0000 </r>
       <r>   -0.8291    0.0000 </r>
       <r>   -0.5465    0.0000 </r>
       <r>    0.2067    0.0000 </r>
       <r>    1.0255    0.0000 </r>
       <r>    2.3632    0.0000 </r>
       <r>    2.4202    0.0000 </r>
      </set>
      <set comment="kpoint 34">
       <r>  -17.1120    1.0000 </r>
       <r>  -14.8612    1.0000 </r>
       <r>  -11.4714    1.0000 </r>
       <r>   -8.4387    1.0000 </r>
       <r>   -6.6905    1.0000 </r>
       <r>   -6.3991    1.0000 </r>
       <r>   -5.6729    1.0000 </r>
       <r>   -4.2477    1.0000 </r>
       <r>   -3.5558    1.0000 </r>
       <r>   -2.8770    1.0000 </r>
       <r>   -0.8095    0.0000 </r>
       <r>   -0.2841    0.0000 </r>
       <r>    0.4487    0.0000 </r>
       <r>    0.8545    0.0000 </r>
       <r>    2.3914    0.0000 </r>
       <r>    2.4544    0.0000 </r>
      </set>
      <set comment="kpoint 35">
       <r>  -17.0283    1.0000 </r>
       <r>  -14.7819    1.0000 </r>
       <r>  -11.4952    1.0000 </r>
       <r>   -8.4112    1.0000 </r>
       <r>   -6.7177    1.0000 </r>
       <r>   -6.5080    1.0000 </r>
       <r>   -5.9217    1.0000 </r>
       <r>   -4.6974    1.0000 </r>
       <r>   -3.5367    1.0000 </r>
       <r>   -2.8713    1.0000 </r>
       <r>   -0.7657    0.0000 </r>
       <r>    0.3776    0.0000 </r>
       <r>    0.4757    0.0000 </r>
       <r>    1.0467    0.0000 </r>
       <r>    2.4608    0.0000 </r>
       <r>    2.5481    0.0000 </r>
      </set>
      <set comment="kpoint 36">
       <r>  -16.8912    1.0000 </r>
       <r>  -14.6484    1.0000 </r>
       <r>  -11.5475    1.0000 </r>
       <r>   -8.3802    1.0000 </r>
       <r>   -6.8937    1.0000 </r>
       <r>   -6.8189    1.0000 </r>
       <r>   -5.9387    1.0000 </r>
       <r>   -5.1641    1.0000 </r>
       <r>   -3.5444    1.0000 </r>
       <r>   -2.8744    1.0000 </r>
       <r>   -0.6974    0.0000 </r>
       <r>    0.0361    0.0000 </r>
       <r>    1.2625    0.0000 </r>
       <r>    1.7130    0.0000 </r>
       <r>    2.2897    0.0000 </r>
       <r>    2.5747    0.0000 </r>
      </set>
      <set comment="kpoint 37">
       <r>  -16.7013    1.0000 </r>
       <r>  -14.4621    1.0000 </r>
       <r>  -11.6536    1.0000 </r>
       <r>   -8.4010    1.0000 </r>
       <r>   -7.3441    1.0000 </r>
       <r>   -7.0404    1.0000 </r>
       <r>   -5.8172    1.0000 </r>
       <r>   -5.4481    1.0000 </r>
       <r>   -3.6063    1.0000 </r>
       <r>   -2.9027    1.0000 </r>
       <r>   -0.6049    0.0000 </r>
       <r>   -0.3454    0.0000 </r>
       <r>    1.5292    0.0000 </r>
       <r>    1.9098    0.0000 </r>
       <r>    2.4692    0.0000 </r>
       <r>    2.6764    0.0000 </r>
      </set>
      <set comment="kpoint 38">
       <r>  -16.4597    1.0000 </r>
       <r>  -14.2261    1.0000 </r>
       <r>  -11.8409    1.0000 </r>
       <r>   -8.5995    1.0000 </r>
       <r>   -7.6998    1.0000 </r>
       <r>   -7.2540    1.0000 </r>
       <r>   -5.6449    1.0000 </r>
       <r>   -5.5180    1.0000 </r>
       <r>   -3.7456    1.0000 </r>
       <r>   -2.9743    1.0000 </r>
       <r>   -0.5878    0.0000 </r>
       <r>   -0.4879    0.0000 </r>
       <r>    0.9678    0.0000 </r>
       <r>    1.4622    0.0000 </r>
       <r>    2.6678    0.0000 </r>
       <r>    3.1568    0.0000 </r>
      </set>
      <set comment="kpoint 39">
       <r>  -16.1679    1.0000 </r>
       <r>  -13.9483    1.0000 </r>
       <r>  -12.1201    1.0000 </r>
       <r>   -9.0511    1.0000 </r>
       <r>   -7.9022    1.0000 </r>
       <r>   -7.2880    1.0000 </r>
       <r>   -5.4806    1.0000 </r>
       <r>   -5.4532    1.0000 </r>
       <r>   -3.9455    1.0000 </r>
       <r>   -3.1017    1.0000 </r>
       <r>   -0.6591    0.0000 </r>
       <r>   -0.3539    0.0000 </r>
       <r>    0.4223    0.0000 </r>
       <r>    0.8610    0.0000 </r>
       <r>    2.4775    0.0000 </r>
       <r>    3.1473    0.0000 </r>
      </set>
      <set comment="kpoint 40">
       <r>  -15.8281    1.0000 </r>
       <r>  -13.6568    1.0000 </r>
       <r>  -12.4553    1.0000 </r>
       <r>   -9.6448    1.0000 </r>
       <r>   -7.9447    1.0000 </r>
       <r>   -7.1981    1.0000 </r>
       <r>   -5.4441    1.0000 </r>
       <r>   -5.2722    1.0000 </r>
       <r>   -4.1243    1.0000 </r>
       <r>   -3.2787    1.0000 </r>
       <r>   -0.5928    0.0000 </r>
       <r>   -0.3257    0.0000 </r>
       <r>    0.0803    0.0000 </r>
       <r>    0.2972    0.0000 </r>
       <r>    2.1582    0.0000 </r>
       <r>    2.8725    0.0000 </r>
      </set>
      <set comment="kpoint 41">
       <r>  -15.4435    1.0000 </r>
       <r>  -13.4954    1.0000 </r>
       <r>  -12.6738    1.0000 </r>
       <r>  -10.2754    1.0000 </r>
       <r>   -7.8535    1.0000 </r>
       <r>   -7.0925    1.0000 </r>
       <r>   -5.4771    1.0000 </r>
       <r>   -5.1449    1.0000 </r>
       <r>   -4.1769    1.0000 </r>
       <r>   -3.4748    1.0000 </r>
       <r>   -0.6237    0.0000 </r>
       <r>   -0.5741    0.0000 </r>
       <r>   -0.0244    0.0000 </r>
       <r>    0.1892    0.0000 </r>
       <r>    1.7847    0.0000 </r>
       <r>    2.4889    0.0000 </r>
      </set>
      <set comment="kpoint 42">
       <r>  -15.0190    1.0000 </r>
       <r>  -13.7349    1.0000 </r>
       <r>  -12.4723    1.0000 </r>
       <r>  -10.8958    1.0000 </r>
       <r>   -7.6683    1.0000 </r>
       <r>   -7.0644    1.0000 </r>
       <r>   -5.5341    1.0000 </r>
       <r>   -5.1194    1.0000 </r>
       <r>   -4.0901    1.0000 </r>
       <r>   -3.6514    1.0000 </r>
       <r>   -0.8851    0.0000 </r>
       <r>   -0.8534    0.0000 </r>
       <r>    0.1498    0.0000 </r>
       <r>    0.3769    0.0000 </r>
       <r>    1.4504    0.0000 </r>
       <r>    2.0591    0.0000 </r>
[...]
       <r>    3.3041    0.0000 </r>
       <r>    3.5177    0.0000 </r>
      </set>
      <set comment="kpoint 153">
       <r>  -15.3945    1.0000 </r>
       <r>  -15.0394    1.0000 </r>
       <r>  -10.8817    1.0000 </r>
       <r>  -10.6102    1.0000 </r>
       <r>   -7.9381    1.0000 </r>
       <r>   -7.7601    1.0000 </r>
       <r>   -5.2119    1.0000 </r>
       <r>   -5.1197    1.0000 </r>
       <r>   -3.8604    1.0000 </r>
       <r>   -3.7300    1.0000 </r>
       <r>    0.1983    0.0000 </r>
       <r>    0.7769    0.0000 </r>
       <r>    1.1730    0.0000 </r>
       <r>    1.3314    0.0000 </r>
       <r>    3.3157    0.0000 </r>
       <r>    3.4267    0.0000 </r>
      </set>
      <set comment="kpoint 154">
       <r>  -15.6559    1.0000 </r>
       <r>  -15.3157    1.0000 </r>
       <r>  -10.7437    1.0000 </r>
       <r>  -10.4359    1.0000 </r>
       <r>   -7.5863    1.0000 </r>
       <r>   -7.4604    1.0000 </r>
       <r>   -5.1303    1.0000 </r>
       <r>   -4.9021    1.0000 </r>
       <r>   -3.7644    1.0000 </r>
       <r>   -3.6794    1.0000 </r>
       <r>    0.2233    0.0000 </r>
       <r>    0.6876    0.0000 </r>
       <r>    1.2461    0.0000 </r>
       <r>    1.5019    0.0000 </r>
       <r>    3.1015    0.0000 </r>
       <r>    3.2808    0.0000 </r>
      </set>
      <set comment="kpoint 155">
       <r>  -15.8744    1.0000 </r>
       <r>  -15.5501    1.0000 </r>
       <r>  -10.7159    1.0000 </r>
       <r>  -10.3904    1.0000 </r>
       <r>   -7.0448    1.0000 </r>
       <r>   -6.9513    1.0000 </r>
       <r>   -5.1690    1.0000 </r>
       <r>   -4.8445    1.0000 </r>
       <r>   -3.7058    1.0000 </r>
       <r>   -3.4313    1.0000 </r>
       <r>    0.3362    0.0000 </r>
       <r>    0.6719    0.0000 </r>
       <r>    1.2265    0.0000 </r>
       <r>    1.5681    0.0000 </r>
       <r>    2.4849    0.0000 </r>
       <r>    2.6676    0.0000 </r>
      </set>
      <set comment="kpoint 156">
       <r>  -16.0457    1.0000 </r>
       <r>  -15.7376    1.0000 </r>
       <r>  -10.7433    1.0000 </r>
       <r>  -10.4144    1.0000 </r>
       <r>   -6.3918    1.0000 </r>
       <r>   -6.3129    1.0000 </r>
       <r>   -5.2428    1.0000 </r>
       <r>   -4.8809    1.0000 </r>
       <r>   -3.6366    1.0000 </r>
       <r>   -3.2320    1.0000 </r>
       <r>    0.4815    0.0000 </r>
       <r>    0.7091    0.0000 </r>
       <r>    1.1217    0.0000 </r>
       <r>    1.4959    0.0000 </r>
       <r>    1.8042    0.0000 </r>
       <r>    1.9333    0.0000 </r>
      </set>
      <set comment="kpoint 157">
       <r>  -16.1672    1.0000 </r>
       <r>  -15.8754    1.0000 </r>
       <r>  -10.7841    1.0000 </r>
       <r>  -10.4590    1.0000 </r>
       <r>   -5.7108    1.0000 </r>
       <r>   -5.6351    1.0000 </r>
       <r>   -5.3075    1.0000 </r>
       <r>   -4.9407    1.0000 </r>
       <r>   -3.6386    1.0000 </r>
       <r>   -3.1474    1.0000 </r>
       <r>    0.3603    0.0000 </r>
       <r>    0.5309    0.0000 </r>
       <r>    1.0585    0.0000 </r>
       <r>    1.2142    0.0000 </r>
       <r>    1.5615    0.0000 </r>
       <r>    1.5954    0.0000 </r>
      </set>
      <set comment="kpoint 158">
       <r>  -16.2373    1.0000 </r>
       <r>  -15.9621    1.0000 </r>
       <r>  -10.8149    1.0000 </r>
       <r>  -10.4963    1.0000 </r>
       <r>   -5.3580    1.0000 </r>
       <r>   -5.1199    1.0000 </r>
       <r>   -5.0196    1.0000 </r>
       <r>   -4.9869    1.0000 </r>
       <r>   -3.7380    1.0000 </r>
       <r>   -3.1968    1.0000 </r>
       <r>   -0.0130    0.0000 </r>
       <r>    0.0537    0.0000 </r>
       <r>    1.1408    0.0000 </r>
       <r>    1.2561    0.0000 </r>
       <r>    1.5229    0.0000 </r>
       <r>    1.5409    0.0000 </r>
      </set>
     </set>
    </set>
   </array>
  </eigenvalues>
  <separator name="orbital magnetization" >
   <v name="MAGDIPOLOUT">      0.00000000      0.00000000      0.00000000</v>
  </separator>
  <dos>
   <i name="efermi">     -2.18918836 </i>
   <total>
    <array>
     <dimension dim="1">gridpoints</dimension>
     <dimension dim="2">spin</dimension>
     <field>energy</field>
     <field>total</field>
     <field>integrated</field>
     <set>
      <set comment="spin 1">
       <r>   -18.2757     0.0000     0.0000 </r>
       <r>   -18.1989     0.0000     0.0000 </r>
       <r>   -18.1220     0.0000     0.0000 </r>
       <r>   -18.0451     0.0000     0.0000 </r>
       <r>   -17.9682     0.0000     0.0000 </r>
       <r>   -17.8913     0.0000     0.0000 </r>
       <r>   -17.8145     0.0000     0.0000 </r>
       <r>   -17.7376     0.0000     0.0000 </r>
       <r>   -17.6607     0.0000     0.0000 </r>
       <r>   -17.5838     0.0000     0.0000 </r>
       <r>   -17.5070     0.0000     0.0000 </r>
       <r>   -17.4301     0.0000     0.0000 </r>
       <r>   -17.3532     0.0000     0.0000 </r>
       <r>   -17.2763     0.0000     0.0000 </r>
       <r>   -17.1994     0.3037     0.0233 </r>
       <r>   -17.1226     0.7708     0.0826 </r>
       <r>   -17.0457     0.7784     0.1424 </r>
       <r>   -16.9688     0.9701     0.2170 </r>
       <r>   -16.8919     0.8749     0.2843 </r>
       <r>   -16.8151     0.5997     0.3304 </r>
       <r>   -16.7382     1.0996     0.4149 </r>
       <r>   -16.6613     0.8888     0.4832 </r>
       <r>   -16.5844     0.7963     0.5445 </r>
       <r>   -16.5076     0.6755     0.5964 </r>
       <r>   -16.4307     1.3710     0.7018 </r>
       <r>   -16.3538     0.5896     0.7471 </r>
       <r>   -16.2769     0.4841     0.7843 </r>
       <r>   -16.2000     1.6276     0.9095 </r>
       <r>   -16.1232     0.6648     0.9606 </r>
       <r>   -16.0463     0.7766     1.0203 </r>
       <r>   -15.9694     0.9852     1.0960 </r>
       <r>   -15.8925     1.0269     1.1749 </r>
       <r>   -15.8157     0.9772     1.2501 </r>
       <r>   -15.7388     0.8735     1.3172 </r>
       <r>   -15.6619     0.9291     1.3886 </r>
       <r>   -15.5850     0.9167     1.4591 </r>
       <r>   -15.5082     1.2173     1.5527 </r>
       <r>   -15.4313     1.1182     1.6387 </r>
       <r>   -15.3544     1.0737     1.7212 </r>
       <r>   -15.2775     1.0770     1.8040 </r>
       <r>   -15.2006     0.9114     1.8741 </r>
       <r>   -15.1238     1.0746     1.9567 </r>
       <r>   -15.0469     1.2977     2.0564 </r>
       <r>   -14.9700     1.7300     2.1894 </r>
       <r>   -14.8931     0.9450     2.2621 </r>
       <r>   -14.8163     1.2908     2.3613 </r>
       <r>   -14.7394     2.2535     2.5346 </r>
       <r>   -14.6625     0.7249     2.5903 </r>
       <r>   -14.5856     2.3066     2.7676 </r>
       <r>   -14.5087     1.2997     2.8675 </r>
       <r>   -14.4319     1.1423     2.9553 </r>
       <r>   -14.3550     1.1629     3.0447 </r>
       <r>   -14.2781     1.2798     3.1431 </r>
       <r>   -14.2012     0.7843     3.2034 </r>
       <r>   -14.1244     2.1329     3.3674 </r>
       <r>   -14.0475     1.4610     3.4797 </r>
       <r>   -13.9706     0.8403     3.5443 </r>
       <r>   -13.8937     1.2762     3.6424 </r>
       <r>   -13.8169     0.5231     3.6826 </r>
       <r>   -13.7400     0.9913     3.7588 </r>
       <r>   -13.6631     0.8023     3.8205 </r>
       <r>   -13.5862     0.7438     3.8777 </r>
       <r>   -13.5093     0.3009     3.9008 </r>
       <r>   -13.4325     0.4145     3.9327 </r>
       <r>   -13.3556     0.3646     3.9607 </r>
       <r>   -13.2787     0.1773     3.9744 </r>
       <r>   -13.2018     0.1376     3.9849 </r>
       <r>   -13.1250     0.1930     3.9998 </r>
       <r>   -13.0481     0.0028     4.0000 </r>
       <r>   -12.9712     0.0930     4.0072 </r>
       <r>   -12.8943     0.1275     4.0169 </r>
       <r>   -12.8175     0.2688     4.0376 </r>
       <r>   -12.7406     0.0067     4.0381 </r>
       <r>   -12.6637     0.3914     4.0682 </r>
       <r>   -12.5868     0.3905     4.0982 </r>
       <r>   -12.5099     0.2999     4.1213 </r>
       <r>   -12.4331     1.2613     4.2183 </r>
       <r>   -12.3562     0.3544     4.2455 </r>
       <r>   -12.2793     0.4498     4.2801 </r>
       <r>   -12.2024     1.1569     4.3690 </r>
       <r>   -12.1256     0.5281     4.4096 </r>
       <r>   -12.0487     2.0254     4.5653 </r>
       <r>   -11.9718     1.7103     4.6968 </r>
       <r>   -11.8949     0.9745     4.7717 </r>
       <r>   -11.8180     0.8641     4.8382 </r>
       <r>   -11.7412     1.0229     4.9168 </r>
       <r>   -11.6643     1.4167     5.0257 </r>
       <r>   -11.5874     0.8580     5.0917 </r>
       <r>   -11.5105     2.1403     5.2562 </r>
       <r>   -11.4337     4.5870     5.6088 </r>
       <r>   -11.3568     1.7270     5.7416 </r>
       <r>   -11.2799     0.8270     5.8052 </r>
       <r>   -11.2030     1.9598     5.9559 </r>
       <r>   -11.1262     0.6193     6.0035 </r>
       <r>   -11.0493     1.0429     6.0837 </r>
       <r>   -10.9724     1.5101     6.1997 </r>
       <r>   -10.8955     0.6462     6.2494 </r>
       <r>   -10.8186     1.2263     6.3437 </r>
       <r>   -10.7418     1.2511     6.4399 </r>
       <r>   -10.6649     0.5566     6.4827 </r>
       <r>   -10.5880     0.5011     6.5212 </r>
       <r>   -10.5111     0.6552     6.5716 </r>
       <r>   -10.4343     0.9675     6.6459 </r>
       <r>   -10.3574     1.0362     6.7256 </r>
       <r>   -10.2805     0.4911     6.7634 </r>
       <r>   -10.2036     0.7361     6.8199 </r>
       <r>   -10.1268     0.6727     6.8717 </r>
       <r>   -10.0499     1.1274     6.9583 </r>
       <r>    -9.9730     0.5840     7.0032 </r>
       <r>    -9.8961     0.2739     7.0243 </r>
       <r>    -9.8192     0.2498     7.0435 </r>
       <r>    -9.7424     0.3461     7.0701 </r>
       <r>    -9.6655     1.2236     7.1642 </r>
       <r>    -9.5886     0.9228     7.2351 </r>
       <r>    -9.5117     0.5643     7.2785 </r>
       <r>    -9.4349     0.0528     7.2825 </r>
       <r>    -9.3580     0.0017     7.2827 </r>
       <r>    -9.2811     1.1796     7.3734 </r>
       <r>    -9.2042     0.8357     7.4376 </r>
       <r>    -9.1273     0.1303     7.4476 </r>
       <r>    -9.0505     0.2414     7.4662 </r>
       <r>    -8.9736     0.0962     7.4736 </r>
       <r>    -8.8967     0.5226     7.5137 </r>
       <r>    -8.8198     1.1139     7.5994 </r>
       <r>    -8.7430     0.6652     7.6505 </r>
       <r>    -8.6661     0.0035     7.6508 </r>
       <r>    -8.5892     0.2442     7.6696 </r>
       <r>    -8.5123     0.0862     7.6762 </r>
       <r>    -8.4355     0.2600     7.6962 </r>
       <r>    -8.3586     1.0365     7.7759 </r>
       <r>    -8.2817     0.5186     7.8157 </r>
       <r>    -8.2048     0.0712     7.8212 </r>
       <r>    -8.1279     0.9611     7.8951 </r>
       <r>    -8.0511     2.4112     8.0805 </r>
       <r>    -7.9742     2.0794     8.2403 </r>
       <r>    -7.8973     1.6805     8.3695 </r>
       <r>    -7.8204     2.1955     8.5383 </r>
       <r>    -7.7436     2.5335     8.7331 </r>
       <r>    -7.6667     1.9653     8.8841 </r>
       <r>    -7.5898     1.6224     9.0089 </r>
       <r>    -7.5129     2.0032     9.1629 </r>
       <r>    -7.4361     1.6833     9.2923 </r>
       <r>    -7.3592     2.6493     9.4959 </r>
       <r>    -7.2823     2.3762     9.6786 </r>
       <r>    -7.2054     4.0550     9.9904 </r>
       <r>    -7.1285     2.8680    10.2108 </r>
       <r>    -7.0517     3.2353    10.4596 </r>
       <r>    -6.9748     1.9146    10.6067 </r>
       <r>    -6.8979     1.3138    10.7077 </r>
       <r>    -6.8210     1.4484    10.8191 </r>
       <r>    -6.7442     1.5188    10.9359 </r>
       <r>    -6.6673     2.0326    11.0921 </r>
       <r>    -6.5904     1.4946    11.2070 </r>
       <r>    -6.5135     1.5585    11.3268 </r>
       <r>    -6.4367     1.6835    11.4563 </r>
       <r>    -6.3598     1.1090    11.5415 </r>
       <r>    -6.2829     1.8218    11.6816 </r>
       <r>    -6.2060     1.6222    11.8063 </r>
       <r>    -6.1291     1.7242    11.9388 </r>
       <r>    -6.0523     1.6896    12.0687 </r>
       <r>    -5.9754     1.7628    12.2042 </r>
       <r>    -5.8985     2.0288    12.3602 </r>
       <r>    -5.8216     1.1870    12.4515 </r>
       <r>    -5.7448     2.1461    12.6165 </r>
       <r>    -5.6679     3.0172    12.8484 </r>
       <r>    -5.5910     3.9079    13.1488 </r>
       <r>    -5.5141     3.3162    13.4038 </r>
       <r>    -5.4372     4.3574    13.7388 </r>
       <r>    -5.3604     3.7198    14.0247 </r>
       <r>    -5.2835     2.9123    14.2486 </r>
       <r>    -5.2066     2.4462    14.4367 </r>
       <r>    -5.1297     3.3732    14.6960 </r>
       <r>    -5.0529     2.3034    14.8731 </r>
       <r>    -4.9760     2.4953    15.0649 </r>
       <r>    -4.8991     2.0714    15.2241 </r>
       <r>    -4.8222     1.6067    15.3477 </r>
       <r>    -4.7454     0.9042    15.4172 </r>
       <r>    -4.6685     1.3113    15.5180 </r>
       <r>    -4.5916     1.4992    15.6332 </r>
       <r>    -4.5147     1.7663    15.7690 </r>
       <r>    -4.4378     0.5181    15.8088 </r>
       <r>    -4.3610     0.9837    15.8845 </r>
       <r>    -4.2841     0.7607    15.9430 </r>
       <r>    -4.2072     1.9491    16.0928 </r>
       <r>    -4.1303     2.7304    16.3027 </r>
       <r>    -4.0535     2.4466    16.4908 </r>
       <r>    -3.9766     2.4818    16.6816 </r>
       <r>    -3.8997     2.7148    16.8903 </r>
       <r>    -3.8228     3.0722    17.1265 </r>
       <r>    -3.7460     4.6257    17.4821 </r>
       <r>    -3.6691     3.6821    17.7652 </r>
       <r>    -3.5922     3.4255    18.0285 </r>
       <r>    -3.5153     2.8142    18.2448 </r>
       <r>    -3.4384     3.8192    18.5385 </r>
       <r>    -3.3616     2.8134    18.7547 </r>
       <r>    -3.2847     3.0867    18.9920 </r>
       <r>    -3.2078     3.5444    19.2645 </r>
       <r>    -3.1309     1.4726    19.3777 </r>
       <r>    -3.0541     0.6885    19.4307 </r>
       <r>    -2.9772     0.5326    19.4716 </r>
       <r>    -2.9003     1.9747    19.6234 </r>
       <r>    -2.8234     1.7094    19.7548 </r>
       <r>    -2.7465     0.5143    19.7944 </r>
       <r>    -2.6697     0.2817    19.8160 </r>
       <r>    -2.5928     0.2996    19.8390 </r>
       <r>    -2.5159     0.3316    19.8645 </r>
       <r>    -2.4390     1.1668    19.9542 </r>
       <r>    -2.3622     0.0676    19.9594 </r>
       <r>    -2.2853     0.3044    19.9828 </r>
       <r>    -2.2084     0.2231    20.0000 </r>
       <r>    -2.1315     0.0000    20.0000 </r>
       <r>    -2.0547     0.0000    20.0000 </r>
       <r>    -1.9778     0.0000    20.0000 </r>
       <r>    -1.9009     0.0000    20.0000 </r>
       <r>    -1.8240     0.0000    20.0000 </r>
       <r>    -1.7471     0.0000    20.0000 </r>
       <r>    -1.6703     0.0000    20.0000 </r>
       <r>    -1.5934     0.0000    20.0000 </r>
       <r>    -1.5165     0.0000    20.0000 </r>
       <r>    -1.4396     0.0000    20.0000 </r>
       <r>    -1.3628     0.0911    20.0070 </r>
       <r>    -1.2859     0.1878    20.0214 </r>
       <r>    -1.2090     0.1709    20.0346 </r>
       <r>    -1.1321     1.2273    20.1289 </r>
       <r>    -1.0553     1.3252    20.2308 </r>
       <r>    -0.9784     1.5269    20.3482 </r>
       <r>    -0.9015     1.2120    20.4414 </r>
       <r>    -0.8246     2.6541    20.6454 </r>
       <r>    -0.7477     1.6944    20.7757 </r>
       <r>    -0.6709     1.3233    20.8774 </r>
       <r>    -0.5940     1.8054    21.0162 </r>
       <r>    -0.5171     2.7007    21.2238 </r>
       <r>    -0.4402     2.0925    21.3847 </r>
       <r>    -0.3634     2.2794    21.5599 </r>
       <r>    -0.2865     3.3144    21.8147 </r>
       <r>    -0.2096     1.7465    21.9490 </r>
       <r>    -0.1327     3.1712    22.1928 </r>
       <r>    -0.0558     2.3129    22.3706 </r>
       <r>     0.0210     3.6126    22.6483 </r>
       <r>     0.0979     3.2432    22.8977 </r>
       <r>     0.1748     3.5149    23.1679 </r>
       <r>     0.2517     2.9897    23.3977 </r>
       <r>     0.3285     3.0964    23.6358 </r>
       <r>     0.4054     5.6832    24.0727 </r>
       <r>     0.4823     4.4903    24.4179 </r>
       <r>     0.5592     3.8271    24.7121 </r>
       <r>     0.6360     3.7330    24.9991 </r>
       <r>     0.7129     3.3237    25.2546 </r>
       <r>     0.7898     2.6710    25.4599 </r>
       <r>     0.8667     4.5743    25.8116 </r>
       <r>     0.9436     2.2799    25.9869 </r>
       <r>     1.0204     3.3268    26.2426 </r>
       <r>     1.0973     3.0429    26.4765 </r>
       <r>     1.1742     2.5495    26.6725 </r>
       <r>     1.2511     3.6506    26.9532 </r>
       <r>     1.3279     2.9733    27.1818 </r>
       <r>     1.4048     1.6839    27.3112 </r>
       <r>     1.4817     1.8957    27.4569 </r>
       <r>     1.5586     3.1376    27.6982 </r>
       <r>     1.6354     2.2847    27.8738 </r>
       <r>     1.7123     2.3391    28.0536 </r>
       <r>     1.7892     1.4559    28.1656 </r>
       <r>     1.8661     3.0177    28.3975 </r>
       <r>     1.9430     2.5257    28.5917 </r>
       <r>     2.0198     2.7252    28.8012 </r>
       <r>     2.0967     1.3763    28.9070 </r>
       <r>     2.1736     2.1470    29.0721 </r>
       <r>     2.2505     2.7800    29.2858 </r>
       <r>     2.3273     2.4481    29.4740 </r>
       <r>     2.4042     2.3146    29.6520 </r>
       <r>     2.4811     3.9240    29.9536 </r>
       <r>     2.5580     2.2208    30.1243 </r>
       <r>     2.6349     3.9688    30.4295 </r>
       <r>     2.7117     3.1243    30.6696 </r>
       <r>     2.7886     1.9743    30.8214 </r>
       <r>     2.8655     2.4106    31.0067 </r>
       <r>     2.9424     2.2306    31.1782 </r>
       <r>     3.0192     1.5934    31.3007 </r>
       <r>     3.0961     1.7621    31.4362 </r>
       <r>     3.1730     1.2776    31.5344 </r>
       <r>     3.2499     1.7220    31.6668 </r>
       <r>     3.3267     2.3595    31.8482 </r>
       <r>     3.4036     0.3518    31.8752 </r>
       <r>     3.4805     0.5298    31.9160 </r>
       <r>     3.5574     0.5971    31.9619 </r>
       <r>     3.6343     0.2848    31.9838 </r>
       <r>     3.7111     0.0501    31.9876 </r>
       <r>     3.7880     0.1612    32.0000 </r>
       <r>     3.8649     0.0000    32.0000 </r>
       <r>     3.9418     0.0000    32.0000 </r>
       <r>     4.0186     0.0000    32.0000 </r>
       <r>     4.0955     0.0000    32.0000 </r>
       <r>     4.1724     0.0000    32.0000 </r>
       <r>     4.2493     0.0000    32.0000 </r>
       <r>     4.3261     0.0000    32.0000 </r>
       <r>     4.4030     0.0000    32.0000 </r>
       <r>     4.4799     0.0000    32.0000 </r>
       <r>     4.5568     0.0000    32.0000 </r>
       <r>     4.6337     0.0000    32.0000 </r>
       <r>     4.7105     0.0000    32.0000 </r>
       <r>     4.7874     0.0000    32.0000 </r>
      </set>
     </set>
    </array>
   </total>
  </dos>
 </calculation>
 <structure name="finalpos" >
  <crystal>
   <varray name="basis" >
    <v>       3.29683300      -0.04946400       0.00000000 </v>
    <v>      -0.06935800       4.62283100      -0.00005300 </v>
    <v>       0.00000000       0.00000000      20.02439000 </v>
   </varray>
   <i name="volume">    305.11705844 </i>
   <varray name="rec_basis" >
    <v>       0.30338969       0.00455186       0.00000000 </v>
    <v>       0.00324625       0.21636637       0.00000000 </v>
    <v>       0.00000001       0.00000057       0.04993910 </v>
   </varray>
  </crystal>
  <varray name="positions" >
   <v>       0.50575068       0.91100353       0.55251599 </v>
   <v>       0.49424932       0.08899647       0.44748401 </v>
   <v>       0.00575059       0.41099903       0.44748401 </v>
   <v>      -0.00575059       0.58900097       0.55251599 </v>
  </varray>
 </structure>
</modeling>
