<?xml version="1.0" encoding="ISO-8859-1"?>
<modeling>
 <generator>
  <i name="program" type="string">vasp </i>
  <i name="version" type="string">5.4.1  </i>
  <i name="subversion" type="string">24Jun15 (build Nov 20 2020 10:29:34) complex                          parallel </i>
  <i name="platform" type="string">IFC91_ompi </i>
  <i name="date" type="string">2021 09 09 </i>
  <i name="time" type="string">14:51:03 </i>
 </generator>
 <incar>
  <i type="string" name="PREC">a</i>
  <i type="string" name="ALGO"> Normal</i>
  <i type="int" name="ISPIN">     1</i>
  <i type="int" name="ICHARG">     2</i>
  <i type="int" name="NELM">   250</i>
  <i type="int" name="NELMDL">    -5</i>
  <i type="int" name="NELMIN">     6</i>
  <i type="int" name="IBRION">     2</i>
  <i name="EDIFF">      0.00001000</i>
  <i name="EDIFFG">     -0.01000000</i>
  <i type="int" name="NSW">   200</i>
  <i type="int" name="ISIF">     2</i>
  <i name="ENCUT">    520.00000000</i>
  <i name="POTIM">      0.30000000</i>
  <i type="logical" name="LREAL"> F  </i>
  <i type="int" name="ISMEAR">     0</i>
  <i name="SIGMA">      0.02000000</i>
  <i type="logical" name="LWAVE"> F  </i>
  <i type="logical" name="LCHARG"> F  </i>
  <i type="logical" name="LAECHG"> F  </i>
  <v type="int" name="KPOINT_BSE">    -1     0     0     0</v>
  <i type="int" name="NELM">   250</i>
 </incar>
 <kpoints>
  <generation param="Gamma">
   <v type="int" name="divisions">      21       15        1 </v>
   <v name="usershift">      0.00000000       0.00000000       0.00000000 </v>
   <v name="genvec1">      0.04761905       0.00000000       0.00000000 </v>
   <v name="genvec2">      0.00000000       0.06666667       0.00000000 </v>
   <v name="genvec3">      0.00000000       0.00000000       1.00000000 </v>
   <v name="shift">      0.00000000       0.00000000       0.00000000 </v>
  </generation>
  <varray name="kpointlist" >
   <v>       0.00000000       0.00000000       0.00000000 </v>
   <v>       0.04761905       0.00000000       0.00000000 </v>
   <v>       0.09523810       0.00000000       0.00000000 </v>
   <v>       0.14285714       0.00000000       0.00000000 </v>
   <v>       0.19047619       0.00000000       0.00000000 </v>
   <v>       0.23809524       0.00000000       0.00000000 </v>
   <v>       0.28571429       0.00000000       0.00000000 </v>
   <v>       0.33333333       0.00000000       0.00000000 </v>
   <v>       0.38095238       0.00000000       0.00000000 </v>
   <v>       0.42857143       0.00000000       0.00000000 </v>
   <v>       0.47619048       0.00000000       0.00000000 </v>
   <v>       0.00000000       0.06666667       0.00000000 </v>
   <v>       0.04761905       0.06666667       0.00000000 </v>
   <v>       0.09523810       0.06666667       0.00000000 </v>
   <v>       0.14285714       0.06666667       0.00000000 </v>
   <v>       0.19047619       0.06666667       0.00000000 </v>
   <v>       0.23809524       0.06666667       0.00000000 </v>
   <v>       0.28571429       0.06666667       0.00000000 </v>
   <v>       0.33333333       0.06666667       0.00000000 </v>
   <v>       0.38095238       0.06666667       0.00000000 </v>
   <v>       0.42857143       0.06666667       0.00000000 </v>
   <v>       0.47619048       0.06666667       0.00000000 </v>
   <v>      -0.47619048       0.06666667       0.00000000 </v>
   <v>      -0.42857143       0.06666667       0.00000000 </v>
   <v>      -0.38095238       0.06666667       0.00000000 </v>
   <v>      -0.33333333       0.06666667       0.00000000 </v>
   <v>      -0.28571429       0.06666667       0.00000000 </v>
   <v>      -0.23809524       0.06666667       0.00000000 </v>
   <v>      -0.19047619       0.06666667       0.00000000 </v>
   <v>      -0.14285714       0.06666667       0.00000000 </v>
   <v>      -0.09523810       0.06666667       0.00000000 </v>
   <v>      -0.04761905       0.06666667       0.00000000 </v>
   <v>       0.00000000       0.13333333       0.00000000 </v>
   <v>       0.04761905       0.13333333       0.00000000 </v>
   <v>       0.09523810       0.13333333       0.00000000 </v>
   <v>       0.14285714       0.13333333       0.00000000 </v>
   <v>       0.19047619       0.13333333       0.00000000 </v>
   <v>       0.23809524       0.13333333       0.00000000 </v>
   <v>       0.28571429       0.13333333       0.00000000 </v>
   <v>       0.33333333       0.13333333       0.00000000 </v>
   <v>       0.38095238       0.13333333       0.00000000 </v>
   <v>       0.42857143       0.13333333       0.00000000 </v>
   <v>       0.47619048       0.13333333       0.00000000 </v>
   <v>      -0.47619048       0.13333333       0.00000000 </v>
   <v>      -0.42857143       0.13333333       0.00000000 </v>
   <v>      -0.38095238       0.13333333       0.00000000 </v>
   <v>      -0.33333333       0.13333333       0.00000000 </v>
   <v>      -0.28571429       0.13333333       0.00000000 </v>
   <v>      -0.23809524       0.13333333       0.00000000 </v>
   <v>      -0.19047619       0.13333333       0.00000000 </v>
   <v>      -0.14285714       0.13333333       0.00000000 </v>
   <v>      -0.09523810       0.13333333       0.00000000 </v>
   <v>      -0.04761905       0.13333333       0.00000000 </v>
   <v>       0.00000000       0.20000000       0.00000000 </v>
   <v>       0.04761905       0.20000000       0.00000000 </v>
   <v>       0.09523810       0.20000000       0.00000000 </v>
   <v>       0.14285714       0.20000000       0.00000000 </v>
   <v>       0.19047619       0.20000000       0.00000000 </v>
   <v>       0.23809524       0.20000000       0.00000000 </v>
   <v>       0.28571429       0.20000000       0.00000000 </v>
   <v>       0.33333333       0.20000000       0.00000000 </v>
   <v>       0.38095238       0.20000000       0.00000000 </v>
   <v>       0.42857143       0.20000000       0.00000000 </v>
   <v>       0.47619048       0.20000000       0.00000000 </v>
   <v>      -0.47619048       0.20000000       0.00000000 </v>
   <v>      -0.42857143       0.20000000       0.00000000 </v>
   <v>      -0.38095238       0.20000000       0.00000000 </v>
   <v>      -0.33333333       0.20000000       0.00000000 </v>
   <v>      -0.28571429       0.20000000       0.00000000 </v>
   <v>      -0.23809524       0.20000000       0.00000000 </v>
   <v>      -0.19047619       0.20000000       0.00000000 </v>
   <v>      -0.14285714       0.20000000       0.00000000 </v>
   <v>      -0.09523810       0.20000000       0.00000000 </v>
   <v>      -0.04761905       0.20000000       0.00000000 </v>
   <v>       0.00000000       0.26666667       0.00000000 </v>
   <v>       0.04761905       0.26666667       0.00000000 </v>
   <v>       0.09523810       0.26666667       0.00000000 </v>
   <v>       0.14285714       0.26666667       0.00000000 </v>
   <v>       0.19047619       0.26666667       0.00000000 </v>
   <v>       0.23809524       0.26666667       0.00000000 </v>
   <v>       0.28571429       0.26666667       0.00000000 </v>
   <v>       0.33333333       0.26666667       0.00000000 </v>
   <v>       0.38095238       0.26666667       0.00000000 </v>
   <v>       0.42857143       0.26666667       0.00000000 </v>
   <v>       0.47619048       0.26666667       0.00000000 </v>
   <v>      -0.47619048       0.26666667       0.00000000 </v>
   <v>      -0.42857143       0.26666667       0.00000000 </v>
   <v>      -0.38095238       0.26666667       0.00000000 </v>
   <v>      -0.33333333       0.26666667       0.00000000 </v>
   <v>      -0.28571429       0.26666667       0.00000000 </v>
   <v>      -0.23809524       0.26666667       0.00000000 </v>
   <v>      -0.19047619       0.26666667       0.00000000 </v>
   <v>      -0.14285714       0.26666667       0.00000000 </v>
   <v>      -0.09523810       0.26666667       0.00000000 </v>
   <v>      -0.04761905       0.26666667       0.00000000 </v>
   <v>       0.00000000       0.33333333       0.00000000 </v>
   <v>       0.04761905       0.33333333       0.00000000 </v>
   <v>       0.09523810       0.33333333       0.00000000 </v>
   <v>       0.14285714       0.33333333       0.00000000 </v>
   <v>       0.19047619       0.33333333       0.00000000 </v>
   <v>       0.23809524       0.33333333       0.00000000 </v>
   <v>       0.28571429       0.33333333       0.00000000 </v>
   <v>       0.33333333       0.33333333       0.00000000 </v>
   <v>       0.38095238       0.33333333       0.00000000 </v>
   <v>       0.42857143       0.33333333       0.00000000 </v>
   <v>       0.47619048       0.33333333       0.00000000 </v>
   <v>      -0.47619048       0.33333333       0.00000000 </v>
   <v>      -0.42857143       0.33333333       0.00000000 </v>
   <v>      -0.38095238       0.33333333       0.00000000 </v>
   <v>      -0.33333333       0.33333333       0.00000000 </v>
   <v>      -0.28571429       0.33333333       0.00000000 </v>
   <v>      -0.23809524       0.33333333       0.00000000 </v>
   <v>      -0.19047619       0.33333333       0.00000000 </v>
   <v>      -0.14285714       0.33333333       0.00000000 </v>
   <v>      -0.09523810       0.33333333       0.00000000 </v>
   <v>      -0.04761905       0.33333333       0.00000000 </v>
   <v>       0.00000000       0.40000000       0.00000000 </v>
   <v>       0.04761905       0.40000000       0.00000000 </v>
   <v>       0.09523810       0.40000000       0.00000000 </v>
   <v>       0.14285714       0.40000000       0.00000000 </v>
   <v>       0.19047619       0.40000000       0.00000000 </v>
   <v>       0.23809524       0.40000000       0.00000000 </v>
   <v>       0.28571429       0.40000000       0.00000000 </v>
   <v>       0.33333333       0.40000000       0.00000000 </v>
   <v>       0.38095238       0.40000000       0.00000000 </v>
   <v>       0.42857143       0.40000000       0.00000000 </v>
   <v>       0.47619048       0.40000000       0.00000000 </v>
   <v>      -0.47619048       0.40000000       0.00000000 </v>
   <v>      -0.42857143       0.40000000       0.00000000 </v>
   <v>      -0.38095238       0.40000000       0.00000000 </v>
   <v>      -0.33333333       0.40000000       0.00000000 </v>
   <v>      -0.28571429       0.40000000       0.00000000 </v>
   <v>      -0.23809524       0.40000000       0.00000000 </v>
   <v>      -0.19047619       0.40000000       0.00000000 </v>
   <v>      -0.14285714       0.40000000       0.00000000 </v>
   <v>      -0.09523810       0.40000000       0.00000000 </v>
   <v>      -0.04761905       0.40000000       0.00000000 </v>
   <v>       0.00000000       0.46666667       0.00000000 </v>
   <v>       0.04761905       0.46666667       0.00000000 </v>
   <v>       0.09523810       0.46666667       0.00000000 </v>
   <v>       0.14285714       0.46666667       0.00000000 </v>
   <v>       0.19047619       0.46666667       0.00000000 </v>
   <v>       0.23809524       0.46666667       0.00000000 </v>
   <v>       0.28571429       0.46666667       0.00000000 </v>
   <v>       0.33333333       0.46666667       0.00000000 </v>
   <v>       0.38095238       0.46666667       0.00000000 </v>
   <v>       0.42857143       0.46666667       0.00000000 </v>
   <v>       0.47619048       0.46666667       0.00000000 </v>
   <v>      -0.47619048       0.46666667       0.00000000 </v>
   <v>      -0.42857143       0.46666667       0.00000000 </v>
   <v>      -0.38095238       0.46666667       0.00000000 </v>
   <v>      -0.33333333       0.46666667       0.00000000 </v>
   <v>      -0.28571429       0.46666667       0.00000000 </v>
   <v>      -0.23809524       0.46666667       0.00000000 </v>
   <v>      -0.19047619       0.46666667       0.00000000 </v>
   <v>      -0.14285714       0.46666667       0.00000000 </v>
   <v>      -0.09523810       0.46666667       0.00000000 </v>
   <v>      -0.04761905       0.46666667       0.00000000 </v>
  </varray>
  <varray name="weights" >
   <v>       0.00317460 </v>
   <v>       0.00634921 </v>
   <v>       0.00634921 </v>
   <v>       0.00634921 </v>
   <v>       0.00634921 </v>
   <v>       0.00634921 </v>
   <v>       0.00634921 </v>
   <v>       0.00634921 </v>
   <v>       0.00634921 </v>
   <v>       0.00634921 </v>
   <v>       0.00634921 </v>
   <v>       0.00634921 </v>
   <v>       0.00634921 </v>
   <v>       0.00634921 </v>
   <v>       0.00634921 </v>
   <v>       0.00634921 </v>
   <v>       0.00634921 </v>
   <v>       0.00634921 </v>
   <v>       0.00634921 </v>
   <v>       0.00634921 </v>
   <v>       0.00634921 </v>
   <v>       0.00634921 </v>
   <v>       0.00634921 </v>
   <v>       0.00634921 </v>
   <v>       0.00634921 </v>
   <v>       0.00634921 </v>
   <v>       0.00634921 </v>
   <v>       0.00634921 </v>
   <v>       0.00634921 </v>
   <v>       0.00634921 </v>
   <v>       0.00634921 </v>
   <v>       0.00634921 </v>
   <v>       0.00634921 </v>
   <v>       0.00634921 </v>
   <v>       0.00634921 </v>
   <v>       0.00634921 </v>
   <v>       0.00634921 </v>
   <v>       0.00634921 </v>
   <v>       0.00634921 </v>
   <v>       0.00634921 </v>
   <v>       0.00634921 </v>
   <v>       0.00634921 </v>
   <v>       0.00634921 </v>
   <v>       0.00634921 </v>
   <v>       0.00634921 </v>
   <v>       0.00634921 </v>
   <v>       0.00634921 </v>
   <v>       0.00634921 </v>
   <v>       0.00634921 </v>
   <v>       0.00634921 </v>
   <v>       0.00634921 </v>
   <v>       0.00634921 </v>
   <v>       0.00634921 </v>
   <v>       0.00634921 </v>
   <v>       0.00634921 </v>
   <v>       0.00634921 </v>
   <v>       0.00634921 </v>
   <v>       0.00634921 </v>
   <v>       0.00634921 </v>
   <v>       0.00634921 </v>
   <v>       0.00634921 </v>
   <v>       0.00634921 </v>
   <v>       0.00634921 </v>
   <v>       0.00634921 </v>
   <v>       0.00634921 </v>
   <v>       0.00634921 </v>
   <v>       0.00634921 </v>
   <v>       0.00634921 </v>
   <v>       0.00634921 </v>
   <v>       0.00634921 </v>
   <v>       0.00634921 </v>
   <v>       0.00634921 </v>
   <v>       0.00634921 </v>
   <v>       0.00634921 </v>
   <v>       0.00634921 </v>
   <v>       0.00634921 </v>
   <v>       0.00634921 </v>
   <v>       0.00634921 </v>
   <v>       0.00634921 </v>
   <v>       0.00634921 </v>
   <v>       0.00634921 </v>
   <v>       0.00634921 </v>
   <v>       0.00634921 </v>
   <v>       0.00634921 </v>
   <v>       0.00634921 </v>
   <v>       0.00634921 </v>
   <v>       0.00634921 </v>
   <v>       0.00634921 </v>
   <v>       0.00634921 </v>
   <v>       0.00634921 </v>
   <v>       0.00634921 </v>
   <v>       0.00634921 </v>
   <v>       0.00634921 </v>
   <v>       0.00634921 </v>
   <v>       0.00634921 </v>
   <v>       0.00634921 </v>
   <v>       0.00634921 </v>
   <v>       0.00634921 </v>
   <v>       0.00634921 </v>
   <v>       0.00634921 </v>
   <v>       0.00634921 </v>
   <v>       0.00634921 </v>
   <v>       0.00634921 </v>
   <v>       0.00634921 </v>
   <v>       0.00634921 </v>
   <v>       0.00634921 </v>
   <v>       0.00634921 </v>
   <v>       0.00634921 </v>
   <v>       0.00634921 </v>
   <v>       0.00634921 </v>
   <v>       0.00634921 </v>
   <v>       0.00634921 </v>
   <v>       0.00634921 </v>
   <v>       0.00634921 </v>
   <v>       0.00634921 </v>
   <v>       0.00634921 </v>
   <v>       0.00634921 </v>
   <v>       0.00634921 </v>
   <v>       0.00634921 </v>
   <v>       0.00634921 </v>
   <v>       0.00634921 </v>
   <v>       0.00634921 </v>
   <v>       0.00634921 </v>
   <v>       0.00634921 </v>
   <v>       0.00634921 </v>
   <v>       0.00634921 </v>
   <v>       0.00634921 </v>
   <v>       0.00634921 </v>
   <v>       0.00634921 </v>
   <v>       0.00634921 </v>
   <v>       0.00634921 </v>
   <v>       0.00634921 </v>
   <v>       0.00634921 </v>
   <v>       0.00634921 </v>
   <v>       0.00634921 </v>
   <v>       0.00634921 </v>
   <v>       0.00634921 </v>
   <v>       0.00634921 </v>
   <v>       0.00634921 </v>
   <v>       0.00634921 </v>
   <v>       0.00634921 </v>
   <v>       0.00634921 </v>
   <v>       0.00634921 </v>
   <v>       0.00634921 </v>
   <v>       0.00634921 </v>
   <v>       0.00634921 </v>
   <v>       0.00634921 </v>
   <v>       0.00634921 </v>
   <v>       0.00634921 </v>
   <v>       0.00634921 </v>
   <v>       0.00634921 </v>
   <v>       0.00634921 </v>
   <v>       0.00634921 </v>
   <v>       0.00634921 </v>
   <v>       0.00634921 </v>
   <v>       0.00634921 </v>
   <v>       0.00634921 </v>
   <v>       0.00634921 </v>
  </varray>
 </kpoints>
 <parameters>
  <separator name="general" >
   <i type="string" name="SYSTEM">unknown system</i>
   <i type="logical" name="LCOMPAT"> F  </i>
  </separator>
  <separator name="electronic" >
   <i type="string" name="PREC">a</i>
   <i name="ENMAX">    520.00000000</i>
   <i name="ENAUG">    342.92400000</i>
   <i name="EDIFF">      0.00001000</i>
   <i type="int" name="IALGO">    38</i>
   <i type="int" name="IWAVPR">    11</i>
   <i type="int" name="NBANDS">    16</i>
   <i name="NELECT">     20.00000000</i>
   <i type="int" name="TURBO">     0</i>
   <i type="int" name="IRESTART">     0</i>
   <i type="int" name="NREBOOT">     0</i>
   <i type="int" name="NMIN">     0</i>
   <i name="EREF">      0.00000000</i>
   <separator name="electronic smearing" >
    <i type="int" name="ISMEAR">     0</i>
    <i name="SIGMA">      0.02000000</i>
    <i name="KSPACING">      0.50000000</i>
    <i type="logical" name="KGAMMA"> T  </i>
   </separator>
   <separator name="electronic projectors" >
    <i type="logical" name="LREAL"> F  </i>
    <v name="ROPT">      0.00000000</v>
    <i type="int" name="LMAXPAW">  -100</i>
    <i type="int" name="LMAXMIX">     2</i>
    <i type="logical" name="NLSPLINE"> F  </i>
   </separator>
   <separator name="electronic startup" >
    <i type="int" name="ISTART">     0</i>
    <i type="int" name="ICHARG">     2</i>
    <i type="int" name="INIWAV">     1</i>
   </separator>
   <separator name="electronic spin" >
    <i type="int" name="ISPIN">     1</i>
    <i type="logical" name="LNONCOLLINEAR"> F  </i>
    <v name="MAGMOM">      1.00000000      1.00000000      1.00000000      1.00000000</v>
    <i name="NUPDOWN">     -1.00000000</i>
    <i type="logical" name="LSORBIT"> F  </i>
    <v name="SAXIS">      0.00000000      0.00000000      1.00000000</v>
    <i type="logical" name="LSPIRAL"> F  </i>
    <v name="QSPIRAL">      0.00000000      0.00000000      0.00000000</v>
    <i type="logical" name="LZEROZ"> F  </i>
   </separator>
   <separator name="electronic exchange-correlation" >
    <i type="logical" name="LASPH"> F  </i>
    <i type="logical" name="LMETAGGA"> F  </i>
   </separator>
   <separator name="electronic convergence" >
    <i type="int" name="NELM">   250</i>
    <i type="int" name="NELMDL">    -5</i>
    <i type="int" name="NELMIN">     6</i>
    <i name="ENINI">    520.00000000</i>
    <separator name="electronic convergence detail" >
     <i type="logical" name="LDIAG"> T  </i>
     <i type="logical" name="LSUBROT"> F  </i>
     <i name="WEIMIN">      0.00100000</i>
     <i name="EBREAK">      0.00000016</i>
     <i name="DEPER">      0.30000000</i>
     <i type="int" name="NRMM">     4</i>
     <i name="TIME">      0.40000000</i>
    </separator>
   </separator>
   <separator name="electronic mixer" >
    <i name="AMIX">      0.40000000</i>
    <i name="BMIX">      1.00000000</i>
    <i name="AMIN">      0.10000000</i>
    <i name="AMIX_MAG">      1.60000000</i>
    <i name="BMIX_MAG">      1.00000000</i>
    <separator name="electronic mixer details" >
     <i type="int" name="IMIX">     4</i>
     <i type="logical" name="MIXFIRST"> F  </i>
     <i type="int" name="MAXMIX">   -45</i>
     <i name="WC">    100.00000000</i>
     <i type="int" name="INIMIX">     1</i>
     <i type="int" name="MIXPRE">     1</i>
     <i type="int" name="MREMOVE">     5</i>
    </separator>
   </separator>
   <separator name="electronic dipolcorrection" >
    <i type="logical" name="LDIPOL"> F  </i>
    <i type="logical" name="LMONO"> F  </i>
    <i type="int" name="IDIPOL">     0</i>
    <i name="EPSILON">      1.00000000</i>
    <v name="DIPOL">   -100.00000000   -100.00000000   -100.00000000</v>
    <i name="EFIELD">      0.00000000</i>
   </separator>
  </separator>
  <separator name="grids" >
   <i type="int" name="NGX">    28</i>
   <i type="int" name="NGY">    36</i>
   <i type="int" name="NGZ">   150</i>
   <i type="int" name="NGXF">    56</i>
   <i type="int" name="NGYF">    72</i>
   <i type="int" name="NGZF">   300</i>
   <i type="logical" name="ADDGRID"> F  </i>
  </separator>
  <separator name="ionic" >
   <i type="int" name="NSW">   200</i>
   <i type="int" name="IBRION">     2</i>
   <i type="int" name="ISIF">     2</i>
   <i name="PSTRESS">      0.00000000</i>
   <i name="EDIFFG">     -0.01000000</i>
   <i type="int" name="NFREE">     1</i>
   <i name="POTIM">      0.30000000</i>
   <i name="SMASS">     -3.00000000</i>
   <i name="SCALEE">      1.00000000</i>
  </separator>
  <separator name="ionic md" >
   <i name="TEBEG">      0.00010000</i>
   <i name="TEEND">      0.00010000</i>
   <i type="int" name="NBLOCK">     1</i>
   <i type="int" name="KBLOCK">   200</i>
   <i type="int" name="NPACO">   256</i>
   <i name="APACO">     16.00000000</i>
  </separator>
  <separator name="symmetry" >
   <i type="int" name="ISYM">     2</i>
   <i name="SYMPREC">      0.00001000</i>
  </separator>
  <separator name="dos" >
   <i type="logical" name="LORBIT"> F  </i>
   <v name="RWIGS">     -1.00000000</v>
   <i type="int" name="NEDOS">   301</i>
   <i name="EMIN">     10.00000000</i>
   <i name="EMAX">    -10.00000000</i>
   <i name="EFERMI">      0.00000000</i>
  </separator>
  <separator name="writing" >
   <i type="int" name="NWRITE">     2</i>
   <i type="logical" name="LWAVE"> F  </i>
   <i type="logical" name="LCHARG"> F  </i>
   <i type="logical" name="LPARD"> F  </i>
   <i type="logical" name="LVTOT"> F  </i>
   <i type="logical" name="LVHAR"> F  </i>
   <i type="logical" name="LELF"> F  </i>
   <i type="logical" name="LOPTICS"> F  </i>
   <v name="STM">      0.00000000      0.00000000      0.00000000      0.00000000      0.00000000      0.00000000      0.00000000</v>
  </separator>
  <separator name="performance" >
   <i type="int" name="NPAR">     4</i>
   <i type="int" name="NSIM">     4</i>
   <i type="int" name="NBLK">    -1</i>
   <i type="logical" name="LPLANE"> T  </i>
   <i type="logical" name="LSCALAPACK"> T  </i>
   <i type="logical" name="LSCAAWARE"> F  </i>
   <i type="logical" name="LSCALU"> F  </i>
   <i type="logical" name="LASYNC"> F  </i>
   <i type="logical" name="LORBITALREAL"> F  </i>
  </separator>
  <separator name="miscellaneous" >
   <i type="int" name="IDIOT">     3</i>
   <i type="logical" name="LMUSIC"> F  </i>
   <v name="POMASS">     30.97400000</v>
   <v name="DARWINR">      0.00000000</v>
   <v name="DARWINV">      1.00000000</v>
   <i type="logical" name="LCORR"> T  </i>
  </separator>
  <i type="logical" name="GGA_COMPAT"> T  </i>
  <i type="logical" name="LBERRY"> F  </i>
  <i type="int" name="ICORELEVEL">     0</i>
  <i type="logical" name="LDAU"> F  </i>
  <i type="int" name="I_CONSTRAINED_M">     0</i>
  <separator name="electronic exchange-correlation" >
   <i type="string" name="GGA">--</i>
   <i type="int" name="VOSKOWN">     0</i>
   <i type="logical" name="LHFCALC"> F  </i>
   <i type="string" name="PRECFOCK"></i>
   <i type="logical" name="LSYMGRAD"> F  </i>
   <i type="logical" name="LHFONE"> F  </i>
   <i type="logical" name="LRHFCALC"> F  </i>
   <i type="logical" name="LTHOMAS"> F  </i>
   <i type="logical" name="LMODELHF"> F  </i>
   <i name="ENCUT4O">     -1.00000000</i>
   <i type="int" name="EXXOEP">     0</i>
   <i type="int" name="FOURORBIT">     0</i>
   <i name="AEXX">      0.00000000</i>
   <i name="HFALPHA">      0.00000000</i>
   <i name="MCALPHA">      0.00000000</i>
   <i name="ALDAX">      1.00000000</i>
   <i name="AGGAX">      1.00000000</i>
   <i name="ALDAC">      1.00000000</i>
   <i name="AGGAC">      1.00000000</i>
   <i type="int" name="NKREDX">     1</i>
   <i type="int" name="NKREDY">     1</i>
   <i type="int" name="NKREDZ">     1</i>
   <i type="logical" name="SHIFTRED"> F  </i>
   <i type="logical" name="ODDONLY"> F  </i>
   <i type="logical" name="EVENONLY"> F  </i>
   <i type="int" name="LMAXFOCK">     0</i>
   <i type="int" name="NMAXFOCKAE">     0</i>
   <i type="logical" name="LFOCKAEDFT"> F  </i>
   <i name="HFSCREEN">      0.00000000</i>
   <i name="HFSCREENC">      0.00000000</i>
   <i type="int" name="NBANDSGWLOW">     0</i>
  </separator>
  <separator name="vdW DFT" >
   <i type="logical" name="LUSE_VDW"> F  </i>
   <i name="Zab_VDW">     -0.84910000</i>
   <i name="PARAM1">      0.12340000</i>
   <i name="PARAM2">      1.00000000</i>
   <i name="PARAM3">      0.00000000</i>
  </separator>
  <separator name="model GW" >
   <i type="int" name="MODEL_GW">     0</i>
   <i name="MODEL_EPS0">     46.69495609</i>
   <i name="MODEL_ALPHA">      1.00000000</i>
  </separator>
  <separator name="linear response parameters" >
   <i type="logical" name="LEPSILON"> F  </i>
   <i type="logical" name="LRPA"> F  </i>
   <i type="logical" name="LNABLA"> F  </i>
   <i type="logical" name="LVEL"> F  </i>
   <i type="int" name="KINTER">     0</i>
   <i name="CSHIFT">      0.10000000</i>
   <i name="OMEGAMAX">     -1.00000000</i>
   <i name="DEG_THRESHOLD">      0.00200000</i>
  </separator>
  <separator name="orbital magnetization" >
   <i type="logical" name="NUCIND"> F  </i>
   <v name="MAGPOS">      0.00000000      0.00000000      0.00000000</v>
   <i type="logical" name="LNICSALL"> T  </i>
   <i type="logical" name="ORBITALMAG"> F  </i>
   <i type="logical" name="LMAGBLOCH"> F  </i>
   <i type="logical" name="LCHIMAG"> F  </i>
   <i type="logical" name="LGAUGE"> T  </i>
   <i type="int" name="MAGATOM">     0</i>
   <v name="MAGDIPOL">      0.00000000      0.00000000      0.00000000</v>
   <v name="AVECCONST">      0.00000000      0.00000000      0.00000000</v>
  </separator>
  <separator name="response functions" >
   <i type="logical" name="LADDER"> F  </i>
   <i type="logical" name="LFXC"> F  </i>
   <i type="logical" name="LHARTREE"> T  </i>
   <i type="int" name="IBSE">     0</i>
   <v type="int" name="KPOINT">    -1     0     0     0</v>
   <i type="logical" name="LTCTE"> F  </i>
   <i type="logical" name="LTETE"> F  </i>
   <i type="logical" name="LTRIPLET"> F  </i>
   <i type="logical" name="LFXCEPS"> F  </i>
   <i type="logical" name="LFXHEG"> F  </i>
   <i type="int" name="NATURALO">     0</i>
   <i type="logical" name="L2ORDER"> F  </i>
   <i type="logical" name="LUSEW"> F  </i>
   <i name="ENCUTGW">     -2.00000000</i>
   <i name="ENCUTGWSOFT">     -2.00000000</i>
   <i name="ENCUTLF">     -1.00000000</i>
   <i type="int" name="LMAXMP2">    -1</i>
   <i name="SCISSOR">      0.00000000</i>
   <i type="int" name="NOMEGA">     0</i>
   <i type="int" name="NOMEGAR">     0</i>
   <i type="int" name="NBANDSGW">    -1</i>
   <i type="int" name="NBANDSO">    -1</i>
   <i type="int" name="NBANDSV">    -1</i>
   <i type="int" name="NELM">   250</i>
   <i type="int" name="NELMHF">     1</i>
   <i type="int" name="DIM">     3</i>
   <i type="int" name="ANTIRES">     0</i>
   <i name="OMEGAMAX">    -30.00000000</i>
   <i name="OMEGAMIN">    -30.00000000</i>
   <i name="OMEGATL">   -200.00000000</i>
   <i type="int" name="OMEGAGRID">     0</i>
   <i name="CSHIFT">     -0.10000000</i>
   <i type="logical" name="SELFENERGY"> F  </i>
   <i type="logical" name="LSPECTRAL"> F  </i>
   <i type="logical" name="LSPECTRALGW"> F  </i>
   <i type="logical" name="LSINGLES"> F  </i>
   <i type="logical" name="LFERMIGW"> F  </i>
   <i type="logical" name="ODDONLYGW"> F  </i>
   <i type="logical" name="EVENONLYGW"> F  </i>
   <i type="int" name="NKREDLFX">     1</i>
   <i type="int" name="NKREDLFY">     1</i>
   <i type="int" name="NKREDLFZ">     1</i>
   <i type="int" name="MAXMEM">  1800</i>
   <i type="int" name="TELESCOPE">     0</i>
   <i type="int" name="TAUPAR">     1</i>
   <i type="int" name="OMEGAPAR">    -1</i>
   <i name="LAMBDA">      1.00000000</i>
  </separator>
  <separator name="External order field" >
   <i name="OFIELD_KAPPA">      0.00000000</i>
   <v name="OFIELD_K">      0.00000000      0.00000000      0.00000000</v>
   <i name="OFIELD_Q6_NEAR">      0.00000000</i>
   <i name="OFIELD_Q6_FAR">      0.00000000</i>
   <i name="OFIELD_A">      0.00000000</i>
  </separator>
 </parameters>
 <atominfo>
  <atoms>       4 </atoms>
  <types>       1 </types>
  <array name="atoms" >
   <dimension dim="1">ion</dimension>
   <field type="string">element</field>
   <field type="int">atomtype</field>
   <set>
    <rc><c>P </c><c>   1</c></rc>
    <rc><c>P </c><c>   1</c></rc>
    <rc><c>P </c><c>   1</c></rc>
    <rc><c>P </c><c>   1</c></rc>
   </set>
  </array>
  <array name="atomtypes" >
   <dimension dim="1">type</dimension>
   <field type="int">atomspertype</field>
   <field type="string">element</field>
   <field>mass</field>
   <field>valence</field>
   <field type="string">pseudopotential</field>
   <set>
    <rc><c>   4</c><c>P </c><c>     30.97400000</c><c>      5.00000000</c><c>  PAW_PBE P 06Sep2000                   </c></rc>
   </set>
  </array>
 </atominfo>
 <structure name="initialpos" >
  <crystal>
   <varray name="basis" >
    <v>       3.36250200       0.00000000       0.00000000 </v>
    <v>       0.00000000       4.62335100      -0.00005300 </v>
    <v>       0.00000000       0.00000000      20.02439000 </v>
   </varray>
   <i name="volume">    311.29970728 </i>
   <varray name="rec_basis" >
    <v>       0.29739759       0.00000000       0.00000000 </v>
    <v>       0.00000000       0.21629333       0.00000000 </v>
    <v>       0.00000000       0.00000057       0.04993910 </v>
   </varray>
  </crystal>
  <varray name="positions" >
   <v>       0.50000000       0.91077300       0.55252100 </v>
   <v>       0.50000000       0.08922700       0.44747900 </v>
   <v>       0.00000000       0.41076900       0.44747900 </v>
   <v>       0.00000000       0.58923100       0.55252100 </v>
  </varray>
 </structure>
 <calculation>
  <scstep>
   <time name="dav">    1.50    1.50</time>
   <time name="total">    1.53    1.53</time>
   <energy>
    <i name="alphaZ">      5.15310809 </i>
    <i name="ewald">   1816.54625090 </i>
    <i name="hartreedc">  -2410.72308124 </i>
    <i name="XCdc">     12.83947034 </i>
    <i name="pawpsdc">    559.04011960 </i>
    <i name="pawaedc">   -526.39432044 </i>
    <i name="eentropy">     -0.00031633 </i>
    <i name="bandstr">    -29.99038704 </i>
    <i name="atom">    704.16778566 </i>
    <i name="e_fr_energy">    130.63862953 </i>
    <i name="e_wo_entrp">    130.63894587 </i>
    <i name="e_0_energy">    130.63878770 </i>
   </energy>
  </scstep>
  <scstep>
   <time name="dav">    2.02    2.02</time>
   <time name="total">    2.02    2.02</time>
   <energy>
    <i name="e_fr_energy">     -6.45526213 </i>
    <i name="e_wo_entrp">     -6.45526213 </i>
    <i name="e_0_energy">     -6.45526213 </i>
   </energy>
  </scstep>
  <scstep>
   <time name="dav">    1.84    1.84</time>
   <time name="total">    1.84    1.84</time>
   <energy>
    <i name="e_fr_energy">    -21.31788172 </i>
    <i name="e_wo_entrp">    -21.31788172 </i>
    <i name="e_0_energy">    -21.31788172 </i>
   </energy>
  </scstep>
  <scstep>
   <time name="dav">    1.89    1.89</time>
   <time name="total">    1.89    1.89</time>
   <energy>
    <i name="e_fr_energy">    -21.62129477 </i>
    <i name="e_wo_entrp">    -21.62129477 </i>
    <i name="e_0_energy">    -21.62129477 </i>
   </energy>
  </scstep>
  <scstep>
   <time name="dav">    1.98    1.98</time>
   <time name="total">    2.07    2.07</time>
   <energy>
    <i name="e_fr_energy">    -21.63087184 </i>
    <i name="e_wo_entrp">    -21.63087184 </i>
    <i name="e_0_energy">    -21.63087184 </i>
   </energy>
  </scstep>
  <scstep>
   <time name="dav">    1.82    1.82</time>
   <time name="total">    1.94    1.94</time>
   <energy>
    <i name="e_fr_energy">    -21.50255252 </i>
    <i name="e_wo_entrp">    -21.50255252 </i>
    <i name="e_0_energy">    -21.50255252 </i>
   </energy>
  </scstep>
  <scstep>
   <time name="dav">    1.75    1.75</time>
   <time name="total">    1.86    1.86</time>
   <energy>
    <i name="e_fr_energy">    -21.43892420 </i>
    <i name="e_wo_entrp">    -21.43892420 </i>
    <i name="e_0_energy">    -21.43892420 </i>
   </energy>
  </scstep>
  <scstep>
   <time name="dav">    1.82    1.82</time>
   <time name="total">    1.93    1.93</time>
   <energy>
    <i name="e_fr_energy">    -21.43864328 </i>
    <i name="e_wo_entrp">    -21.43864328 </i>
    <i name="e_0_energy">    -21.43864328 </i>
   </energy>
  </scstep>
  <scstep>
   <time name="dav">    2.13    2.13</time>
   <time name="total">    2.24    2.25</time>
   <energy>
    <i name="e_fr_energy">    -21.43851250 </i>
    <i name="e_wo_entrp">    -21.43851250 </i>
    <i name="e_0_energy">    -21.43851250 </i>
   </energy>
  </scstep>
  <scstep>
   <time name="dav">    1.85    1.85</time>
   <time name="total">    1.96    1.96</time>
   <energy>
    <i name="e_fr_energy">    -21.43841937 </i>
    <i name="e_wo_entrp">    -21.43841937 </i>
    <i name="e_0_energy">    -21.43841937 </i>
   </energy>
  </scstep>
  <scstep>
   <time name="dav">    1.80    1.80</time>
   <time name="total">    1.91    1.91</time>
   <energy>
    <i name="e_fr_energy">    -21.43834463 </i>
    <i name="e_wo_entrp">    -21.43834463 </i>
    <i name="e_0_energy">    -21.43834463 </i>
   </energy>
  </scstep>
  <scstep>
   <time name="dav">    1.63    1.64</time>
   <time name="total">    1.75    1.75</time>
   <energy>
    <i name="e_fr_energy">    -21.43872084 </i>
    <i name="e_wo_entrp">    -21.43872084 </i>
    <i name="e_0_energy">    -21.43872084 </i>
   </energy>
  </scstep>
  <scstep>
   <time name="dav">    1.60    1.60</time>
   <time name="total">    1.71    1.71</time>
   <energy>
    <i name="e_fr_energy">    -21.43882351 </i>
    <i name="e_wo_entrp">    -21.43882351 </i>
    <i name="e_0_energy">    -21.43882351 </i>
   </energy>
  </scstep>
  <scstep>
   <time name="dav">    1.52    1.52</time>
   <time name="total">    1.63    1.63</time>
   <energy>
    <i name="e_fr_energy">    -21.43892712 </i>
    <i name="e_wo_entrp">    -21.43892712 </i>
    <i name="e_0_energy">    -21.43892712 </i>
   </energy>
  </scstep>
  <scstep>
   <time name="dav">    1.54    1.54</time>
   <time name="total">    1.66    1.66</time>
   <energy>
    <i name="e_fr_energy">    -21.43896107 </i>
    <i name="e_wo_entrp">    -21.43896107 </i>
    <i name="e_0_energy">    -21.43896107 </i>
   </energy>
  </scstep>
  <scstep>
   <time name="dav">    1.49    1.49</time>
   <time name="total">    1.60    1.61</time>
   <energy>
    <i name="e_fr_energy">    -21.43898698 </i>
    <i name="e_wo_entrp">    -21.43898698 </i>
    <i name="e_0_energy">    -21.43898698 </i>
   </energy>
  </scstep>
  <scstep>
   <time name="dav">    1.48    1.48</time>
   <time name="total">    1.50    1.50</time>
   <energy>
    <i name="alphaZ">      5.15310809 </i>
    <i name="ewald">   1816.54625090 </i>
    <i name="hartreedc">  -2425.12868411 </i>
    <i name="XCdc">     13.87410690 </i>
    <i name="pawpsdc">   2015.76875028 </i>
    <i name="pawaedc">  -1983.43088761 </i>
    <i name="eentropy">     -0.00000000 </i>
    <i name="bandstr">   -168.38941966 </i>
    <i name="atom">    704.16778566 </i>
    <i name="e_fr_energy">    -21.43898955 </i>
    <i name="e_wo_entrp">    -21.43898955 </i>
    <i name="e_0_energy">    -21.43898955 </i>
   </energy>
  </scstep>
  <structure>
   <crystal>
    <varray name="basis" >
     <v>       3.36250200       0.00000000       0.00000000 </v>
     <v>       0.00000000       4.62335100      -0.00005300 </v>
     <v>       0.00000000       0.00000000      20.02439000 </v>
    </varray>
    <i name="volume">    311.29970728 </i>
    <varray name="rec_basis" >
     <v>       0.29739759       0.00000000       0.00000000 </v>
     <v>       0.00000000       0.21629333       0.00000000 </v>
     <v>       0.00000000       0.00000057       0.04993910 </v>
    </varray>
   </crystal>
   <varray name="positions" >
    <v>       0.50000000       0.91077300       0.55252100 </v>
    <v>       0.50000000       0.08922700       0.44747900 </v>
    <v>       0.00000000       0.41076900       0.44747900 </v>
    <v>       0.00000000       0.58923100       0.55252100 </v>
   </varray>
  </structure>
  <varray name="forces" >
   <v>      -0.00000007      -0.07111871      -0.02909129 </v>
   <v>       0.00000007       0.07111871       0.02909129 </v>
   <v>       0.00000013      -0.07114992       0.02909441 </v>
   <v>      -0.00000013       0.07114992      -0.02909441 </v>
  </varray>
  <varray name="stress" >
   <v>      -9.73808993       0.00000062      -0.00000036 </v>
   <v>       0.00000056      -2.85166616       0.00037144 </v>
   <v>      -0.00000038       0.00037148      -0.69297083 </v>
  </varray>
  <energy>
   <i name="e_fr_energy">    -21.43898955 </i>
   <i name="e_wo_entrp">    -21.43898955 </i>
   <i name="e_0_energy">     -0.00000000 </i>
  </energy>
  <time name="totalsc">   31.82   31.86</time>
 </calculation>
 <calculation>
  <scstep>
   <time name="dav">    1.58    1.58</time>
   <time name="total">    1.69    1.69</time>
   <energy>
    <i name="alphaZ">      5.15310809 </i>
    <i name="ewald">   1817.59972292 </i>
    <i name="hartreedc">  -2426.05667878 </i>
    <i name="XCdc">     13.88851176 </i>
    <i name="pawpsdc">   2015.73609981 </i>
    <i name="pawaedc">  -1983.39824855 </i>
    <i name="eentropy">     -0.00000000 </i>
    <i name="bandstr">   -168.52975030 </i>
    <i name="atom">    704.16778566 </i>
    <i name="e_fr_energy">    -21.43944940 </i>
    <i name="e_wo_entrp">    -21.43944940 </i>
    <i name="e_0_energy">    -21.43944940 </i>
   </energy>
  </scstep>
  <scstep>
   <time name="dav">    1.91    1.91</time>
   <time name="total">    2.02    2.02</time>
   <energy>
    <i name="e_fr_energy">    -21.43951402 </i>
    <i name="e_wo_entrp">    -21.43951402 </i>
    <i name="e_0_energy">    -21.43951402 </i>
   </energy>
  </scstep>
  <scstep>
   <time name="dav">    1.61    1.61</time>
   <time name="total">    1.72    1.72</time>
   <energy>
    <i name="e_fr_energy">    -21.43951527 </i>
    <i name="e_wo_entrp">    -21.43951527 </i>
    <i name="e_0_energy">    -21.43951527 </i>
   </energy>
  </scstep>
  <scstep>
   <time name="dav">    1.32    1.32</time>
   <time name="total">    1.43    1.44</time>
   <energy>
    <i name="e_fr_energy">    -21.43951799 </i>
    <i name="e_wo_entrp">    -21.43951799 </i>
    <i name="e_0_energy">    -21.43951799 </i>
   </energy>
  </scstep>
  <scstep>
   <time name="dav">    1.24    1.24</time>
   <time name="total">    1.35    1.35</time>
   <energy>
    <i name="e_fr_energy">    -21.43951809 </i>
    <i name="e_wo_entrp">    -21.43951809 </i>
    <i name="e_0_energy">    -21.43951809 </i>
   </energy>
  </scstep>
  <scstep>
   <time name="dav">    1.19    1.19</time>
   <time name="total">    1.21    1.21</time>
   <energy>
    <i name="alphaZ">      5.15310809 </i>
    <i name="ewald">   1817.59972292 </i>
    <i name="hartreedc">  -2426.06303638 </i>
    <i name="XCdc">     13.88984907 </i>
    <i name="pawpsdc">   2023.82844410 </i>
    <i name="pawaedc">  -1991.49370725 </i>
    <i name="eentropy">     -0.00000000 </i>
    <i name="bandstr">   -168.52168475 </i>
    <i name="atom">    704.16778566 </i>
    <i name="e_fr_energy">    -21.43951854 </i>
    <i name="e_wo_entrp">    -21.43951854 </i>
    <i name="e_0_energy">    -21.43951854 </i>
   </energy>
  </scstep>
  <structure>
   <crystal>
    <varray name="basis" >
     <v>       3.36250200       0.00000000       0.00000000 </v>
     <v>       0.00000000       4.62335100      -0.00005300 </v>
     <v>       0.00000000       0.00000000      20.02439000 </v>
    </varray>
    <i name="volume">    311.29970728 </i>
    <varray name="rec_basis" >
     <v>       0.29739759       0.00000000       0.00000000 </v>
     <v>       0.00000000       0.21629333       0.00000000 </v>
     <v>       0.00000000       0.00000057       0.04993910 </v>
    </varray>
   </crystal>
   <varray name="positions" >
    <v>       0.50000000       0.91032774       0.55247895 </v>
    <v>       0.50000000       0.08967226       0.44752105 </v>
    <v>       0.00000000       0.41032355       0.44752106 </v>
    <v>      -0.00000000       0.58967645       0.55247894 </v>
   </varray>
  </structure>
  <varray name="forces" >
   <v>      -0.00000004      -0.03128744      -0.02333921 </v>
   <v>       0.00000004       0.03128744       0.02333921 </v>
   <v>      -0.00000005      -0.03131336       0.02334079 </v>
   <v>       0.00000005       0.03131336      -0.02334079 </v>
  </varray>
  <varray name="stress" >
   <v>      -9.56917468       0.00000021       0.00000032 </v>
   <v>       0.00000019      -2.24381605       0.00030418 </v>
   <v>       0.00000029       0.00030418      -0.58636633 </v>
  </varray>
  <energy>
   <i name="e_fr_energy">    -21.43951854 </i>
   <i name="e_wo_entrp">    -21.43951854 </i>
   <i name="e_0_energy">     -0.00000000 </i>
  </energy>
  <time name="totalsc">   10.21   10.23</time>
 </calculation>
 <calculation>
  <scstep>
   <time name="dav">    1.56    1.56</time>
   <time name="total">    1.67    1.67</time>
   <energy>
    <i name="alphaZ">      5.15310809 </i>
    <i name="ewald">   1818.62052119 </i>
    <i name="hartreedc">  -2426.94768405 </i>
    <i name="XCdc">     13.90373755 </i>
    <i name="pawpsdc">   2023.98758939 </i>
    <i name="pawaedc">  -1991.65283346 </i>
    <i name="eentropy">     -0.00000000 </i>
    <i name="bandstr">   -168.67184807 </i>
    <i name="atom">    704.16778566 </i>
    <i name="e_fr_energy">    -21.43962370 </i>
    <i name="e_wo_entrp">    -21.43962370 </i>
    <i name="e_0_energy">    -21.43962370 </i>
   </energy>
  </scstep>
  <scstep>
   <time name="dav">    1.91    1.91</time>
   <time name="total">    2.02    2.03</time>
   <energy>
    <i name="e_fr_energy">    -21.43968476 </i>
    <i name="e_wo_entrp">    -21.43968476 </i>
    <i name="e_0_energy">    -21.43968476 </i>
   </energy>
  </scstep>
  <scstep>
   <time name="dav">    1.55    1.55</time>
   <time name="total">    1.66    1.66</time>
   <energy>
    <i name="e_fr_energy">    -21.43968518 </i>
    <i name="e_wo_entrp">    -21.43968518 </i>
    <i name="e_0_energy">    -21.43968518 </i>
   </energy>
  </scstep>
  <scstep>
   <time name="dav">    1.26    1.26</time>
   <time name="total">    1.37    1.37</time>
   <energy>
    <i name="e_fr_energy">    -21.43968652 </i>
    <i name="e_wo_entrp">    -21.43968652 </i>
    <i name="e_0_energy">    -21.43968652 </i>
   </energy>
  </scstep>
  <scstep>
   <time name="dav">    1.19    1.19</time>
   <time name="total">    1.31    1.31</time>
   <energy>
    <i name="e_fr_energy">    -21.43968626 </i>
    <i name="e_wo_entrp">    -21.43968626 </i>
    <i name="e_0_energy">    -21.43968626 </i>
   </energy>
  </scstep>
  <scstep>
   <time name="dav">    1.15    1.15</time>
   <time name="total">    1.17    1.17</time>
   <energy>
    <i name="alphaZ">      5.15310809 </i>
    <i name="ewald">   1818.62052119 </i>
    <i name="hartreedc">  -2426.94717924 </i>
    <i name="XCdc">     13.90505378 </i>
    <i name="pawpsdc">   2032.19809662 </i>
    <i name="pawaedc">  -1999.86637216 </i>
    <i name="eentropy">     -0.00000000 </i>
    <i name="bandstr">   -168.67070036 </i>
    <i name="atom">    704.16778566 </i>
    <i name="e_fr_energy">    -21.43968641 </i>
    <i name="e_wo_entrp">    -21.43968641 </i>
    <i name="e_0_energy">    -21.43968641 </i>
   </energy>
  </scstep>
  <structure>
   <crystal>
    <varray name="basis" >
     <v>       3.36250200       0.00000000       0.00000000 </v>
     <v>       0.00000000       4.62335100      -0.00005300 </v>
     <v>       0.00000000       0.00000000      20.02439000 </v>
    </varray>
    <i name="volume">    311.29970728 </i>
    <varray name="rec_basis" >
     <v>       0.29739759       0.00000000       0.00000000 </v>
     <v>       0.00000000       0.21629333       0.00000000 </v>
     <v>       0.00000000       0.00000057       0.04993910 </v>
    </varray>
   </crystal>
   <varray name="positions" >
    <v>       0.50000000       0.90989664       0.55243823 </v>
    <v>       0.50000000       0.09010336       0.44756177 </v>
    <v>       0.00000000       0.40989225       0.44756177 </v>
    <v>      -0.00000000       0.59010775       0.55243823 </v>
   </varray>
  </structure>
  <varray name="forces" >
   <v>       0.00000002       0.00752192      -0.01800471 </v>
   <v>      -0.00000002      -0.00752192       0.01800471 </v>
   <v>      -0.00000002       0.00750087       0.01800400 </v>
   <v>       0.00000002      -0.00750087      -0.01800400 </v>
  </varray>
  <varray name="stress" >
   <v>      -9.40085667      -0.00000070       0.00000072 </v>
   <v>      -0.00000071      -1.64949080       0.00024487 </v>
   <v>       0.00000064       0.00024486      -0.47208970 </v>
  </varray>
  <energy>
   <i name="e_fr_energy">    -21.43968641 </i>
   <i name="e_wo_entrp">    -21.43968641 </i>
   <i name="e_0_energy">     -0.00000000 </i>
  </energy>
  <time name="totalsc">    9.99   10.00</time>
 </calculation>
 <calculation>
  <scstep>
   <time name="dav">    1.47    1.47</time>
   <time name="total">    1.58    1.58</time>
   <energy>
    <i name="alphaZ">      5.15310809 </i>
    <i name="ewald">   1819.23002483 </i>
    <i name="hartreedc">  -2427.52378677 </i>
    <i name="XCdc">     13.90884080 </i>
    <i name="pawpsdc">   2032.33206730 </i>
    <i name="pawaedc">  -2000.00033038 </i>
    <i name="eentropy">     -0.00000000 </i>
    <i name="bandstr">   -168.70742539 </i>
    <i name="atom">    704.16778566 </i>
    <i name="e_fr_energy">    -21.43971587 </i>
    <i name="e_wo_entrp">    -21.43971587 </i>
    <i name="e_0_energy">    -21.43971587 </i>
   </energy>
  </scstep>
  <scstep>
   <time name="dav">    1.80    1.80</time>
   <time name="total">    1.91    1.91</time>
   <energy>
    <i name="e_fr_energy">    -21.43972501 </i>
    <i name="e_wo_entrp">    -21.43972501 </i>
    <i name="e_0_energy">    -21.43972501 </i>
   </energy>
  </scstep>
  <scstep>
   <time name="dav">    1.18    1.18</time>
   <time name="total">    1.29    1.30</time>
   <energy>
    <i name="e_fr_energy">    -21.43972501 </i>
    <i name="e_wo_entrp">    -21.43972501 </i>
    <i name="e_0_energy">    -21.43972501 </i>
   </energy>
  </scstep>
  <scstep>
   <time name="dav">    1.16    1.16</time>
   <time name="total">    1.27    1.27</time>
   <energy>
    <i name="e_fr_energy">    -21.43972539 </i>
    <i name="e_wo_entrp">    -21.43972539 </i>
    <i name="e_0_energy">    -21.43972539 </i>
   </energy>
  </scstep>
  <scstep>
   <time name="dav">    1.15    1.15</time>
   <time name="total">    1.26    1.26</time>
   <energy>
    <i name="e_fr_energy">    -21.43972548 </i>
    <i name="e_wo_entrp">    -21.43972548 </i>
    <i name="e_0_energy">    -21.43972548 </i>
   </energy>
  </scstep>
  <scstep>
   <time name="dav">    1.13    1.13</time>
   <time name="total">    1.15    1.16</time>
   <energy>
    <i name="alphaZ">      5.15310809 </i>
    <i name="ewald">   1819.23002483 </i>
    <i name="hartreedc">  -2427.51997652 </i>
    <i name="XCdc">     13.90905472 </i>
    <i name="pawpsdc">   2034.26182031 </i>
    <i name="pawaedc">  -2001.93068367 </i>
    <i name="eentropy">     -0.00000000 </i>
    <i name="bandstr">   -168.71085900 </i>
    <i name="atom">    704.16778566 </i>
    <i name="e_fr_energy">    -21.43972558 </i>
    <i name="e_wo_entrp">    -21.43972558 </i>
    <i name="e_0_energy">    -21.43972558 </i>
   </energy>
  </scstep>
  <structure>
   <crystal>
    <varray name="basis" >
     <v>       3.36250200       0.00000000       0.00000000 </v>
     <v>       0.00000000       4.62335100      -0.00005300 </v>
     <v>       0.00000000       0.00000000      20.02439000 </v>
    </varray>
    <i name="volume">    311.29970728 </i>
    <varray name="rec_basis" >
     <v>       0.29739759       0.00000000       0.00000000 </v>
     <v>       0.00000000       0.21629333       0.00000000 </v>
     <v>       0.00000000       0.00000057       0.04993910 </v>
    </varray>
   </crystal>
   <varray name="positions" >
    <v>       0.50000000       0.90991766       0.55240384 </v>
    <v>       0.50000000       0.09008234       0.44759616 </v>
    <v>       0.00000000       0.40991310       0.44759616 </v>
    <v>      -0.00000000       0.59008690       0.55240384 </v>
   </varray>
  </structure>
  <varray name="forces" >
   <v>      -0.00000003       0.00310666      -0.00759657 </v>
   <v>       0.00000003      -0.00310666       0.00759657 </v>
   <v>      -0.00000003       0.00308993       0.00759589 </v>
   <v>       0.00000003      -0.00308993      -0.00759589 </v>
  </varray>
  <varray name="stress" >
   <v>      -9.39183258      -0.00000037       0.00000065 </v>
   <v>      -0.00000041      -1.63915087       0.00019772 </v>
   <v>       0.00000061       0.00019770      -0.23787993 </v>
  </varray>
  <energy>
   <i name="e_fr_energy">    -21.43972558 </i>
   <i name="e_wo_entrp">    -21.43972558 </i>
   <i name="e_0_energy">     -0.00000000 </i>
  </energy>
  <time name="totalsc">    9.19    9.21</time>
  <eigenvalues>
   <array>
    <dimension dim="1">band</dimension>
    <dimension dim="2">kpoint</dimension>
    <dimension dim="3">spin</dimension>
    <field>eigene</field>
    <field>occ</field>
    <set>
     <set comment="spin 1">
      <set comment="kpoint 1">
       <r>  -17.1600    1.0000 </r>
       <r>  -14.6749    1.0000 </r>
       <r>  -11.5044    1.0000 </r>
       <r>   -7.8865    1.0000 </r>
       <r>   -7.0084    1.0000 </r>
       <r>   -6.7050    1.0000 </r>
       <r>   -5.8534    1.0000 </r>
       <r>   -4.2546    1.0000 </r>
       <r>   -3.8626    1.0000 </r>
       <r>   -2.3267    1.0000 </r>
       <r>   -1.3179    0.0000 </r>
       <r>   -0.9312    0.0000 </r>
       <r>    0.0336    0.0000 </r>
       <r>    0.7750    0.0000 </r>
       <r>    2.1305    0.0000 </r>
       <r>    2.2724    0.0000 </r>
      </set>
      <set comment="kpoint 2">
       <r>  -17.1342    1.0000 </r>
       <r>  -14.6478    1.0000 </r>
       <r>  -11.5177    1.0000 </r>
       <r>   -7.8672    1.0000 </r>
       <r>   -7.0368    1.0000 </r>
       <r>   -6.6825    1.0000 </r>
       <r>   -6.0067    1.0000 </r>
       <r>   -4.4142    1.0000 </r>
       <r>   -3.8542    1.0000 </r>
       <r>   -2.3308    1.0000 </r>
       <r>   -1.2939    0.0000 </r>
       <r>   -0.7067    0.0000 </r>
       <r>    0.2587    0.0000 </r>
       <r>    0.6255    0.0000 </r>
       <r>    2.1573    0.0000 </r>
       <r>    2.3012    0.0000 </r>
      </set>
      <set comment="kpoint 3">
       <r>  -17.0569    1.0000 </r>
       <r>  -14.5667    1.0000 </r>
       <r>  -11.5626    1.0000 </r>
       <r>   -7.8100    1.0000 </r>
       <r>   -7.1429    1.0000 </r>
       <r>   -6.6151    1.0000 </r>
       <r>   -6.3829    1.0000 </r>
       <r>   -4.7752    1.0000 </r>
       <r>   -3.8328    1.0000 </r>
       <r>   -2.3600    1.0000 </r>
       <r>   -1.2224    0.0000 </r>
       <r>   -0.0995    0.0000 </r>
       <r>    0.2524    0.0000 </r>
       <r>    0.8145    0.0000 </r>
       <r>    2.2320    0.0000 </r>
       <r>    2.3877    0.0000 </r>
      </set>
      <set comment="kpoint 4">
       <r>  -16.9286    1.0000 </r>
       <r>  -14.4316    1.0000 </r>
       <r>  -11.6541    1.0000 </r>
       <r>   -7.7172    1.0000 </r>
       <r>   -7.3831    1.0000 </r>
       <r>   -6.8312    1.0000 </r>
       <r>   -6.5044    1.0000 </r>
       <r>   -5.1259    1.0000 </r>
       <r>   -3.8109    1.0000 </r>
       <r>   -2.4322    1.0000 </r>
       <r>   -1.1049    0.0000 </r>
       <r>   -0.2082    0.0000 </r>
       <r>    0.7563    0.0000 </r>
       <r>    1.4233    0.0000 </r>
       <r>    2.2666    0.0000 </r>
       <r>    2.5312    0.0000 </r>
      </set>
      <set comment="kpoint 5">
       <r>  -16.7497    1.0000 </r>
       <r>  -14.2429    1.0000 </r>
       <r>  -11.8136    1.0000 </r>
       <r>   -7.7998    1.0000 </r>
       <r>   -7.5937    1.0000 </r>
       <r>   -7.2371    1.0000 </r>
       <r>   -6.3527    1.0000 </r>
       <r>   -5.3281    1.0000 </r>
       <r>   -3.8116    1.0000 </r>
       <r>   -2.5564    1.0000 </r>
       <r>   -0.9447    0.0000 </r>
       <r>   -0.6452    0.0000 </r>
       <r>    1.5508    0.0000 </r>
       <r>    1.7267    0.0000 </r>
       <r>    1.8383    0.0000 </r>
       <r>    2.6524    0.0000 </r>
      </set>
      <set comment="kpoint 6">
       <r>  -16.5214    1.0000 </r>
       <r>  -14.0011    1.0000 </r>
       <r>  -12.0599    1.0000 </r>
       <r>   -8.3597    1.0000 </r>
       <r>   -7.5328    1.0000 </r>
       <r>   -7.4474    1.0000 </r>
       <r>   -6.1641    1.0000 </r>
       <r>   -5.3710    1.0000 </r>
       <r>   -3.8663    1.0000 </r>
       <r>   -2.7385    1.0000 </r>
       <r>   -0.9736    0.0000 </r>
       <r>   -0.7502    0.0000 </r>
       <r>    1.0831    0.0000 </r>
       <r>    1.2879    0.0000 </r>
       <r>    2.3482    0.0000 </r>
       <r>    2.9001    0.0000 </r>
      </set>
      <set comment="kpoint 7">
       <r>  -16.2450    1.0000 </r>
       <r>  -13.7066    1.0000 </r>
       <r>  -12.3975    1.0000 </r>
       <r>   -8.9919    1.0000 </r>
       <r>   -7.6901    1.0000 </r>
       <r>   -7.2922    1.0000 </r>
       <r>   -5.9453    1.0000 </r>
       <r>   -5.3095    1.0000 </r>
       <r>   -3.9954    1.0000 </r>
       <r>   -2.9783    1.0000 </r>
       <r>   -1.1352    0.0000 </r>
       <r>   -0.5471    0.0000 </r>
       <r>    0.4928    0.0000 </r>
       <r>    0.7837    0.0000 </r>
       <r>    2.0298    0.0000 </r>
       <r>    3.1663    0.0000 </r>
      </set>
      <set comment="kpoint 8">
       <r>  -15.9223    1.0000 </r>
       <r>  -13.3602    1.0000 </r>
       <r>  -12.8111    1.0000 </r>
       <r>   -9.6439    1.0000 </r>
       <r>   -7.7147    1.0000 </r>
       <r>   -7.1509    1.0000 </r>
       <r>   -5.7066    1.0000 </r>
       <r>   -5.1974    1.0000 </r>
       <r>   -4.1765    1.0000 </r>
       <r>   -3.2656    1.0000 </r>
       <r>   -1.1169    0.0000 </r>
       <r>   -0.4358    0.0000 </r>
       <r>   -0.0632    0.0000 </r>
       <r>    0.4593    0.0000 </r>
       <r>    1.5584    0.0000 </r>
       <r>    2.8906    0.0000 </r>
      </set>
      <set comment="kpoint 9">
       <r>  -15.5561    1.0000 </r>
       <r>  -13.2736    1.0000 </r>
       <r>  -12.9630    1.0000 </r>
       <r>  -10.2861    1.0000 </r>
       <r>   -7.6332    1.0000 </r>
       <r>   -7.0577    1.0000 </r>
       <r>   -5.4643    1.0000 </r>
       <r>   -5.0791    1.0000 </r>
       <r>   -4.3414    1.0000 </r>
       <r>   -3.5793    1.0000 </r>
       <r>   -0.9467    0.0000 </r>
       <r>   -0.5868    0.0000 </r>
       <r>   -0.5289    0.0000 </r>
       <r>    0.5109    0.0000 </r>
       <r>    1.0713    0.0000 </r>
       <r>    2.5028    0.0000 </r>
      </set>
      <set comment="kpoint 10">
       <r>  -15.1500    1.0000 </r>
       <r>  -13.7578    1.0000 </r>
       <r>  -12.5163    1.0000 </r>
       <r>  -10.9022    1.0000 </r>
       <r>   -7.4815    1.0000 </r>
       <r>   -7.0498    1.0000 </r>
       <r>   -5.2428    1.0000 </r>
       <r>   -4.9967    1.0000 </r>
       <r>   -4.4128    1.0000 </r>
       <r>   -3.8898    1.0000 </r>
       <r>   -0.8625    0.0000 </r>
       <r>   -0.8425    0.0000 </r>
       <r>   -0.6634    0.0000 </r>
       <r>    0.5879    0.0000 </r>
       <r>    0.8087    0.0000 </r>
       <r>    2.0679    0.0000 </r>
      </set>
      <set comment="kpoint 11">
       <r>  -14.7094    1.0000 </r>
       <r>  -14.2416    1.0000 </r>
       <r>  -12.0221    1.0000 </r>
       <r>  -11.4827    1.0000 </r>
       <r>   -7.3011    1.0000 </r>
       <r>   -7.1404    1.0000 </r>
       <r>   -5.0740    1.0000 </r>
       <r>   -4.9885    1.0000 </r>
       <r>   -4.3487    1.0000 </r>
       <r>   -4.1607    1.0000 </r>
       <r>   -1.0289    0.0000 </r>
       <r>   -1.0142    0.0000 </r>
       <r>   -0.2983    0.0000 </r>
       <r>    0.1252    0.0000 </r>
       <r>    1.1957    0.0000 </r>
       <r>    1.6236    0.0000 </r>
      </set>
      <set comment="kpoint 12">
       <r>  -17.1386    1.0000 </r>
       <r>  -14.7065    1.0000 </r>
       <r>  -11.5075    1.0000 </r>
       <r>   -8.0518    1.0000 </r>
       <r>   -6.8993    1.0000 </r>
       <r>   -6.6184    1.0000 </r>
       <r>   -5.8368    1.0000 </r>
       <r>   -4.2702    1.0000 </r>
       <r>   -3.7738    1.0000 </r>
       <r>   -2.5094    1.0000 </r>
       <r>   -1.1487    0.0000 </r>
       <r>   -0.9128    0.0000 </r>
       <r>   -0.0154    0.0000 </r>
       <r>    0.7612    0.0000 </r>
       <r>    2.1859    0.0000 </r>
       <r>    2.3025    0.0000 </r>
      </set>
      <set comment="kpoint 13">
       <r>  -17.1128    1.0000 </r>
       <r>  -14.6797    1.0000 </r>
       <r>  -11.5194    1.0000 </r>
       <r>   -8.0378    1.0000 </r>
       <r>   -6.9200    1.0000 </r>
       <r>   -6.6092    1.0000 </r>
       <r>   -5.9772    1.0000 </r>
       <r>   -4.4362    1.0000 </r>
       <r>   -3.7656    1.0000 </r>
       <r>   -2.5097    1.0000 </r>
       <r>   -1.1283    0.0000 </r>
       <r>   -0.6893    0.0000 </r>
       <r>    0.2045    0.0000 </r>
       <r>    0.6229    0.0000 </r>
       <r>    2.2113    0.0000 </r>
       <r>    2.3312    0.0000 </r>
      </set>
      <set comment="kpoint 14">
       <r>  -17.0356    1.0000 </r>
       <r>  -14.5992    1.0000 </r>
       <r>  -11.5601    1.0000 </r>
       <r>   -8.0014    1.0000 </r>
       <r>   -6.9988    1.0000 </r>
       <r>   -6.6361    1.0000 </r>
       <r>   -6.2620    1.0000 </r>
       <r>   -4.8089    1.0000 </r>
       <r>   -3.7509    1.0000 </r>
       <r>   -2.5241    1.0000 </r>
       <r>   -1.0719    0.0000 </r>
       <r>   -0.0833    0.0000 </r>
       <r>    0.2329    0.0000 </r>
       <r>    0.7958    0.0000 </r>
       <r>    2.2819    0.0000 </r>
       <r>    2.4174    0.0000 </r>
      </set>
      <set comment="kpoint 15">
       <r>  -16.9074    1.0000 </r>
       <r>  -14.4654    1.0000 </r>
       <r>  -11.6445    1.0000 </r>
       <r>   -7.9707    1.0000 </r>
       <r>   -7.1699    1.0000 </r>
       <r>   -6.9261    1.0000 </r>
       <r>   -6.3157    1.0000 </r>
       <r>   -5.1694    1.0000 </r>
       <r>   -3.7451    1.0000 </r>
       <r>   -2.5713    1.0000 </r>
       <r>   -0.9781    0.0000 </r>
       <r>   -0.1996    0.0000 </r>
       <r>    0.7670    0.0000 </r>
       <r>    1.4190    0.0000 </r>
       <r>    2.2323    0.0000 </r>
       <r>    2.4904    0.0000 </r>
      </set>
      <set comment="kpoint 16">
       <r>  -16.7288    1.0000 </r>
       <r>  -14.2789    1.0000 </r>
       <r>  -11.7945    1.0000 </r>
       <r>   -8.0646    1.0000 </r>
       <r>   -7.3672    1.0000 </r>
       <r>   -7.3063    1.0000 </r>
       <r>   -6.1997    1.0000 </r>
       <r>   -5.3748    1.0000 </r>
       <r>   -3.7714    1.0000 </r>
       <r>   -2.6655    1.0000 </r>
       <r>   -0.8454    0.0000 </r>
       <r>   -0.6049    0.0000 </r>
       <r>    1.5561    0.0000 </r>
       <r>    1.6106    0.0000 </r>
       <r>    1.8907    0.0000 </r>
       <r>    2.6173    0.0000 </r>
      </set>
      <set comment="kpoint 17">
       <r>  -16.5007    1.0000 </r>
       <r>  -14.0411    1.0000 </r>
       <r>  -12.0295    1.0000 </r>
       <r>   -8.4627    1.0000 </r>
       <r>   -7.5964    1.0000 </r>
       <r>   -7.3843    1.0000 </r>
       <r>   -6.0296    1.0000 </r>
       <r>   -5.4180    1.0000 </r>
       <r>   -3.8569    1.0000 </r>
       <r>   -2.8173    1.0000 </r>
       <r>   -0.8954    0.0000 </r>
       <r>   -0.6782    0.0000 </r>
       <r>    1.0976    0.0000 </r>
       <r>    1.1774    0.0000 </r>
       <r>    2.4613    0.0000 </r>
       <r>    2.9152    0.0000 </r>
      </set>
      <set comment="kpoint 18">
       <r>  -16.2247    1.0000 </r>
       <r>  -13.7555    1.0000 </r>
       <r>  -12.3523    1.0000 </r>
       <r>   -9.0451    1.0000 </r>
       <r>   -7.7514    1.0000 </r>
       <r>   -7.2785    1.0000 </r>
       <r>   -5.8291    1.0000 </r>
       <r>   -5.3635    1.0000 </r>
       <r>   -4.0080    1.0000 </r>
       <r>   -3.0287    1.0000 </r>
       <r>   -1.0222    0.0000 </r>
       <r>   -0.5010    0.0000 </r>
       <r>    0.5937    0.0000 </r>
       <r>    0.6010    0.0000 </r>
       <r>    2.2138    0.0000 </r>
       <r>    3.1056    0.0000 </r>
      </set>
      <set comment="kpoint 19">
       <r>  -15.9027    1.0000 </r>
       <r>  -13.4400    1.0000 </r>
       <r>  -12.7313    1.0000 </r>
       <r>   -9.6784    1.0000 </r>
       <r>   -7.7724    1.0000 </r>
       <r>   -7.1517    1.0000 </r>
       <r>   -5.6152    1.0000 </r>
       <r>   -5.2763    1.0000 </r>
       <r>   -4.1817    1.0000 </r>
       <r>   -3.2884    1.0000 </r>
       <r>   -0.9856    0.0000 </r>
       <r>   -0.4345    0.0000 </r>
       <r>    0.0377    0.0000 </r>
       <r>    0.3039    0.0000 </r>
       <r>    1.7869    0.0000 </r>
       <r>    2.8415    0.0000 </r>
      </set>
      <set comment="kpoint 20">
       <r>  -15.5374    1.0000 </r>
       <r>  -13.3516    1.0000 </r>
       <r>  -12.8833    1.0000 </r>
       <r>  -10.3114    1.0000 </r>
       <r>   -7.6848    1.0000 </r>
       <r>   -7.0618    1.0000 </r>
       <r>   -5.4107    1.0000 </r>
       <r>   -5.2089    1.0000 </r>
       <r>   -4.2959    1.0000 </r>
       <r>   -3.5709    1.0000 </r>
       <r>   -0.8419    0.0000 </r>
       <r>   -0.6445    0.0000 </r>
       <r>   -0.4057    0.0000 </r>
       <r>    0.3873    0.0000 </r>
       <r>    1.3421    0.0000 </r>
       <r>    2.4616    0.0000 </r>
      </set>
      <set comment="kpoint 21">
       <r>  -15.1330    1.0000 </r>
       <r>  -13.7629    1.0000 </r>
       <r>  -12.5092    1.0000 </r>
       <r>  -10.9216    1.0000 </r>
       <r>   -7.5240    1.0000 </r>
       <r>   -7.0576    1.0000 </r>
       <r>   -5.2487    1.0000 </r>
       <r>   -5.1757    1.0000 </r>
       <r>   -4.2984    1.0000 </r>
       <r>   -3.8403    1.0000 </r>
       <r>   -0.9098    0.0000 </r>
       <r>   -0.8925    0.0000 </r>
       <r>   -0.4290    0.0000 </r>
       <r>    0.5491    0.0000 </r>
       <r>    1.0183    0.0000 </r>
       <r>    2.0360    0.0000 </r>
      </set>
      <set comment="kpoint 22">
       <r>  -14.6950    1.0000 </r>
       <r>  -14.2328    1.0000 </r>
       <r>  -12.0294    1.0000 </r>
       <r>  -11.4970    1.0000 </r>
       <r>   -7.3316    1.0000 </r>
       <r>   -7.1579    1.0000 </r>
       <r>   -5.1627    1.0000 </r>
       <r>   -5.1535    1.0000 </r>
       <r>   -4.2118    1.0000 </r>
       <r>   -4.0597    1.0000 </r>
       <r>   -1.0666    0.0000 </r>
       <r>   -1.0585    0.0000 </r>
       <r>   -0.1033    0.0000 </r>
       <r>    0.2837    0.0000 </r>
       <r>    1.2123    0.0000 </r>
       <r>    1.6063    0.0000 </r>
      </set>
      <set comment="kpoint 23">
       <r>  -14.6950    1.0000 </r>
       <r>  -14.2328    1.0000 </r>
       <r>  -12.0294    1.0000 </r>
       <r>  -11.4970    1.0000 </r>
       <r>   -7.3316    1.0000 </r>
       <r>   -7.1579    1.0000 </r>
       <r>   -5.1627    1.0000 </r>
       <r>   -5.1535    1.0000 </r>
       <r>   -4.2118    1.0000 </r>
       <r>   -4.0597    1.0000 </r>
       <r>   -1.0666    0.0000 </r>
       <r>   -1.0585    0.0000 </r>
       <r>   -0.1033    0.0000 </r>
       <r>    0.2837    0.0000 </r>
       <r>    1.2123    0.0000 </r>
       <r>    1.6063    0.0000 </r>
      </set>
      <set comment="kpoint 24">
       <r>  -15.1330    1.0000 </r>
       <r>  -13.7629    1.0000 </r>
       <r>  -12.5092    1.0000 </r>
       <r>  -10.9216    1.0000 </r>
       <r>   -7.5240    1.0000 </r>
       <r>   -7.0576    1.0000 </r>
       <r>   -5.2487    1.0000 </r>
       <r>   -5.1757    1.0000 </r>
       <r>   -4.2984    1.0000 </r>
       <r>   -3.8403    1.0000 </r>
       <r>   -0.9098    0.0000 </r>
       <r>   -0.8925    0.0000 </r>
       <r>   -0.4290    0.0000 </r>
       <r>    0.5491    0.0000 </r>
       <r>    1.0183    0.0000 </r>
       <r>    2.0360    0.0000 </r>
      </set>
      <set comment="kpoint 25">
       <r>  -15.5374    1.0000 </r>
       <r>  -13.3516    1.0000 </r>
       <r>  -12.8833    1.0000 </r>
       <r>  -10.3114    1.0000 </r>
       <r>   -7.6848    1.0000 </r>
       <r>   -7.0618    1.0000 </r>
       <r>   -5.4107    1.0000 </r>
       <r>   -5.2089    1.0000 </r>
       <r>   -4.2959    1.0000 </r>
       <r>   -3.5709    1.0000 </r>
       <r>   -0.8419    0.0000 </r>
       <r>   -0.6445    0.0000 </r>
       <r>   -0.4057    0.0000 </r>
       <r>    0.3873    0.0000 </r>
       <r>    1.3421    0.0000 </r>
       <r>    2.4616    0.0000 </r>
      </set>
      <set comment="kpoint 26">
       <r>  -15.9027    1.0000 </r>
       <r>  -13.4400    1.0000 </r>
       <r>  -12.7313    1.0000 </r>
       <r>   -9.6784    1.0000 </r>
       <r>   -7.7724    1.0000 </r>
       <r>   -7.1517    1.0000 </r>
       <r>   -5.6152    1.0000 </r>
       <r>   -5.2763    1.0000 </r>
       <r>   -4.1817    1.0000 </r>
       <r>   -3.2884    1.0000 </r>
       <r>   -0.9856    0.0000 </r>
       <r>   -0.4345    0.0000 </r>
       <r>    0.0377    0.0000 </r>
       <r>    0.3039    0.0000 </r>
       <r>    1.7869    0.0000 </r>
       <r>    2.8415    0.0000 </r>
      </set>
      <set comment="kpoint 27">
       <r>  -16.2247    1.0000 </r>
       <r>  -13.7555    1.0000 </r>
       <r>  -12.3523    1.0000 </r>
       <r>   -9.0451    1.0000 </r>
       <r>   -7.7514    1.0000 </r>
       <r>   -7.2785    1.0000 </r>
       <r>   -5.8291    1.0000 </r>
       <r>   -5.3635    1.0000 </r>
       <r>   -4.0080    1.0000 </r>
       <r>   -3.0287    1.0000 </r>
       <r>   -1.0222    0.0000 </r>
       <r>   -0.5010    0.0000 </r>
       <r>    0.5937    0.0000 </r>
       <r>    0.6010    0.0000 </r>
       <r>    2.2138    0.0000 </r>
       <r>    3.1056    0.0000 </r>
      </set>
      <set comment="kpoint 28">
       <r>  -16.5007    1.0000 </r>
       <r>  -14.0411    1.0000 </r>
       <r>  -12.0295    1.0000 </r>
       <r>   -8.4627    1.0000 </r>
       <r>   -7.5964    1.0000 </r>
       <r>   -7.3843    1.0000 </r>
       <r>   -6.0296    1.0000 </r>
       <r>   -5.4180    1.0000 </r>
       <r>   -3.8569    1.0000 </r>
       <r>   -2.8173    1.0000 </r>
       <r>   -0.8954    0.0000 </r>
       <r>   -0.6782    0.0000 </r>
       <r>    1.0976    0.0000 </r>
       <r>    1.1774    0.0000 </r>
       <r>    2.4613    0.0000 </r>
       <r>    2.9152    0.0000 </r>
      </set>
      <set comment="kpoint 29">
       <r>  -16.7288    1.0000 </r>
       <r>  -14.2789    1.0000 </r>
       <r>  -11.7945    1.0000 </r>
       <r>   -8.0646    1.0000 </r>
       <r>   -7.3672    1.0000 </r>
       <r>   -7.3063    1.0000 </r>
       <r>   -6.1997    1.0000 </r>
       <r>   -5.3748    1.0000 </r>
       <r>   -3.7714    1.0000 </r>
       <r>   -2.6655    1.0000 </r>
       <r>   -0.8454    0.0000 </r>
       <r>   -0.6049    0.0000 </r>
       <r>    1.5561    0.0000 </r>
       <r>    1.6106    0.0000 </r>
       <r>    1.8907    0.0000 </r>
       <r>    2.6173    0.0000 </r>
      </set>
      <set comment="kpoint 30">
       <r>  -16.9074    1.0000 </r>
       <r>  -14.4654    1.0000 </r>
       <r>  -11.6445    1.0000 </r>
       <r>   -7.9707    1.0000 </r>
       <r>   -7.1699    1.0000 </r>
       <r>   -6.9261    1.0000 </r>
       <r>   -6.3157    1.0000 </r>
       <r>   -5.1694    1.0000 </r>
       <r>   -3.7451    1.0000 </r>
       <r>   -2.5713    1.0000 </r>
       <r>   -0.9781    0.0000 </r>
       <r>   -0.1996    0.0000 </r>
       <r>    0.7670    0.0000 </r>
       <r>    1.4190    0.0000 </r>
       <r>    2.2323    0.0000 </r>
       <r>    2.4904    0.0000 </r>
      </set>
      <set comment="kpoint 31">
       <r>  -17.0356    1.0000 </r>
       <r>  -14.5992    1.0000 </r>
       <r>  -11.5601    1.0000 </r>
       <r>   -8.0014    1.0000 </r>
       <r>   -6.9988    1.0000 </r>
       <r>   -6.6361    1.0000 </r>
       <r>   -6.2620    1.0000 </r>
       <r>   -4.8089    1.0000 </r>
       <r>   -3.7509    1.0000 </r>
       <r>   -2.5241    1.0000 </r>
       <r>   -1.0719    0.0000 </r>
       <r>   -0.0833    0.0000 </r>
       <r>    0.2329    0.0000 </r>
       <r>    0.7958    0.0000 </r>
       <r>    2.2819    0.0000 </r>
       <r>    2.4174    0.0000 </r>
      </set>
      <set comment="kpoint 32">
       <r>  -17.1128    1.0000 </r>
       <r>  -14.6797    1.0000 </r>
       <r>  -11.5194    1.0000 </r>
       <r>   -8.0378    1.0000 </r>
       <r>   -6.9200    1.0000 </r>
       <r>   -6.6092    1.0000 </r>
       <r>   -5.9772    1.0000 </r>
       <r>   -4.4362    1.0000 </r>
       <r>   -3.7656    1.0000 </r>
       <r>   -2.5097    1.0000 </r>
       <r>   -1.1283    0.0000 </r>
       <r>   -0.6893    0.0000 </r>
       <r>    0.2045    0.0000 </r>
       <r>    0.6229    0.0000 </r>
       <r>    2.2113    0.0000 </r>
       <r>    2.3312    0.0000 </r>
      </set>
      <set comment="kpoint 33">
       <r>  -17.0748    1.0000 </r>
       <r>  -14.8010    1.0000 </r>
       <r>  -11.5065    1.0000 </r>
       <r>   -8.4128    1.0000 </r>
       <r>   -6.6874    1.0000 </r>
       <r>   -6.3707    1.0000 </r>
       <r>   -5.7873    1.0000 </r>
       <r>   -4.3171    1.0000 </r>
       <r>   -3.5352    1.0000 </r>
       <r>   -2.8876    1.0000 </r>
       <r>   -0.8598    0.0000 </r>
       <r>   -0.8054    0.0000 </r>
       <r>   -0.1563    0.0000 </r>
       <r>    0.7286    0.0000 </r>
       <r>    2.3453    0.0000 </r>
       <r>    2.3920    0.0000 </r>
      </set>
      <set comment="kpoint 34">
       <r>  -17.0491    1.0000 </r>
       <r>  -14.7747    1.0000 </r>
       <r>  -11.5147    1.0000 </r>
       <r>   -8.4031    1.0000 </r>
       <r>   -6.6982    1.0000 </r>
       <r>   -6.4135    1.0000 </r>
       <r>   -5.8770    1.0000 </r>
       <r>   -4.4950    1.0000 </r>
       <r>   -3.5342    1.0000 </r>
       <r>   -2.8834    1.0000 </r>
       <r>   -0.7936    0.0000 </r>
       <r>   -0.6345    0.0000 </r>
       <r>    0.0604    0.0000 </r>
       <r>    0.6134    0.0000 </r>
       <r>    2.3671    0.0000 </r>
       <r>    2.4206    0.0000 </r>
      </set>
      <set comment="kpoint 35">
       <r>  -16.9721    1.0000 </r>
       <r>  -14.6959    1.0000 </r>
       <r>  -11.5444    1.0000 </r>
       <r>   -8.3802    1.0000 </r>
       <r>   -6.7476    1.0000 </r>
       <r>   -6.6309    1.0000 </r>
       <r>   -5.9784    1.0000 </r>
       <r>   -4.8943    1.0000 </r>
       <r>   -3.5446    1.0000 </r>
       <r>   -2.8797    1.0000 </r>
       <r>   -0.7554    0.0000 </r>
       <r>   -0.0336    0.0000 </r>
       <r>    0.1994    0.0000 </r>
       <r>    0.7331    0.0000 </r>
       <r>    2.4228    0.0000 </r>
       <r>    2.4957    0.0000 </r>
      </set>
      <set comment="kpoint 36">
       <r>  -16.8443    1.0000 </r>
       <r>  -14.5652    1.0000 </r>
       <r>  -11.6105    1.0000 </r>
       <r>   -8.3699    1.0000 </r>
       <r>   -7.0228    1.0000 </r>
       <r>   -6.8822    1.0000 </r>
       <r>   -5.9479    1.0000 </r>
       <r>   -5.2787    1.0000 </r>
       <r>   -3.5869    1.0000 </r>
       <r>   -2.8918    1.0000 </r>
       <r>   -0.6918    0.0000 </r>
       <r>   -0.1473    0.0000 </r>
       <r>    0.7934    0.0000 </r>
       <r>    1.3844    0.0000 </r>
       <r>    1.9623    0.0000 </r>
       <r>    2.5312    0.0000 </r>
      </set>
      <set comment="kpoint 37">
       <r>  -16.6662    1.0000 </r>
       <r>  -14.3842    1.0000 </r>
       <r>  -11.7356    1.0000 </r>
       <r>   -8.4417    1.0000 </r>
       <r>   -7.4211    1.0000 </r>
       <r>   -7.1026    1.0000 </r>
       <r>   -5.8425    1.0000 </r>
       <r>   -5.4882    1.0000 </r>
       <r>   -3.6827    1.0000 </r>
       <r>   -2.9349    1.0000 </r>
       <r>   -0.6021    0.0000 </r>
       <r>   -0.4643    0.0000 </r>
       <r>    1.2144    0.0000 </r>
       <r>    1.7410    0.0000 </r>
       <r>    1.9576    0.0000 </r>
       <r>    2.6411    0.0000 </r>
      </set>
      <set comment="kpoint 38">
       <r>  -16.4390    1.0000 </r>
       <r>  -14.1560    1.0000 </r>
       <r>  -11.9410    1.0000 </r>
       <r>   -8.7128    1.0000 </r>
       <r>   -7.7228    1.0000 </r>
       <r>   -7.2564    1.0000 </r>
       <r>   -5.7003    1.0000 </r>
       <r>   -5.5289    1.0000 </r>
       <r>   -3.8425    1.0000 </r>
       <r>   -3.0237    1.0000 </r>
       <r>   -0.6593    0.0000 </r>
       <r>   -0.4875    0.0000 </r>
       <r>    0.7258    0.0000 </r>
       <r>    1.4279    0.0000 </r>
       <r>    2.6262    0.0000 </r>
       <r>    2.9686    0.0000 </r>
      </set>
      <set comment="kpoint 39">
       <r>  -16.1643    1.0000 </r>
       <r>  -13.8889    1.0000 </r>
       <r>  -12.2290    1.0000 </r>
       <r>   -9.1956    1.0000 </r>
       <r>   -7.8843    1.0000 </r>
       <r>   -7.2508    1.0000 </r>
       <r>   -5.5438    1.0000 </r>
       <r>   -5.4939    1.0000 </r>
       <r>   -4.0384    1.0000 </r>
       <r>   -3.1645    1.0000 </r>
       <r>   -0.7060    0.0000 </r>
       <r>   -0.3740    0.0000 </r>
       <r>    0.2594    0.0000 </r>
       <r>    0.8724    0.0000 </r>
       <r>    2.5192    0.0000 </r>
       <r>    2.9611    0.0000 </r>
      </set>
      <set comment="kpoint 40">
       <r>  -15.8442    1.0000 </r>
       <r>  -13.6154    1.0000 </r>
       <r>  -12.5559    1.0000 </r>
       <r>   -9.7801    1.0000 </r>
       <r>   -7.9039    1.0000 </r>
       <r>   -7.1598    1.0000 </r>
       <r>   -5.4691    1.0000 </r>
       <r>   -5.3997    1.0000 </r>
       <r>   -4.1919    1.0000 </r>
       <r>   -3.3453    1.0000 </r>
       <r>   -0.6279    0.0000 </r>
       <r>   -0.4603    0.0000 </r>
       <r>    0.0913    0.0000 </r>
       <r>    0.3207    0.0000 </r>
       <r>    2.2306    0.0000 </r>
       <r>    2.7068    0.0000 </r>
      </set>
      <set comment="kpoint 41">
       <r>  -15.4819    1.0000 </r>
       <r>  -13.5039    1.0000 </r>
       <r>  -12.7264    1.0000 </r>
       <r>  -10.3873    1.0000 </r>
       <r>   -7.8062    1.0000 </r>
       <r>   -7.0749    1.0000 </r>
       <r>   -5.4965    1.0000 </r>
       <r>   -5.3041    1.0000 </r>
       <r>   -4.2221    1.0000 </r>
       <r>   -3.5355    1.0000 </r>
       <r>   -0.7670    0.0000 </r>
       <r>   -0.5417    0.0000 </r>
       <r>   -0.0712    0.0000 </r>
       <r>    0.2666    0.0000 </r>
       <r>    1.8562    0.0000 </r>
       <r>    2.3473    0.0000 </r>
      </set>
      <set comment="kpoint 42">
       <r>  -15.0822    1.0000 </r>
       <r>  -13.7810    1.0000 </r>
       <r>  -12.4856    1.0000 </r>
       <r>  -10.9803    1.0000 </r>
       <r>   -7.6267    1.0000 </r>
       <r>   -7.0762    1.0000 </r>
       <r>   -5.5201    1.0000 </r>
       <r>   -5.2926    1.0000 </r>
       <r>   -4.1334    1.0000 </r>
       <r>   -3.7035    1.0000 </r>
       <r>   -1.0094    0.0000 </r>
       <r>   -0.7578    0.0000 </r>
       <r>    0.0171    0.0000 </r>
       <r>    0.4997    0.0000 </r>
       <r>    1.4867    0.0000 </r>
       <r>    1.9510    0.0000 </r>
      </set>
      <set comment="kpoint 43">
       <r>  -14.6529    1.0000 </r>
       <r>  -14.2079    1.0000 </r>
       <r>  -12.0507    1.0000 </r>
       <r>  -11.5398    1.0000 </r>
       <r>   -7.4069    1.0000 </r>
       <r>   -7.2007    1.0000 </r>
       <r>   -5.4677    1.0000 </r>
       <r>   -5.3656    1.0000 </r>
       <r>   -3.9922    1.0000 </r>
       <r>   -3.8479    1.0000 </r>
       <r>   -1.0984    0.0000 </r>
       <r>   -1.0050    0.0000 </r>
       <r>    0.3150    0.0000 </r>
       <r>    0.5636    0.0000 </r>
       <r>    1.3403    0.0000 </r>
       <r>    1.5759    0.0000 </r>
      </set>
      <set comment="kpoint 44">
       <r>  -14.6529    1.0000 </r>
       <r>  -14.2079    1.0000 </r>
       <r>  -12.0507    1.0000 </r>
       <r>  -11.5398    1.0000 </r>
       <r>   -7.4069    1.0000 </r>
       <r>   -7.2007    1.0000 </r>
       <r>   -5.4677    1.0000 </r>
       <r>   -5.3656    1.0000 </r>
       <r>   -3.9922    1.0000 </r>
       <r>   -3.8479    1.0000 </r>
       <r>   -1.0984    0.0000 </r>
       <r>   -1.0050    0.0000 </r>
       <r>    0.3150    0.0000 </r>
       <r>    0.5636    0.0000 </r>
       <r>    1.3403    0.0000 </r>
       <r>    1.5759    0.0000 </r>
      </set>
      <set comment="kpoint 45">
       <r>  -15.0822    1.0000 </r>
       <r>  -13.7810    1.0000 </r>
       <r>  -12.4856    1.0000 </r>
       <r>  -10.9803    1.0000 </r>
       <r>   -7.6267    1.0000 </r>
       <r>   -7.0762    1.0000 </r>
       <r>   -5.5201    1.0000 </r>
       <r>   -5.2926    1.0000 </r>
       <r>   -4.1334    1.0000 </r>
       <r>   -3.7035    1.0000 </r>
       <r>   -1.0094    0.0000 </r>
       <r>   -0.7578    0.0000 </r>
       <r>    0.0171    0.0000 </r>
       <r>    0.4997    0.0000 </r>
       <r>    1.4867    0.0000 </r>
       <r>    1.9510    0.0000 </r>
      </set>
      <set comment="kpoint 46">
       <r>  -15.4819    1.0000 </r>
       <r>  -13.5039    1.0000 </r>
       <r>  -12.7264    1.0000 </r>
       <r>  -10.3873    1.0000 </r>
       <r>   -7.8062    1.0000 </r>
       <r>   -7.0749    1.0000 </r>
       <r>   -5.4965    1.0000 </r>
       <r>   -5.3041    1.0000 </r>
       <r>   -4.2221    1.0000 </r>
       <r>   -3.5355    1.0000 </r>
       <r>   -0.7670    0.0000 </r>
       <r>   -0.5417    0.0000 </r>
       <r>   -0.0712    0.0000 </r>
       <r>    0.2666    0.0000 </r>
       <r>    1.8562    0.0000 </r>
       <r>    2.3473    0.0000 </r>
      </set>
      <set comment="kpoint 47">
       <r>  -15.8442    1.0000 </r>
       <r>  -13.6154    1.0000 </r>
       <r>  -12.5559    1.0000 </r>
       <r>   -9.7801    1.0000 </r>
       <r>   -7.9039    1.0000 </r>
       <r>   -7.1598    1.0000 </r>
       <r>   -5.4691    1.0000 </r>
       <r>   -5.3997    1.0000 </r>
       <r>   -4.1919    1.0000 </r>
       <r>   -3.3453    1.0000 </r>
       <r>   -0.6279    0.0000 </r>
       <r>   -0.4603    0.0000 </r>
       <r>    0.0913    0.0000 </r>
       <r>    0.3207    0.0000 </r>
       <r>    2.2306    0.0000 </r>
       <r>    2.7068    0.0000 </r>
      </set>
      <set comment="kpoint 48">
       <r>  -16.1643    1.0000 </r>
       <r>  -13.8889    1.0000 </r>
       <r>  -12.2290    1.0000 </r>
       <r>   -9.1956    1.0000 </r>
       <r>   -7.8843    1.0000 </r>
       <r>   -7.2508    1.0000 </r>
       <r>   -5.5438    1.0000 </r>
       <r>   -5.4939    1.0000 </r>
       <r>   -4.0384    1.0000 </r>
       <r>   -3.1645    1.0000 </r>
       <r>   -0.7060    0.0000 </r>
       <r>   -0.3740    0.0000 </r>
       <r>    0.2594    0.0000 </r>
       <r>    0.8724    0.0000 </r>
       <r>    2.5192    0.0000 </r>
       <r>    2.9611    0.0000 </r>
      </set>
      <set comment="kpoint 49">
       <r>  -16.4390    1.0000 </r>
       <r>  -14.1560    1.0000 </r>
       <r>  -11.9410    1.0000 </r>
       <r>   -8.7128    1.0000 </r>
       <r>   -7.7228    1.0000 </r>
       <r>   -7.2564    1.0000 </r>
       <r>   -5.7003    1.0000 </r>
       <r>   -5.5289    1.0000 </r>
       <r>   -3.8425    1.0000 </r>
[...]
       <r>    3.2692    0.0000 </r>
       <r>    3.3399    0.0000 </r>
      </set>
      <set comment="kpoint 153">
       <r>  -15.3273    1.0000 </r>
       <r>  -15.0805    1.0000 </r>
       <r>  -10.9938    1.0000 </r>
       <r>  -10.6739    1.0000 </r>
       <r>   -7.9326    1.0000 </r>
       <r>   -7.7748    1.0000 </r>
       <r>   -5.3350    1.0000 </r>
       <r>   -5.1205    1.0000 </r>
       <r>   -3.8664    1.0000 </r>
       <r>   -3.7705    1.0000 </r>
       <r>    0.2234    0.0000 </r>
       <r>    0.6171    0.0000 </r>
       <r>    1.0462    0.0000 </r>
       <r>    1.3406    0.0000 </r>
       <r>    3.1722    0.0000 </r>
       <r>    3.2732    0.0000 </r>
      </set>
      <set comment="kpoint 154">
       <r>  -15.5827    1.0000 </r>
       <r>  -15.3302    1.0000 </r>
       <r>  -10.8181    1.0000 </r>
       <r>  -10.4877    1.0000 </r>
       <r>   -7.6551    1.0000 </r>
       <r>   -7.4951    1.0000 </r>
       <r>   -5.1859    1.0000 </r>
       <r>   -4.9214    1.0000 </r>
       <r>   -3.7692    1.0000 </r>
       <r>   -3.7584    1.0000 </r>
       <r>    0.2022    0.0000 </r>
       <r>    0.5116    0.0000 </r>
       <r>    1.1501    0.0000 </r>
       <r>    1.4853    0.0000 </r>
       <r>    2.7733    0.0000 </r>
       <r>    3.0358    0.0000 </r>
      </set>
      <set comment="kpoint 155">
       <r>  -15.7977    1.0000 </r>
       <r>  -15.5421    1.0000 </r>
       <r>  -10.7498    1.0000 </r>
       <r>  -10.4202    1.0000 </r>
       <r>   -7.1908    1.0000 </r>
       <r>   -7.0208    1.0000 </r>
       <r>   -5.1731    1.0000 </r>
       <r>   -4.8664    1.0000 </r>
       <r>   -3.6941    1.0000 </r>
       <r>   -3.5570    1.0000 </r>
       <r>    0.2459    0.0000 </r>
       <r>    0.4406    0.0000 </r>
       <r>    1.1612    0.0000 </r>
       <r>    1.5216    0.0000 </r>
       <r>    2.1207    0.0000 </r>
       <r>    2.3369    0.0000 </r>
      </set>
      <set comment="kpoint 156">
       <r>  -15.9681    1.0000 </r>
       <r>  -15.7107    1.0000 </r>
       <r>  -10.7471    1.0000 </r>
       <r>  -10.4221    1.0000 </r>
       <r>   -6.6038    1.0000 </r>
       <r>   -6.4227    1.0000 </r>
       <r>   -5.2202    1.0000 </r>
       <r>   -4.8921    1.0000 </r>
       <r>   -3.6309    1.0000 </r>
       <r>   -3.3719    1.0000 </r>
       <r>    0.2869    0.0000 </r>
       <r>    0.3538    0.0000 </r>
       <r>    1.0648    0.0000 </r>
       <r>    1.2840    0.0000 </r>
       <r>    1.6714    0.0000 </r>
       <r>    1.6849    0.0000 </r>
      </set>
      <set comment="kpoint 157">
       <r>  -16.0912    1.0000 </r>
       <r>  -15.8328    1.0000 </r>
       <r>  -10.7694    1.0000 </r>
       <r>  -10.4487    1.0000 </r>
       <r>   -5.9726    1.0000 </r>
       <r>   -5.7880    1.0000 </r>
       <r>   -5.2731    1.0000 </r>
       <r>   -4.9380    1.0000 </r>
       <r>   -3.6552    1.0000 </r>
       <r>   -3.2882    1.0000 </r>
       <r>    0.0462    0.0000 </r>
       <r>    0.0670    0.0000 </r>
       <r>    1.0062    0.0000 </r>
       <r>    1.0067    0.0000 </r>
       <r>    1.3925    0.0000 </r>
       <r>    1.5819    0.0000 </r>
      </set>
      <set comment="kpoint 158">
       <r>  -16.1656    1.0000 </r>
       <r>  -15.9068    1.0000 </r>
       <r>  -10.7911    1.0000 </r>
       <r>  -10.4733    1.0000 </r>
       <r>   -5.4073    1.0000 </r>
       <r>   -5.3433    1.0000 </r>
       <r>   -5.2009    1.0000 </r>
       <r>   -4.9739    1.0000 </r>
       <r>   -3.7857    1.0000 </r>
       <r>   -3.3333    1.0000 </r>
       <r>   -0.3596    0.0000 </r>
       <r>   -0.3073    0.0000 </r>
       <r>    1.0043    0.0000 </r>
       <r>    1.1138    0.0000 </r>
       <r>    1.2985    0.0000 </r>
       <r>    1.5351    0.0000 </r>
      </set>
     </set>
    </set>
   </array>
  </eigenvalues>
  <separator name="orbital magnetization" >
   <v name="MAGDIPOLOUT">      0.00000000      0.00000000      0.00000000</v>
  </separator>
  <dos>
   <i name="efermi">     -2.22066687 </i>
   <total>
    <array>
     <dimension dim="1">gridpoints</dimension>
     <dimension dim="2">spin</dimension>
     <field>energy</field>
     <field>total</field>
     <field>integrated</field>
     <set>
      <set comment="spin 1">
       <r>   -18.1967     0.0000     0.0000 </r>
       <r>   -18.1207     0.0000     0.0000 </r>
       <r>   -18.0447     0.0000     0.0000 </r>
       <r>   -17.9686     0.0000     0.0000 </r>
       <r>   -17.8926     0.0000     0.0000 </r>
       <r>   -17.8166     0.0000     0.0000 </r>
       <r>   -17.7406     0.0000     0.0000 </r>
       <r>   -17.6645     0.0000     0.0000 </r>
       <r>   -17.5885     0.0000     0.0000 </r>
       <r>   -17.5125     0.0000     0.0000 </r>
       <r>   -17.4364     0.0000     0.0000 </r>
       <r>   -17.3604     0.0000     0.0000 </r>
       <r>   -17.2844     0.0000     0.0000 </r>
       <r>   -17.2083     0.0000     0.0000 </r>
       <r>   -17.1323     0.3138     0.0239 </r>
       <r>   -17.0563     0.8016     0.0848 </r>
       <r>   -16.9802     0.7725     0.1435 </r>
       <r>   -16.9042     1.0581     0.2240 </r>
       <r>   -16.8282     0.8449     0.2882 </r>
       <r>   -16.7521     0.6300     0.3361 </r>
       <r>   -16.6761     1.0894     0.4190 </r>
       <r>   -16.6001     0.8620     0.4845 </r>
       <r>   -16.5241     0.9501     0.5567 </r>
       <r>   -16.4480     0.5650     0.5997 </r>
       <r>   -16.3720     1.3815     0.7047 </r>
       <r>   -16.2960     0.6654     0.7553 </r>
       <r>   -16.2199     0.7709     0.8139 </r>
       <r>   -16.1439     1.5243     0.9298 </r>
       <r>   -16.0679     0.5040     0.9682 </r>
       <r>   -15.9918     0.8880     1.0357 </r>
       <r>   -15.9158     0.9971     1.1115 </r>
       <r>   -15.8398     0.9904     1.1868 </r>
       <r>   -15.7637     1.1531     1.2745 </r>
       <r>   -15.6877     0.8486     1.3390 </r>
       <r>   -15.6117     0.7141     1.3933 </r>
       <r>   -15.5356     1.6620     1.5196 </r>
       <r>   -15.4596     0.7546     1.5770 </r>
       <r>   -15.3836     1.0402     1.6561 </r>
       <r>   -15.3076     1.0989     1.7396 </r>
       <r>   -15.2315     1.2384     1.8338 </r>
       <r>   -15.1555     0.5404     1.8749 </r>
       <r>   -15.0795     1.6007     1.9966 </r>
       <r>   -15.0034     1.5938     2.1178 </r>
       <r>   -14.9274     1.0851     2.2003 </r>
       <r>   -14.8514     0.8892     2.2679 </r>
       <r>   -14.7753     1.5596     2.3865 </r>
       <r>   -14.6993     1.9537     2.5350 </r>
       <r>   -14.6233     1.4145     2.6426 </r>
       <r>   -14.5472     2.4055     2.8254 </r>
       <r>   -14.4712     1.1921     2.9161 </r>
       <r>   -14.3952     1.0049     2.9925 </r>
       <r>   -14.3191     0.8773     3.0592 </r>
       <r>   -14.2431     2.0823     3.2175 </r>
       <r>   -14.1671     1.4084     3.3246 </r>
       <r>   -14.0911     2.1458     3.4877 </r>
       <r>   -14.0150     1.2502     3.5828 </r>
       <r>   -13.9390     0.4769     3.6190 </r>
       <r>   -13.8630     0.9160     3.6887 </r>
       <r>   -13.7869     0.8852     3.7560 </r>
       <r>   -13.7109     1.1069     3.8402 </r>
       <r>   -13.6349     0.4602     3.8751 </r>
       <r>   -13.5588     0.3060     3.8984 </r>
       <r>   -13.4828     0.3117     3.9221 </r>
       <r>   -13.4068     0.3534     3.9490 </r>
       <r>   -13.3307     0.4777     3.9853 </r>
       <r>   -13.2547     0.1782     3.9988 </r>
       <r>   -13.1787     0.0152     4.0000 </r>
       <r>   -13.1026     0.0000     4.0000 </r>
       <r>   -13.0266     0.0000     4.0000 </r>
       <r>   -12.9506     0.1353     4.0103 </r>
       <r>   -12.8746     0.2762     4.0313 </r>
       <r>   -12.7985     0.2252     4.0484 </r>
       <r>   -12.7225     0.4797     4.0849 </r>
       <r>   -12.6465     0.2197     4.1016 </r>
       <r>   -12.5704     0.0579     4.1060 </r>
       <r>   -12.4944     1.1411     4.1927 </r>
       <r>   -12.4184     0.6277     4.2405 </r>
       <r>   -12.3423     1.0211     4.3181 </r>
       <r>   -12.2663     0.5643     4.3610 </r>
       <r>   -12.1903     0.5956     4.4063 </r>
       <r>   -12.1142     1.3800     4.5112 </r>
       <r>   -12.0382     2.3307     4.6884 </r>
       <r>   -11.9622     1.0246     4.7663 </r>
       <r>   -11.8861     1.0324     4.8448 </r>
       <r>   -11.8101     1.3455     4.9471 </r>
       <r>   -11.7341     1.2390     5.0413 </r>
       <r>   -11.6581     0.6411     5.0901 </r>
       <r>   -11.5820     2.2546     5.2615 </r>
       <r>   -11.5060     3.3678     5.5175 </r>
       <r>   -11.4300     1.9538     5.6661 </r>
       <r>   -11.3539     2.0086     5.8188 </r>
       <r>   -11.2779     0.8522     5.8836 </r>
       <r>   -11.2019     1.6224     6.0070 </r>
       <r>   -11.1258     0.3388     6.0327 </r>
       <r>   -11.0498     1.2390     6.1269 </r>
       <r>   -10.9738     1.8133     6.2648 </r>
       <r>   -10.8977     0.7168     6.3193 </r>
       <r>   -10.8217     0.4582     6.3541 </r>
       <r>   -10.7457     1.3911     6.4599 </r>
       <r>   -10.6696     1.0994     6.5435 </r>
       <r>   -10.5936     0.2006     6.5587 </r>
       <r>   -10.5176     0.1265     6.5683 </r>
       <r>   -10.4416     1.3278     6.6693 </r>
       <r>   -10.3655     1.3873     6.7748 </r>
       <r>   -10.2895     0.7134     6.8290 </r>
       <r>   -10.2135     0.1194     6.8381 </r>
       <r>   -10.1374     0.4691     6.8738 </r>
       <r>   -10.0614     1.2495     6.9688 </r>
       <r>    -9.9854     0.7824     7.0283 </r>
       <r>    -9.9093     0.3355     7.0538 </r>
       <r>    -9.8333     0.0027     7.0540 </r>
       <r>    -9.7573     0.5594     7.0965 </r>
       <r>    -9.6812     1.2658     7.1927 </r>
       <r>    -9.6052     1.1805     7.2825 </r>
       <r>    -9.5292     0.0006     7.2825 </r>
       <r>    -9.4531     0.0053     7.2829 </r>
       <r>    -9.3771     0.6266     7.3306 </r>
       <r>    -9.3011     0.0630     7.3354 </r>
       <r>    -9.2250     1.3745     7.4399 </r>
       <r>    -9.1490     0.4357     7.4730 </r>
       <r>    -9.0730     0.0098     7.4737 </r>
       <r>    -8.9970     0.7177     7.5283 </r>
       <r>    -8.9209     0.1077     7.5365 </r>
       <r>    -8.8449     0.2946     7.5589 </r>
       <r>    -8.7689     1.2024     7.6503 </r>
       <r>    -8.6928     0.3138     7.6742 </r>
       <r>    -8.6168     0.0264     7.6762 </r>
       <r>    -8.5408     0.0000     7.6762 </r>
       <r>    -8.4647     0.1651     7.6887 </r>
       <r>    -8.3887     1.0702     7.7701 </r>
       <r>    -8.3127     0.7687     7.8286 </r>
       <r>    -8.2366     0.0001     7.8286 </r>
       <r>    -8.1606     0.1261     7.8382 </r>
       <r>    -8.0846     1.3872     7.9436 </r>
       <r>    -8.0085     2.8298     8.1588 </r>
       <r>    -7.9325     1.5389     8.2758 </r>
       <r>    -7.8565     2.0589     8.4323 </r>
       <r>    -7.7805     2.6995     8.6376 </r>
       <r>    -7.7044     2.3724     8.8179 </r>
       <r>    -7.6284     1.7752     8.9529 </r>
       <r>    -7.5524     1.3399     9.0548 </r>
       <r>    -7.4763     3.0330     9.2854 </r>
       <r>    -7.4003     2.2101     9.4534 </r>
       <r>    -7.3243     2.0832     9.6118 </r>
       <r>    -7.2482     3.6675     9.8907 </r>
       <r>    -7.1722     3.4214    10.1508 </r>
       <r>    -7.0962     3.7206    10.4337 </r>
       <r>    -7.0201     3.0158    10.6630 </r>
       <r>    -6.9441     1.0212    10.7406 </r>
       <r>    -6.8681     1.7596    10.8744 </r>
       <r>    -6.7920     0.8851    10.9417 </r>
       <r>    -6.7160     1.6594    11.0679 </r>
       <r>    -6.6400     1.3225    11.1684 </r>
       <r>    -6.5640     2.0733    11.3261 </r>
       <r>    -6.4879     0.9163    11.3957 </r>
       <r>    -6.4119     2.5504    11.5896 </r>
       <r>    -6.3359     1.1577    11.6777 </r>
       <r>    -6.2598     1.3296    11.7787 </r>
       <r>    -6.1838     2.4705    11.9666 </r>
       <r>    -6.1078     1.7760    12.1016 </r>
       <r>    -6.0317     1.0511    12.1815 </r>
       <r>    -5.9557     2.3277    12.3585 </r>
       <r>    -5.8797     1.7487    12.4915 </r>
       <r>    -5.8036     3.0225    12.7213 </r>
       <r>    -5.7276     1.5334    12.8378 </r>
       <r>    -5.6516     3.2200    13.0827 </r>
       <r>    -5.5755     4.4316    13.4196 </r>
       <r>    -5.4995     2.4950    13.6093 </r>
       <r>    -5.4235     3.9889    13.9126 </r>
       <r>    -5.3475     3.5029    14.1789 </r>
       <r>    -5.2714     3.8324    14.4703 </r>
       <r>    -5.1954     2.8780    14.6891 </r>
       <r>    -5.1194     3.6130    14.9638 </r>
       <r>    -5.0433     1.2189    15.0565 </r>
       <r>    -4.9673     1.9309    15.2033 </r>
       <r>    -4.8913     2.4658    15.3908 </r>
       <r>    -4.8152     1.7302    15.5223 </r>
       <r>    -4.7392     0.6897    15.5748 </r>
       <r>    -4.6632     0.7159    15.6292 </r>
       <r>    -4.5871     1.4133    15.7367 </r>
       <r>    -4.5111     1.9642    15.8860 </r>
       <r>    -4.4351     0.6734    15.9372 </r>
       <r>    -4.3590     0.7984    15.9979 </r>
       <r>    -4.2830     1.2676    16.0943 </r>
       <r>    -4.2070     1.0511    16.1742 </r>
       <r>    -4.1310     2.9574    16.3990 </r>
       <r>    -4.0549     2.3121    16.5748 </r>
       <r>    -3.9789     2.6919    16.7795 </r>
       <r>    -3.9029     1.6161    16.9024 </r>
       <r>    -3.8268     3.8859    17.1978 </r>
       <r>    -3.7508     5.0218    17.5796 </r>
       <r>    -3.6748     3.8798    17.8746 </r>
       <r>    -3.5987     2.5175    18.0660 </r>
       <r>    -3.5227     4.6316    18.4182 </r>
       <r>    -3.4467     3.1406    18.6570 </r>
       <r>    -3.3706     3.5617    18.9278 </r>
       <r>    -3.2946     3.0249    19.1578 </r>
       <r>    -3.2186     2.7863    19.3696 </r>
       <r>    -3.1425     0.6718    19.4207 </r>
       <r>    -3.0665     0.4158    19.4523 </r>
       <r>    -2.9905     1.6469    19.5775 </r>
       <r>    -2.9145     1.1334    19.6637 </r>
       <r>    -2.8384     1.6345    19.7880 </r>
       <r>    -2.7624     0.3746    19.8165 </r>
       <r>    -2.6864     0.1828    19.8304 </r>
       <r>    -2.6103     0.3116    19.8540 </r>
       <r>    -2.5343     0.5876    19.8987 </r>
       <r>    -2.4583     0.7530    19.9560 </r>
       <r>    -2.3822     0.1712    19.9690 </r>
       <r>    -2.3062     0.3949    19.9990 </r>
       <r>    -2.2302     0.0131    20.0000 </r>
       <r>    -2.1541     0.0000    20.0000 </r>
       <r>    -2.0781     0.0000    20.0000 </r>
       <r>    -2.0021     0.0000    20.0000 </r>
       <r>    -1.9260     0.0000    20.0000 </r>
       <r>    -1.8500     0.0000    20.0000 </r>
       <r>    -1.7740     0.0000    20.0000 </r>
       <r>    -1.6980     0.0000    20.0000 </r>
       <r>    -1.6219     0.0000    20.0000 </r>
       <r>    -1.5459     0.0000    20.0000 </r>
       <r>    -1.4699     0.0000    20.0000 </r>
       <r>    -1.3938     0.0000    20.0000 </r>
       <r>    -1.3178     0.0496    20.0038 </r>
       <r>    -1.2418     0.2152    20.0201 </r>
       <r>    -1.1657     0.1758    20.0335 </r>
       <r>    -1.0897     1.2499    20.1285 </r>
       <r>    -1.0137     1.8015    20.2655 </r>
       <r>    -0.9376     2.3797    20.4464 </r>
       <r>    -0.8616     1.5752    20.5662 </r>
       <r>    -0.7856     2.0812    20.7244 </r>
       <r>    -0.7095     2.2701    20.8970 </r>
       <r>    -0.6335     3.1699    21.1380 </r>
       <r>    -0.5575     2.4903    21.3274 </r>
       <r>    -0.4815     2.3589    21.5067 </r>
       <r>    -0.4054     4.0603    21.8154 </r>
       <r>    -0.3294     2.7262    22.0227 </r>
       <r>    -0.2534     2.7090    22.2287 </r>
       <r>    -0.1773     1.7265    22.3599 </r>
       <r>    -0.1013     3.1243    22.5975 </r>
       <r>    -0.0253     2.5537    22.7917 </r>
       <r>     0.0508     4.3622    23.1233 </r>
       <r>     0.1268     4.2499    23.4464 </r>
       <r>     0.2028     2.9355    23.6696 </r>
       <r>     0.2789     5.3691    24.0778 </r>
       <r>     0.3549     3.2771    24.3270 </r>
       <r>     0.4309     4.0020    24.6313 </r>
       <r>     0.5070     2.8945    24.8514 </r>
       <r>     0.5830     3.7061    25.1331 </r>
       <r>     0.6590     4.9451    25.5091 </r>
       <r>     0.7350     3.9001    25.8057 </r>
       <r>     0.8111     5.1714    26.1988 </r>
       <r>     0.8871     3.1456    26.4380 </r>
       <r>     0.9631     2.0415    26.5932 </r>
       <r>     1.0392     2.3406    26.7712 </r>
       <r>     1.1152     1.7334    26.9030 </r>
       <r>     1.1912     3.1208    27.1403 </r>
       <r>     1.2673     2.0095    27.2930 </r>
       <r>     1.3433     2.7624    27.5031 </r>
       <r>     1.4193     2.7184    27.7098 </r>
       <r>     1.4954     2.5629    27.9046 </r>
       <r>     1.5714     2.6301    28.1046 </r>
       <r>     1.6474     2.5242    28.2965 </r>
       <r>     1.7235     1.7611    28.4304 </r>
       <r>     1.7995     2.6861    28.6346 </r>
       <r>     1.8755     2.6942    28.8395 </r>
       <r>     1.9516     1.7844    28.9751 </r>
       <r>     2.0276     1.5569    29.0935 </r>
       <r>     2.1036     1.6508    29.2190 </r>
       <r>     2.1796     2.3461    29.3974 </r>
       <r>     2.2557     2.7296    29.6050 </r>
       <r>     2.3317     2.5436    29.7983 </r>
       <r>     2.4077     2.6588    30.0005 </r>
       <r>     2.4838     3.1094    30.2369 </r>
       <r>     2.5598     3.9593    30.5379 </r>
       <r>     2.6358     2.5076    30.7286 </r>
       <r>     2.7119     1.9565    30.8774 </r>
       <r>     2.7879     2.1668    31.0421 </r>
       <r>     2.8639     1.4996    31.1561 </r>
       <r>     2.9400     2.5944    31.3534 </r>
       <r>     3.0160     1.5175    31.4687 </r>
       <r>     3.0920     1.2900    31.5668 </r>
       <r>     3.1681     1.4325    31.6758 </r>
       <r>     3.2441     1.4511    31.7861 </r>
       <r>     3.3201     1.1715    31.8752 </r>
       <r>     3.3961     0.7406    31.9315 </r>
       <r>     3.4722     0.5668    31.9746 </r>
       <r>     3.5482     0.0090    31.9752 </r>
       <r>     3.6242     0.3255    32.0000 </r>
       <r>     3.7003     0.0001    32.0000 </r>
       <r>     3.7763     0.0000    32.0000 </r>
       <r>     3.8523     0.0000    32.0000 </r>
       <r>     3.9284     0.0000    32.0000 </r>
       <r>     4.0044     0.0000    32.0000 </r>
       <r>     4.0804     0.0000    32.0000 </r>
       <r>     4.1565     0.0000    32.0000 </r>
       <r>     4.2325     0.0000    32.0000 </r>
       <r>     4.3085     0.0000    32.0000 </r>
       <r>     4.3846     0.0000    32.0000 </r>
       <r>     4.4606     0.0000    32.0000 </r>
       <r>     4.5366     0.0000    32.0000 </r>
       <r>     4.6126     0.0000    32.0000 </r>
      </set>
     </set>
    </array>
   </total>
  </dos>
 </calculation>
 <structure name="finalpos" >
  <crystal>
   <varray name="basis" >
    <v>       3.36250200       0.00000000       0.00000000 </v>
    <v>       0.00000000       4.62335100      -0.00005300 </v>
    <v>       0.00000000       0.00000000      20.02439000 </v>
   </varray>
   <i name="volume">    311.29970728 </i>
   <varray name="rec_basis" >
    <v>       0.29739759       0.00000000       0.00000000 </v>
    <v>       0.00000000       0.21629333       0.00000000 </v>
    <v>       0.00000000       0.00000057       0.04993910 </v>
   </varray>
  </crystal>
  <varray name="positions" >
   <v>       0.50000000       0.90991766       0.55240384 </v>
   <v>       0.50000000       0.09008234       0.44759616 </v>
   <v>       0.00000000       0.40991310       0.44759616 </v>
   <v>      -0.00000000       0.59008690       0.55240384 </v>
  </varray>
 </structure>
</modeling>
