<?xml version="1.0" encoding="ISO-8859-1"?>
<modeling>
 <generator>
  <i name="program" type="string">vasp </i>
  <i name="version" type="string">5.4.1  </i>
  <i name="subversion" type="string">24Jun15 (build Nov 20 2020 10:29:34) complex                          parallel </i>
  <i name="platform" type="string">IFC91_ompi </i>
  <i name="date" type="string">2021 09 09 </i>
  <i name="time" type="string">15:20:37 </i>
 </generator>
 <incar>
  <i type="string" name="PREC">a</i>
  <i type="string" name="ALGO"> Normal</i>
  <i type="int" name="ISPIN">     1</i>
  <i type="int" name="ICHARG">     2</i>
  <i type="int" name="NELM">   250</i>
  <i type="int" name="NELMDL">    -5</i>
  <i type="int" name="NELMIN">     6</i>
  <i type="int" name="IBRION">     2</i>
  <i name="EDIFF">      0.00001000</i>
  <i name="EDIFFG">     -0.01000000</i>
  <i type="int" name="NSW">   200</i>
  <i type="int" name="ISIF">     2</i>
  <i name="ENCUT">    520.00000000</i>
  <i name="POTIM">      0.30000000</i>
  <i type="logical" name="LREAL"> F  </i>
  <i type="int" name="ISMEAR">     0</i>
  <i name="SIGMA">      0.02000000</i>
  <i type="logical" name="LWAVE"> F  </i>
  <i type="logical" name="LCHARG"> F  </i>
  <i type="logical" name="LAECHG"> F  </i>
  <v type="int" name="KPOINT_BSE">    -1     0     0     0</v>
  <i type="int" name="NELM">   250</i>
 </incar>
 <kpoints>
  <generation param="Gamma">
   <v type="int" name="divisions">      21       15        1 </v>
   <v name="usershift">      0.00000000       0.00000000       0.00000000 </v>
   <v name="genvec1">      0.04761905       0.00000000       0.00000000 </v>
   <v name="genvec2">     -0.00000000       0.06666667       0.00000000 </v>
   <v name="genvec3">     -0.00000000       0.00000000       1.00000000 </v>
   <v name="shift">      0.00000000       0.00000000       0.00000000 </v>
  </generation>
  <varray name="kpointlist" >
   <v>       0.00000000       0.00000000       0.00000000 </v>
   <v>       0.04761905       0.00000000       0.00000000 </v>
   <v>       0.09523810       0.00000000       0.00000000 </v>
   <v>       0.14285714       0.00000000       0.00000000 </v>
   <v>       0.19047619       0.00000000       0.00000000 </v>
   <v>       0.23809524       0.00000000       0.00000000 </v>
   <v>       0.28571429       0.00000000       0.00000000 </v>
   <v>       0.33333333       0.00000000       0.00000000 </v>
   <v>       0.38095238       0.00000000       0.00000000 </v>
   <v>       0.42857143       0.00000000       0.00000000 </v>
   <v>       0.47619048       0.00000000       0.00000000 </v>
   <v>       0.00000000       0.06666667       0.00000000 </v>
   <v>       0.04761905       0.06666667       0.00000000 </v>
   <v>       0.09523810       0.06666667       0.00000000 </v>
   <v>       0.14285714       0.06666667       0.00000000 </v>
   <v>       0.19047619       0.06666667       0.00000000 </v>
   <v>       0.23809524       0.06666667       0.00000000 </v>
   <v>       0.28571429       0.06666667       0.00000000 </v>
   <v>       0.33333333       0.06666667       0.00000000 </v>
   <v>       0.38095238       0.06666667       0.00000000 </v>
   <v>       0.42857143       0.06666667       0.00000000 </v>
   <v>       0.47619048       0.06666667       0.00000000 </v>
   <v>      -0.47619048       0.06666667       0.00000000 </v>
   <v>      -0.42857143       0.06666667       0.00000000 </v>
   <v>      -0.38095238       0.06666667       0.00000000 </v>
   <v>      -0.33333333       0.06666667       0.00000000 </v>
   <v>      -0.28571429       0.06666667       0.00000000 </v>
   <v>      -0.23809524       0.06666667       0.00000000 </v>
   <v>      -0.19047619       0.06666667       0.00000000 </v>
   <v>      -0.14285714       0.06666667       0.00000000 </v>
   <v>      -0.09523810       0.06666667       0.00000000 </v>
   <v>      -0.04761905       0.06666667       0.00000000 </v>
   <v>      -0.00000000       0.13333333       0.00000000 </v>
   <v>       0.04761905       0.13333333       0.00000000 </v>
   <v>       0.09523810       0.13333333       0.00000000 </v>
   <v>       0.14285714       0.13333333       0.00000000 </v>
   <v>       0.19047619       0.13333333       0.00000000 </v>
   <v>       0.23809524       0.13333333       0.00000000 </v>
   <v>       0.28571429       0.13333333       0.00000000 </v>
   <v>       0.33333333       0.13333333       0.00000000 </v>
   <v>       0.38095238       0.13333333       0.00000000 </v>
   <v>       0.42857143       0.13333333       0.00000000 </v>
   <v>       0.47619048       0.13333333       0.00000000 </v>
   <v>      -0.47619048       0.13333333       0.00000000 </v>
   <v>      -0.42857143       0.13333333       0.00000000 </v>
   <v>      -0.38095238       0.13333333       0.00000000 </v>
   <v>      -0.33333333       0.13333333       0.00000000 </v>
   <v>      -0.28571429       0.13333333       0.00000000 </v>
   <v>      -0.23809524       0.13333333       0.00000000 </v>
   <v>      -0.19047619       0.13333333       0.00000000 </v>
   <v>      -0.14285714       0.13333333       0.00000000 </v>
   <v>      -0.09523810       0.13333333       0.00000000 </v>
   <v>      -0.04761905       0.13333333       0.00000000 </v>
   <v>      -0.00000000       0.20000000       0.00000000 </v>
   <v>       0.04761905       0.20000000       0.00000000 </v>
   <v>       0.09523810       0.20000000       0.00000000 </v>
   <v>       0.14285714       0.20000000       0.00000000 </v>
   <v>       0.19047619       0.20000000       0.00000000 </v>
   <v>       0.23809524       0.20000000       0.00000000 </v>
   <v>       0.28571429       0.20000000       0.00000000 </v>
   <v>       0.33333333       0.20000000       0.00000000 </v>
   <v>       0.38095238       0.20000000       0.00000000 </v>
   <v>       0.42857143       0.20000000       0.00000000 </v>
   <v>       0.47619048       0.20000000       0.00000000 </v>
   <v>      -0.47619048       0.20000000       0.00000000 </v>
   <v>      -0.42857143       0.20000000       0.00000000 </v>
   <v>      -0.38095238       0.20000000       0.00000000 </v>
   <v>      -0.33333333       0.20000000       0.00000000 </v>
   <v>      -0.28571429       0.20000000       0.00000000 </v>
   <v>      -0.23809524       0.20000000       0.00000000 </v>
   <v>      -0.19047619       0.20000000       0.00000000 </v>
   <v>      -0.14285714       0.20000000       0.00000000 </v>
   <v>      -0.09523810       0.20000000       0.00000000 </v>
   <v>      -0.04761905       0.20000000       0.00000000 </v>
   <v>       0.00000000       0.26666667       0.00000000 </v>
   <v>       0.04761905       0.26666667       0.00000000 </v>
   <v>       0.09523810       0.26666667       0.00000000 </v>
   <v>       0.14285714       0.26666667       0.00000000 </v>
   <v>       0.19047619       0.26666667       0.00000000 </v>
   <v>       0.23809524       0.26666667       0.00000000 </v>
   <v>       0.28571429       0.26666667       0.00000000 </v>
   <v>       0.33333333       0.26666667       0.00000000 </v>
   <v>       0.38095238       0.26666667       0.00000000 </v>
   <v>       0.42857143       0.26666667       0.00000000 </v>
   <v>       0.47619048       0.26666667       0.00000000 </v>
   <v>      -0.47619048       0.26666667       0.00000000 </v>
   <v>      -0.42857143       0.26666667       0.00000000 </v>
   <v>      -0.38095238       0.26666667       0.00000000 </v>
   <v>      -0.33333333       0.26666667       0.00000000 </v>
   <v>      -0.28571429       0.26666667       0.00000000 </v>
   <v>      -0.23809524       0.26666667       0.00000000 </v>
   <v>      -0.19047619       0.26666667       0.00000000 </v>
   <v>      -0.14285714       0.26666667       0.00000000 </v>
   <v>      -0.09523810       0.26666667       0.00000000 </v>
   <v>      -0.04761905       0.26666667       0.00000000 </v>
   <v>      -0.00000000       0.33333333       0.00000000 </v>
   <v>       0.04761905       0.33333333       0.00000000 </v>
   <v>       0.09523810       0.33333333       0.00000000 </v>
   <v>       0.14285714       0.33333333       0.00000000 </v>
   <v>       0.19047619       0.33333333       0.00000000 </v>
   <v>       0.23809524       0.33333333       0.00000000 </v>
   <v>       0.28571429       0.33333333       0.00000000 </v>
   <v>       0.33333333       0.33333333       0.00000000 </v>
   <v>       0.38095238       0.33333333       0.00000000 </v>
   <v>       0.42857143       0.33333333       0.00000000 </v>
   <v>       0.47619048       0.33333333       0.00000000 </v>
   <v>      -0.47619048       0.33333333       0.00000000 </v>
   <v>      -0.42857143       0.33333333       0.00000000 </v>
   <v>      -0.38095238       0.33333333       0.00000000 </v>
   <v>      -0.33333333       0.33333333       0.00000000 </v>
   <v>      -0.28571429       0.33333333       0.00000000 </v>
   <v>      -0.23809524       0.33333333       0.00000000 </v>
   <v>      -0.19047619       0.33333333       0.00000000 </v>
   <v>      -0.14285714       0.33333333       0.00000000 </v>
   <v>      -0.09523810       0.33333333       0.00000000 </v>
   <v>      -0.04761905       0.33333333       0.00000000 </v>
   <v>      -0.00000000       0.40000000       0.00000000 </v>
   <v>       0.04761905       0.40000000       0.00000000 </v>
   <v>       0.09523810       0.40000000       0.00000000 </v>
   <v>       0.14285714       0.40000000       0.00000000 </v>
   <v>       0.19047619       0.40000000       0.00000000 </v>
   <v>       0.23809524       0.40000000       0.00000000 </v>
   <v>       0.28571429       0.40000000       0.00000000 </v>
   <v>       0.33333333       0.40000000       0.00000000 </v>
   <v>       0.38095238       0.40000000       0.00000000 </v>
   <v>       0.42857143       0.40000000       0.00000000 </v>
   <v>       0.47619048       0.40000000       0.00000000 </v>
   <v>      -0.47619048       0.40000000       0.00000000 </v>
   <v>      -0.42857143       0.40000000       0.00000000 </v>
   <v>      -0.38095238       0.40000000       0.00000000 </v>
   <v>      -0.33333333       0.40000000       0.00000000 </v>
   <v>      -0.28571429       0.40000000       0.00000000 </v>
   <v>      -0.23809524       0.40000000       0.00000000 </v>
   <v>      -0.19047619       0.40000000       0.00000000 </v>
   <v>      -0.14285714       0.40000000       0.00000000 </v>
   <v>      -0.09523810       0.40000000       0.00000000 </v>
   <v>      -0.04761905       0.40000000       0.00000000 </v>
   <v>       0.00000000       0.46666667       0.00000000 </v>
   <v>       0.04761905       0.46666667       0.00000000 </v>
   <v>       0.09523810       0.46666667       0.00000000 </v>
   <v>       0.14285714       0.46666667       0.00000000 </v>
   <v>       0.19047619       0.46666667       0.00000000 </v>
   <v>       0.23809524       0.46666667       0.00000000 </v>
   <v>       0.28571429       0.46666667       0.00000000 </v>
   <v>       0.33333333       0.46666667       0.00000000 </v>
   <v>       0.38095238       0.46666667       0.00000000 </v>
   <v>       0.42857143       0.46666667       0.00000000 </v>
   <v>       0.47619048       0.46666667       0.00000000 </v>
   <v>      -0.47619048       0.46666667       0.00000000 </v>
   <v>      -0.42857143       0.46666667       0.00000000 </v>
   <v>      -0.38095238       0.46666667       0.00000000 </v>
   <v>      -0.33333333       0.46666667       0.00000000 </v>
   <v>      -0.28571429       0.46666667       0.00000000 </v>
   <v>      -0.23809524       0.46666667       0.00000000 </v>
   <v>      -0.19047619       0.46666667       0.00000000 </v>
   <v>      -0.14285714       0.46666667       0.00000000 </v>
   <v>      -0.09523810       0.46666667       0.00000000 </v>
   <v>      -0.04761905       0.46666667       0.00000000 </v>
  </varray>
  <varray name="weights" >
   <v>       0.00317460 </v>
   <v>       0.00634921 </v>
   <v>       0.00634921 </v>
   <v>       0.00634921 </v>
   <v>       0.00634921 </v>
   <v>       0.00634921 </v>
   <v>       0.00634921 </v>
   <v>       0.00634921 </v>
   <v>       0.00634921 </v>
   <v>       0.00634921 </v>
   <v>       0.00634921 </v>
   <v>       0.00634921 </v>
   <v>       0.00634921 </v>
   <v>       0.00634921 </v>
   <v>       0.00634921 </v>
   <v>       0.00634921 </v>
   <v>       0.00634921 </v>
   <v>       0.00634921 </v>
   <v>       0.00634921 </v>
   <v>       0.00634921 </v>
   <v>       0.00634921 </v>
   <v>       0.00634921 </v>
   <v>       0.00634921 </v>
   <v>       0.00634921 </v>
   <v>       0.00634921 </v>
   <v>       0.00634921 </v>
   <v>       0.00634921 </v>
   <v>       0.00634921 </v>
   <v>       0.00634921 </v>
   <v>       0.00634921 </v>
   <v>       0.00634921 </v>
   <v>       0.00634921 </v>
   <v>       0.00634921 </v>
   <v>       0.00634921 </v>
   <v>       0.00634921 </v>
   <v>       0.00634921 </v>
   <v>       0.00634921 </v>
   <v>       0.00634921 </v>
   <v>       0.00634921 </v>
   <v>       0.00634921 </v>
   <v>       0.00634921 </v>
   <v>       0.00634921 </v>
   <v>       0.00634921 </v>
   <v>       0.00634921 </v>
   <v>       0.00634921 </v>
   <v>       0.00634921 </v>
   <v>       0.00634921 </v>
   <v>       0.00634921 </v>
   <v>       0.00634921 </v>
   <v>       0.00634921 </v>
   <v>       0.00634921 </v>
   <v>       0.00634921 </v>
   <v>       0.00634921 </v>
   <v>       0.00634921 </v>
   <v>       0.00634921 </v>
   <v>       0.00634921 </v>
   <v>       0.00634921 </v>
   <v>       0.00634921 </v>
   <v>       0.00634921 </v>
   <v>       0.00634921 </v>
   <v>       0.00634921 </v>
   <v>       0.00634921 </v>
   <v>       0.00634921 </v>
   <v>       0.00634921 </v>
   <v>       0.00634921 </v>
   <v>       0.00634921 </v>
   <v>       0.00634921 </v>
   <v>       0.00634921 </v>
   <v>       0.00634921 </v>
   <v>       0.00634921 </v>
   <v>       0.00634921 </v>
   <v>       0.00634921 </v>
   <v>       0.00634921 </v>
   <v>       0.00634921 </v>
   <v>       0.00634921 </v>
   <v>       0.00634921 </v>
   <v>       0.00634921 </v>
   <v>       0.00634921 </v>
   <v>       0.00634921 </v>
   <v>       0.00634921 </v>
   <v>       0.00634921 </v>
   <v>       0.00634921 </v>
   <v>       0.00634921 </v>
   <v>       0.00634921 </v>
   <v>       0.00634921 </v>
   <v>       0.00634921 </v>
   <v>       0.00634921 </v>
   <v>       0.00634921 </v>
   <v>       0.00634921 </v>
   <v>       0.00634921 </v>
   <v>       0.00634921 </v>
   <v>       0.00634921 </v>
   <v>       0.00634921 </v>
   <v>       0.00634921 </v>
   <v>       0.00634921 </v>
   <v>       0.00634921 </v>
   <v>       0.00634921 </v>
   <v>       0.00634921 </v>
   <v>       0.00634921 </v>
   <v>       0.00634921 </v>
   <v>       0.00634921 </v>
   <v>       0.00634921 </v>
   <v>       0.00634921 </v>
   <v>       0.00634921 </v>
   <v>       0.00634921 </v>
   <v>       0.00634921 </v>
   <v>       0.00634921 </v>
   <v>       0.00634921 </v>
   <v>       0.00634921 </v>
   <v>       0.00634921 </v>
   <v>       0.00634921 </v>
   <v>       0.00634921 </v>
   <v>       0.00634921 </v>
   <v>       0.00634921 </v>
   <v>       0.00634921 </v>
   <v>       0.00634921 </v>
   <v>       0.00634921 </v>
   <v>       0.00634921 </v>
   <v>       0.00634921 </v>
   <v>       0.00634921 </v>
   <v>       0.00634921 </v>
   <v>       0.00634921 </v>
   <v>       0.00634921 </v>
   <v>       0.00634921 </v>
   <v>       0.00634921 </v>
   <v>       0.00634921 </v>
   <v>       0.00634921 </v>
   <v>       0.00634921 </v>
   <v>       0.00634921 </v>
   <v>       0.00634921 </v>
   <v>       0.00634921 </v>
   <v>       0.00634921 </v>
   <v>       0.00634921 </v>
   <v>       0.00634921 </v>
   <v>       0.00634921 </v>
   <v>       0.00634921 </v>
   <v>       0.00634921 </v>
   <v>       0.00634921 </v>
   <v>       0.00634921 </v>
   <v>       0.00634921 </v>
   <v>       0.00634921 </v>
   <v>       0.00634921 </v>
   <v>       0.00634921 </v>
   <v>       0.00634921 </v>
   <v>       0.00634921 </v>
   <v>       0.00634921 </v>
   <v>       0.00634921 </v>
   <v>       0.00634921 </v>
   <v>       0.00634921 </v>
   <v>       0.00634921 </v>
   <v>       0.00634921 </v>
   <v>       0.00634921 </v>
   <v>       0.00634921 </v>
   <v>       0.00634921 </v>
   <v>       0.00634921 </v>
   <v>       0.00634921 </v>
   <v>       0.00634921 </v>
   <v>       0.00634921 </v>
  </varray>
 </kpoints>
 <parameters>
  <separator name="general" >
   <i type="string" name="SYSTEM">unknown system</i>
   <i type="logical" name="LCOMPAT"> F  </i>
  </separator>
  <separator name="electronic" >
   <i type="string" name="PREC">a</i>
   <i name="ENMAX">    520.00000000</i>
   <i name="ENAUG">    342.92400000</i>
   <i name="EDIFF">      0.00001000</i>
   <i type="int" name="IALGO">    38</i>
   <i type="int" name="IWAVPR">    11</i>
   <i type="int" name="NBANDS">    16</i>
   <i name="NELECT">     20.00000000</i>
   <i type="int" name="TURBO">     0</i>
   <i type="int" name="IRESTART">     0</i>
   <i type="int" name="NREBOOT">     0</i>
   <i type="int" name="NMIN">     0</i>
   <i name="EREF">      0.00000000</i>
   <separator name="electronic smearing" >
    <i type="int" name="ISMEAR">     0</i>
    <i name="SIGMA">      0.02000000</i>
    <i name="KSPACING">      0.50000000</i>
    <i type="logical" name="KGAMMA"> T  </i>
   </separator>
   <separator name="electronic projectors" >
    <i type="logical" name="LREAL"> F  </i>
    <v name="ROPT">      0.00000000</v>
    <i type="int" name="LMAXPAW">  -100</i>
    <i type="int" name="LMAXMIX">     2</i>
    <i type="logical" name="NLSPLINE"> F  </i>
   </separator>
   <separator name="electronic startup" >
    <i type="int" name="ISTART">     0</i>
    <i type="int" name="ICHARG">     2</i>
    <i type="int" name="INIWAV">     1</i>
   </separator>
   <separator name="electronic spin" >
    <i type="int" name="ISPIN">     1</i>
    <i type="logical" name="LNONCOLLINEAR"> F  </i>
    <v name="MAGMOM">      1.00000000      1.00000000      1.00000000      1.00000000</v>
    <i name="NUPDOWN">     -1.00000000</i>
    <i type="logical" name="LSORBIT"> F  </i>
    <v name="SAXIS">      0.00000000      0.00000000      1.00000000</v>
    <i type="logical" name="LSPIRAL"> F  </i>
    <v name="QSPIRAL">      0.00000000      0.00000000      0.00000000</v>
    <i type="logical" name="LZEROZ"> F  </i>
   </separator>
   <separator name="electronic exchange-correlation" >
    <i type="logical" name="LASPH"> F  </i>
    <i type="logical" name="LMETAGGA"> F  </i>
   </separator>
   <separator name="electronic convergence" >
    <i type="int" name="NELM">   250</i>
    <i type="int" name="NELMDL">    -5</i>
    <i type="int" name="NELMIN">     6</i>
    <i name="ENINI">    520.00000000</i>
    <separator name="electronic convergence detail" >
     <i type="logical" name="LDIAG"> T  </i>
     <i type="logical" name="LSUBROT"> F  </i>
     <i name="WEIMIN">      0.00100000</i>
     <i name="EBREAK">      0.00000016</i>
     <i name="DEPER">      0.30000000</i>
     <i type="int" name="NRMM">     4</i>
     <i name="TIME">      0.40000000</i>
    </separator>
   </separator>
   <separator name="electronic mixer" >
    <i name="AMIX">      0.40000000</i>
    <i name="BMIX">      1.00000000</i>
    <i name="AMIN">      0.10000000</i>
    <i name="AMIX_MAG">      1.60000000</i>
    <i name="BMIX_MAG">      1.00000000</i>
    <separator name="electronic mixer details" >
     <i type="int" name="IMIX">     4</i>
     <i type="logical" name="MIXFIRST"> F  </i>
     <i type="int" name="MAXMIX">   -45</i>
     <i name="WC">    100.00000000</i>
     <i type="int" name="INIMIX">     1</i>
     <i type="int" name="MIXPRE">     1</i>
     <i type="int" name="MREMOVE">     5</i>
    </separator>
   </separator>
   <separator name="electronic dipolcorrection" >
    <i type="logical" name="LDIPOL"> F  </i>
    <i type="logical" name="LMONO"> F  </i>
    <i type="int" name="IDIPOL">     0</i>
    <i name="EPSILON">      1.00000000</i>
    <v name="DIPOL">   -100.00000000   -100.00000000   -100.00000000</v>
    <i name="EFIELD">      0.00000000</i>
   </separator>
  </separator>
  <separator name="grids" >
   <i type="int" name="NGX">    28</i>
   <i type="int" name="NGY">    36</i>
   <i type="int" name="NGZ">   150</i>
   <i type="int" name="NGXF">    56</i>
   <i type="int" name="NGYF">    72</i>
   <i type="int" name="NGZF">   300</i>
   <i type="logical" name="ADDGRID"> F  </i>
  </separator>
  <separator name="ionic" >
   <i type="int" name="NSW">   200</i>
   <i type="int" name="IBRION">     2</i>
   <i type="int" name="ISIF">     2</i>
   <i name="PSTRESS">      0.00000000</i>
   <i name="EDIFFG">     -0.01000000</i>
   <i type="int" name="NFREE">     1</i>
   <i name="POTIM">      0.30000000</i>
   <i name="SMASS">     -3.00000000</i>
   <i name="SCALEE">      1.00000000</i>
  </separator>
  <separator name="ionic md" >
   <i name="TEBEG">      0.00010000</i>
   <i name="TEEND">      0.00010000</i>
   <i type="int" name="NBLOCK">     1</i>
   <i type="int" name="KBLOCK">   200</i>
   <i type="int" name="NPACO">   256</i>
   <i name="APACO">     16.00000000</i>
  </separator>
  <separator name="symmetry" >
   <i type="int" name="ISYM">     2</i>
   <i name="SYMPREC">      0.00001000</i>
  </separator>
  <separator name="dos" >
   <i type="logical" name="LORBIT"> F  </i>
   <v name="RWIGS">     -1.00000000</v>
   <i type="int" name="NEDOS">   301</i>
   <i name="EMIN">     10.00000000</i>
   <i name="EMAX">    -10.00000000</i>
   <i name="EFERMI">      0.00000000</i>
  </separator>
  <separator name="writing" >
   <i type="int" name="NWRITE">     2</i>
   <i type="logical" name="LWAVE"> F  </i>
   <i type="logical" name="LCHARG"> F  </i>
   <i type="logical" name="LPARD"> F  </i>
   <i type="logical" name="LVTOT"> F  </i>
   <i type="logical" name="LVHAR"> F  </i>
   <i type="logical" name="LELF"> F  </i>
   <i type="logical" name="LOPTICS"> F  </i>
   <v name="STM">      0.00000000      0.00000000      0.00000000      0.00000000      0.00000000      0.00000000      0.00000000</v>
  </separator>
  <separator name="performance" >
   <i type="int" name="NPAR">     4</i>
   <i type="int" name="NSIM">     4</i>
   <i type="int" name="NBLK">    -1</i>
   <i type="logical" name="LPLANE"> T  </i>
   <i type="logical" name="LSCALAPACK"> T  </i>
   <i type="logical" name="LSCAAWARE"> F  </i>
   <i type="logical" name="LSCALU"> F  </i>
   <i type="logical" name="LASYNC"> F  </i>
   <i type="logical" name="LORBITALREAL"> F  </i>
  </separator>
  <separator name="miscellaneous" >
   <i type="int" name="IDIOT">     3</i>
   <i type="logical" name="LMUSIC"> F  </i>
   <v name="POMASS">     30.97400000</v>
   <v name="DARWINR">      0.00000000</v>
   <v name="DARWINV">      1.00000000</v>
   <i type="logical" name="LCORR"> T  </i>
  </separator>
  <i type="logical" name="GGA_COMPAT"> T  </i>
  <i type="logical" name="LBERRY"> F  </i>
  <i type="int" name="ICORELEVEL">     0</i>
  <i type="logical" name="LDAU"> F  </i>
  <i type="int" name="I_CONSTRAINED_M">     0</i>
  <separator name="electronic exchange-correlation" >
   <i type="string" name="GGA">--</i>
   <i type="int" name="VOSKOWN">     0</i>
   <i type="logical" name="LHFCALC"> F  </i>
   <i type="string" name="PRECFOCK"></i>
   <i type="logical" name="LSYMGRAD"> F  </i>
   <i type="logical" name="LHFONE"> F  </i>
   <i type="logical" name="LRHFCALC"> F  </i>
   <i type="logical" name="LTHOMAS"> F  </i>
   <i type="logical" name="LMODELHF"> F  </i>
   <i name="ENCUT4O">     -1.00000000</i>
   <i type="int" name="EXXOEP">     0</i>
   <i type="int" name="FOURORBIT">     0</i>
   <i name="AEXX">      0.00000000</i>
   <i name="HFALPHA">      0.00000000</i>
   <i name="MCALPHA">      0.00000000</i>
   <i name="ALDAX">      1.00000000</i>
   <i name="AGGAX">      1.00000000</i>
   <i name="ALDAC">      1.00000000</i>
   <i name="AGGAC">      1.00000000</i>
   <i type="int" name="NKREDX">     1</i>
   <i type="int" name="NKREDY">     1</i>
   <i type="int" name="NKREDZ">     1</i>
   <i type="logical" name="SHIFTRED"> F  </i>
   <i type="logical" name="ODDONLY"> F  </i>
   <i type="logical" name="EVENONLY"> F  </i>
   <i type="int" name="LMAXFOCK">     0</i>
   <i type="int" name="NMAXFOCKAE">     0</i>
   <i type="logical" name="LFOCKAEDFT"> F  </i>
   <i name="HFSCREEN">      0.00000000</i>
   <i name="HFSCREENC">      0.00000000</i>
   <i type="int" name="NBANDSGWLOW">     0</i>
  </separator>
  <separator name="vdW DFT" >
   <i type="logical" name="LUSE_VDW"> F  </i>
   <i name="Zab_VDW">     -0.84910000</i>
   <i name="PARAM1">      0.12340000</i>
   <i name="PARAM2">      1.00000000</i>
   <i name="PARAM3">      0.00000000</i>
  </separator>
  <separator name="model GW" >
   <i type="int" name="MODEL_GW">     0</i>
   <i name="MODEL_EPS0">     45.70567606</i>
   <i name="MODEL_ALPHA">      1.00000000</i>
  </separator>
  <separator name="linear response parameters" >
   <i type="logical" name="LEPSILON"> F  </i>
   <i type="logical" name="LRPA"> F  </i>
   <i type="logical" name="LNABLA"> F  </i>
   <i type="logical" name="LVEL"> F  </i>
   <i type="int" name="KINTER">     0</i>
   <i name="CSHIFT">      0.10000000</i>
   <i name="OMEGAMAX">     -1.00000000</i>
   <i name="DEG_THRESHOLD">      0.00200000</i>
  </separator>
  <separator name="orbital magnetization" >
   <i type="logical" name="NUCIND"> F  </i>
   <v name="MAGPOS">      0.00000000      0.00000000      0.00000000</v>
   <i type="logical" name="LNICSALL"> T  </i>
   <i type="logical" name="ORBITALMAG"> F  </i>
   <i type="logical" name="LMAGBLOCH"> F  </i>
   <i type="logical" name="LCHIMAG"> F  </i>
   <i type="logical" name="LGAUGE"> T  </i>
   <i type="int" name="MAGATOM">     0</i>
   <v name="MAGDIPOL">      0.00000000      0.00000000      0.00000000</v>
   <v name="AVECCONST">      0.00000000      0.00000000      0.00000000</v>
  </separator>
  <separator name="response functions" >
   <i type="logical" name="LADDER"> F  </i>
   <i type="logical" name="LFXC"> F  </i>
   <i type="logical" name="LHARTREE"> T  </i>
   <i type="int" name="IBSE">     0</i>
   <v type="int" name="KPOINT">    -1     0     0     0</v>
   <i type="logical" name="LTCTE"> F  </i>
   <i type="logical" name="LTETE"> F  </i>
   <i type="logical" name="LTRIPLET"> F  </i>
   <i type="logical" name="LFXCEPS"> F  </i>
   <i type="logical" name="LFXHEG"> F  </i>
   <i type="int" name="NATURALO">     0</i>
   <i type="logical" name="L2ORDER"> F  </i>
   <i type="logical" name="LUSEW"> F  </i>
   <i name="ENCUTGW">     -2.00000000</i>
   <i name="ENCUTGWSOFT">     -2.00000000</i>
   <i name="ENCUTLF">     -1.00000000</i>
   <i type="int" name="LMAXMP2">    -1</i>
   <i name="SCISSOR">      0.00000000</i>
   <i type="int" name="NOMEGA">     0</i>
   <i type="int" name="NOMEGAR">     0</i>
   <i type="int" name="NBANDSGW">    -1</i>
   <i type="int" name="NBANDSO">    -1</i>
   <i type="int" name="NBANDSV">    -1</i>
   <i type="int" name="NELM">   250</i>
   <i type="int" name="NELMHF">     1</i>
   <i type="int" name="DIM">     3</i>
   <i type="int" name="ANTIRES">     0</i>
   <i name="OMEGAMAX">    -30.00000000</i>
   <i name="OMEGAMIN">    -30.00000000</i>
   <i name="OMEGATL">   -200.00000000</i>
   <i type="int" name="OMEGAGRID">     0</i>
   <i name="CSHIFT">     -0.10000000</i>
   <i type="logical" name="SELFENERGY"> F  </i>
   <i type="logical" name="LSPECTRAL"> F  </i>
   <i type="logical" name="LSPECTRALGW"> F  </i>
   <i type="logical" name="LSINGLES"> F  </i>
   <i type="logical" name="LFERMIGW"> F  </i>
   <i type="logical" name="ODDONLYGW"> F  </i>
   <i type="logical" name="EVENONLYGW"> F  </i>
   <i type="int" name="NKREDLFX">     1</i>
   <i type="int" name="NKREDLFY">     1</i>
   <i type="int" name="NKREDLFZ">     1</i>
   <i type="int" name="MAXMEM">  1800</i>
   <i type="int" name="TELESCOPE">     0</i>
   <i type="int" name="TAUPAR">     1</i>
   <i type="int" name="OMEGAPAR">    -1</i>
   <i name="LAMBDA">      1.00000000</i>
  </separator>
  <separator name="External order field" >
   <i name="OFIELD_KAPPA">      0.00000000</i>
   <v name="OFIELD_K">      0.00000000      0.00000000      0.00000000</v>
   <i name="OFIELD_Q6_NEAR">      0.00000000</i>
   <i name="OFIELD_Q6_FAR">      0.00000000</i>
   <i name="OFIELD_A">      0.00000000</i>
  </separator>
 </parameters>
 <atominfo>
  <atoms>       4 </atoms>
  <types>       1 </types>
  <array name="atoms" >
   <dimension dim="1">ion</dimension>
   <field type="string">element</field>
   <field type="int">atomtype</field>
   <set>
    <rc><c>P </c><c>   1</c></rc>
    <rc><c>P </c><c>   1</c></rc>
    <rc><c>P </c><c>   1</c></rc>
    <rc><c>P </c><c>   1</c></rc>
   </set>
  </array>
  <array name="atomtypes" >
   <dimension dim="1">type</dimension>
   <field type="int">atomspertype</field>
   <field type="string">element</field>
   <field>mass</field>
   <field>valence</field>
   <field type="string">pseudopotential</field>
   <set>
    <rc><c>   4</c><c>P </c><c>     30.97400000</c><c>      5.00000000</c><c>  PAW_PBE P 06Sep2000                   </c></rc>
   </set>
  </array>
 </atominfo>
 <structure name="initialpos" >
  <crystal>
   <varray name="basis" >
    <v>       3.29571900       0.09896100       0.00000000 </v>
    <v>       0.13876300       4.62126800      -0.00005300 </v>
    <v>       0.00000000       0.00000000      20.02439000 </v>
   </varray>
   <i name="volume">    304.70450708 </i>
   <varray name="rec_basis" >
    <v>       0.30369775      -0.00911914       0.00000000 </v>
    <v>      -0.00650346       0.21658611       0.00000000 </v>
    <v>      -0.00000002       0.00000057       0.04993910 </v>
   </varray>
  </crystal>
  <varray name="positions" >
   <v>       0.50000000       0.91077300       0.55252100 </v>
   <v>       0.50000000       0.08922700       0.44747900 </v>
   <v>       0.00000000       0.41076900       0.44747900 </v>
   <v>       0.00000000       0.58923100       0.55252100 </v>
  </varray>
 </structure>
 <calculation>
  <scstep>
   <time name="dav">    1.49    1.50</time>
   <time name="total">    1.52    1.52</time>
   <energy>
    <i name="alphaZ">      5.26464494 </i>
    <i name="ewald">   1867.80844490 </i>
    <i name="hartreedc">  -2461.24989774 </i>
    <i name="XCdc">     13.05615496 </i>
    <i name="pawpsdc">    559.04011960 </i>
    <i name="pawaedc">   -526.39432044 </i>
    <i name="eentropy">     -0.00056525 </i>
    <i name="bandstr">    -27.82703252 </i>
    <i name="atom">    704.16778566 </i>
    <i name="e_fr_energy">    133.86533409 </i>
    <i name="e_wo_entrp">    133.86589935 </i>
    <i name="e_0_energy">    133.86561672 </i>
   </energy>
  </scstep>
  <scstep>
   <time name="dav">    2.00    2.00</time>
   <time name="total">    2.00    2.00</time>
   <energy>
    <i name="e_fr_energy">     -6.09571278 </i>
    <i name="e_wo_entrp">     -6.09547533 </i>
    <i name="e_0_energy">     -6.09559405 </i>
   </energy>
  </scstep>
  <scstep>
   <time name="dav">    1.82    1.82</time>
   <time name="total">    1.82    1.82</time>
   <energy>
    <i name="e_fr_energy">    -21.26640879 </i>
    <i name="e_wo_entrp">    -21.26640879 </i>
    <i name="e_0_energy">    -21.26640879 </i>
   </energy>
  </scstep>
  <scstep>
   <time name="dav">    1.88    1.88</time>
   <time name="total">    1.88    1.89</time>
   <energy>
    <i name="e_fr_energy">    -21.57598182 </i>
    <i name="e_wo_entrp">    -21.57598182 </i>
    <i name="e_0_energy">    -21.57598182 </i>
   </energy>
  </scstep>
  <scstep>
   <time name="dav">    1.98    1.99</time>
   <time name="total">    2.08    2.08</time>
   <energy>
    <i name="e_fr_energy">    -21.58618794 </i>
    <i name="e_wo_entrp">    -21.58618794 </i>
    <i name="e_0_energy">    -21.58618794 </i>
   </energy>
  </scstep>
  <scstep>
   <time name="dav">    1.81    1.81</time>
   <time name="total">    1.93    1.93</time>
   <energy>
    <i name="e_fr_energy">    -21.43001277 </i>
    <i name="e_wo_entrp">    -21.43001277 </i>
    <i name="e_0_energy">    -21.43001277 </i>
   </energy>
  </scstep>
  <scstep>
   <time name="dav">    1.74    1.74</time>
   <time name="total">    1.86    1.86</time>
   <energy>
    <i name="e_fr_energy">    -21.35923113 </i>
    <i name="e_wo_entrp">    -21.35923113 </i>
    <i name="e_0_energy">    -21.35923113 </i>
   </energy>
  </scstep>
  <scstep>
   <time name="dav">    1.82    1.82</time>
   <time name="total">    1.93    1.93</time>
   <energy>
    <i name="e_fr_energy">    -21.35842802 </i>
    <i name="e_wo_entrp">    -21.35842802 </i>
    <i name="e_0_energy">    -21.35842802 </i>
   </energy>
  </scstep>
  <scstep>
   <time name="dav">    2.11    2.11</time>
   <time name="total">    2.22    2.23</time>
   <energy>
    <i name="e_fr_energy">    -21.35827725 </i>
    <i name="e_wo_entrp">    -21.35827725 </i>
    <i name="e_0_energy">    -21.35827725 </i>
   </energy>
  </scstep>
  <scstep>
   <time name="dav">    1.79    1.79</time>
   <time name="total">    1.90    1.91</time>
   <energy>
    <i name="e_fr_energy">    -21.35798106 </i>
    <i name="e_wo_entrp">    -21.35798106 </i>
    <i name="e_0_energy">    -21.35798106 </i>
   </energy>
  </scstep>
  <scstep>
   <time name="dav">    1.82    1.82</time>
   <time name="total">    1.94    1.94</time>
   <energy>
    <i name="e_fr_energy">    -21.35789527 </i>
    <i name="e_wo_entrp">    -21.35789527 </i>
    <i name="e_0_energy">    -21.35789527 </i>
   </energy>
  </scstep>
  <scstep>
   <time name="dav">    1.57    1.57</time>
   <time name="total">    1.68    1.68</time>
   <energy>
    <i name="e_fr_energy">    -21.35823826 </i>
    <i name="e_wo_entrp">    -21.35823826 </i>
    <i name="e_0_energy">    -21.35823826 </i>
   </energy>
  </scstep>
  <scstep>
   <time name="dav">    1.60    1.60</time>
   <time name="total">    1.71    1.72</time>
   <energy>
    <i name="e_fr_energy">    -21.35832467 </i>
    <i name="e_wo_entrp">    -21.35832467 </i>
    <i name="e_0_energy">    -21.35832467 </i>
   </energy>
  </scstep>
  <scstep>
   <time name="dav">    1.49    1.49</time>
   <time name="total">    1.61    1.61</time>
   <energy>
    <i name="e_fr_energy">    -21.35847826 </i>
    <i name="e_wo_entrp">    -21.35847826 </i>
    <i name="e_0_energy">    -21.35847826 </i>
   </energy>
  </scstep>
  <scstep>
   <time name="dav">    1.52    1.52</time>
   <time name="total">    1.64    1.64</time>
   <energy>
    <i name="e_fr_energy">    -21.35854096 </i>
    <i name="e_wo_entrp">    -21.35854096 </i>
    <i name="e_0_energy">    -21.35854096 </i>
   </energy>
  </scstep>
  <scstep>
   <time name="dav">    1.49    1.49</time>
   <time name="total">    1.60    1.61</time>
   <energy>
    <i name="e_fr_energy">    -21.35857967 </i>
    <i name="e_wo_entrp">    -21.35857967 </i>
    <i name="e_0_energy">    -21.35857967 </i>
   </energy>
  </scstep>
  <scstep>
   <time name="dav">    1.48    1.48</time>
   <time name="total">    1.50    1.51</time>
   <energy>
    <i name="alphaZ">      5.26464494 </i>
    <i name="ewald">   1867.80844490 </i>
    <i name="hartreedc">  -2476.90955247 </i>
    <i name="XCdc">     14.13329869 </i>
    <i name="pawpsdc">   2127.53472971 </i>
    <i name="pawaedc">  -2095.23810226 </i>
    <i name="eentropy">     -0.00000000 </i>
    <i name="bandstr">   -168.11983391 </i>
    <i name="atom">    704.16778566 </i>
    <i name="e_fr_energy">    -21.35858476 </i>
    <i name="e_wo_entrp">    -21.35858476 </i>
    <i name="e_0_energy">    -21.35858476 </i>
   </energy>
  </scstep>
  <structure>
   <crystal>
    <varray name="basis" >
     <v>       3.29571900       0.09896100       0.00000000 </v>
     <v>       0.13876300       4.62126800      -0.00005300 </v>
     <v>       0.00000000       0.00000000      20.02439000 </v>
    </varray>
    <i name="volume">    304.70450708 </i>
    <varray name="rec_basis" >
     <v>       0.30369775      -0.00911914       0.00000000 </v>
     <v>      -0.00650346       0.21658611       0.00000000 </v>
     <v>      -0.00000002       0.00000057       0.04993910 </v>
    </varray>
   </crystal>
   <varray name="positions" >
    <v>       0.50000000       0.91077300       0.55252100 </v>
    <v>       0.50000000       0.08922700       0.44747900 </v>
    <v>       0.00000000       0.41076900       0.44747900 </v>
    <v>       0.00000000       0.58923100       0.55252100 </v>
   </varray>
  </structure>
  <varray name="forces" >
   <v>      -0.78900206       0.14217825      -0.00193177 </v>
   <v>       0.78900206      -0.14217825       0.00193177 </v>
   <v>      -0.78899512       0.14214517       0.00193055 </v>
   <v>       0.78899512      -0.14214517      -0.00193055 </v>
  </varray>
  <varray name="stress" >
   <v>       2.77125008     -17.24693471       0.00012023 </v>
   <v>     -17.24693466       2.64942128       0.00031789 </v>
   <v>       0.00012028       0.00031781      -0.10866214 </v>
  </varray>
  <energy>
   <i name="e_fr_energy">    -21.35858476 </i>
   <i name="e_wo_entrp">    -21.35858476 </i>
   <i name="e_0_energy">     -0.00000000 </i>
  </energy>
  <time name="totalsc">   31.59   31.65</time>
 </calculation>
 <calculation>
  <scstep>
   <time name="dav">    1.54    1.54</time>
   <time name="total">    1.65    1.65</time>
   <energy>
    <i name="alphaZ">      5.26464494 </i>
    <i name="ewald">   1866.75123108 </i>
    <i name="hartreedc">  -2476.31740917 </i>
    <i name="XCdc">     14.10345681 </i>
    <i name="pawpsdc">   2127.03750262 </i>
    <i name="pawaedc">  -2094.74094109 </i>
    <i name="eentropy">     -0.00000000 </i>
    <i name="bandstr">   -167.66860314 </i>
    <i name="atom">    704.16778566 </i>
    <i name="e_fr_energy">    -21.40233230 </i>
    <i name="e_wo_entrp">    -21.40233230 </i>
    <i name="e_0_energy">    -21.40233230 </i>
   </energy>
  </scstep>
  <scstep>
   <time name="dav">    1.85    1.85</time>
   <time name="total">    1.96    1.96</time>
   <energy>
    <i name="e_fr_energy">    -21.40940418 </i>
    <i name="e_wo_entrp">    -21.40940418 </i>
    <i name="e_0_energy">    -21.40940418 </i>
   </energy>
  </scstep>
  <scstep>
   <time name="dav">    1.97    1.97</time>
   <time name="total">    2.08    2.08</time>
   <energy>
    <i name="e_fr_energy">    -21.40896772 </i>
    <i name="e_wo_entrp">    -21.40896772 </i>
    <i name="e_0_energy">    -21.40896772 </i>
   </energy>
  </scstep>
  <scstep>
   <time name="dav">    1.83    1.84</time>
   <time name="total">    1.95    1.95</time>
   <energy>
    <i name="e_fr_energy">    -21.40886782 </i>
    <i name="e_wo_entrp">    -21.40886782 </i>
    <i name="e_0_energy">    -21.40886782 </i>
   </energy>
  </scstep>
  <scstep>
   <time name="dav">    1.70    1.70</time>
   <time name="total">    1.81    1.81</time>
   <energy>
    <i name="e_fr_energy">    -21.40887550 </i>
    <i name="e_wo_entrp">    -21.40887550 </i>
    <i name="e_0_energy">    -21.40887550 </i>
   </energy>
  </scstep>
  <scstep>
   <time name="dav">    1.39    1.39</time>
   <time name="total">    1.41    1.41</time>
   <energy>
    <i name="alphaZ">      5.26464494 </i>
    <i name="ewald">   1866.75123108 </i>
    <i name="hartreedc">  -2476.26079468 </i>
    <i name="XCdc">     14.09454942 </i>
    <i name="pawpsdc">   2096.20820700 </i>
    <i name="pawaedc">  -2063.89894244 </i>
    <i name="eentropy">     -0.00000000 </i>
    <i name="bandstr">   -167.73555799 </i>
    <i name="atom">    704.16778566 </i>
    <i name="e_fr_energy">    -21.40887702 </i>
    <i name="e_wo_entrp">    -21.40887702 </i>
    <i name="e_0_energy">    -21.40887702 </i>
   </energy>
  </scstep>
  <structure>
   <crystal>
    <varray name="basis" >
     <v>       3.29571900       0.09896100       0.00000000 </v>
     <v>       0.13876300       4.62126800      -0.00005300 </v>
     <v>       0.00000000       0.00000000      20.02439000 </v>
    </varray>
    <i name="volume">    304.70450708 </i>
    <varray name="rec_basis" >
     <v>       0.30369775      -0.00911914       0.00000000 </v>
     <v>      -0.00650346       0.21658611       0.00000000 </v>
     <v>      -0.00000002       0.00000057       0.04993910 </v>
    </varray>
   </crystal>
   <varray name="positions" >
    <v>       0.49302658       0.91181287       0.55251821 </v>
    <v>       0.50697342       0.08818713       0.44748179 </v>
    <v>      -0.00697335       0.41180866       0.44748179 </v>
    <v>       0.00697335       0.58819134       0.55251821 </v>
   </varray>
  </structure>
  <varray name="forces" >
   <v>      -0.30024951      -0.04405680       0.00230776 </v>
   <v>       0.30024951       0.04405680      -0.00230776 </v>
   <v>      -0.30024480      -0.04408391      -0.00230596 </v>
   <v>       0.30024480       0.04408391       0.00230596 </v>
  </varray>
  <varray name="stress" >
   <v>       0.73326872     -10.72734859       0.00006563 </v>
   <v>     -10.72734864       0.30734541       0.00029173 </v>
   <v>       0.00006568       0.00029175      -0.00280154 </v>
  </varray>
  <energy>
   <i name="e_fr_energy">    -21.40887702 </i>
   <i name="e_wo_entrp">    -21.40887702 </i>
   <i name="e_0_energy">     -0.00000000 </i>
  </energy>
  <time name="totalsc">   11.63   11.65</time>
 </calculation>
 <calculation>
  <scstep>
   <time name="dav">    1.53    1.53</time>
   <time name="total">    1.64    1.64</time>
   <energy>
    <i name="alphaZ">      5.26464494 </i>
    <i name="ewald">   1866.22132369 </i>
    <i name="hartreedc">  -2475.94438087 </i>
    <i name="XCdc">     14.07831827 </i>
    <i name="pawpsdc">   2096.36135266 </i>
    <i name="pawaedc">  -2064.05217349 </i>
    <i name="eentropy">     -0.00000000 </i>
    <i name="bandstr">   -167.51136316 </i>
    <i name="atom">    704.16778566 </i>
    <i name="e_fr_energy">    -21.41449231 </i>
    <i name="e_wo_entrp">    -21.41449231 </i>
    <i name="e_0_energy">    -21.41449231 </i>
   </energy>
  </scstep>
  <scstep>
   <time name="dav">    1.84    1.84</time>
   <time name="total">    1.95    1.95</time>
   <energy>
    <i name="e_fr_energy">    -21.41694833 </i>
    <i name="e_wo_entrp">    -21.41694833 </i>
    <i name="e_0_energy">    -21.41694833 </i>
   </energy>
  </scstep>
  <scstep>
   <time name="dav">    1.98    1.98</time>
   <time name="total">    2.09    2.10</time>
   <energy>
    <i name="e_fr_energy">    -21.41681585 </i>
    <i name="e_wo_entrp">    -21.41681585 </i>
    <i name="e_0_energy">    -21.41681585 </i>
   </energy>
  </scstep>
  <scstep>
   <time name="dav">    1.83    1.83</time>
   <time name="total">    1.94    1.94</time>
   <energy>
    <i name="e_fr_energy">    -21.41678444 </i>
    <i name="e_wo_entrp">    -21.41678444 </i>
    <i name="e_0_energy">    -21.41678444 </i>
   </energy>
  </scstep>
  <scstep>
   <time name="dav">    1.59    1.59</time>
   <time name="total">    1.70    1.70</time>
   <energy>
    <i name="e_fr_energy">    -21.41678678 </i>
    <i name="e_wo_entrp">    -21.41678678 </i>
    <i name="e_0_energy">    -21.41678678 </i>
   </energy>
  </scstep>
  <scstep>
   <time name="dav">    1.26    1.26</time>
   <time name="total">    1.28    1.28</time>
   <energy>
    <i name="alphaZ">      5.26464494 </i>
    <i name="ewald">   1866.22132369 </i>
    <i name="hartreedc">  -2475.93871532 </i>
    <i name="XCdc">     14.07449153 </i>
    <i name="pawpsdc">   2081.87659066 </i>
    <i name="pawaedc">  -2049.56161547 </i>
    <i name="eentropy">     -0.00000000 </i>
    <i name="bandstr">   -167.52129265 </i>
    <i name="atom">    704.16778566 </i>
    <i name="e_fr_energy">    -21.41678697 </i>
    <i name="e_wo_entrp">    -21.41678697 </i>
    <i name="e_0_energy">    -21.41678697 </i>
   </energy>
  </scstep>
  <structure>
   <crystal>
    <varray name="basis" >
     <v>       3.29571900       0.09896100       0.00000000 </v>
     <v>       0.13876300       4.62126800      -0.00005300 </v>
     <v>       0.00000000       0.00000000      20.02439000 </v>
    </varray>
    <i name="volume">    304.70450708 </i>
    <varray name="rec_basis" >
     <v>       0.30369775      -0.00911914       0.00000000 </v>
     <v>      -0.00650346       0.21658611       0.00000000 </v>
     <v>      -0.00000002       0.00000057       0.04993910 </v>
    </varray>
   </crystal>
   <varray name="positions" >
    <v>       0.48890345       0.91242771       0.55251656 </v>
    <v>       0.51109655       0.08757229       0.44748344 </v>
    <v>      -0.01109644       0.41242338       0.44748345 </v>
    <v>       0.01109644       0.58757662       0.55251655 </v>
   </varray>
  </structure>
  <varray name="forces" >
   <v>      -0.02454857      -0.12431204       0.00435357 </v>
   <v>       0.02454857       0.12431204      -0.00435357 </v>
   <v>      -0.02454454      -0.12433595      -0.00435073 </v>
   <v>       0.02454454       0.12433595       0.00435073 </v>
  </varray>
  <varray name="stress" >
   <v>      -0.09232823      -7.07539322       0.00003406 </v>
   <v>      -7.07539315      -0.62448346       0.00026462 </v>
   <v>       0.00003404       0.00026458       0.03648407 </v>
  </varray>
  <energy>
   <i name="e_fr_energy">    -21.41678697 </i>
   <i name="e_wo_entrp">    -21.41678697 </i>
   <i name="e_0_energy">     -0.00000000 </i>
  </energy>
  <time name="totalsc">   11.38   11.41</time>
 </calculation>
 <calculation>
  <scstep>
   <time name="dav">    1.56    1.56</time>
   <time name="total">    1.67    1.67</time>
   <energy>
    <i name="alphaZ">      5.26464494 </i>
    <i name="ewald">   1866.65703459 </i>
    <i name="hartreedc">  -2476.19855064 </i>
    <i name="XCdc">     14.09125405 </i>
    <i name="pawpsdc">   2081.91447923 </i>
    <i name="pawaedc">  -2049.59953764 </i>
    <i name="eentropy">     -0.00000000 </i>
    <i name="bandstr">   -167.71503750 </i>
    <i name="atom">    704.16778566 </i>
    <i name="e_fr_energy">    -21.41792732 </i>
    <i name="e_wo_entrp">    -21.41792732 </i>
    <i name="e_0_energy">    -21.41792732 </i>
   </energy>
  </scstep>
  <scstep>
   <time name="dav">    1.84    1.84</time>
   <time name="total">    1.95    1.96</time>
   <energy>
    <i name="e_fr_energy">    -21.41816406 </i>
    <i name="e_wo_entrp">    -21.41816406 </i>
    <i name="e_0_energy">    -21.41816406 </i>
   </energy>
  </scstep>
  <scstep>
   <time name="dav">    1.95    1.96</time>
   <time name="total">    2.06    2.07</time>
   <energy>
    <i name="e_fr_energy">    -21.41816030 </i>
    <i name="e_wo_entrp">    -21.41816030 </i>
    <i name="e_0_energy">    -21.41816030 </i>
   </energy>
  </scstep>
  <scstep>
   <time name="dav">    1.41    1.41</time>
   <time name="total">    1.53    1.53</time>
   <energy>
    <i name="e_fr_energy">    -21.41815999 </i>
    <i name="e_wo_entrp">    -21.41815999 </i>
    <i name="e_0_energy">    -21.41815999 </i>
   </energy>
  </scstep>
  <scstep>
   <time name="dav">    1.28    1.28</time>
   <time name="total">    1.39    1.39</time>
   <energy>
    <i name="e_fr_energy">    -21.41816042 </i>
    <i name="e_wo_entrp">    -21.41816042 </i>
    <i name="e_0_energy">    -21.41816042 </i>
   </energy>
  </scstep>
  <scstep>
   <time name="dav">    1.22    1.22</time>
   <time name="total">    1.24    1.24</time>
   <energy>
    <i name="alphaZ">      5.26464494 </i>
    <i name="ewald">   1866.65703459 </i>
    <i name="hartreedc">  -2476.20552684 </i>
    <i name="XCdc">     14.09338343 </i>
    <i name="pawpsdc">   2093.60358592 </i>
    <i name="pawaedc">  -2061.29302443 </i>
    <i name="eentropy">     -0.00000000 </i>
    <i name="bandstr">   -167.70604377 </i>
    <i name="atom">    704.16778566 </i>
    <i name="e_fr_energy">    -21.41816051 </i>
    <i name="e_wo_entrp">    -21.41816051 </i>
    <i name="e_0_energy">    -21.41816051 </i>
   </energy>
  </scstep>
  <structure>
   <crystal>
    <varray name="basis" >
     <v>       3.29571900       0.09896100       0.00000000 </v>
     <v>       0.13876300       4.62126800      -0.00005300 </v>
     <v>       0.00000000       0.00000000      20.02439000 </v>
    </varray>
    <i name="volume">    304.70450708 </i>
    <varray name="rec_basis" >
     <v>       0.30369775      -0.00911914       0.00000000 </v>
     <v>      -0.00650346       0.21658611       0.00000000 </v>
     <v>      -0.00000002       0.00000057       0.04993910 </v>
    </varray>
   </crystal>
   <varray name="positions" >
    <v>       0.48852420       0.91158742       0.55252353 </v>
    <v>       0.51147580       0.08841258       0.44747647 </v>
    <v>      -0.01147564       0.41158292       0.44747648 </v>
    <v>       0.01147564       0.58841708       0.55252352 </v>
   </varray>
  </structure>
  <varray name="forces" >
   <v>      -0.00212939      -0.04078160      -0.01006799 </v>
   <v>       0.00212939       0.04078160       0.01006799 </v>
   <v>      -0.00212599      -0.04080042       0.01006842 </v>
   <v>       0.00212599       0.04080042      -0.01006842 </v>
  </varray>
  <varray name="stress" >
   <v>       0.19856705      -6.81892172       0.00003775 </v>
   <v>      -6.81892177       0.52077200       0.00019819 </v>
   <v>       0.00003776       0.00019817      -0.30627045 </v>
  </varray>
  <energy>
   <i name="e_fr_energy">    -21.41816051 </i>
   <i name="e_wo_entrp">    -21.41816051 </i>
   <i name="e_0_energy">     -0.00000000 </i>
  </energy>
  <time name="totalsc">   10.61   10.64</time>
 </calculation>
 <calculation>
  <scstep>
   <time name="dav">    1.57    1.57</time>
   <time name="total">    1.68    1.69</time>
   <energy>
    <i name="alphaZ">      5.26464494 </i>
    <i name="ewald">   1866.85450747 </i>
    <i name="hartreedc">  -2476.31896422 </i>
    <i name="XCdc">     14.10087214 </i>
    <i name="pawpsdc">   2093.64314290 </i>
    <i name="pawaedc">  -2061.33254253 </i>
    <i name="eentropy">     -0.00000000 </i>
    <i name="bandstr">   -167.79770292 </i>
    <i name="atom">    704.16778566 </i>
    <i name="e_fr_energy">    -21.41825656 </i>
    <i name="e_wo_entrp">    -21.41825656 </i>
    <i name="e_0_energy">    -21.41825656 </i>
   </energy>
  </scstep>
  <scstep>
   <time name="dav">    1.86    1.86</time>
   <time name="total">    1.97    1.98</time>
   <energy>
    <i name="e_fr_energy">    -21.41830504 </i>
    <i name="e_wo_entrp">    -21.41830504 </i>
    <i name="e_0_energy">    -21.41830504 </i>
   </energy>
  </scstep>
  <scstep>
   <time name="dav">    1.54    1.54</time>
   <time name="total">    1.65    1.65</time>
   <energy>
    <i name="e_fr_energy">    -21.41830436 </i>
    <i name="e_wo_entrp">    -21.41830436 </i>
    <i name="e_0_energy">    -21.41830436 </i>
   </energy>
  </scstep>
  <scstep>
   <time name="dav">    1.27    1.27</time>
   <time name="total">    1.38    1.38</time>
   <energy>
    <i name="e_fr_energy">    -21.41830473 </i>
    <i name="e_wo_entrp">    -21.41830473 </i>
    <i name="e_0_energy">    -21.41830473 </i>
   </energy>
  </scstep>
  <scstep>
   <time name="dav">    1.18    1.18</time>
   <time name="total">    1.29    1.29</time>
   <energy>
    <i name="e_fr_energy">    -21.41830483 </i>
    <i name="e_wo_entrp">    -21.41830483 </i>
    <i name="e_0_energy">    -21.41830483 </i>
   </energy>
  </scstep>
  <scstep>
   <time name="dav">    1.13    1.13</time>
   <time name="total">    1.15    1.15</time>
   <energy>
    <i name="alphaZ">      5.26464494 </i>
    <i name="ewald">   1866.85450747 </i>
    <i name="hartreedc">  -2476.31773369 </i>
    <i name="XCdc">     14.10177457 </i>
    <i name="pawpsdc">   2098.87277146 </i>
    <i name="pawaedc">  -2066.56415290 </i>
    <i name="eentropy">     -0.00000000 </i>
    <i name="bandstr">   -167.79790240 </i>
    <i name="atom">    704.16778566 </i>
    <i name="e_fr_energy">    -21.41830490 </i>
    <i name="e_wo_entrp">    -21.41830490 </i>
    <i name="e_0_energy">    -21.41830490 </i>
   </energy>
  </scstep>
  <structure>
   <crystal>
    <varray name="basis" >
     <v>       3.29571900       0.09896100       0.00000000 </v>
     <v>       0.13876300       4.62126800      -0.00005300 </v>
     <v>       0.00000000       0.00000000      20.02439000 </v>
    </varray>
    <i name="volume">    304.70450708 </i>
    <varray name="rec_basis" >
     <v>       0.30369775      -0.00911914       0.00000000 </v>
     <v>      -0.00650346       0.21658611       0.00000000 </v>
     <v>      -0.00000002       0.00000057       0.04993910 </v>
    </varray>
   </crystal>
   <varray name="positions" >
    <v>       0.48835421       0.91121077       0.55252665 </v>
    <v>       0.51164579       0.08878923       0.44747335 </v>
    <v>      -0.01164561       0.41120619       0.44747336 </v>
    <v>       0.01164561       0.58879381       0.55252664 </v>
   </varray>
  </structure>
  <varray name="forces" >
   <v>       0.00839374      -0.00271303      -0.01644634 </v>
   <v>      -0.00839374       0.00271303       0.01644634 </v>
   <v>       0.00839693      -0.00272969       0.01644583 </v>
   <v>      -0.00839693       0.00272969      -0.01644583 </v>
  </varray>
  <varray name="stress" >
   <v>       0.33154587      -6.69126921       0.00003917 </v>
   <v>      -6.69126923       1.04376818       0.00016686 </v>
   <v>       0.00003913       0.00016673      -0.44186310 </v>
  </varray>
  <energy>
   <i name="e_fr_energy">    -21.41830490 </i>
   <i name="e_wo_entrp">    -21.41830490 </i>
   <i name="e_0_energy">     -0.00000000 </i>
  </energy>
  <time name="totalsc">    9.90    9.92</time>
 </calculation>
 <calculation>
  <scstep>
   <time name="dav">    1.13    1.13</time>
   <time name="total">    1.24    1.24</time>
   <energy>
    <i name="alphaZ">      5.26464494 </i>
    <i name="ewald">   1866.85078102 </i>
    <i name="hartreedc">  -2476.31377185 </i>
    <i name="XCdc">     14.10162500 </i>
    <i name="pawpsdc">   2098.96510841 </i>
    <i name="pawaedc">  -2066.65648086 </i>
    <i name="eentropy">     -0.00000000 </i>
    <i name="bandstr">   -167.79799731 </i>
    <i name="atom">    704.16778566 </i>
    <i name="e_fr_energy">    -21.41830499 </i>
    <i name="e_wo_entrp">    -21.41830499 </i>
    <i name="e_0_energy">    -21.41830499 </i>
   </energy>
  </scstep>
  <scstep>
   <time name="dav">    1.11    1.11</time>
   <time name="total">    1.22    1.22</time>
   <energy>
    <i name="e_fr_energy">    -21.41830505 </i>
    <i name="e_wo_entrp">    -21.41830505 </i>
    <i name="e_0_energy">    -21.41830505 </i>
   </energy>
  </scstep>
  <scstep>
   <time name="dav">    1.10    1.10</time>
   <time name="total">    1.21    1.21</time>
   <energy>
    <i name="e_fr_energy">    -21.41830508 </i>
    <i name="e_wo_entrp">    -21.41830508 </i>
    <i name="e_0_energy">    -21.41830508 </i>
   </energy>
  </scstep>
  <scstep>
   <time name="dav">    1.11    1.11</time>
   <time name="total">    1.22    1.23</time>
   <energy>
    <i name="e_fr_energy">    -21.41830513 </i>
    <i name="e_wo_entrp">    -21.41830513 </i>
    <i name="e_0_energy">    -21.41830513 </i>
   </energy>
  </scstep>
  <scstep>
   <time name="dav">    1.13    1.13</time>
   <time name="total">    1.24    1.24</time>
   <energy>
    <i name="e_fr_energy">    -21.41830518 </i>
    <i name="e_wo_entrp">    -21.41830518 </i>
    <i name="e_0_energy">    -21.41830518 </i>
   </energy>
  </scstep>
  <scstep>
   <time name="dav">    1.11    1.11</time>
   <time name="total">    1.13    1.13</time>
   <energy>
    <i name="alphaZ">      5.26464494 </i>
    <i name="ewald">   1866.85078102 </i>
    <i name="hartreedc">  -2476.31115432 </i>
    <i name="XCdc">     14.10159234 </i>
    <i name="pawpsdc">   2098.95158734 </i>
    <i name="pawaedc">  -2066.64292125 </i>
    <i name="eentropy">     -0.00000000 </i>
    <i name="bandstr">   -167.80062095 </i>
    <i name="atom">    704.16778566 </i>
    <i name="e_fr_energy">    -21.41830521 </i>
    <i name="e_wo_entrp">    -21.41830521 </i>
    <i name="e_0_energy">    -21.41830521 </i>
   </energy>
  </scstep>
  <structure>
   <crystal>
    <varray name="basis" >
     <v>       3.29571900       0.09896100       0.00000000 </v>
     <v>       0.13876300       4.62126800      -0.00005300 </v>
     <v>       0.00000000       0.00000000      20.02439000 </v>
    </varray>
    <i name="volume">    304.70450708 </i>
    <varray name="rec_basis" >
     <v>       0.30369775      -0.00911914       0.00000000 </v>
     <v>      -0.00650346       0.21658611       0.00000000 </v>
     <v>      -0.00000002       0.00000057       0.04993910 </v>
    </varray>
   </crystal>
   <varray name="positions" >
    <v>       0.48835740       0.91121786       0.55252659 </v>
    <v>       0.51164260       0.08878214       0.44747341 </v>
    <v>      -0.01164242       0.41121328       0.44747342 </v>
    <v>       0.01164242       0.58878672       0.55252658 </v>
   </varray>
  </structure>
  <varray name="forces" >
   <v>       0.00815125      -0.00353618      -0.01628060 </v>
   <v>      -0.00815125       0.00353618       0.01628060 </v>
   <v>       0.00815444      -0.00355291       0.01628013 </v>
   <v>      -0.00815444       0.00355291      -0.01628013 </v>
  </varray>
  <varray name="stress" >
   <v>       0.32684011      -6.69508901       0.00003908 </v>
   <v>      -6.69508900       1.03467453       0.00016750 </v>
   <v>       0.00003909       0.00016746      -0.43238822 </v>
  </varray>
  <energy>
   <i name="e_fr_energy">    -21.41830521 </i>
   <i name="e_wo_entrp">    -21.41830521 </i>
   <i name="e_0_energy">     -0.00000000 </i>
  </energy>
  <time name="totalsc">    8.03    8.05</time>
 </calculation>
 <calculation>
  <scstep>
   <time name="dav">    1.44    1.44</time>
   <time name="total">    1.56    1.56</time>
   <energy>
    <i name="alphaZ">      5.26464494 </i>
    <i name="ewald">   1867.40758772 </i>
    <i name="hartreedc">  -2476.82891984 </i>
    <i name="XCdc">     14.10600191 </i>
    <i name="pawpsdc">   2098.95092771 </i>
    <i name="pawaedc">  -2066.64226224 </i>
    <i name="eentropy">     -0.00000000 </i>
    <i name="bandstr">   -167.84409944 </i>
    <i name="atom">    704.16778566 </i>
    <i name="e_fr_energy">    -21.41833359 </i>
    <i name="e_wo_entrp">    -21.41833359 </i>
    <i name="e_0_energy">    -21.41833359 </i>
   </energy>
  </scstep>
  <scstep>
   <time name="dav">    1.81    1.81</time>
   <time name="total">    1.93    1.93</time>
   <energy>
    <i name="e_fr_energy">    -21.41834150 </i>
    <i name="e_wo_entrp">    -21.41834150 </i>
    <i name="e_0_energy">    -21.41834150 </i>
   </energy>
  </scstep>
  <scstep>
   <time name="dav">    1.15    1.15</time>
   <time name="total">    1.26    1.27</time>
   <energy>
    <i name="e_fr_energy">    -21.41834146 </i>
    <i name="e_wo_entrp">    -21.41834146 </i>
    <i name="e_0_energy">    -21.41834146 </i>
   </energy>
  </scstep>
  <scstep>
   <time name="dav">    1.14    1.14</time>
   <time name="total">    1.25    1.25</time>
   <energy>
    <i name="e_fr_energy">    -21.41834174 </i>
    <i name="e_wo_entrp">    -21.41834174 </i>
    <i name="e_0_energy">    -21.41834174 </i>
   </energy>
  </scstep>
  <scstep>
   <time name="dav">    1.13    1.13</time>
   <time name="total">    1.24    1.25</time>
   <energy>
    <i name="e_fr_energy">    -21.41834169 </i>
    <i name="e_wo_entrp">    -21.41834169 </i>
    <i name="e_0_energy">    -21.41834169 </i>
   </energy>
  </scstep>
  <scstep>
   <time name="dav">    1.08    1.08</time>
   <time name="total">    1.10    1.10</time>
   <energy>
    <i name="alphaZ">      5.26464494 </i>
    <i name="ewald">   1867.40758772 </i>
    <i name="hartreedc">  -2476.82936075 </i>
    <i name="XCdc">     14.10636489 </i>
    <i name="pawpsdc">   2101.23857898 </i>
    <i name="pawaedc">  -2068.93075135 </i>
    <i name="eentropy">     -0.00000000 </i>
    <i name="bandstr">   -167.84319180 </i>
    <i name="atom">    704.16778566 </i>
    <i name="e_fr_energy">    -21.41834171 </i>
    <i name="e_wo_entrp">    -21.41834171 </i>
    <i name="e_0_energy">    -21.41834171 </i>
   </energy>
  </scstep>
  <structure>
   <crystal>
    <varray name="basis" >
     <v>       3.29571900       0.09896100       0.00000000 </v>
     <v>       0.13876300       4.62126800      -0.00005300 </v>
     <v>       0.00000000       0.00000000      20.02439000 </v>
    </varray>
    <i name="volume">    304.70450708 </i>
    <varray name="rec_basis" >
     <v>       0.30369775      -0.00911914       0.00000000 </v>
     <v>      -0.00650346       0.21658611       0.00000000 </v>
     <v>      -0.00000002       0.00000057       0.04993910 </v>
    </varray>
   </crystal>
   <varray name="positions" >
    <v>       0.48844124       0.91117910       0.55249804 </v>
    <v>       0.51155876       0.08882090       0.44750196 </v>
    <v>      -0.01155854       0.41117439       0.44750197 </v>
    <v>       0.01155854       0.58882561       0.55249803 </v>
   </varray>
  </structure>
  <varray name="forces" >
   <v>       0.00214237      -0.00113447      -0.00832416 </v>
   <v>      -0.00214237       0.00113447       0.00832416 </v>
   <v>       0.00214505      -0.00114785       0.00832355 </v>
   <v>      -0.00214505       0.00114785      -0.00832355 </v>
  </varray>
  <varray name="stress" >
   <v>       0.36769380      -6.76812166       0.00004535 </v>
   <v>      -6.76812172       1.11577011       0.00013087 </v>
   <v>       0.00004542       0.00013083      -0.26001074 </v>
  </varray>
  <energy>
   <i name="e_fr_energy">    -21.41834171 </i>
   <i name="e_wo_entrp">    -21.41834171 </i>
   <i name="e_0_energy">     -0.00000000 </i>
  </energy>
  <time name="totalsc">    9.05    9.07</time>
  <eigenvalues>
   <array>
    <dimension dim="1">band</dimension>
    <dimension dim="2">kpoint</dimension>
    <dimension dim="3">spin</dimension>
    <field>eigene</field>
    <field>occ</field>
    <set>
     <set comment="spin 1">
      <set comment="kpoint 1">
       <r>  -17.2262    1.0000 </r>
       <r>  -14.7571    1.0000 </r>
       <r>  -11.4121    1.0000 </r>
       <r>   -7.9251    1.0000 </r>
       <r>   -6.9554    1.0000 </r>
       <r>   -6.7879    1.0000 </r>
       <r>   -5.5438    1.0000 </r>
       <r>   -4.0089    1.0000 </r>
       <r>   -3.9380    1.0000 </r>
       <r>   -2.2570    1.0000 </r>
       <r>   -1.3716    0.0000 </r>
       <r>   -0.6037    0.0000 </r>
       <r>    0.2684    0.0000 </r>
       <r>    1.1642    0.0000 </r>
       <r>    2.1428    0.0000 </r>
       <r>    2.3030    0.0000 </r>
      </set>
      <set comment="kpoint 2">
       <r>  -17.1990    1.0000 </r>
       <r>  -14.7290    1.0000 </r>
       <r>  -11.4213    1.0000 </r>
       <r>   -7.9049    1.0000 </r>
       <r>   -6.9741    1.0000 </r>
       <r>   -6.7642    1.0000 </r>
       <r>   -5.7202    1.0000 </r>
       <r>   -4.1897    1.0000 </r>
       <r>   -3.9292    1.0000 </r>
       <r>   -2.2577    1.0000 </r>
       <r>   -1.3469    0.0000 </r>
       <r>   -0.3578    0.0000 </r>
       <r>    0.4243    0.0000 </r>
       <r>    1.0847    0.0000 </r>
       <r>    2.1705    0.0000 </r>
       <r>    2.3333    0.0000 </r>
      </set>
      <set comment="kpoint 3">
       <r>  -17.1178    1.0000 </r>
       <r>  -14.6446    1.0000 </r>
       <r>  -11.4543    1.0000 </r>
       <r>   -7.8448    1.0000 </r>
       <r>   -7.0506    1.0000 </r>
       <r>   -6.6954    1.0000 </r>
       <r>   -6.1477    1.0000 </r>
       <r>   -4.6110    1.0000 </r>
       <r>   -3.8984    1.0000 </r>
       <r>   -2.2786    1.0000 </r>
       <r>   -1.2729    0.0000 </r>
       <r>    0.2987    0.0000 </r>
       <r>    0.3530    0.0000 </r>
       <r>    1.3399    0.0000 </r>
       <r>    2.2476    0.0000 </r>
       <r>    2.4240    0.0000 </r>
      </set>
      <set comment="kpoint 4">
       <r>  -16.9828    1.0000 </r>
       <r>  -14.5042    1.0000 </r>
       <r>  -11.5274    1.0000 </r>
       <r>   -7.7473    1.0000 </r>
       <r>   -7.2469    1.0000 </r>
       <r>   -6.7045    1.0000 </r>
       <r>   -6.5323    1.0000 </r>
       <r>   -5.0379    1.0000 </r>
       <r>   -3.8591    1.0000 </r>
       <r>   -2.3404    1.0000 </r>
       <r>   -1.1509    0.0000 </r>
       <r>   -0.0960    0.0000 </r>
       <r>    1.2119    0.0000 </r>
       <r>    1.9250    0.0000 </r>
       <r>    2.2831    0.0000 </r>
       <r>    2.5758    0.0000 </r>
      </set>
      <set comment="kpoint 5">
       <r>  -16.7948    1.0000 </r>
       <r>  -14.3081    1.0000 </r>
       <r>  -11.6660    1.0000 </r>
       <r>   -7.6323    1.0000 </r>
       <r>   -7.6167    1.0000 </r>
       <r>   -7.1462    1.0000 </r>
       <r>   -6.3957    1.0000 </r>
       <r>   -5.2999    1.0000 </r>
       <r>   -3.8350    1.0000 </r>
       <r>   -2.4544    1.0000 </r>
       <r>   -0.9849    0.0000 </r>
       <r>   -0.5689    0.0000 </r>
       <r>    1.8402    0.0000 </r>
       <r>    1.9554    0.0000 </r>
       <r>    2.2475    0.0000 </r>
       <r>    2.6985    0.0000 </r>
      </set>
      <set comment="kpoint 6">
       <r>  -16.5546    1.0000 </r>
       <r>  -14.0568    1.0000 </r>
       <r>  -11.8959    1.0000 </r>
       <r>   -8.1902    1.0000 </r>
       <r>   -7.4929    1.0000 </r>
       <r>   -7.4623    1.0000 </r>
       <r>   -6.1935    1.0000 </r>
       <r>   -5.3671    1.0000 </r>
       <r>   -3.8611    1.0000 </r>
       <r>   -2.6294    1.0000 </r>
       <r>   -0.9419    0.0000 </r>
       <r>   -0.7837    0.0000 </r>
       <r>    1.2865    0.0000 </r>
       <r>    1.3775    0.0000 </r>
       <r>    2.7115    0.0000 </r>
       <r>    2.9559    0.0000 </r>
      </set>
      <set comment="kpoint 7">
       <r>  -16.2636    1.0000 </r>
       <r>  -13.7512    1.0000 </r>
       <r>  -12.2281    1.0000 </r>
       <r>   -8.8401    1.0000 </r>
       <r>   -7.6860    1.0000 </r>
       <r>   -7.2972    1.0000 </r>
       <r>   -5.9561    1.0000 </r>
       <r>   -5.3046    1.0000 </r>
       <r>   -3.9674    1.0000 </r>
       <r>   -2.8684    1.0000 </r>
       <r>   -1.1414    0.0000 </r>
       <r>   -0.5739    0.0000 </r>
       <r>    0.7203    0.0000 </r>
       <r>    0.7772    0.0000 </r>
       <r>    2.2746    0.0000 </r>
       <r>    3.2796    0.0000 </r>
      </set>
      <set comment="kpoint 8">
       <r>  -15.9240    1.0000 </r>
       <r>  -13.3938    1.0000 </r>
       <r>  -12.6472    1.0000 </r>
       <r>   -9.5169    1.0000 </r>
       <r>   -7.7284    1.0000 </r>
       <r>   -7.1456    1.0000 </r>
       <r>   -5.6956    1.0000 </r>
       <r>   -5.1779    1.0000 </r>
       <r>   -4.1400    1.0000 </r>
       <r>   -3.1625    1.0000 </r>
       <r>   -1.1461    0.0000 </r>
       <r>   -0.4578    0.0000 </r>
       <r>    0.1140    0.0000 </r>
       <r>    0.4490    0.0000 </r>
       <r>    1.7646    0.0000 </r>
       <r>    3.0085    0.0000 </r>
      </set>
      <set comment="kpoint 9">
       <r>  -15.5383    1.0000 </r>
       <r>  -13.1586    1.0000 </r>
       <r>  -12.9500    1.0000 </r>
       <r>  -10.1853    1.0000 </r>
       <r>   -7.6502    1.0000 </r>
       <r>   -7.0442    1.0000 </r>
       <r>   -5.4299    1.0000 </r>
       <r>   -5.0377    1.0000 </r>
       <r>   -4.3084    1.0000 </r>
       <r>   -3.4896    1.0000 </r>
       <r>   -0.9988    0.0000 </r>
       <r>   -0.6094    0.0000 </r>
       <r>   -0.3779    0.0000 </r>
       <r>    0.4936    0.0000 </r>
       <r>    1.2578    0.0000 </r>
       <r>    2.6000    0.0000 </r>
      </set>
      <set comment="kpoint 10">
       <r>  -15.1106    1.0000 </r>
       <r>  -13.6463    1.0000 </r>
       <r>  -12.5053    1.0000 </r>
       <r>  -10.8269    1.0000 </r>
       <r>   -7.4924    1.0000 </r>
       <r>   -7.0340    1.0000 </r>
       <r>   -5.1864    1.0000 </r>
       <r>   -4.9323    1.0000 </r>
       <r>   -4.3845    1.0000 </r>
       <r>   -3.8181    1.0000 </r>
       <r>   -0.9137    0.0000 </r>
       <r>   -0.8678    0.0000 </r>
       <r>   -0.5438    0.0000 </r>
       <r>    0.6174    0.0000 </r>
       <r>    0.9287    0.0000 </r>
       <r>    2.1466    0.0000 </r>
      </set>
      <set comment="kpoint 11">
       <r>  -14.6463    1.0000 </r>
       <r>  -14.1539    1.0000 </r>
       <r>  -11.9924    1.0000 </r>
       <r>  -11.4314    1.0000 </r>
       <r>   -7.3013    1.0000 </r>
       <r>   -7.1301    1.0000 </r>
       <r>   -5.0017    1.0000 </r>
       <r>   -4.9119    1.0000 </r>
       <r>   -4.3140    1.0000 </r>
       <r>   -4.1087    1.0000 </r>
       <r>   -1.0450    0.0000 </r>
       <r>   -1.0378    0.0000 </r>
       <r>   -0.2273    0.0000 </r>
       <r>    0.2041    0.0000 </r>
       <r>    1.2527    0.0000 </r>
       <r>    1.6875    0.0000 </r>
      </set>
      <set comment="kpoint 12">
       <r>  -17.2046    1.0000 </r>
       <r>  -14.7870    1.0000 </r>
       <r>  -11.4224    1.0000 </r>
       <r>   -8.0812    1.0000 </r>
       <r>   -6.8619    1.0000 </r>
       <r>   -6.6926    1.0000 </r>
       <r>   -5.5283    1.0000 </r>
       <r>   -4.0225    1.0000 </r>
       <r>   -3.8416    1.0000 </r>
       <r>   -2.4611    1.0000 </r>
       <r>   -1.1828    0.0000 </r>
       <r>   -0.5870    0.0000 </r>
       <r>    0.2327    0.0000 </r>
       <r>    1.1484    0.0000 </r>
       <r>    2.2018    0.0000 </r>
       <r>    2.3336    0.0000 </r>
      </set>
      <set comment="kpoint 13">
       <r>  -17.1804    1.0000 </r>
       <r>  -14.7560    1.0000 </r>
       <r>  -11.4217    1.0000 </r>
       <r>   -8.0552    1.0000 </r>
       <r>   -6.8720    1.0000 </r>
       <r>   -6.7105    1.0000 </r>
       <r>   -5.6690    1.0000 </r>
       <r>   -4.2345    1.0000 </r>
       <r>   -3.8488    1.0000 </r>
       <r>   -2.4425    1.0000 </r>
       <r>   -1.1732    0.0000 </r>
       <r>   -0.3589    0.0000 </r>
       <r>    0.3682    0.0000 </r>
       <r>    1.1114    0.0000 </r>
       <r>    2.2226    0.0000 </r>
       <r>    2.3592    0.0000 </r>
      </set>
      <set comment="kpoint 14">
       <r>  -17.1022    1.0000 </r>
       <r>  -14.6691    1.0000 </r>
       <r>  -11.4424    1.0000 </r>
       <r>   -8.0011    1.0000 </r>
       <r>   -6.9248    1.0000 </r>
       <r>   -6.7256    1.0000 </r>
       <r>   -6.0272    1.0000 </r>
       <r>   -4.6752    1.0000 </r>
       <r>   -3.8472    1.0000 </r>
       <r>   -2.4356    1.0000 </r>
       <r>   -1.1202    0.0000 </r>
       <r>    0.2842    0.0000 </r>
       <r>    0.2878    0.0000 </r>
       <r>    1.4098    0.0000 </r>
       <r>    2.2897    0.0000 </r>
       <r>    2.4451    0.0000 </r>
      </set>
      <set comment="kpoint 15">
       <r>  -16.9702    1.0000 </r>
       <r>  -14.5264    1.0000 </r>
       <r>  -11.5014    1.0000 </r>
       <r>   -7.9403    1.0000 </r>
       <r>   -7.0686    1.0000 </r>
       <r>   -6.8811    1.0000 </r>
       <r>   -6.2885    1.0000 </r>
       <r>   -5.1116    1.0000 </r>
       <r>   -3.8444    1.0000 </r>
       <r>   -2.4638    1.0000 </r>
       <r>   -1.0242    0.0000 </r>
       <r>   -0.1310    0.0000 </r>
       <r>    1.1913    0.0000 </r>
       <r>    2.0435    0.0000 </r>
       <r>    2.1223    0.0000 </r>
       <r>    2.4860    0.0000 </r>
      </set>
      <set comment="kpoint 16">
       <r>  -16.7854    1.0000 </r>
       <r>  -14.3284    1.0000 </r>
       <r>  -11.6256    1.0000 </r>
       <r>   -7.9692    1.0000 </r>
       <r>   -7.2886    1.0000 </r>
       <r>   -7.2367    1.0000 </r>
       <r>   -6.2663    1.0000 </r>
       <r>   -5.3703    1.0000 </r>
       <r>   -3.8610    1.0000 </r>
       <r>   -2.5443    1.0000 </r>
       <r>   -0.8839    0.0000 </r>
       <r>   -0.5722    0.0000 </r>
       <r>    1.5342    0.0000 </r>
       <r>    2.2255    0.0000 </r>
       <r>    2.2339    0.0000 </r>
       <r>    2.6523    0.0000 </r>
      </set>
      <set comment="kpoint 17">
       <r>  -16.5485    1.0000 </r>
       <r>  -14.0757    1.0000 </r>
       <r>  -11.8429    1.0000 </r>
       <r>   -8.3200    1.0000 </r>
       <r>   -7.5524    1.0000 </r>
       <r>   -7.3424    1.0000 </r>
       <r>   -6.1257    1.0000 </r>
       <r>   -5.4285    1.0000 </r>
       <r>   -3.9244    1.0000 </r>
       <r>   -2.6903    1.0000 </r>
       <r>   -0.9126    0.0000 </r>
       <r>   -0.7054    0.0000 </r>
       <r>    0.9660    0.0000 </r>
       <r>    1.6777    0.0000 </r>
       <r>    2.8101    0.0000 </r>
       <r>    3.0358    0.0000 </r>
      </set>
      <set comment="kpoint 18">
       <r>  -16.2612    1.0000 </r>
       <r>  -13.7697    1.0000 </r>
       <r>  -12.1659    1.0000 </r>
       <r>   -8.9119    1.0000 </r>
       <r>   -7.7285    1.0000 </r>
       <r>   -7.2358    1.0000 </r>
       <r>   -5.9367    1.0000 </r>
       <r>   -5.3654    1.0000 </r>
       <r>   -4.0467    1.0000 </r>
       <r>   -2.9047    1.0000 </r>
       <r>   -1.0880    0.0000 </r>
       <r>   -0.5250    0.0000 </r>
       <r>    0.4855    0.0000 </r>
       <r>    1.0059    0.0000 </r>
       <r>    2.6042    0.0000 </r>
       <r>    3.1698    0.0000 </r>
      </set>
      <set comment="kpoint 19">
       <r>  -15.9254    1.0000 </r>
       <r>  -13.4158    1.0000 </r>
       <r>  -12.5767    1.0000 </r>
       <r>   -9.5687    1.0000 </r>
       <r>   -7.7562    1.0000 </r>
       <r>   -7.1049    1.0000 </r>
       <r>   -5.7257    1.0000 </r>
       <r>   -5.2568    1.0000 </r>
       <r>   -4.1919    1.0000 </r>
       <r>   -3.1742    1.0000 </r>
       <r>   -1.0838    0.0000 </r>
       <r>   -0.5087    0.0000 </r>
       <r>    0.2751    0.0000 </r>
       <r>    0.3685    0.0000 </r>
       <r>    2.1489    0.0000 </r>
       <r>    2.9081    0.0000 </r>
      </set>
      <set comment="kpoint 20">
       <r>  -15.5443    1.0000 </r>
       <r>  -13.1567    1.0000 </r>
       <r>  -12.9019    1.0000 </r>
       <r>  -10.2267    1.0000 </r>
       <r>   -7.6634    1.0000 </r>
       <r>   -7.0214    1.0000 </r>
       <r>   -5.5180    1.0000 </r>
       <r>   -5.1551    1.0000 </r>
       <r>   -4.2812    1.0000 </r>
       <r>   -3.4697    1.0000 </r>
       <r>   -0.9271    0.0000 </r>
       <r>   -0.7679    0.0000 </r>
       <r>   -0.1835    0.0000 </r>
       <r>    0.4618    0.0000 </r>
       <r>    1.6454    0.0000 </r>
       <r>    2.5103    0.0000 </r>
      </set>
      <set comment="kpoint 21">
       <r>  -15.1221    1.0000 </r>
       <r>  -13.5980    1.0000 </r>
       <r>  -12.5042    1.0000 </r>
       <r>  -10.8604    1.0000 </r>
       <r>   -7.4925    1.0000 </r>
       <r>   -7.0387    1.0000 </r>
       <r>   -5.3455    1.0000 </r>
       <r>   -5.0691    1.0000 </r>
       <r>   -4.2670    1.0000 </r>
       <r>   -3.7531    1.0000 </r>
       <r>   -1.0461    0.0000 </r>
       <r>   -0.6605    0.0000 </r>
       <r>   -0.6045    0.0000 </r>
       <r>    0.8109    0.0000 </r>
       <r>    1.1319    0.0000 </r>
       <r>    2.0746    0.0000 </r>
      </set>
      <set comment="kpoint 22">
       <r>  -14.6655    1.0000 </r>
       <r>  -14.1038    1.0000 </r>
       <r>  -11.9950    1.0000 </r>
       <r>  -11.4564    1.0000 </r>
       <r>   -7.2930    1.0000 </r>
       <r>   -7.1675    1.0000 </r>
       <r>   -5.2371    1.0000 </r>
       <r>   -4.9842    1.0000 </r>
       <r>   -4.1765    1.0000 </r>
       <r>   -3.9891    1.0000 </r>
       <r>   -1.2089    0.0000 </r>
       <r>   -0.8576    0.0000 </r>
       <r>   -0.3139    0.0000 </r>
       <r>    0.6218    0.0000 </r>
       <r>    1.2362    0.0000 </r>
       <r>    1.6478    0.0000 </r>
      </set>
      <set comment="kpoint 23">
       <r>  -14.5975    1.0000 </r>
       <r>  -14.1855    1.0000 </r>
       <r>  -12.0051    1.0000 </r>
       <r>  -11.4355    1.0000 </r>
       <r>   -7.3652    1.0000 </r>
       <r>   -7.1238    1.0000 </r>
       <r>   -5.1881    1.0000 </r>
       <r>   -4.9508    1.0000 </r>
       <r>   -4.1629    1.0000 </r>
       <r>   -4.0231    1.0000 </r>
       <r>   -1.2038    0.0000 </r>
       <r>   -0.9029    0.0000 </r>
       <r>    0.0551    0.0000 </r>
       <r>    0.1665    0.0000 </r>
       <r>    1.2790    0.0000 </r>
       <r>    1.6866    0.0000 </r>
      </set>
      <set comment="kpoint 24">
       <r>  -15.0640    1.0000 </r>
       <r>  -13.7057    1.0000 </r>
       <r>  -12.4908    1.0000 </r>
       <r>  -10.8332    1.0000 </r>
       <r>   -7.5723    1.0000 </r>
       <r>   -7.0442    1.0000 </r>
       <r>   -5.1614    1.0000 </r>
       <r>   -5.0371    1.0000 </r>
       <r>   -4.2663    1.0000 </r>
       <r>   -3.7893    1.0000 </r>
       <r>   -1.0389    0.0000 </r>
       <r>   -0.7579    0.0000 </r>
       <r>   -0.1986    0.0000 </r>
       <r>    0.3191    0.0000 </r>
       <r>    1.1020    0.0000 </r>
       <r>    2.1514    0.0000 </r>
      </set>
      <set comment="kpoint 25">
       <r>  -15.4943    1.0000 </r>
       <r>  -13.3426    1.0000 </r>
       <r>  -12.8125    1.0000 </r>
       <r>  -10.1960    1.0000 </r>
       <r>   -7.7370    1.0000 </r>
       <r>   -7.0767    1.0000 </r>
       <r>   -5.2296    1.0000 </r>
       <r>   -5.1671    1.0000 </r>
       <r>   -4.2537    1.0000 </r>
       <r>   -3.5005    1.0000 </r>
       <r>   -0.8847    0.0000 </r>
       <r>   -0.5080    0.0000 </r>
       <r>   -0.3008    0.0000 </r>
       <r>    0.3068    0.0000 </r>
       <r>    1.3213    0.0000 </r>
       <r>    2.6043    0.0000 </r>
      </set>
      <set comment="kpoint 26">
       <r>  -15.8826    1.0000 </r>
       <r>  -13.4995    1.0000 </r>
       <r>  -12.5907    1.0000 </r>
       <r>   -9.5374    1.0000 </r>
       <r>   -7.8155    1.0000 </r>
       <r>   -7.1887    1.0000 </r>
       <r>   -5.4753    1.0000 </r>
       <r>   -5.2413    1.0000 </r>
       <r>   -4.1041    1.0000 </r>
       <r>   -3.2060    1.0000 </r>
       <r>   -0.9505    0.0000 </r>
       <r>   -0.3910    0.0000 </r>
       <r>    0.0629    0.0000 </r>
       <r>    0.3984    0.0000 </r>
       <r>    1.7318    0.0000 </r>
       <r>    3.0078    0.0000 </r>
      </set>
      <set comment="kpoint 27">
       <r>  -16.2250    1.0000 </r>
       <r>  -13.8199    1.0000 </r>
       <r>  -12.2125    1.0000 </r>
       <r>   -8.8852    1.0000 </r>
       <r>   -7.7685    1.0000 </r>
       <r>   -7.3248    1.0000 </r>
       <r>   -5.7328    1.0000 </r>
       <r>   -5.3421    1.0000 </r>
       <r>   -3.9059    1.0000 </r>
       <r>   -2.9460    1.0000 </r>
       <r>   -0.9701    0.0000 </r>
       <r>   -0.5200    0.0000 </r>
       <r>    0.6288    0.0000 </r>
       <r>    0.8170    0.0000 </r>
       <r>    2.1710    0.0000 </r>
       <r>    3.3036    0.0000 </r>
      </set>
      <set comment="kpoint 28">
       <r>  -16.5187    1.0000 </r>
       <r>  -14.1115    1.0000 </r>
       <r>  -11.8989    1.0000 </r>
       <r>   -8.3111    1.0000 </r>
       <r>   -7.5680    1.0000 </r>
       <r>   -7.4146    1.0000 </r>
       <r>   -5.9759    1.0000 </r>
       <r>   -5.3964    1.0000 </r>
       <r>   -3.7604    1.0000 </r>
       <r>   -2.7445    1.0000 </r>
       <r>   -0.8151    0.0000 </r>
       <r>   -0.7015    0.0000 </r>
       <r>    1.2554    0.0000 </r>
       <r>    1.3623    0.0000 </r>
       <r>    2.5503    0.0000 </r>
       <r>    3.1188    0.0000 </r>
      </set>
      <set comment="kpoint 29">
       <r>  -16.7617    1.0000 </r>
       <r>  -14.3548    1.0000 </r>
       <r>  -11.6801    1.0000 </r>
       <r>   -8.0041    1.0000 </r>
       <r>   -7.3164    1.0000 </r>
       <r>   -7.2144    1.0000 </r>
       <r>   -6.1877    1.0000 </r>
       <r>   -5.3239    1.0000 </r>
       <r>   -3.7053    1.0000 </r>
       <r>   -2.6079    1.0000 </r>
       <r>   -0.8646    0.0000 </r>
       <r>   -0.4794    0.0000 </r>
       <r>    1.7973    0.0000 </r>
[...]
       <r>    3.0538    0.0000 </r>
       <r>    3.6036    0.0000 </r>
      </set>
      <set comment="kpoint 153">
       <r>  -15.2300    1.0000 </r>
       <r>  -15.1959    1.0000 </r>
       <r>  -10.9534    1.0000 </r>
       <r>  -10.5373    1.0000 </r>
       <r>   -7.9080    1.0000 </r>
       <r>   -7.7861    1.0000 </r>
       <r>   -5.3570    1.0000 </r>
       <r>   -4.8929    1.0000 </r>
       <r>   -3.7720    1.0000 </r>
       <r>   -3.7483    1.0000 </r>
       <r>    0.4957    0.0000 </r>
       <r>    0.5151    0.0000 </r>
       <r>    0.9993    0.0000 </r>
       <r>    1.5741    0.0000 </r>
       <r>    3.1421    0.0000 </r>
       <r>    3.4849    0.0000 </r>
      </set>
      <set comment="kpoint 154">
       <r>  -15.5205    1.0000 </r>
       <r>  -15.4416    1.0000 </r>
       <r>  -10.7785    1.0000 </r>
       <r>  -10.4118    1.0000 </r>
       <r>   -7.6315    1.0000 </r>
       <r>   -7.3945    1.0000 </r>
       <r>   -5.1689    1.0000 </r>
       <r>   -4.8155    1.0000 </r>
       <r>   -3.7245    1.0000 </r>
       <r>   -3.6163    1.0000 </r>
       <r>    0.4687    0.0000 </r>
       <r>    0.4877    0.0000 </r>
       <r>    1.1475    0.0000 </r>
       <r>    1.6468    0.0000 </r>
       <r>    2.9927    0.0000 </r>
       <r>    3.3491    0.0000 </r>
      </set>
      <set comment="kpoint 155">
       <r>  -15.7664    1.0000 </r>
       <r>  -15.6474    1.0000 </r>
       <r>  -10.7222    1.0000 </r>
       <r>  -10.3984    1.0000 </r>
       <r>   -7.1506    1.0000 </r>
       <r>   -6.8165    1.0000 </r>
       <r>   -5.1405    1.0000 </r>
       <r>   -4.8503    1.0000 </r>
       <r>   -3.5568    1.0000 </r>
       <r>   -3.4632    1.0000 </r>
       <r>    0.4731    0.0000 </r>
       <r>    0.5814    0.0000 </r>
       <r>    1.2069    0.0000 </r>
       <r>    1.6100    0.0000 </r>
       <r>    2.4365    0.0000 </r>
       <r>    2.7812    0.0000 </r>
      </set>
      <set comment="kpoint 156">
       <r>  -15.9638    1.0000 </r>
       <r>  -15.8078    1.0000 </r>
       <r>  -10.7357    1.0000 </r>
       <r>  -10.4340    1.0000 </r>
       <r>   -6.5349    1.0000 </r>
       <r>   -6.1408    1.0000 </r>
       <r>   -5.1908    1.0000 </r>
       <r>   -4.9158    1.0000 </r>
       <r>   -3.3852    1.0000 </r>
       <r>   -3.3768    1.0000 </r>
       <r>    0.4771    0.0000 </r>
       <r>    0.7372    0.0000 </r>
       <r>    1.1812    0.0000 </r>
       <r>    1.4119    0.0000 </r>
       <r>    1.8923    0.0000 </r>
       <r>    1.9961    0.0000 </r>
      </set>
      <set comment="kpoint 157">
       <r>  -16.1108    1.0000 </r>
       <r>  -15.9193    1.0000 </r>
       <r>  -10.7733    1.0000 </r>
       <r>  -10.4768    1.0000 </r>
       <r>   -5.8660    1.0000 </r>
       <r>   -5.4830    1.0000 </r>
       <r>   -5.2301    1.0000 </r>
       <r>   -4.9727    1.0000 </r>
       <r>   -3.4214    1.0000 </r>
       <r>   -3.2753    1.0000 </r>
       <r>    0.2572    0.0000 </r>
       <r>    0.6032    0.0000 </r>
       <r>    1.1895    0.0000 </r>
       <r>    1.2211    0.0000 </r>
       <r>    1.4920    0.0000 </r>
       <r>    1.7003    0.0000 </r>
      </set>
      <set comment="kpoint 158">
       <r>  -16.2060    1.0000 </r>
       <r>  -15.9800    1.0000 </r>
       <r>  -10.8067    1.0000 </r>
       <r>  -10.5052    1.0000 </r>
       <r>   -5.3442    1.0000 </r>
       <r>   -5.2462    1.0000 </r>
       <r>   -5.0042    1.0000 </r>
       <r>   -4.8648    1.0000 </r>
       <r>   -3.5750    1.0000 </r>
       <r>   -3.2750    1.0000 </r>
       <r>   -0.1027    0.0000 </r>
       <r>    0.1306    0.0000 </r>
       <r>    1.2316    0.0000 </r>
       <r>    1.2323    0.0000 </r>
       <r>    1.5084    0.0000 </r>
       <r>    1.6235    0.0000 </r>
      </set>
     </set>
    </set>
   </array>
  </eigenvalues>
  <separator name="orbital magnetization" >
   <v name="MAGDIPOLOUT">      0.00000000      0.00000000      0.00000000</v>
  </separator>
  <dos>
   <i name="efermi">     -2.16926965 </i>
   <total>
    <array>
     <dimension dim="1">gridpoints</dimension>
     <dimension dim="2">spin</dimension>
     <field>energy</field>
     <field>total</field>
     <field>integrated</field>
     <set>
      <set comment="spin 1">
       <r>   -18.2758     0.0000     0.0000 </r>
       <r>   -18.1988     0.0000     0.0000 </r>
       <r>   -18.1218     0.0000     0.0000 </r>
       <r>   -18.0449     0.0000     0.0000 </r>
       <r>   -17.9679     0.0000     0.0000 </r>
       <r>   -17.8909     0.0000     0.0000 </r>
       <r>   -17.8140     0.0000     0.0000 </r>
       <r>   -17.7370     0.0000     0.0000 </r>
       <r>   -17.6600     0.0000     0.0000 </r>
       <r>   -17.5830     0.0000     0.0000 </r>
       <r>   -17.5061     0.0000     0.0000 </r>
       <r>   -17.4291     0.0000     0.0000 </r>
       <r>   -17.3521     0.0000     0.0000 </r>
       <r>   -17.2751     0.0000     0.0000 </r>
       <r>   -17.1982     0.3034     0.0234 </r>
       <r>   -17.1212     0.7718     0.0828 </r>
       <r>   -17.0442     0.7873     0.1434 </r>
       <r>   -16.9673     0.9638     0.2176 </r>
       <r>   -16.8903     0.8284     0.2813 </r>
       <r>   -16.8133     0.7155     0.3364 </r>
       <r>   -16.7363     1.0463     0.4169 </r>
       <r>   -16.6594     0.8809     0.4847 </r>
       <r>   -16.5824     0.6280     0.5331 </r>
       <r>   -16.5054     0.9901     0.6093 </r>
       <r>   -16.4284     1.0287     0.6885 </r>
       <r>   -16.3515     0.6683     0.7399 </r>
       <r>   -16.2745     0.7205     0.7954 </r>
       <r>   -16.1975     1.3753     0.9012 </r>
       <r>   -16.1206     0.9596     0.9751 </r>
       <r>   -16.0436     0.4609     1.0106 </r>
       <r>   -15.9666     0.9954     1.0872 </r>
       <r>   -15.8896     1.2371     1.1824 </r>
       <r>   -15.8127     0.8879     1.2508 </r>
       <r>   -15.7357     0.6915     1.3040 </r>
       <r>   -15.6587     1.4382     1.4147 </r>
       <r>   -15.5817     0.4412     1.4486 </r>
       <r>   -15.5048     1.2759     1.5468 </r>
       <r>   -15.4278     1.3719     1.6524 </r>
       <r>   -15.3508     0.9457     1.7252 </r>
       <r>   -15.2739     0.7184     1.7805 </r>
       <r>   -15.1969     1.0842     1.8640 </r>
       <r>   -15.1199     1.4390     1.9748 </r>
       <r>   -15.0429     0.9805     2.0502 </r>
       <r>   -14.9660     1.5587     2.1702 </r>
       <r>   -14.8890     1.3807     2.2765 </r>
       <r>   -14.8120     1.2830     2.3752 </r>
       <r>   -14.7350     1.6595     2.5030 </r>
       <r>   -14.6581     1.6660     2.6312 </r>
       <r>   -14.5811     1.6359     2.7571 </r>
       <r>   -14.5041     1.4790     2.8710 </r>
       <r>   -14.4272     0.9066     2.9408 </r>
       <r>   -14.3502     1.5097     3.0570 </r>
       <r>   -14.2732     1.0585     3.1384 </r>
       <r>   -14.1962     1.3938     3.2457 </r>
       <r>   -14.1193     1.6258     3.3709 </r>
       <r>   -14.0423     1.0012     3.4479 </r>
       <r>   -13.9653     0.9108     3.5180 </r>
       <r>   -13.8883     0.9056     3.5877 </r>
       <r>   -13.8114     1.2221     3.6818 </r>
       <r>   -13.7344     0.8235     3.7452 </r>
       <r>   -13.6574     0.8106     3.8076 </r>
       <r>   -13.5805     0.5695     3.8514 </r>
       <r>   -13.5035     0.6765     3.9035 </r>
       <r>   -13.4265     0.3025     3.9268 </r>
       <r>   -13.3495     0.3429     3.9532 </r>
       <r>   -13.2726     0.2764     3.9744 </r>
       <r>   -13.1956     0.0033     3.9747 </r>
       <r>   -13.1186     0.3277     3.9999 </r>
       <r>   -13.0417     0.0010     4.0000 </r>
       <r>   -12.9647     0.0246     4.0019 </r>
       <r>   -12.8877     0.2794     4.0234 </r>
       <r>   -12.8107     0.1166     4.0324 </r>
       <r>   -12.7338     0.0768     4.0383 </r>
       <r>   -12.6568     0.2674     4.0589 </r>
       <r>   -12.5798     0.4216     4.0913 </r>
       <r>   -12.5028     0.3810     4.1207 </r>
       <r>   -12.4259     1.2044     4.2134 </r>
       <r>   -12.3489     0.4293     4.2464 </r>
       <r>   -12.2719     0.4513     4.2811 </r>
       <r>   -12.1950     0.9655     4.3554 </r>
       <r>   -12.1180     0.9044     4.4251 </r>
       <r>   -12.0410     1.7684     4.5612 </r>
       <r>   -11.9640     1.6641     4.6893 </r>
       <r>   -11.8871     0.8750     4.7566 </r>
       <r>   -11.8101     1.2193     4.8505 </r>
       <r>   -11.7331     0.9022     4.9199 </r>
       <r>   -11.6561     1.0117     4.9978 </r>
       <r>   -11.5792     1.3829     5.1042 </r>
       <r>   -11.5022     1.8076     5.2434 </r>
       <r>   -11.4252     3.8111     5.5367 </r>
       <r>   -11.3483     2.7687     5.7498 </r>
       <r>   -11.2713     0.6375     5.7989 </r>
       <r>   -11.1943     1.9811     5.9514 </r>
       <r>   -11.1173     0.5921     5.9970 </r>
       <r>   -11.0404     1.2890     6.0962 </r>
       <r>   -10.9634     1.2611     6.1933 </r>
       <r>   -10.8864     0.7072     6.2477 </r>
       <r>   -10.8094     1.3072     6.3483 </r>
       <r>   -10.7325     1.1207     6.4346 </r>
       <r>   -10.6555     0.8128     6.4971 </r>
       <r>   -10.5785     0.3056     6.5207 </r>
       <r>   -10.5016     0.7368     6.5774 </r>
       <r>   -10.4246     1.0529     6.6584 </r>
       <r>   -10.3476     1.0032     6.7356 </r>
       <r>   -10.2706     0.3682     6.7640 </r>
       <r>   -10.1937     0.7564     6.8222 </r>
       <r>   -10.1167     0.7777     6.8821 </r>
       <r>   -10.0397     1.0660     6.9641 </r>
       <r>    -9.9627     0.5510     7.0065 </r>
       <r>    -9.8858     0.2318     7.0244 </r>
       <r>    -9.8088     0.2260     7.0418 </r>
       <r>    -9.7318     0.4892     7.0794 </r>
       <r>    -9.6549     1.2563     7.1761 </r>
       <r>    -9.5779     0.7961     7.2374 </r>
       <r>    -9.5009     0.5640     7.2808 </r>
       <r>    -9.4239     0.0222     7.2825 </r>
       <r>    -9.3470     0.0372     7.2854 </r>
       <r>    -9.2700     1.2743     7.3835 </r>
       <r>    -9.1930     0.6042     7.4300 </r>
       <r>    -9.1160     0.2308     7.4478 </r>
       <r>    -9.0391     0.2479     7.4669 </r>
       <r>    -8.9621     0.1237     7.4764 </r>
       <r>    -8.8851     0.5602     7.5195 </r>
       <r>    -8.8082     1.1961     7.6116 </r>
       <r>    -8.7312     0.4838     7.6488 </r>
       <r>    -8.6542     0.0259     7.6508 </r>
       <r>    -8.5772     0.3045     7.6742 </r>
       <r>    -8.5003     0.0254     7.6762 </r>
       <r>    -8.4233     0.3821     7.7056 </r>
       <r>    -8.3463     0.8680     7.7724 </r>
       <r>    -8.2693     0.5643     7.8158 </r>
       <r>    -8.1924     0.2058     7.8317 </r>
       <r>    -8.1154     0.8994     7.9009 </r>
       <r>    -8.0384     2.5273     8.0954 </r>
       <r>    -7.9615     1.9841     8.2482 </r>
       <r>    -7.8845     1.7079     8.3796 </r>
       <r>    -7.8075     2.2265     8.5510 </r>
       <r>    -7.7305     2.6155     8.7523 </r>
       <r>    -7.6536     1.8101     8.8917 </r>
       <r>    -7.5766     1.4613     9.0041 </r>
       <r>    -7.4996     2.1765     9.1717 </r>
       <r>    -7.4227     2.0410     9.3288 </r>
       <r>    -7.3457     2.3190     9.5073 </r>
       <r>    -7.2687     3.2237     9.7554 </r>
       <r>    -7.1917     2.6222     9.9572 </r>
       <r>    -7.1148     3.4150    10.2201 </r>
       <r>    -7.0378     3.0652    10.4560 </r>
       <r>    -6.9608     2.3818    10.6394 </r>
       <r>    -6.8838     1.1879    10.7308 </r>
       <r>    -6.8069     1.6645    10.8589 </r>
       <r>    -6.7299     1.0871    10.9426 </r>
       <r>    -6.6529     2.6446    11.1462 </r>
       <r>    -6.5760     1.0571    11.2275 </r>
       <r>    -6.4990     1.4126    11.3363 </r>
       <r>    -6.4220     1.6561    11.4637 </r>
       <r>    -6.3450     1.2417    11.5593 </r>
       <r>    -6.2681     1.5994    11.6824 </r>
       <r>    -6.1911     1.7534    11.8174 </r>
       <r>    -6.1141     2.1245    11.9809 </r>
       <r>    -6.0371     0.8210    12.0441 </r>
       <r>    -5.9602     2.2894    12.2203 </r>
       <r>    -5.8832     1.8124    12.3598 </r>
       <r>    -5.8062     1.6487    12.4867 </r>
       <r>    -5.7293     1.8089    12.6260 </r>
       <r>    -5.6523     3.8079    12.9191 </r>
       <r>    -5.5753     2.6437    13.1226 </r>
       <r>    -5.4983     4.6200    13.4782 </r>
       <r>    -5.4214     3.6192    13.7568 </r>
       <r>    -5.3444     3.9178    14.0583 </r>
       <r>    -5.2674     2.2485    14.2314 </r>
       <r>    -5.1904     2.5038    14.4241 </r>
       <r>    -5.1135     2.9105    14.6482 </r>
       <r>    -5.0365     2.8241    14.8655 </r>
       <r>    -4.9595     2.0867    15.0262 </r>
       <r>    -4.8826     2.2715    15.2010 </r>
       <r>    -4.8056     1.6347    15.3268 </r>
       <r>    -4.7286     0.9605    15.4008 </r>
       <r>    -4.6516     1.4903    15.5155 </r>
       <r>    -4.5747     1.8821    15.6603 </r>
       <r>    -4.4977     1.3343    15.7630 </r>
       <r>    -4.4207     0.4375    15.7967 </r>
       <r>    -4.3437     0.7172    15.8519 </r>
       <r>    -4.2668     1.7950    15.9901 </r>
       <r>    -4.1898     2.3002    16.1672 </r>
       <r>    -4.1128     2.6549    16.3715 </r>
       <r>    -4.0359     2.2574    16.5453 </r>
       <r>    -3.9589     1.9320    16.6940 </r>
       <r>    -3.8819     3.0413    16.9281 </r>
       <r>    -3.8049     3.4135    17.1908 </r>
       <r>    -3.7280     4.0466    17.5023 </r>
       <r>    -3.6510     4.4057    17.8414 </r>
       <r>    -3.5740     2.7463    18.0528 </r>
       <r>    -3.4970     3.3507    18.3107 </r>
       <r>    -3.4201     2.7436    18.5219 </r>
       <r>    -3.3431     2.8537    18.7416 </r>
       <r>    -3.2661     2.9588    18.9693 </r>
       <r>    -3.1892     2.7132    19.1782 </r>
       <r>    -3.1122     2.3337    19.3578 </r>
       <r>    -3.0352     0.9214    19.4287 </r>
       <r>    -2.9582     0.6685    19.4802 </r>
       <r>    -2.8813     1.8600    19.6233 </r>
       <r>    -2.8043     1.4649    19.7361 </r>
       <r>    -2.7273     0.8487    19.8014 </r>
       <r>    -2.6503     0.1993    19.8167 </r>
       <r>    -2.5734     0.3209    19.8414 </r>
       <r>    -2.4964     0.3816    19.8708 </r>
       <r>    -2.4194     1.0701    19.9532 </r>
       <r>    -2.3425     0.1040    19.9612 </r>
       <r>    -2.2655     0.2981    19.9841 </r>
       <r>    -2.1885     0.2062    20.0000 </r>
       <r>    -2.1115     0.0000    20.0000 </r>
       <r>    -2.0346     0.0000    20.0000 </r>
       <r>    -1.9576     0.0000    20.0000 </r>
       <r>    -1.8806     0.0000    20.0000 </r>
       <r>    -1.8036     0.0000    20.0000 </r>
       <r>    -1.7267     0.0000    20.0000 </r>
       <r>    -1.6497     0.0000    20.0000 </r>
       <r>    -1.5727     0.0000    20.0000 </r>
       <r>    -1.4958     0.0000    20.0000 </r>
       <r>    -1.4188     0.0000    20.0000 </r>
       <r>    -1.3418     0.1868    20.0144 </r>
       <r>    -1.2648     0.3224    20.0392 </r>
       <r>    -1.1879     0.6874    20.0921 </r>
       <r>    -1.1109     1.5041    20.2079 </r>
       <r>    -1.0339     1.0393    20.2879 </r>
       <r>    -0.9570     1.5837    20.4098 </r>
       <r>    -0.8800     1.7550    20.5449 </r>
       <r>    -0.8030     1.4403    20.6557 </r>
       <r>    -0.7260     1.4819    20.7698 </r>
       <r>    -0.6491     2.0666    20.9289 </r>
       <r>    -0.5721     2.1109    21.0914 </r>
       <r>    -0.4951     2.5698    21.2892 </r>
       <r>    -0.4181     1.4633    21.4018 </r>
       <r>    -0.3412     2.7192    21.6111 </r>
       <r>    -0.2642     3.0835    21.8485 </r>
       <r>    -0.1872     2.9591    22.0762 </r>
       <r>    -0.1103     2.3524    22.2573 </r>
       <r>    -0.0333     2.7786    22.4712 </r>
       <r>     0.0437     2.8544    22.6909 </r>
       <r>     0.1207     3.7680    22.9809 </r>
       <r>     0.1976     4.2185    23.3056 </r>
       <r>     0.2746     3.7008    23.5905 </r>
       <r>     0.3516     4.1294    23.9083 </r>
       <r>     0.4286     3.8910    24.2078 </r>
       <r>     0.5055     4.3710    24.5443 </r>
       <r>     0.5825     3.1263    24.7849 </r>
       <r>     0.6595     3.2353    25.0340 </r>
       <r>     0.7364     2.9128    25.2582 </r>
       <r>     0.8134     3.5448    25.5310 </r>
       <r>     0.8904     2.8894    25.7534 </r>
       <r>     0.9674     2.1966    25.9225 </r>
       <r>     1.0443     2.8919    26.1451 </r>
       <r>     1.1213     3.3954    26.4064 </r>
       <r>     1.1983     3.3091    26.6612 </r>
       <r>     1.2753     3.7521    26.9500 </r>
       <r>     1.3522     2.4224    27.1364 </r>
       <r>     1.4292     2.3431    27.3168 </r>
       <r>     1.5062     2.1411    27.4816 </r>
       <r>     1.5831     2.7299    27.6917 </r>
       <r>     1.6601     2.7442    27.9029 </r>
       <r>     1.7371     2.3080    28.0806 </r>
       <r>     1.8141     1.8830    28.2255 </r>
       <r>     1.8910     3.0778    28.4624 </r>
       <r>     1.9680     2.3719    28.6450 </r>
       <r>     2.0450     1.4777    28.7588 </r>
       <r>     2.1220     1.5919    28.8813 </r>
       <r>     2.1989     3.2201    29.1291 </r>
       <r>     2.2759     2.6695    29.3346 </r>
       <r>     2.3529     1.6415    29.4610 </r>
       <r>     2.4298     2.8320    29.6790 </r>
       <r>     2.5068     3.3375    29.9359 </r>
       <r>     2.5838     3.6803    30.2191 </r>
       <r>     2.6608     3.7594    30.5085 </r>
       <r>     2.7377     2.5793    30.7071 </r>
       <r>     2.8147     2.0806    30.8672 </r>
       <r>     2.8917     1.9282    31.0156 </r>
       <r>     2.9687     2.2795    31.1911 </r>
       <r>     3.0456     2.1640    31.3576 </r>
       <r>     3.1226     1.1144    31.4434 </r>
       <r>     3.1996     2.1951    31.6124 </r>
       <r>     3.2765     1.5488    31.7316 </r>
       <r>     3.3535     0.9725    31.8065 </r>
       <r>     3.4305     0.9246    31.8776 </r>
       <r>     3.5075     0.2820    31.8993 </r>
       <r>     3.5844     0.2184    31.9161 </r>
       <r>     3.6614     0.4669    31.9521 </r>
       <r>     3.7384     0.3967    31.9826 </r>
       <r>     3.8154     0.2259    32.0000 </r>
       <r>     3.8923     0.0000    32.0000 </r>
       <r>     3.9693     0.0000    32.0000 </r>
       <r>     4.0463     0.0000    32.0000 </r>
       <r>     4.1232     0.0000    32.0000 </r>
       <r>     4.2002     0.0000    32.0000 </r>
       <r>     4.2772     0.0000    32.0000 </r>
       <r>     4.3542     0.0000    32.0000 </r>
       <r>     4.4311     0.0000    32.0000 </r>
       <r>     4.5081     0.0000    32.0000 </r>
       <r>     4.5851     0.0000    32.0000 </r>
       <r>     4.6620     0.0000    32.0000 </r>
       <r>     4.7390     0.0000    32.0000 </r>
       <r>     4.8160     0.0000    32.0000 </r>
      </set>
     </set>
    </array>
   </total>
  </dos>
 </calculation>
 <structure name="finalpos" >
  <crystal>
   <varray name="basis" >
    <v>       3.29571900       0.09896100       0.00000000 </v>
    <v>       0.13876300       4.62126800      -0.00005300 </v>
    <v>       0.00000000       0.00000000      20.02439000 </v>
   </varray>
   <i name="volume">    304.70450708 </i>
   <varray name="rec_basis" >
    <v>       0.30369775      -0.00911914       0.00000000 </v>
    <v>      -0.00650346       0.21658611       0.00000000 </v>
    <v>      -0.00000002       0.00000057       0.04993910 </v>
   </varray>
  </crystal>
  <varray name="positions" >
   <v>       0.48844124       0.91117910       0.55249804 </v>
   <v>       0.51155876       0.08882090       0.44750196 </v>
   <v>      -0.01155854       0.41117439       0.44750197 </v>
   <v>       0.01155854       0.58882561       0.55249803 </v>
  </varray>
 </structure>
</modeling>
