<?xml version="1.0" encoding="ISO-8859-1"?>
<modeling>
 <generator>
  <i name="program" type="string">vasp </i>
  <i name="version" type="string">5.4.1  </i>
  <i name="subversion" type="string">24Jun15 (build Nov 20 2020 10:29:34) complex                          parallel </i>
  <i name="platform" type="string">IFC91_ompi </i>
  <i name="date" type="string">2021 09 09 </i>
  <i name="time" type="string">14:53:35 </i>
 </generator>
 <incar>
  <i type="string" name="PREC">a</i>
  <i type="string" name="ALGO"> Normal</i>
  <i type="int" name="ISPIN">     1</i>
  <i type="int" name="ICHARG">     2</i>
  <i type="int" name="NELM">   250</i>
  <i type="int" name="NELMDL">    -5</i>
  <i type="int" name="NELMIN">     6</i>
  <i type="int" name="IBRION">     2</i>
  <i name="EDIFF">      0.00001000</i>
  <i name="EDIFFG">     -0.01000000</i>
  <i type="int" name="NSW">   200</i>
  <i type="int" name="ISIF">     2</i>
  <i name="ENCUT">    520.00000000</i>
  <i name="POTIM">      0.30000000</i>
  <i type="logical" name="LREAL"> F  </i>
  <i type="int" name="ISMEAR">     0</i>
  <i name="SIGMA">      0.02000000</i>
  <i type="logical" name="LWAVE"> F  </i>
  <i type="logical" name="LCHARG"> F  </i>
  <i type="logical" name="LAECHG"> F  </i>
  <v type="int" name="KPOINT_BSE">    -1     0     0     0</v>
  <i type="int" name="NELM">   250</i>
 </incar>
 <kpoints>
  <generation param="Gamma">
   <v type="int" name="divisions">      15       13        1 </v>
   <v name="usershift">      0.00000000       0.00000000       0.00000000 </v>
   <v name="genvec1">      0.06666667       0.00000000       0.00000000 </v>
   <v name="genvec2">      0.00000000       0.07692308       0.00000000 </v>
   <v name="genvec3">      0.00000000       0.00000000       1.00000000 </v>
   <v name="shift">      0.00000000       0.00000000       0.00000000 </v>
  </generation>
  <varray name="kpointlist" >
   <v>       0.00000000       0.00000000       0.00000000 </v>
   <v>       0.06666667       0.00000000       0.00000000 </v>
   <v>       0.13333333       0.00000000       0.00000000 </v>
   <v>       0.20000000       0.00000000       0.00000000 </v>
   <v>       0.26666667       0.00000000       0.00000000 </v>
   <v>       0.33333333       0.00000000       0.00000000 </v>
   <v>       0.40000000       0.00000000       0.00000000 </v>
   <v>       0.46666667       0.00000000       0.00000000 </v>
   <v>       0.00000000       0.07692308       0.00000000 </v>
   <v>       0.06666667       0.07692308       0.00000000 </v>
   <v>       0.13333333       0.07692308       0.00000000 </v>
   <v>       0.20000000       0.07692308       0.00000000 </v>
   <v>       0.26666667       0.07692308       0.00000000 </v>
   <v>       0.33333333       0.07692308       0.00000000 </v>
   <v>       0.40000000       0.07692308       0.00000000 </v>
   <v>       0.46666667       0.07692308       0.00000000 </v>
   <v>       0.00000000       0.15384615       0.00000000 </v>
   <v>       0.06666667       0.15384615       0.00000000 </v>
   <v>       0.13333333       0.15384615       0.00000000 </v>
   <v>       0.20000000       0.15384615       0.00000000 </v>
   <v>       0.26666667       0.15384615       0.00000000 </v>
   <v>       0.33333333       0.15384615       0.00000000 </v>
   <v>       0.40000000       0.15384615       0.00000000 </v>
   <v>       0.46666667       0.15384615       0.00000000 </v>
   <v>       0.00000000       0.23076923       0.00000000 </v>
   <v>       0.06666667       0.23076923       0.00000000 </v>
   <v>       0.13333333       0.23076923       0.00000000 </v>
   <v>       0.20000000       0.23076923       0.00000000 </v>
   <v>       0.26666667       0.23076923       0.00000000 </v>
   <v>       0.33333333       0.23076923       0.00000000 </v>
   <v>       0.40000000       0.23076923       0.00000000 </v>
   <v>       0.46666667       0.23076923       0.00000000 </v>
   <v>       0.00000000       0.30769231       0.00000000 </v>
   <v>       0.06666667       0.30769231       0.00000000 </v>
   <v>       0.13333333       0.30769231       0.00000000 </v>
   <v>       0.20000000       0.30769231       0.00000000 </v>
   <v>       0.26666667       0.30769231       0.00000000 </v>
   <v>       0.33333333       0.30769231       0.00000000 </v>
   <v>       0.40000000       0.30769231       0.00000000 </v>
   <v>       0.46666667       0.30769231       0.00000000 </v>
   <v>       0.00000000       0.38461538       0.00000000 </v>
   <v>       0.06666667       0.38461538       0.00000000 </v>
   <v>       0.13333333       0.38461538       0.00000000 </v>
   <v>       0.20000000       0.38461538       0.00000000 </v>
   <v>       0.26666667       0.38461538       0.00000000 </v>
   <v>       0.33333333       0.38461538       0.00000000 </v>
   <v>       0.40000000       0.38461538       0.00000000 </v>
   <v>       0.46666667       0.38461538       0.00000000 </v>
   <v>       0.00000000       0.46153846       0.00000000 </v>
   <v>       0.06666667       0.46153846       0.00000000 </v>
   <v>       0.13333333       0.46153846       0.00000000 </v>
   <v>       0.20000000       0.46153846       0.00000000 </v>
   <v>       0.26666667       0.46153846       0.00000000 </v>
   <v>       0.33333333       0.46153846       0.00000000 </v>
   <v>       0.40000000       0.46153846       0.00000000 </v>
   <v>       0.46666667       0.46153846       0.00000000 </v>
  </varray>
  <varray name="weights" >
   <v>       0.00512821 </v>
   <v>       0.01025641 </v>
   <v>       0.01025641 </v>
   <v>       0.01025641 </v>
   <v>       0.01025641 </v>
   <v>       0.01025641 </v>
   <v>       0.01025641 </v>
   <v>       0.01025641 </v>
   <v>       0.01025641 </v>
   <v>       0.02051282 </v>
   <v>       0.02051282 </v>
   <v>       0.02051282 </v>
   <v>       0.02051282 </v>
   <v>       0.02051282 </v>
   <v>       0.02051282 </v>
   <v>       0.02051282 </v>
   <v>       0.01025641 </v>
   <v>       0.02051282 </v>
   <v>       0.02051282 </v>
   <v>       0.02051282 </v>
   <v>       0.02051282 </v>
   <v>       0.02051282 </v>
   <v>       0.02051282 </v>
   <v>       0.02051282 </v>
   <v>       0.01025641 </v>
   <v>       0.02051282 </v>
   <v>       0.02051282 </v>
   <v>       0.02051282 </v>
   <v>       0.02051282 </v>
   <v>       0.02051282 </v>
   <v>       0.02051282 </v>
   <v>       0.02051282 </v>
   <v>       0.01025641 </v>
   <v>       0.02051282 </v>
   <v>       0.02051282 </v>
   <v>       0.02051282 </v>
   <v>       0.02051282 </v>
   <v>       0.02051282 </v>
   <v>       0.02051282 </v>
   <v>       0.02051282 </v>
   <v>       0.01025641 </v>
   <v>       0.02051282 </v>
   <v>       0.02051282 </v>
   <v>       0.02051282 </v>
   <v>       0.02051282 </v>
   <v>       0.02051282 </v>
   <v>       0.02051282 </v>
   <v>       0.02051282 </v>
   <v>       0.01025641 </v>
   <v>       0.02051282 </v>
   <v>       0.02051282 </v>
   <v>       0.02051282 </v>
   <v>       0.02051282 </v>
   <v>       0.02051282 </v>
   <v>       0.02051282 </v>
   <v>       0.02051282 </v>
  </varray>
 </kpoints>
 <parameters>
  <separator name="general" >
   <i type="string" name="SYSTEM">unknown system</i>
   <i type="logical" name="LCOMPAT"> F  </i>
  </separator>
  <separator name="electronic" >
   <i type="string" name="PREC">a</i>
   <i name="ENMAX">    520.00000000</i>
   <i name="ENAUG">    531.35600000</i>
   <i name="EDIFF">      0.00001000</i>
   <i type="int" name="IALGO">    38</i>
   <i type="int" name="IWAVPR">    11</i>
   <i type="int" name="NBANDS">    32</i>
   <i name="NELECT">     52.00000000</i>
   <i type="int" name="TURBO">     0</i>
   <i type="int" name="IRESTART">     0</i>
   <i type="int" name="NREBOOT">     0</i>
   <i type="int" name="NMIN">     0</i>
   <i name="EREF">      0.00000000</i>
   <separator name="electronic smearing" >
    <i type="int" name="ISMEAR">     0</i>
    <i name="SIGMA">      0.02000000</i>
    <i name="KSPACING">      0.50000000</i>
    <i type="logical" name="KGAMMA"> T  </i>
   </separator>
   <separator name="electronic projectors" >
    <i type="logical" name="LREAL"> F  </i>
    <v name="ROPT">      0.00000000      0.00000000</v>
    <i type="int" name="LMAXPAW">  -100</i>
    <i type="int" name="LMAXMIX">     2</i>
    <i type="logical" name="NLSPLINE"> F  </i>
   </separator>
   <separator name="electronic startup" >
    <i type="int" name="ISTART">     0</i>
    <i type="int" name="ICHARG">     2</i>
    <i type="int" name="INIWAV">     1</i>
   </separator>
   <separator name="electronic spin" >
    <i type="int" name="ISPIN">     1</i>
    <i type="logical" name="LNONCOLLINEAR"> F  </i>
    <v name="MAGMOM">      1.00000000      1.00000000      1.00000000      1.00000000      1.00000000      1.00000000</v>
    <i name="NUPDOWN">     -1.00000000</i>
    <i type="logical" name="LSORBIT"> F  </i>
    <v name="SAXIS">      0.00000000      0.00000000      1.00000000</v>
    <i type="logical" name="LSPIRAL"> F  </i>
    <v name="QSPIRAL">      0.00000000      0.00000000      0.00000000</v>
    <i type="logical" name="LZEROZ"> F  </i>
   </separator>
   <separator name="electronic exchange-correlation" >
    <i type="logical" name="LASPH"> F  </i>
    <i type="logical" name="LMETAGGA"> F  </i>
   </separator>
   <separator name="electronic convergence" >
    <i type="int" name="NELM">   250</i>
    <i type="int" name="NELMDL">    -5</i>
    <i type="int" name="NELMIN">     6</i>
    <i name="ENINI">    520.00000000</i>
    <separator name="electronic convergence detail" >
     <i type="logical" name="LDIAG"> T  </i>
     <i type="logical" name="LSUBROT"> F  </i>
     <i name="WEIMIN">      0.00100000</i>
     <i name="EBREAK">      0.00000008</i>
     <i name="DEPER">      0.30000000</i>
     <i type="int" name="NRMM">     4</i>
     <i name="TIME">      0.40000000</i>
    </separator>
   </separator>
   <separator name="electronic mixer" >
    <i name="AMIX">      0.40000000</i>
    <i name="BMIX">      1.00000000</i>
    <i name="AMIN">      0.10000000</i>
    <i name="AMIX_MAG">      1.60000000</i>
    <i name="BMIX_MAG">      1.00000000</i>
    <separator name="electronic mixer details" >
     <i type="int" name="IMIX">     4</i>
     <i type="logical" name="MIXFIRST"> F  </i>
     <i type="int" name="MAXMIX">   -45</i>
     <i name="WC">    100.00000000</i>
     <i type="int" name="INIMIX">     1</i>
     <i type="int" name="MIXPRE">     1</i>
     <i type="int" name="MREMOVE">     5</i>
    </separator>
   </separator>
   <separator name="electronic dipolcorrection" >
    <i type="logical" name="LDIPOL"> F  </i>
    <i type="logical" name="LMONO"> F  </i>
    <i type="int" name="IDIPOL">     0</i>
    <i name="EPSILON">      1.00000000</i>
    <v name="DIPOL">   -100.00000000   -100.00000000   -100.00000000</v>
    <i name="EFIELD">      0.00000000</i>
   </separator>
  </separator>
  <separator name="grids" >
   <i type="int" name="NGX">    36</i>
   <i type="int" name="NGY">    42</i>
   <i type="int" name="NGZ">   140</i>
   <i type="int" name="NGXF">    72</i>
   <i type="int" name="NGYF">    84</i>
   <i type="int" name="NGZF">   280</i>
   <i type="logical" name="ADDGRID"> F  </i>
  </separator>
  <separator name="ionic" >
   <i type="int" name="NSW">   200</i>
   <i type="int" name="IBRION">     2</i>
   <i type="int" name="ISIF">     2</i>
   <i name="PSTRESS">      0.00000000</i>
   <i name="EDIFFG">     -0.01000000</i>
   <i type="int" name="NFREE">     1</i>
   <i name="POTIM">      0.30000000</i>
   <i name="SMASS">     -3.00000000</i>
   <i name="SCALEE">      1.00000000</i>
  </separator>
  <separator name="ionic md" >
   <i name="TEBEG">      0.00010000</i>
   <i name="TEEND">      0.00010000</i>
   <i type="int" name="NBLOCK">     1</i>
   <i type="int" name="KBLOCK">   200</i>
   <i type="int" name="NPACO">   256</i>
   <i name="APACO">     16.00000000</i>
  </separator>
  <separator name="symmetry" >
   <i type="int" name="ISYM">     2</i>
   <i name="SYMPREC">      0.00001000</i>
  </separator>
  <separator name="dos" >
   <i type="logical" name="LORBIT"> F  </i>
   <v name="RWIGS">     -1.00000000     -1.00000000</v>
   <i type="int" name="NEDOS">   301</i>
   <i name="EMIN">     10.00000000</i>
   <i name="EMAX">    -10.00000000</i>
   <i name="EFERMI">      0.00000000</i>
  </separator>
  <separator name="writing" >
   <i type="int" name="NWRITE">     2</i>
   <i type="logical" name="LWAVE"> F  </i>
   <i type="logical" name="LCHARG"> F  </i>
   <i type="logical" name="LPARD"> F  </i>
   <i type="logical" name="LVTOT"> F  </i>
   <i type="logical" name="LVHAR"> F  </i>
   <i type="logical" name="LELF"> F  </i>
   <i type="logical" name="LOPTICS"> F  </i>
   <v name="STM">      0.00000000      0.00000000      0.00000000      0.00000000      0.00000000      0.00000000      0.00000000</v>
  </separator>
  <separator name="performance" >
   <i type="int" name="NPAR">     4</i>
   <i type="int" name="NSIM">     4</i>
   <i type="int" name="NBLK">    -1</i>
   <i type="logical" name="LPLANE"> T  </i>
   <i type="logical" name="LSCALAPACK"> T  </i>
   <i type="logical" name="LSCAAWARE"> F  </i>
   <i type="logical" name="LSCALU"> F  </i>
   <i type="logical" name="LASYNC"> F  </i>
   <i type="logical" name="LORBITALREAL"> F  </i>
  </separator>
  <separator name="miscellaneous" >
   <i type="int" name="IDIOT">     3</i>
   <i type="logical" name="LMUSIC"> F  </i>
   <v name="POMASS">     72.61000000     78.96000000</v>
   <v name="DARWINR">      0.00000000      0.00000000</v>
   <v name="DARWINV">      1.00000000      1.00000000</v>
   <i type="logical" name="LCORR"> T  </i>
  </separator>
  <i type="logical" name="GGA_COMPAT"> T  </i>
  <i type="logical" name="LBERRY"> F  </i>
  <i type="int" name="ICORELEVEL">     0</i>
  <i type="logical" name="LDAU"> F  </i>
  <i type="int" name="I_CONSTRAINED_M">     0</i>
  <separator name="electronic exchange-correlation" >
   <i type="string" name="GGA">--</i>
   <i type="int" name="VOSKOWN">     0</i>
   <i type="logical" name="LHFCALC"> F  </i>
   <i type="string" name="PRECFOCK"></i>
   <i type="logical" name="LSYMGRAD"> F  </i>
   <i type="logical" name="LHFONE"> F  </i>
   <i type="logical" name="LRHFCALC"> F  </i>
   <i type="logical" name="LTHOMAS"> F  </i>
   <i type="logical" name="LMODELHF"> F  </i>
   <i name="ENCUT4O">     -1.00000000</i>
   <i type="int" name="EXXOEP">     0</i>
   <i type="int" name="FOURORBIT">     0</i>
   <i name="AEXX">      0.00000000</i>
   <i name="HFALPHA">      0.00000000</i>
   <i name="MCALPHA">      0.00000000</i>
   <i name="ALDAX">      1.00000000</i>
   <i name="AGGAX">      1.00000000</i>
   <i name="ALDAC">      1.00000000</i>
   <i name="AGGAC">      1.00000000</i>
   <i type="int" name="NKREDX">     1</i>
   <i type="int" name="NKREDY">     1</i>
   <i type="int" name="NKREDZ">     1</i>
   <i type="logical" name="SHIFTRED"> F  </i>
   <i type="logical" name="ODDONLY"> F  </i>
   <i type="logical" name="EVENONLY"> F  </i>
   <i type="int" name="LMAXFOCK">     0</i>
   <i type="int" name="NMAXFOCKAE">     0</i>
   <i type="logical" name="LFOCKAEDFT"> F  </i>
   <i name="HFSCREEN">      0.00000000</i>
   <i name="HFSCREENC">      0.00000000</i>
   <i type="int" name="NBANDSGWLOW">     0</i>
  </separator>
  <separator name="vdW DFT" >
   <i type="logical" name="LUSE_VDW"> F  </i>
   <i name="Zab_VDW">     -0.84910000</i>
   <i name="PARAM1">      0.12340000</i>
   <i name="PARAM2">      1.00000000</i>
   <i name="PARAM3">      0.00000000</i>
  </separator>
  <separator name="model GW" >
   <i type="int" name="MODEL_GW">     0</i>
   <i name="MODEL_EPS0">     47.43904025</i>
   <i name="MODEL_ALPHA">      1.00000000</i>
  </separator>
  <separator name="linear response parameters" >
   <i type="logical" name="LEPSILON"> F  </i>
   <i type="logical" name="LRPA"> F  </i>
   <i type="logical" name="LNABLA"> F  </i>
   <i type="logical" name="LVEL"> F  </i>
   <i type="int" name="KINTER">     0</i>
   <i name="CSHIFT">      0.10000000</i>
   <i name="OMEGAMAX">     -1.00000000</i>
   <i name="DEG_THRESHOLD">      0.00200000</i>
  </separator>
  <separator name="orbital magnetization" >
   <i type="logical" name="NUCIND"> F  </i>
   <v name="MAGPOS">      0.00000000      0.00000000      0.00000000</v>
   <i type="logical" name="LNICSALL"> T  </i>
   <i type="logical" name="ORBITALMAG"> F  </i>
   <i type="logical" name="LMAGBLOCH"> F  </i>
   <i type="logical" name="LCHIMAG"> F  </i>
   <i type="logical" name="LGAUGE"> T  </i>
   <i type="int" name="MAGATOM">     0</i>
   <v name="MAGDIPOL">      0.00000000      0.00000000      0.00000000</v>
   <v name="AVECCONST">      0.00000000      0.00000000      0.00000000</v>
  </separator>
  <separator name="response functions" >
   <i type="logical" name="LADDER"> F  </i>
   <i type="logical" name="LFXC"> F  </i>
   <i type="logical" name="LHARTREE"> T  </i>
   <i type="int" name="IBSE">     0</i>
   <v type="int" name="KPOINT">    -1     0     0     0</v>
   <i type="logical" name="LTCTE"> F  </i>
   <i type="logical" name="LTETE"> F  </i>
   <i type="logical" name="LTRIPLET"> F  </i>
   <i type="logical" name="LFXCEPS"> F  </i>
   <i type="logical" name="LFXHEG"> F  </i>
   <i type="int" name="NATURALO">     0</i>
   <i type="logical" name="L2ORDER"> F  </i>
   <i type="logical" name="LUSEW"> F  </i>
   <i name="ENCUTGW">     -2.00000000</i>
   <i name="ENCUTGWSOFT">     -2.00000000</i>
   <i name="ENCUTLF">     -1.00000000</i>
   <i type="int" name="LMAXMP2">    -1</i>
   <i name="SCISSOR">      0.00000000</i>
   <i type="int" name="NOMEGA">     0</i>
   <i type="int" name="NOMEGAR">     0</i>
   <i type="int" name="NBANDSGW">    -1</i>
   <i type="int" name="NBANDSO">    -1</i>
   <i type="int" name="NBANDSV">    -1</i>
   <i type="int" name="NELM">   250</i>
   <i type="int" name="NELMHF">     1</i>
   <i type="int" name="DIM">     3</i>
   <i type="int" name="ANTIRES">     0</i>
   <i name="OMEGAMAX">    -30.00000000</i>
   <i name="OMEGAMIN">    -30.00000000</i>
   <i name="OMEGATL">   -200.00000000</i>
   <i type="int" name="OMEGAGRID">     0</i>
   <i name="CSHIFT">     -0.10000000</i>
   <i type="logical" name="SELFENERGY"> F  </i>
   <i type="logical" name="LSPECTRAL"> F  </i>
   <i type="logical" name="LSPECTRALGW"> F  </i>
   <i type="logical" name="LSINGLES"> F  </i>
   <i type="logical" name="LFERMIGW"> F  </i>
   <i type="logical" name="ODDONLYGW"> F  </i>
   <i type="logical" name="EVENONLYGW"> F  </i>
   <i type="int" name="NKREDLFX">     1</i>
   <i type="int" name="NKREDLFY">     1</i>
   <i type="int" name="NKREDLFZ">     1</i>
   <i type="int" name="MAXMEM">  1800</i>
   <i type="int" name="TELESCOPE">     0</i>
   <i type="int" name="TAUPAR">     1</i>
   <i type="int" name="OMEGAPAR">    -1</i>
   <i name="LAMBDA">      1.00000000</i>
  </separator>
  <separator name="External order field" >
   <i name="OFIELD_KAPPA">      0.00000000</i>
   <v name="OFIELD_K">      0.00000000      0.00000000      0.00000000</v>
   <i name="OFIELD_Q6_NEAR">      0.00000000</i>
   <i name="OFIELD_Q6_FAR">      0.00000000</i>
   <i name="OFIELD_A">      0.00000000</i>
  </separator>
 </parameters>
 <atominfo>
  <atoms>       6 </atoms>
  <types>       2 </types>
  <array name="atoms" >
   <dimension dim="1">ion</dimension>
   <field type="string">element</field>
   <field type="int">atomtype</field>
   <set>
    <rc><c>Ge</c><c>   1</c></rc>
    <rc><c>Ge</c><c>   1</c></rc>
    <rc><c>Se</c><c>   2</c></rc>
    <rc><c>Se</c><c>   2</c></rc>
    <rc><c>Se</c><c>   2</c></rc>
    <rc><c>Se</c><c>   2</c></rc>
   </set>
  </array>
  <array name="atomtypes" >
   <dimension dim="1">type</dimension>
   <field type="int">atomspertype</field>
   <field type="string">element</field>
   <field>mass</field>
   <field>valence</field>
   <field type="string">pseudopotential</field>
   <set>
    <rc><c>   2</c><c>Ge</c><c>     72.61000000</c><c>     14.00000000</c><c>  PAW_PBE Ge_d 03Jul2007                </c></rc>
    <rc><c>   4</c><c>Se</c><c>     78.96000000</c><c>      6.00000000</c><c>  PAW_PBE Se 06Sep2000                  </c></rc>
   </set>
  </array>
 </atominfo>
 <structure name="initialpos" >
  <crystal>
   <varray name="basis" >
    <v>       4.80695400       0.00000000       0.00000000 </v>
    <v>       0.00000000       5.45864100       0.00000000 </v>
    <v>       0.00000000       0.00000000      18.07929100 </v>
   </varray>
   <i name="volume">    474.39040255 </i>
   <varray name="rec_basis" >
    <v>       0.20803195       0.00000000       0.00000000 </v>
    <v>       0.00000000       0.18319578       0.00000000 </v>
    <v>       0.00000000       0.00000000       0.05531190 </v>
   </varray>
  </crystal>
  <varray name="positions" >
   <v>       0.50000000       0.50000000       0.50000000 </v>
   <v>       0.00000000       0.00000000       0.50000000 </v>
   <v>       0.25000000       0.25000000       0.41502600 </v>
   <v>       0.75000000       0.75000000       0.41502600 </v>
   <v>       0.75000000       0.25000000       0.58497400 </v>
   <v>       0.25000000       0.75000000       0.58497400 </v>
  </varray>
 </structure>
 <calculation>
  <scstep>
   <time name="dav">    1.59    1.59</time>
   <time name="total">    1.63    1.63</time>
   <energy>
    <i name="alphaZ">     48.42222211 </i>
    <i name="ewald">   5283.19082634 </i>
    <i name="hartreedc"> -10073.92728642 </i>
    <i name="XCdc">    142.91714200 </i>
    <i name="pawpsdc">   4514.43351212 </i>
    <i name="pawaedc">  -5329.26418529 </i>
    <i name="eentropy">     -0.00052224 </i>
    <i name="bandstr">   -358.97611509 </i>
    <i name="atom">   6220.98622430 </i>
    <i name="e_fr_energy">    447.78181784 </i>
    <i name="e_wo_entrp">    447.78234007 </i>
    <i name="e_0_energy">    447.78207895 </i>
   </energy>
  </scstep>
  <scstep>
   <time name="dav">    1.69    1.69</time>
   <time name="total">    1.69    1.70</time>
   <energy>
    <i name="e_fr_energy">     46.08991298 </i>
    <i name="e_wo_entrp">     46.09019936 </i>
    <i name="e_0_energy">     46.09005617 </i>
   </energy>
  </scstep>
  <scstep>
   <time name="dav">    1.80    1.80</time>
   <time name="total">    1.80    1.81</time>
   <energy>
    <i name="e_fr_energy">    -21.46336066 </i>
    <i name="e_wo_entrp">    -21.46336066 </i>
    <i name="e_0_energy">    -21.46336066 </i>
   </energy>
  </scstep>
  <scstep>
   <time name="dav">    1.62    1.62</time>
   <time name="total">    1.62    1.62</time>
   <energy>
    <i name="e_fr_energy">    -24.69773584 </i>
    <i name="e_wo_entrp">    -24.69773584 </i>
    <i name="e_0_energy">    -24.69773584 </i>
   </energy>
  </scstep>
  <scstep>
   <time name="dav">    1.91    1.91</time>
   <time name="total">    2.00    2.01</time>
   <energy>
    <i name="e_fr_energy">    -24.80647557 </i>
    <i name="e_wo_entrp">    -24.80647557 </i>
    <i name="e_0_energy">    -24.80647557 </i>
   </energy>
  </scstep>
  <scstep>
   <time name="dav">    1.86    1.86</time>
   <time name="total">    1.99    1.99</time>
   <energy>
    <i name="e_fr_energy">    -24.31981706 </i>
    <i name="e_wo_entrp">    -24.31981706 </i>
    <i name="e_0_energy">    -24.31981706 </i>
   </energy>
  </scstep>
  <scstep>
   <time name="dav">    1.70    1.70</time>
   <time name="total">    1.82    1.82</time>
   <energy>
    <i name="e_fr_energy">    -24.21720446 </i>
    <i name="e_wo_entrp">    -24.21720446 </i>
    <i name="e_0_energy">    -24.21720446 </i>
   </energy>
  </scstep>
  <scstep>
   <time name="dav">    1.78    1.78</time>
   <time name="total">    1.90    1.91</time>
   <energy>
    <i name="e_fr_energy">    -24.21081326 </i>
    <i name="e_wo_entrp">    -24.21081326 </i>
    <i name="e_0_energy">    -24.21081326 </i>
   </energy>
  </scstep>
  <scstep>
   <time name="dav">    1.82    1.82</time>
   <time name="total">    1.94    1.95</time>
   <energy>
    <i name="e_fr_energy">    -24.21001283 </i>
    <i name="e_wo_entrp">    -24.21001283 </i>
    <i name="e_0_energy">    -24.21001283 </i>
   </energy>
  </scstep>
  <scstep>
   <time name="dav">    1.89    1.89</time>
   <time name="total">    2.01    2.01</time>
   <energy>
    <i name="e_fr_energy">    -24.20971348 </i>
    <i name="e_wo_entrp">    -24.20971348 </i>
    <i name="e_0_energy">    -24.20971348 </i>
   </energy>
  </scstep>
  <scstep>
   <time name="dav">    1.54    1.54</time>
   <time name="total">    1.66    1.66</time>
   <energy>
    <i name="e_fr_energy">    -24.20942205 </i>
    <i name="e_wo_entrp">    -24.20942205 </i>
    <i name="e_0_energy">    -24.20942205 </i>
   </energy>
  </scstep>
  <scstep>
   <time name="dav">    1.50    1.50</time>
   <time name="total">    1.62    1.62</time>
   <energy>
    <i name="e_fr_energy">    -24.20956089 </i>
    <i name="e_wo_entrp">    -24.20956089 </i>
    <i name="e_0_energy">    -24.20956089 </i>
   </energy>
  </scstep>
  <scstep>
   <time name="dav">    1.48    1.48</time>
   <time name="total">    1.60    1.61</time>
   <energy>
    <i name="e_fr_energy">    -24.20984258 </i>
    <i name="e_wo_entrp">    -24.20984258 </i>
    <i name="e_0_energy">    -24.20984258 </i>
   </energy>
  </scstep>
  <scstep>
   <time name="dav">    1.40    1.40</time>
   <time name="total">    1.52    1.52</time>
   <energy>
    <i name="e_fr_energy">    -24.20994698 </i>
    <i name="e_wo_entrp">    -24.20994698 </i>
    <i name="e_0_energy">    -24.20994698 </i>
   </energy>
  </scstep>
  <scstep>
   <time name="dav">    1.39    1.39</time>
   <time name="total">    1.51    1.51</time>
   <energy>
    <i name="e_fr_energy">    -24.21000428 </i>
    <i name="e_wo_entrp">    -24.21000428 </i>
    <i name="e_0_energy">    -24.21000428 </i>
   </energy>
  </scstep>
  <scstep>
   <time name="dav">    1.33    1.33</time>
   <time name="total">    1.45    1.45</time>
   <energy>
    <i name="e_fr_energy">    -24.21007972 </i>
    <i name="e_wo_entrp">    -24.21007972 </i>
    <i name="e_0_energy">    -24.21007972 </i>
   </energy>
  </scstep>
  <scstep>
   <time name="dav">    1.25    1.25</time>
   <time name="total">    1.37    1.37</time>
   <energy>
    <i name="e_fr_energy">    -24.21012975 </i>
    <i name="e_wo_entrp">    -24.21012975 </i>
    <i name="e_0_energy">    -24.21012975 </i>
   </energy>
  </scstep>
  <scstep>
   <time name="dav">    1.29    1.29</time>
   <time name="total">    1.41    1.41</time>
   <energy>
    <i name="e_fr_energy">    -24.21016079 </i>
    <i name="e_wo_entrp">    -24.21016079 </i>
    <i name="e_0_energy">    -24.21016079 </i>
   </energy>
  </scstep>
  <scstep>
   <time name="dav">    1.33    1.33</time>
   <time name="total">    1.35    1.36</time>
   <energy>
    <i name="alphaZ">     48.42222211 </i>
    <i name="ewald">   5283.19082634 </i>
    <i name="hartreedc"> -10081.51520658 </i>
    <i name="XCdc">    143.47295163 </i>
    <i name="pawpsdc">   5882.48774186 </i>
    <i name="pawaedc">  -6703.40533034 </i>
    <i name="eentropy">     -0.00000000 </i>
    <i name="bandstr">   -817.84959506 </i>
    <i name="atom">   6220.98622430 </i>
    <i name="e_fr_energy">    -24.21016574 </i>
    <i name="e_wo_entrp">    -24.21016574 </i>
    <i name="e_0_energy">    -24.21016574 </i>
   </energy>
  </scstep>
  <structure>
   <crystal>
    <varray name="basis" >
     <v>       4.80695400       0.00000000       0.00000000 </v>
     <v>       0.00000000       5.45864100       0.00000000 </v>
     <v>       0.00000000       0.00000000      18.07929100 </v>
    </varray>
    <i name="volume">    474.39040255 </i>
    <varray name="rec_basis" >
     <v>       0.20803195       0.00000000       0.00000000 </v>
     <v>       0.00000000       0.18319578       0.00000000 </v>
     <v>       0.00000000       0.00000000       0.05531190 </v>
    </varray>
   </crystal>
   <varray name="positions" >
    <v>       0.50000000       0.50000000       0.50000000 </v>
    <v>       0.00000000       0.00000000       0.50000000 </v>
    <v>       0.25000000       0.25000000       0.41502600 </v>
    <v>       0.75000000       0.75000000       0.41502600 </v>
    <v>       0.75000000       0.25000000       0.58497400 </v>
    <v>       0.25000000       0.75000000       0.58497400 </v>
   </varray>
  </structure>
  <varray name="forces" >
   <v>      -0.00000000       0.00000000      -0.00000000 </v>
   <v>      -0.00000000       0.00000000      -0.00000000 </v>
   <v>      -0.00000000       0.00000000      -0.22399648 </v>
   <v>      -0.00000000      -0.00000000      -0.22399648 </v>
   <v>      -0.00000000       0.00000000       0.22399648 </v>
   <v>       0.00000000      -0.00000000       0.22399648 </v>
  </varray>
  <varray name="stress" >
   <v>       7.74545327       0.00000000       0.00000000 </v>
   <v>       0.00000000       9.87246876       0.00000000 </v>
   <v>       0.00000000       0.00000000       4.61010411 </v>
  </varray>
  <energy>
   <i name="e_fr_energy">    -24.21016574 </i>
   <i name="e_wo_entrp">    -24.21016574 </i>
   <i name="e_0_energy">     -0.00000000 </i>
  </energy>
  <time name="totalsc">   33.04   33.09</time>
 </calculation>
 <calculation>
  <scstep>
   <time name="dav">    1.42    1.42</time>
   <time name="total">    1.54    1.54</time>
   <energy>
    <i name="alphaZ">     48.42222211 </i>
    <i name="ewald">   5267.69992347 </i>
    <i name="hartreedc"> -10066.54039252 </i>
    <i name="XCdc">    143.41068279 </i>
    <i name="pawpsdc">   5882.46992730 </i>
    <i name="pawaedc">  -6703.38775256 </i>
    <i name="eentropy">     -0.00000000 </i>
    <i name="bandstr">   -817.27502555 </i>
    <i name="atom">   6220.98622430 </i>
    <i name="e_fr_energy">    -24.21419065 </i>
    <i name="e_wo_entrp">    -24.21419065 </i>
    <i name="e_0_energy">    -24.21419065 </i>
   </energy>
  </scstep>
  <scstep>
   <time name="dav">    1.62    1.62</time>
   <time name="total">    1.74    1.74</time>
   <energy>
    <i name="e_fr_energy">    -24.21494422 </i>
    <i name="e_wo_entrp">    -24.21494422 </i>
    <i name="e_0_energy">    -24.21494422 </i>
   </energy>
  </scstep>
  <scstep>
   <time name="dav">    1.50    1.50</time>
   <time name="total">    1.62    1.62</time>
   <energy>
    <i name="e_fr_energy">    -24.21491758 </i>
    <i name="e_wo_entrp">    -24.21491758 </i>
    <i name="e_0_energy">    -24.21491758 </i>
   </energy>
  </scstep>
  <scstep>
   <time name="dav">    1.53    1.53</time>
   <time name="total">    1.65    1.65</time>
   <energy>
    <i name="e_fr_energy">    -24.21490929 </i>
    <i name="e_wo_entrp">    -24.21490929 </i>
    <i name="e_0_energy">    -24.21490929 </i>
   </energy>
  </scstep>
  <scstep>
   <time name="dav">    1.26    1.26</time>
   <time name="total">    1.38    1.38</time>
   <energy>
    <i name="e_fr_energy">    -24.21490625 </i>
    <i name="e_wo_entrp">    -24.21490625 </i>
    <i name="e_0_energy">    -24.21490625 </i>
   </energy>
  </scstep>
  <scstep>
   <time name="dav">    1.14    1.14</time>
   <time name="total">    1.17    1.17</time>
   <energy>
    <i name="alphaZ">     48.42222211 </i>
    <i name="ewald">   5267.69992347 </i>
    <i name="hartreedc"> -10066.54877022 </i>
    <i name="XCdc">    143.41864147 </i>
    <i name="pawpsdc">   5865.48335840 </i>
    <i name="pawaedc">  -6686.28805716 </i>
    <i name="eentropy">     -0.00000000 </i>
    <i name="bandstr">   -817.38844850 </i>
    <i name="atom">   6220.98622430 </i>
    <i name="e_fr_energy">    -24.21490612 </i>
    <i name="e_wo_entrp">    -24.21490612 </i>
    <i name="e_0_energy">    -24.21490612 </i>
   </energy>
  </scstep>
  <structure>
   <crystal>
    <varray name="basis" >
     <v>       4.80695400       0.00000000       0.00000000 </v>
     <v>       0.00000000       5.45864100       0.00000000 </v>
     <v>       0.00000000       0.00000000      18.07929100 </v>
    </varray>
    <i name="volume">    474.39040255 </i>
    <varray name="rec_basis" >
     <v>       0.20803195       0.00000000       0.00000000 </v>
     <v>       0.00000000       0.18319578       0.00000000 </v>
     <v>       0.00000000       0.00000000       0.05531190 </v>
    </varray>
   </crystal>
   <varray name="positions" >
    <v>       0.50000000       0.50000000       0.50000000 </v>
    <v>      -0.00000000       0.00000000       0.50000000 </v>
    <v>       0.25000000       0.25000000       0.41466737 </v>
    <v>       0.75000000       0.75000000       0.41466737 </v>
    <v>       0.75000000       0.25000000       0.58533263 </v>
    <v>       0.25000000       0.75000000       0.58533263 </v>
   </varray>
  </structure>
  <varray name="forces" >
   <v>       0.00000000      -0.00000000      -0.00000000 </v>
   <v>       0.00000000      -0.00000000      -0.00000000 </v>
   <v>      -0.00000000       0.00000000      -0.14255908 </v>
   <v>      -0.00000000       0.00000000      -0.14255908 </v>
   <v>       0.00000000       0.00000000       0.14255908 </v>
   <v>       0.00000000       0.00000000       0.14255908 </v>
  </varray>
  <varray name="stress" >
   <v>       7.30938099       0.00000000       0.00000000 </v>
   <v>       0.00000000       9.36657180       0.00000000 </v>
   <v>       0.00000000       0.00000000       2.99603976 </v>
  </varray>
  <energy>
   <i name="e_fr_energy">    -24.21490612 </i>
   <i name="e_wo_entrp">    -24.21490612 </i>
   <i name="e_0_energy">     -0.00000000 </i>
  </energy>
  <time name="totalsc">   10.24   10.25</time>
 </calculation>
 <calculation>
  <scstep>
   <time name="dav">    1.42    1.42</time>
   <time name="total">    1.54    1.54</time>
   <energy>
    <i name="alphaZ">     48.42222211 </i>
    <i name="ewald">   5240.58841100 </i>
    <i name="hartreedc"> -10040.34850938 </i>
    <i name="XCdc">    143.31020679 </i>
    <i name="pawpsdc">   5865.46760897 </i>
    <i name="pawaedc">  -6686.27320907 </i>
    <i name="eentropy">     -0.00000000 </i>
    <i name="bandstr">   -816.36890548 </i>
    <i name="atom">   6220.98622430 </i>
    <i name="e_fr_energy">    -24.21595076 </i>
    <i name="e_wo_entrp">    -24.21595076 </i>
    <i name="e_0_energy">    -24.21595076 </i>
   </energy>
  </scstep>
  <scstep>
   <time name="dav">    1.63    1.63</time>
   <time name="total">    1.75    1.75</time>
   <energy>
    <i name="e_fr_energy">    -24.21827030 </i>
    <i name="e_wo_entrp">    -24.21827030 </i>
    <i name="e_0_energy">    -24.21827030 </i>
   </energy>
  </scstep>
  <scstep>
   <time name="dav">    1.58    1.58</time>
   <time name="total">    1.70    1.70</time>
   <energy>
    <i name="e_fr_energy">    -24.21819387 </i>
    <i name="e_wo_entrp">    -24.21819387 </i>
    <i name="e_0_energy">    -24.21819387 </i>
   </energy>
  </scstep>
  <scstep>
   <time name="dav">    1.52    1.52</time>
   <time name="total">    1.64    1.64</time>
   <energy>
    <i name="e_fr_energy">    -24.21817387 </i>
    <i name="e_wo_entrp">    -24.21817387 </i>
    <i name="e_0_energy">    -24.21817387 </i>
   </energy>
  </scstep>
  <scstep>
   <time name="dav">    1.33    1.33</time>
   <time name="total">    1.45    1.46</time>
   <energy>
    <i name="e_fr_energy">    -24.21816857 </i>
    <i name="e_wo_entrp">    -24.21816857 </i>
    <i name="e_0_energy">    -24.21816857 </i>
   </energy>
  </scstep>
  <scstep>
   <time name="dav">    1.17    1.17</time>
   <time name="total">    1.20    1.20</time>
   <energy>
    <i name="alphaZ">     48.42222211 </i>
    <i name="ewald">   5240.58841100 </i>
    <i name="hartreedc"> -10040.38107287 </i>
    <i name="XCdc">    143.32432741 </i>
    <i name="pawpsdc">   5836.03545124 </i>
    <i name="pawaedc">  -6656.64653803 </i>
    <i name="eentropy">     -0.00000000 </i>
    <i name="bandstr">   -816.54719369 </i>
    <i name="atom">   6220.98622430 </i>
    <i name="e_fr_energy">    -24.21816853 </i>
    <i name="e_wo_entrp">    -24.21816853 </i>
    <i name="e_0_energy">    -24.21816853 </i>
   </energy>
  </scstep>
  <structure>
   <crystal>
    <varray name="basis" >
     <v>       4.80695400       0.00000000       0.00000000 </v>
     <v>       0.00000000       5.45864100       0.00000000 </v>
     <v>       0.00000000       0.00000000      18.07929100 </v>
    </varray>
    <i name="volume">    474.39040255 </i>
    <varray name="rec_basis" >
     <v>       0.20803195       0.00000000       0.00000000 </v>
     <v>       0.00000000       0.18319578       0.00000000 </v>
     <v>       0.00000000       0.00000000       0.05531190 </v>
    </varray>
   </crystal>
   <varray name="positions" >
    <v>       0.50000000       0.50000000       0.50000000 </v>
    <v>      -0.00000000       0.00000000       0.50000000 </v>
    <v>       0.25000000       0.25000000       0.41403959 </v>
    <v>       0.75000000       0.75000000       0.41403959 </v>
    <v>       0.75000000       0.25000000       0.58596041 </v>
    <v>       0.25000000       0.75000000       0.58596041 </v>
   </varray>
  </structure>
  <varray name="forces" >
   <v>      -0.00000000      -0.00000000      -0.00000000 </v>
   <v>       0.00000000      -0.00000000      -0.00000000 </v>
   <v>       0.00000000      -0.00000000      -0.00248887 </v>
   <v>       0.00000000       0.00000000      -0.00248887 </v>
   <v>       0.00000000      -0.00000000       0.00248887 </v>
   <v>      -0.00000000       0.00000000       0.00248887 </v>
  </varray>
  <varray name="stress" >
   <v>       6.55170837       0.00000000       0.00000000 </v>
   <v>       0.00000000       8.49836806       0.00000000 </v>
   <v>       0.00000000       0.00000000       0.14109376 </v>
  </varray>
  <energy>
   <i name="e_fr_energy">    -24.21816853 </i>
   <i name="e_wo_entrp">    -24.21816853 </i>
   <i name="e_0_energy">     -0.00000000 </i>
  </energy>
  <time name="totalsc">   10.36   10.37</time>
  <eigenvalues>
   <array>
    <dimension dim="1">band</dimension>
    <dimension dim="2">kpoint</dimension>
    <dimension dim="3">spin</dimension>
    <field>eigene</field>
    <field>occ</field>
    <set>
     <set comment="spin 1">
      <set comment="kpoint 1">
       <r>  -27.6328    1.0000 </r>
       <r>  -27.6320    1.0000 </r>
       <r>  -27.6271    1.0000 </r>
       <r>  -27.6181    1.0000 </r>
       <r>  -27.6160    1.0000 </r>
       <r>  -27.6016    1.0000 </r>
       <r>  -27.5999    1.0000 </r>
       <r>  -27.5970    1.0000 </r>
       <r>  -27.5879    1.0000 </r>
       <r>  -27.5823    1.0000 </r>
       <r>  -16.9225    1.0000 </r>
       <r>  -15.3754    1.0000 </r>
       <r>  -14.8278    1.0000 </r>
       <r>  -14.6103    1.0000 </r>
       <r>  -11.6510    1.0000 </r>
       <r>   -9.1714    1.0000 </r>
       <r>   -7.4329    1.0000 </r>
       <r>   -5.8321    1.0000 </r>
       <r>   -5.4166    1.0000 </r>
       <r>   -5.1665    1.0000 </r>
       <r>   -5.0860    1.0000 </r>
       <r>   -4.9440    1.0000 </r>
       <r>   -4.6572    1.0000 </r>
       <r>   -4.1282    1.0000 </r>
       <r>   -2.6269    1.0000 </r>
       <r>   -2.5531    1.0000 </r>
       <r>   -1.4898    0.0000 </r>
       <r>   -1.3012    0.0000 </r>
       <r>   -0.5775    0.0000 </r>
       <r>    0.1951    0.0000 </r>
       <r>    0.7337    0.0000 </r>
       <r>    2.0546    0.0000 </r>
      </set>
      <set comment="kpoint 2">
       <r>  -27.6327    1.0000 </r>
       <r>  -27.6318    1.0000 </r>
       <r>  -27.6270    1.0000 </r>
       <r>  -27.6182    1.0000 </r>
       <r>  -27.6161    1.0000 </r>
       <r>  -27.6016    1.0000 </r>
       <r>  -27.6002    1.0000 </r>
       <r>  -27.5970    1.0000 </r>
       <r>  -27.5879    1.0000 </r>
       <r>  -27.5823    1.0000 </r>
       <r>  -16.9046    1.0000 </r>
       <r>  -15.3677    1.0000 </r>
       <r>  -14.8313    1.0000 </r>
       <r>  -14.6531    1.0000 </r>
       <r>  -11.6062    1.0000 </r>
       <r>   -9.1826    1.0000 </r>
       <r>   -7.4304    1.0000 </r>
       <r>   -5.8277    1.0000 </r>
       <r>   -5.5225    1.0000 </r>
       <r>   -5.2578    1.0000 </r>
       <r>   -5.0158    1.0000 </r>
       <r>   -4.9727    1.0000 </r>
       <r>   -4.6481    1.0000 </r>
       <r>   -4.1121    1.0000 </r>
       <r>   -2.6946    1.0000 </r>
       <r>   -2.5902    1.0000 </r>
       <r>   -1.3832    0.0000 </r>
       <r>   -1.2966    0.0000 </r>
       <r>   -0.4551    0.0000 </r>
       <r>    0.2499    0.0000 </r>
       <r>    0.7847    0.0000 </r>
       <r>    2.0898    0.0000 </r>
      </set>
      <set comment="kpoint 3">
       <r>  -27.6322    1.0000 </r>
       <r>  -27.6311    1.0000 </r>
       <r>  -27.6269    1.0000 </r>
       <r>  -27.6187    1.0000 </r>
       <r>  -27.6162    1.0000 </r>
       <r>  -27.6013    1.0000 </r>
       <r>  -27.6011    1.0000 </r>
       <r>  -27.5970    1.0000 </r>
       <r>  -27.5878    1.0000 </r>
       <r>  -27.5825    1.0000 </r>
       <r>  -16.8513    1.0000 </r>
       <r>  -15.3449    1.0000 </r>
       <r>  -14.8420    1.0000 </r>
       <r>  -14.7733    1.0000 </r>
       <r>  -11.4792    1.0000 </r>
       <r>   -9.2184    1.0000 </r>
       <r>   -7.4219    1.0000 </r>
       <r>   -5.8107    1.0000 </r>
       <r>   -5.6919    1.0000 </r>
       <r>   -5.4853    1.0000 </r>
       <r>   -5.2014    1.0000 </r>
       <r>   -4.7856    1.0000 </r>
       <r>   -4.6463    1.0000 </r>
       <r>   -4.0658    1.0000 </r>
       <r>   -2.8688    1.0000 </r>
       <r>   -2.6919    1.0000 </r>
       <r>   -1.2694    0.0000 </r>
       <r>   -1.1115    0.0000 </r>
       <r>   -0.1132    0.0000 </r>
       <r>    0.4029    0.0000 </r>
       <r>    0.9247    0.0000 </r>
       <r>    2.1601    0.0000 </r>
      </set>
      <set comment="kpoint 4">
       <r>  -27.6314    1.0000 </r>
       <r>  -27.6299    1.0000 </r>
       <r>  -27.6266    1.0000 </r>
       <r>  -27.6195    1.0000 </r>
       <r>  -27.6163    1.0000 </r>
       <r>  -27.6026    1.0000 </r>
       <r>  -27.6009    1.0000 </r>
       <r>  -27.5970    1.0000 </r>
       <r>  -27.5876    1.0000 </r>
       <r>  -27.5829    1.0000 </r>
       <r>  -16.7634    1.0000 </r>
       <r>  -15.3085    1.0000 </r>
       <r>  -14.9520    1.0000 </r>
       <r>  -14.8606    1.0000 </r>
       <r>  -11.2876    1.0000 </r>
       <r>   -9.2848    1.0000 </r>
       <r>   -7.4038    1.0000 </r>
       <r>   -5.8448    1.0000 </r>
       <r>   -5.7803    1.0000 </r>
       <r>   -5.7724    1.0000 </r>
       <r>   -5.4390    1.0000 </r>
       <r>   -4.6766    1.0000 </r>
       <r>   -4.6139    1.0000 </r>
       <r>   -3.9943    1.0000 </r>
       <r>   -3.1022    1.0000 </r>
       <r>   -2.8358    1.0000 </r>
       <r>   -1.1922    0.0000 </r>
       <r>   -0.7631    0.0000 </r>
       <r>    0.3937    0.0000 </r>
       <r>    0.6273    0.0000 </r>
       <r>    1.1151    0.0000 </r>
       <r>    1.9867    0.0000 </r>
      </set>
      <set comment="kpoint 5">
       <r>  -27.6304    1.0000 </r>
       <r>  -27.6285    1.0000 </r>
       <r>  -27.6262    1.0000 </r>
       <r>  -27.6205    1.0000 </r>
       <r>  -27.6164    1.0000 </r>
       <r>  -27.6046    1.0000 </r>
       <r>  -27.6005    1.0000 </r>
       <r>  -27.5971    1.0000 </r>
       <r>  -27.5874    1.0000 </r>
       <r>  -27.5833    1.0000 </r>
       <r>  -16.6424    1.0000 </r>
       <r>  -15.2607    1.0000 </r>
       <r>  -15.1682    1.0000 </r>
       <r>  -14.8879    1.0000 </r>
       <r>  -11.0511    1.0000 </r>
       <r>   -9.3897    1.0000 </r>
       <r>   -7.3696    1.0000 </r>
       <r>   -6.0945    1.0000 </r>
       <r>   -5.9665    1.0000 </r>
       <r>   -5.7045    1.0000 </r>
       <r>   -5.6734    1.0000 </r>
       <r>   -4.7456    1.0000 </r>
       <r>   -4.4769    1.0000 </r>
       <r>   -3.9037    1.0000 </r>
       <r>   -3.3572    1.0000 </r>
       <r>   -2.9972    1.0000 </r>
       <r>   -1.0472    0.0000 </r>
       <r>   -0.4213    0.0000 </r>
       <r>    0.8907    0.0000 </r>
       <r>    1.0126    0.0000 </r>
       <r>    1.2949    0.0000 </r>
       <r>    1.8088    0.0000 </r>
      </set>
      <set comment="kpoint 6">
       <r>  -27.6292    1.0000 </r>
       <r>  -27.6271    1.0000 </r>
       <r>  -27.6259    1.0000 </r>
       <r>  -27.6218    1.0000 </r>
       <r>  -27.6161    1.0000 </r>
       <r>  -27.6068    1.0000 </r>
       <r>  -27.5999    1.0000 </r>
       <r>  -27.5973    1.0000 </r>
       <r>  -27.5870    1.0000 </r>
       <r>  -27.5839    1.0000 </r>
       <r>  -16.4904    1.0000 </r>
       <r>  -15.4041    1.0000 </r>
       <r>  -15.2047    1.0000 </r>
       <r>  -14.9244    1.0000 </r>
       <r>  -10.7866    1.0000 </r>
       <r>   -9.5392    1.0000 </r>
       <r>   -7.3106    1.0000 </r>
       <r>   -6.3971    1.0000 </r>
       <r>   -6.0537    1.0000 </r>
       <r>   -5.8688    1.0000 </r>
       <r>   -5.6035    1.0000 </r>
       <r>   -4.8531    1.0000 </r>
       <r>   -4.3690    1.0000 </r>
       <r>   -3.7995    1.0000 </r>
       <r>   -3.6054    1.0000 </r>
       <r>   -3.1569    1.0000 </r>
       <r>   -0.8384    0.0000 </r>
       <r>   -0.1663    0.0000 </r>
       <r>    1.1558    0.0000 </r>
       <r>    1.4085    0.0000 </r>
       <r>    1.6543    0.0000 </r>
       <r>    1.7023    0.0000 </r>
      </set>
      <set comment="kpoint 7">
       <r>  -27.6278    1.0000 </r>
       <r>  -27.6260    1.0000 </r>
       <r>  -27.6255    1.0000 </r>
       <r>  -27.6232    1.0000 </r>
       <r>  -27.6153    1.0000 </r>
       <r>  -27.6093    1.0000 </r>
       <r>  -27.5993    1.0000 </r>
       <r>  -27.5977    1.0000 </r>
       <r>  -27.5864    1.0000 </r>
       <r>  -27.5845    1.0000 </r>
       <r>  -16.3103    1.0000 </r>
       <r>  -15.6457    1.0000 </r>
       <r>  -15.1440    1.0000 </r>
       <r>  -14.9698    1.0000 </r>
       <r>  -10.5090    1.0000 </r>
       <r>   -9.7344    1.0000 </r>
       <r>   -7.2170    1.0000 </r>
       <r>   -6.6688    1.0000 </r>
       <r>   -6.1054    1.0000 </r>
       <r>   -6.0083    1.0000 </r>
       <r>   -5.4720    1.0000 </r>
       <r>   -4.9931    1.0000 </r>
       <r>   -4.2702    1.0000 </r>
       <r>   -3.8274    1.0000 </r>
       <r>   -3.6864    1.0000 </r>
       <r>   -3.3050    1.0000 </r>
       <r>   -0.5900    0.0000 </r>
       <r>   -0.0680    0.0000 </r>
       <r>    1.3814    0.0000 </r>
       <r>    1.4498    0.0000 </r>
       <r>    1.5444    0.0000 </r>
       <r>    1.6927    0.0000 </r>
      </set>
      <set comment="kpoint 8">
       <r>  -27.6263    1.0000 </r>
       <r>  -27.6254    1.0000 </r>
       <r>  -27.6253    1.0000 </r>
       <r>  -27.6247    1.0000 </r>
       <r>  -27.6138    1.0000 </r>
       <r>  -27.6117    1.0000 </r>
       <r>  -27.5987    1.0000 </r>
       <r>  -27.5981    1.0000 </r>
       <r>  -27.5858    1.0000 </r>
       <r>  -27.5852    1.0000 </r>
       <r>  -16.1060    1.0000 </r>
       <r>  -15.8824    1.0000 </r>
       <r>  -15.0823    1.0000 </r>
       <r>  -15.0232    1.0000 </r>
       <r>  -10.2318    1.0000 </r>
       <r>   -9.9690    1.0000 </r>
       <r>   -7.0812    1.0000 </r>
       <r>   -6.8985    1.0000 </r>
       <r>   -6.1193    1.0000 </r>
       <r>   -6.0896    1.0000 </r>
       <r>   -5.3178    1.0000 </r>
       <r>   -5.1531    1.0000 </r>
       <r>   -4.1570    1.0000 </r>
       <r>   -4.0120    1.0000 </r>
       <r>   -3.5667    1.0000 </r>
       <r>   -3.4405    1.0000 </r>
       <r>   -0.3406    0.0000 </r>
       <r>   -0.1437    0.0000 </r>
       <r>    1.4595    0.0000 </r>
       <r>    1.4821    0.0000 </r>
       <r>    1.5360    0.0000 </r>
       <r>    1.6225    0.0000 </r>
      </set>
      <set comment="kpoint 9">
       <r>  -27.6327    1.0000 </r>
       <r>  -27.6317    1.0000 </r>
       <r>  -27.6269    1.0000 </r>
       <r>  -27.6181    1.0000 </r>
       <r>  -27.6162    1.0000 </r>
       <r>  -27.6015    1.0000 </r>
       <r>  -27.6003    1.0000 </r>
       <r>  -27.5970    1.0000 </r>
       <r>  -27.5879    1.0000 </r>
       <r>  -27.5824    1.0000 </r>
       <r>  -16.9024    1.0000 </r>
       <r>  -15.3649    1.0000 </r>
       <r>  -14.8837    1.0000 </r>
       <r>  -14.6220    1.0000 </r>
       <r>  -11.5836    1.0000 </r>
       <r>   -9.1841    1.0000 </r>
       <r>   -7.4171    1.0000 </r>
       <r>   -5.8581    1.0000 </r>
       <r>   -5.4098    1.0000 </r>
       <r>   -5.2370    1.0000 </r>
       <r>   -5.0491    1.0000 </r>
       <r>   -5.0433    1.0000 </r>
       <r>   -4.6454    1.0000 </r>
       <r>   -4.0942    1.0000 </r>
       <r>   -2.6617    1.0000 </r>
       <r>   -2.6316    1.0000 </r>
       <r>   -1.3660    0.0000 </r>
       <r>   -1.2746    0.0000 </r>
       <r>   -0.4368    0.0000 </r>
       <r>    0.2136    0.0000 </r>
       <r>    0.7725    0.0000 </r>
       <r>    2.0871    0.0000 </r>
      </set>
      <set comment="kpoint 10">
       <r>  -27.6325    1.0000 </r>
       <r>  -27.6315    1.0000 </r>
       <r>  -27.6269    1.0000 </r>
       <r>  -27.6183    1.0000 </r>
       <r>  -27.6162    1.0000 </r>
       <r>  -27.6015    1.0000 </r>
       <r>  -27.6006    1.0000 </r>
       <r>  -27.5970    1.0000 </r>
       <r>  -27.5879    1.0000 </r>
       <r>  -27.5824    1.0000 </r>
       <r>  -16.8847    1.0000 </r>
       <r>  -15.3574    1.0000 </r>
       <r>  -14.8911    1.0000 </r>
       <r>  -14.6574    1.0000 </r>
       <r>  -11.5435    1.0000 </r>
       <r>   -9.1969    1.0000 </r>
       <r>   -7.4111    1.0000 </r>
       <r>   -5.8675    1.0000 </r>
       <r>   -5.4959    1.0000 </r>
       <r>   -5.4009    1.0000 </r>
       <r>   -5.0029    1.0000 </r>
       <r>   -4.9429    1.0000 </r>
       <r>   -4.6497    1.0000 </r>
       <r>   -4.0793    1.0000 </r>
       <r>   -2.8084    1.0000 </r>
       <r>   -2.5701    1.0000 </r>
       <r>   -1.3230    0.0000 </r>
       <r>   -1.2685    0.0000 </r>
       <r>   -0.2916    0.0000 </r>
       <r>    0.2665    0.0000 </r>
       <r>    0.8219    0.0000 </r>
       <r>    2.0868    0.0000 </r>
      </set>
      <set comment="kpoint 11">
       <r>  -27.6321    1.0000 </r>
       <r>  -27.6308    1.0000 </r>
       <r>  -27.6266    1.0000 </r>
       <r>  -27.6188    1.0000 </r>
       <r>  -27.6163    1.0000 </r>
       <r>  -27.6016    1.0000 </r>
       <r>  -27.6012    1.0000 </r>
       <r>  -27.5970    1.0000 </r>
       <r>  -27.5878    1.0000 </r>
       <r>  -27.5826    1.0000 </r>
       <r>  -16.8320    1.0000 </r>
       <r>  -15.3352    1.0000 </r>
       <r>  -14.9220    1.0000 </r>
       <r>  -14.7483    1.0000 </r>
       <r>  -11.4295    1.0000 </r>
       <r>   -9.2374    1.0000 </r>
       <r>   -7.3927    1.0000 </r>
       <r>   -5.9071    1.0000 </r>
       <r>   -5.6860    1.0000 </r>
       <r>   -5.6083    1.0000 </r>
       <r>   -5.0632    1.0000 </r>
       <r>   -4.7609    1.0000 </r>
       <r>   -4.6609    1.0000 </r>
       <r>   -4.0349    1.0000 </r>
       <r>   -3.0235    1.0000 </r>
       <r>   -2.5930    1.0000 </r>
       <r>   -1.2382    0.0000 </r>
       <r>   -1.1639    0.0000 </r>
       <r>    0.0798    0.0000 </r>
       <r>    0.4136    0.0000 </r>
       <r>    0.9589    0.0000 </r>
       <r>    1.9846    0.0000 </r>
      </set>
      <set comment="kpoint 12">
       <r>  -27.6315    1.0000 </r>
       <r>  -27.6298    1.0000 </r>
       <r>  -27.6263    1.0000 </r>
       <r>  -27.6196    1.0000 </r>
       <r>  -27.6163    1.0000 </r>
       <r>  -27.6030    1.0000 </r>
       <r>  -27.6008    1.0000 </r>
       <r>  -27.5970    1.0000 </r>
       <r>  -27.5876    1.0000 </r>
       <r>  -27.5830    1.0000 </r>
       <r>  -16.7451    1.0000 </r>
       <r>  -15.2999    1.0000 </r>
       <r>  -15.0192    1.0000 </r>
       <r>  -14.8366    1.0000 </r>
       <r>  -11.2560    1.0000 </r>
       <r>   -9.3112    1.0000 </r>
       <r>   -7.3604    1.0000 </r>
       <r>   -5.9868    1.0000 </r>
       <r>   -5.9866    1.0000 </r>
       <r>   -5.6480    1.0000 </r>
       <r>   -5.2380    1.0000 </r>
       <r>   -4.6995    1.0000 </r>
       <r>   -4.5942    1.0000 </r>
       <r>   -3.9621    1.0000 </r>
       <r>   -3.2611    1.0000 </r>
       <r>   -2.6952    1.0000 </r>
       <r>   -1.1592    0.0000 </r>
       <r>   -0.8910    0.0000 </r>
       <r>    0.5796    0.0000 </r>
       <r>    0.6271    0.0000 </r>
       <r>    1.1486    0.0000 </r>
       <r>    1.8171    0.0000 </r>
      </set>
      <set comment="kpoint 13">
       <r>  -27.6306    1.0000 </r>
       <r>  -27.6285    1.0000 </r>
       <r>  -27.6259    1.0000 </r>
       <r>  -27.6206    1.0000 </r>
       <r>  -27.6163    1.0000 </r>
       <r>  -27.6050    1.0000 </r>
       <r>  -27.6004    1.0000 </r>
       <r>  -27.5970    1.0000 </r>
       <r>  -27.5873    1.0000 </r>
       <r>  -27.5834    1.0000 </r>
       <r>  -16.6256    1.0000 </r>
       <r>  -15.2536    1.0000 </r>
       <r>  -15.2004    1.0000 </r>
       <r>  -14.8864    1.0000 </r>
       <r>  -11.0396    1.0000 </r>
       <r>   -9.4252    1.0000 </r>
       <r>   -7.3115    1.0000 </r>
       <r>   -6.2660    1.0000 </r>
       <r>   -6.0710    1.0000 </r>
       <r>   -5.6239    1.0000 </r>
       <r>   -5.4652    1.0000 </r>
       <r>   -4.7804    1.0000 </r>
       <r>   -4.4635    1.0000 </r>
       <r>   -3.8649    1.0000 </r>
       <r>   -3.4934    1.0000 </r>
       <r>   -2.8448    1.0000 </r>
       <r>   -1.0167    0.0000 </r>
       <r>   -0.5737    0.0000 </r>
       <r>    0.8732    0.0000 </r>
       <r>    1.1385    0.0000 </r>
       <r>    1.3350    0.0000 </r>
       <r>    1.6696    0.0000 </r>
      </set>
      <set comment="kpoint 14">
       <r>  -27.6295    1.0000 </r>
       <r>  -27.6272    1.0000 </r>
       <r>  -27.6253    1.0000 </r>
       <r>  -27.6217    1.0000 </r>
       <r>  -27.6161    1.0000 </r>
       <r>  -27.6072    1.0000 </r>
       <r>  -27.5998    1.0000 </r>
       <r>  -27.5972    1.0000 </r>
       <r>  -27.5869    1.0000 </r>
       <r>  -27.5839    1.0000 </r>
       <r>  -16.4758    1.0000 </r>
       <r>  -15.4196    1.0000 </r>
       <r>  -15.1995    1.0000 </r>
       <r>  -14.9279    1.0000 </r>
       <r>  -10.7951    1.0000 </r>
       <r>   -9.5832    1.0000 </r>
       <r>   -7.2422    1.0000 </r>
       <r>   -6.5079    1.0000 </r>
       <r>   -6.1269    1.0000 </r>
       <r>   -5.6933    1.0000 </r>
       <r>   -5.5592    1.0000 </r>
       <r>   -4.9002    1.0000 </r>
       <r>   -4.3615    1.0000 </r>
       <r>   -3.7502    1.0000 </r>
       <r>   -3.7031    1.0000 </r>
       <r>   -3.0133    1.0000 </r>
       <r>   -0.8171    0.0000 </r>
       <r>   -0.3068    0.0000 </r>
       <r>    1.1148    0.0000 </r>
       <r>    1.4651    0.0000 </r>
       <r>    1.4999    0.0000 </r>
       <r>    1.7835    0.0000 </r>
      </set>
      <set comment="kpoint 15">
       <r>  -27.6284    1.0000 </r>
       <r>  -27.6265    1.0000 </r>
       <r>  -27.6248    1.0000 </r>
       <r>  -27.6227    1.0000 </r>
       <r>  -27.6154    1.0000 </r>
       <r>  -27.6096    1.0000 </r>
       <r>  -27.5992    1.0000 </r>
       <r>  -27.5976    1.0000 </r>
       <r>  -27.5864    1.0000 </r>
       <r>  -27.5845    1.0000 </r>
       <r>  -16.2986    1.0000 </r>
       <r>  -15.6507    1.0000 </r>
       <r>  -15.1409    1.0000 </r>
       <r>  -14.9733    1.0000 </r>
       <r>  -10.5352    1.0000 </r>
       <r>   -9.7831    1.0000 </r>
       <r>   -7.1491    1.0000 </r>
       <r>   -6.7119    1.0000 </r>
       <r>   -6.1423    1.0000 </r>
       <r>   -5.8872    1.0000 </r>
       <r>   -5.4631    1.0000 </r>
       <r>   -5.0454    1.0000 </r>
       <r>   -4.2681    1.0000 </r>
       <r>   -3.8845    1.0000 </r>
       <r>   -3.6235    1.0000 </r>
       <r>   -3.1814    1.0000 </r>
       <r>   -0.5872    0.0000 </r>
       <r>   -0.1764    0.0000 </r>
       <r>    1.3146    0.0000 </r>
       <r>    1.5003    0.0000 </r>
       <r>    1.5289    0.0000 </r>
       <r>    1.7331    0.0000 </r>
      </set>
      <set comment="kpoint 16">
       <r>  -27.6273    1.0000 </r>
       <r>  -27.6265    1.0000 </r>
       <r>  -27.6242    1.0000 </r>
       <r>  -27.6236    1.0000 </r>
       <r>  -27.6139    1.0000 </r>
       <r>  -27.6119    1.0000 </r>
       <r>  -27.5986    1.0000 </r>
       <r>  -27.5980    1.0000 </r>
       <r>  -27.5858    1.0000 </r>
       <r>  -27.5851    1.0000 </r>
       <r>  -16.0983    1.0000 </r>
       <r>  -15.8800    1.0000 </r>
       <r>  -15.0816    1.0000 </r>
       <r>  -15.0249    1.0000 </r>
       <r>  -10.2716    1.0000 </r>
       <r>  -10.0167    1.0000 </r>
       <r>   -7.0298    1.0000 </r>
       <r>   -6.8843    1.0000 </r>
       <r>   -6.1113    1.0000 </r>
       <r>   -6.0279    1.0000 </r>
       <r>   -5.3405    1.0000 </r>
       <r>   -5.1976    1.0000 </r>
       <r>   -4.1640    1.0000 </r>
       <r>   -4.0376    1.0000 </r>
       <r>   -3.4869    1.0000 </r>
       <r>   -3.3399    1.0000 </r>
       <r>   -0.3677    0.0000 </r>
       <r>   -0.2104    0.0000 </r>
       <r>    1.4560    0.0000 </r>
       <r>    1.5200    0.0000 </r>
       <r>    1.5513    0.0000 </r>
       <r>    1.5947    0.0000 </r>
      </set>
      <set comment="kpoint 17">
       <r>  -27.6323    1.0000 </r>
       <r>  -27.6309    1.0000 </r>
       <r>  -27.6265    1.0000 </r>
       <r>  -27.6182    1.0000 </r>
       <r>  -27.6167    1.0000 </r>
       <r>  -27.6015    1.0000 </r>
       <r>  -27.6013    1.0000 </r>
       <r>  -27.5971    1.0000 </r>
       <r>  -27.5878    1.0000 </r>
       <r>  -27.5827    1.0000 </r>
       <r>  -16.8426    1.0000 </r>
       <r>  -15.3340    1.0000 </r>
       <r>  -15.0366    1.0000 </r>
       <r>  -14.6564    1.0000 </r>
       <r>  -11.3970    1.0000 </r>
       <r>   -9.2254    1.0000 </r>
       <r>   -7.3686    1.0000 </r>
       <r>   -5.9239    1.0000 </r>
       <r>   -5.4188    1.0000 </r>
       <r>   -5.3867    1.0000 </r>
       <r>   -5.2809    1.0000 </r>
       <r>   -4.9492    1.0000 </r>
       <r>   -4.6466    1.0000 </r>
       <r>   -3.9997    1.0000 </r>
       <r>   -2.8242    1.0000 </r>
       <r>   -2.7513    1.0000 </r>
       <r>   -1.1916    0.0000 </r>
       <r>   -1.0596    0.0000 </r>
       <r>   -0.0491    0.0000 </r>
       <r>    0.2676    0.0000 </r>
       <r>    0.8798    0.0000 </r>
       <r>    2.0621    0.0000 </r>
      </set>
      <set comment="kpoint 18">
       <r>  -27.6322    1.0000 </r>
       <r>  -27.6307    1.0000 </r>
       <r>  -27.6264    1.0000 </r>
       <r>  -27.6185    1.0000 </r>
       <r>  -27.6166    1.0000 </r>
       <r>  -27.6018    1.0000 </r>
       <r>  -27.6012    1.0000 </r>
       <r>  -27.5970    1.0000 </r>
       <r>  -27.5877    1.0000 </r>
       <r>  -27.5827    1.0000 </r>
       <r>  -16.8255    1.0000 </r>
       <r>  -15.3271    1.0000 </r>
       <r>  -15.0462    1.0000 </r>
       <r>  -14.6809    1.0000 </r>
       <r>  -11.3695    1.0000 </r>
       <r>   -9.2428    1.0000 </r>
       <r>   -7.3530    1.0000 </r>
       <r>   -5.9520    1.0000 </r>
       <r>   -5.6689    1.0000 </r>
       <r>   -5.4440    1.0000 </r>
       <r>   -5.0904    1.0000 </r>
       <r>   -4.8578    1.0000 </r>
       <r>   -4.6613    1.0000 </r>
       <r>   -3.9862    1.0000 </r>
       <r>   -3.0139    1.0000 </r>
       <r>   -2.6154    1.0000 </r>
       <r>   -1.1821    0.0000 </r>
       <r>   -1.1178    0.0000 </r>
       <r>    0.1213    0.0000 </r>
       <r>    0.3146    0.0000 </r>
       <r>    0.9257    0.0000 </r>
       <r>    1.9345    0.0000 </r>
      </set>
      <set comment="kpoint 19">
       <r>  -27.6319    1.0000 </r>
       <r>  -27.6302    1.0000 </r>
       <r>  -27.6260    1.0000 </r>
       <r>  -27.6191    1.0000 </r>
       <r>  -27.6165    1.0000 </r>
       <r>  -27.6028    1.0000 </r>
       <r>  -27.6009    1.0000 </r>
       <r>  -27.5970    1.0000 </r>
       <r>  -27.5876    1.0000 </r>
       <r>  -27.5829    1.0000 </r>
       <r>  -16.7745    1.0000 </r>
       <r>  -15.3068    1.0000 </r>
       <r>  -15.0806    1.0000 </r>
       <r>  -14.7453    1.0000 </r>
       <r>  -11.2899    1.0000 </r>
       <r>   -9.2968    1.0000 </r>
       <r>   -7.3073    1.0000 </r>
       <r>   -6.0362    1.0000 </r>
       <r>   -5.9815    1.0000 </r>
       <r>   -5.5133    1.0000 </r>
       <r>   -4.9661    1.0000 </r>
       <r>   -4.7018    1.0000 </r>
       <r>   -4.6911    1.0000 </r>
       <r>   -3.9418    1.0000 </r>
       <r>   -3.2560    1.0000 </r>
       <r>   -2.5289    1.0000 </r>
       <r>   -1.1630    0.0000 </r>
       <r>   -1.1451    0.0000 </r>
       <r>    0.4439    0.0000 </r>
       <r>    0.5027    0.0000 </r>
       <r>    1.0557    0.0000 </r>
       <r>    1.7608    0.0000 </r>
      </set>
      <set comment="kpoint 20">
       <r>  -27.6315    1.0000 </r>
       <r>  -27.6293    1.0000 </r>
       <r>  -27.6256    1.0000 </r>
       <r>  -27.6199    1.0000 </r>
       <r>  -27.6164    1.0000 </r>
       <r>  -27.6042    1.0000 </r>
       <r>  -27.6005    1.0000 </r>
       <r>  -27.5969    1.0000 </r>
       <r>  -27.5874    1.0000 </r>
       <r>  -27.5832    1.0000 </r>
       <r>  -16.6907    1.0000 </r>
       <r>  -15.2746    1.0000 </r>
       <r>  -15.1566    1.0000 </r>
       <r>  -14.8231    1.0000 </r>
       <r>  -11.1649    1.0000 </r>
       <r>   -9.3912    1.0000 </r>
       <r>   -7.2348    1.0000 </r>
       <r>   -6.2647    1.0000 </r>
       <r>   -6.1498    1.0000 </r>
       <r>   -5.5330    1.0000 </r>
       <r>   -4.9970    1.0000 </r>
       <r>   -4.7681    1.0000 </r>
       <r>   -4.5432    1.0000 </r>
       <r>   -3.8589    1.0000 </r>
       <r>   -3.4879    1.0000 </r>
       <r>   -2.5337    1.0000 </r>
       <r>   -1.0745    0.0000 </r>
       <r>   -1.0639    0.0000 </r>
       <r>    0.6279    0.0000 </r>
       <r>    0.9379    0.0000 </r>
       <r>    1.2430    0.0000 </r>
       <r>    1.6147    0.0000 </r>
      </set>
      <set comment="kpoint 21">
       <r>  -27.6309    1.0000 </r>
       <r>  -27.6284    1.0000 </r>
       <r>  -27.6249    1.0000 </r>
       <r>  -27.6207    1.0000 </r>
       <r>  -27.6163    1.0000 </r>
       <r>  -27.6061    1.0000 </r>
       <r>  -27.6001    1.0000 </r>
       <r>  -27.5970    1.0000 </r>
       <r>  -27.5870    1.0000 </r>
       <r>  -27.5835    1.0000 </r>
       <r>  -16.5758    1.0000 </r>
       <r>  -15.2885    1.0000 </r>
       <r>  -15.2328    1.0000 </r>
       <r>  -14.8879    1.0000 </r>
       <r>  -11.0032    1.0000 </r>
       <r>   -9.5286    1.0000 </r>
       <r>   -7.1435    1.0000 </r>
       <r>   -6.4949    1.0000 </r>
       <r>   -6.2440    1.0000 </r>
       <r>   -5.5173    1.0000 </r>
       <r>   -5.1462    1.0000 </r>
       <r>   -4.8798    1.0000 </r>
       <r>   -4.4362    1.0000 </r>
       <r>   -3.7393    1.0000 </r>
       <r>   -3.6865    1.0000 </r>
       <r>   -2.6182    1.0000 </r>
       <r>   -0.9317    0.0000 </r>
       <r>   -0.8652    0.0000 </r>
       <r>    0.8366    0.0000 </r>
       <r>    1.2429    0.0000 </r>
       <r>    1.4379    0.0000 </r>
       <r>    1.6518    0.0000 </r>
      </set>
      <set comment="kpoint 22">
       <r>  -27.6302    1.0000 </r>
       <r>  -27.6276    1.0000 </r>
       <r>  -27.6242    1.0000 </r>
       <r>  -27.6214    1.0000 </r>
       <r>  -27.6161    1.0000 </r>
       <r>  -27.6082    1.0000 </r>
       <r>  -27.5995    1.0000 </r>
       <r>  -27.5971    1.0000 </r>
       <r>  -27.5866    1.0000 </r>
       <r>  -27.5840    1.0000 </r>
       <r>  -16.4325    1.0000 </r>
       <r>  -15.4658    1.0000 </r>
       <r>  -15.1842    1.0000 </r>
       <r>  -14.9379    1.0000 </r>
       <r>  -10.8127    1.0000 </r>
       <r>   -9.7063    1.0000 </r>
       <r>   -7.0494    1.0000 </r>
       <r>   -6.6651    1.0000 </r>
       <r>   -6.2777    1.0000 </r>
       <r>   -5.4826    1.0000 </r>
       <r>   -5.3645    1.0000 </r>
       <r>   -5.0232    1.0000 </r>
       <r>   -4.3561    1.0000 </r>
       <r>   -3.8478    1.0000 </r>
       <r>   -3.5954    1.0000 </r>
       <r>   -2.7558    1.0000 </r>
       <r>   -0.7621    0.0000 </r>
       <r>   -0.6227    0.0000 </r>
       <r>    1.0457    0.0000 </r>
       <r>    1.2889    0.0000 </r>
       <r>    1.5814    0.0000 </r>
       <r>    1.9963    0.0000 </r>
      </set>
      <set comment="kpoint 23">
       <r>  -27.6293    1.0000 </r>
       <r>  -27.6274    1.0000 </r>
       <r>  -27.6235    1.0000 </r>
       <r>  -27.6219    1.0000 </r>
       <r>  -27.6156    1.0000 </r>
       <r>  -27.6104    1.0000 </r>
       <r>  -27.5989    1.0000 </r>
       <r>  -27.5974    1.0000 </r>
       <r>  -27.5862    1.0000 </r>
       <r>  -27.5845    1.0000 </r>
       <r>  -16.2643    1.0000 </r>
       <r>  -15.6666    1.0000 </r>
       <r>  -15.1322    1.0000 </r>
       <r>  -14.9831    1.0000 </r>
       <r>  -10.6005    1.0000 </r>
       <r>   -9.9150    1.0000 </r>
       <r>   -6.9718    1.0000 </r>
       <r>   -6.7814    1.0000 </r>
       <r>   -6.2228    1.0000 </r>
       <r>   -5.6152    1.0000 </r>
       <r>   -5.4344    1.0000 </r>
       <r>   -5.1639    1.0000 </r>
       <r>   -4.2805    1.0000 </r>
       <r>   -3.9810    1.0000 </r>
       <r>   -3.4378    1.0000 </r>
       <r>   -2.9213    1.0000 </r>
       <r>   -0.5873    0.0000 </r>
       <r>   -0.4456    0.0000 </r>
       <r>    1.2411    0.0000 </r>
       <r>    1.3496    0.0000 </r>
       <r>    1.6396    0.0000 </r>
       <r>    1.8749    0.0000 </r>
      </set>
      <set comment="kpoint 24">
       <r>  -27.6285    1.0000 </r>
       <r>  -27.6278    1.0000 </r>
       <r>  -27.6228    1.0000 </r>
       <r>  -27.6223    1.0000 </r>
       <r>  -27.6143    1.0000 </r>
       <r>  -27.6125    1.0000 </r>
       <r>  -27.5983    1.0000 </r>
       <r>  -27.5978    1.0000 </r>
       <r>  -27.5856    1.0000 </r>
       <r>  -27.5851    1.0000 </r>
       <r>  -16.0760    1.0000 </r>
       <r>  -15.8739    1.0000 </r>
       <r>  -15.0799    1.0000 </r>
       <r>  -15.0299    1.0000 </r>
       <r>  -10.3741    1.0000 </r>
       <r>  -10.1420    1.0000 </r>
       <r>   -6.9141    1.0000 </r>
       <r>   -6.8581    1.0000 </r>
       <r>   -6.0765    1.0000 </r>
       <r>   -5.8633    1.0000 </r>
       <r>   -5.3696    1.0000 </r>
       <r>   -5.2811    1.0000 </r>
       <r>   -4.1952    1.0000 </r>
       <r>   -4.0957    1.0000 </r>
       <r>   -3.2706    1.0000 </r>
       <r>   -3.0966    1.0000 </r>
       <r>   -0.4491    0.0000 </r>
       <r>   -0.3898    0.0000 </r>
       <r>    1.4167    0.0000 </r>
       <r>    1.4540    0.0000 </r>
       <r>    1.6201    0.0000 </r>
       <r>    1.6756    0.0000 </r>
      </set>
      <set comment="kpoint 25">
       <r>  -27.6316    1.0000 </r>
       <r>  -27.6298    1.0000 </r>
       <r>  -27.6257    1.0000 </r>
       <r>  -27.6182    1.0000 </r>
       <r>  -27.6174    1.0000 </r>
       <r>  -27.6034    1.0000 </r>
       <r>  -27.6008    1.0000 </r>
       <r>  -27.5972    1.0000 </r>
       <r>  -27.5875    1.0000 </r>
       <r>  -27.5832    1.0000 </r>
       <r>  -16.7438    1.0000 </r>
       <r>  -15.2841    1.0000 </r>
       <r>  -15.2533    1.0000 </r>
       <r>  -14.7111    1.0000 </r>
       <r>  -11.1269    1.0000 </r>
       <r>   -9.3040    1.0000 </r>
       <r>   -7.2841    1.0000 </r>
       <r>   -6.0066    1.0000 </r>
       <r>   -5.6486    1.0000 </r>
       <r>   -5.5864    1.0000 </r>
       <r>   -5.3418    1.0000 </r>
       <r>   -4.8042    1.0000 </r>
       <r>   -4.6808    1.0000 </r>
       <r>   -3.8630    1.0000 </r>
       <r>   -3.0767    1.0000 </r>
       <r>   -2.8697    1.0000 </r>
       <r>   -1.0466    0.0000 </r>
       <r>   -0.6767    0.0000 </r>
       <r>    0.3537    0.0000 </r>
       <r>    0.5184    0.0000 </r>
       <r>    1.0313    0.0000 </r>
       <r>    1.8038    0.0000 </r>
      </set>
      <set comment="kpoint 26">
       <r>  -27.6316    1.0000 </r>
       <r>  -27.6296    1.0000 </r>
       <r>  -27.6256    1.0000 </r>
       <r>  -27.6186    1.0000 </r>
       <r>  -27.6171    1.0000 </r>
       <r>  -27.6037    1.0000 </r>
       <r>  -27.6007    1.0000 </r>
       <r>  -27.5971    1.0000 </r>
       <r>  -27.5875    1.0000 </r>
       <r>  -27.5832    1.0000 </r>
       <r>  -16.7277    1.0000 </r>
       <r>  -15.2783    1.0000 </r>
       <r>  -15.2602    1.0000 </r>
       <r>  -14.7278    1.0000 </r>
       <r>  -11.1159    1.0000 </r>
       <r>   -9.3285    1.0000 </r>
       <r>   -7.2559    1.0000 </r>
       <r>   -6.0412    1.0000 </r>
       <r>   -5.9491    1.0000 </r>
       <r>   -5.3865    1.0000 </r>
       <r>   -5.2929    1.0000 </r>
       <r>   -4.7283    1.0000 </r>
       <r>   -4.7029    1.0000 </r>
       <r>   -3.8468    1.0000 </r>
       <r>   -3.2482    1.0000 </r>
       <r>   -2.7223    1.0000 </r>
       <r>   -1.0343    0.0000 </r>
       <r>   -0.7924    0.0000 </r>
       <r>    0.3908    0.0000 </r>
       <r>    0.6726    0.0000 </r>
       <r>    1.0739    0.0000 </r>
       <r>    1.6950    0.0000 </r>
      </set>
      <set comment="kpoint 27">
       <r>  -27.6315    1.0000 </r>
       <r>  -27.6293    1.0000 </r>
       <r>  -27.6251    1.0000 </r>
       <r>  -27.6194    1.0000 </r>
       <r>  -27.6168    1.0000 </r>
       <r>  -27.6046    1.0000 </r>
       <r>  -27.6005    1.0000 </r>
       <r>  -27.5970    1.0000 </r>
       <r>  -27.5873    1.0000 </r>
       <r>  -27.5833    1.0000 </r>
       <r>  -16.6798    1.0000 </r>
       <r>  -15.2838    1.0000 </r>
       <r>  -15.2612    1.0000 </r>
       <r>  -14.7736    1.0000 </r>
       <r>  -11.0822    1.0000 </r>
       <r>   -9.4023    1.0000 </r>
       <r>   -7.1734    1.0000 </r>
       <r>   -6.2465    1.0000 </r>
       <r>   -6.1415    1.0000 </r>
       <r>   -5.4450    1.0000 </r>
       <r>   -5.0312    1.0000 </r>
       <r>   -4.7695    1.0000 </r>
       <r>   -4.5879    1.0000 </r>
       <r>   -3.7905    1.0000 </r>
       <r>   -3.4828    1.0000 </r>
       <r>   -2.5580    1.0000 </r>
       <r>   -0.9933    0.0000 </r>
       <r>   -0.9916    0.0000 </r>
       <r>    0.4921    0.0000 </r>
       <r>    0.9770    0.0000 </r>
       <r>    1.1968    0.0000 </r>
       <r>    1.5597    0.0000 </r>
      </set>
      <set comment="kpoint 28">
       <r>  -27.6314    1.0000 </r>
       <r>  -27.6288    1.0000 </r>
       <r>  -27.6245    1.0000 </r>
       <r>  -27.6201    1.0000 </r>
       <r>  -27.6165    1.0000 </r>
       <r>  -27.6060    1.0000 </r>
       <r>  -27.6001    1.0000 </r>
       <r>  -27.5969    1.0000 </r>
       <r>  -27.5870    1.0000 </r>
       <r>  -27.5835    1.0000 </r>
       <r>  -16.6013    1.0000 </r>
       <r>  -15.3327    1.0000 </r>
       <r>  -15.2343    1.0000 </r>
       <r>  -14.8363    1.0000 </r>
       <r>  -11.0234    1.0000 </r>
       <r>   -9.5245    1.0000 </r>
       <r>   -7.0436    1.0000 </r>
       <r>   -6.4877    1.0000 </r>
       <r>   -6.2797    1.0000 </r>
       <r>   -5.4620    1.0000 </r>
       <r>   -4.8904    1.0000 </r>
       <r>   -4.8778    1.0000 </r>
       <r>   -4.4753    1.0000 </r>
       <r>   -3.6864    1.0000 </r>
       <r>   -3.6813    1.0000 </r>
       <r>   -2.4647    1.0000 </r>
       <r>   -1.1084    0.0000 </r>
       <r>   -0.9180    0.0000 </r>
       <r>    0.6371    0.0000 </r>
       <r>    1.1604    0.0000 </r>
       <r>    1.3789    0.0000 </r>
       <r>    1.5984    0.0000 </r>
      </set>
      <set comment="kpoint 29">
       <r>  -27.6311    1.0000 </r>
       <r>  -27.6284    1.0000 </r>
       <r>  -27.6237    1.0000 </r>
       <r>  -27.6206    1.0000 </r>
       <r>  -27.6164    1.0000 </r>
       <r>  -27.6077    1.0000 </r>
       <r>  -27.5996    1.0000 </r>
       <r>  -27.5969    1.0000 </r>
       <r>  -27.5867    1.0000 </r>
       <r>  -27.5838    1.0000 </r>
       <r>  -16.4944    1.0000 </r>
       <r>  -15.4175    1.0000 </r>
       <r>  -15.1998    1.0000 </r>
       <r>  -14.8998    1.0000 </r>
       <r>  -10.9370    1.0000 </r>
       <r>   -9.6896    1.0000 </r>
       <r>   -6.8856    1.0000 </r>
       <r>   -6.6624    1.0000 </r>
       <r>   -6.4044    1.0000 </r>
       <r>   -5.4473    1.0000 </r>
       <r>   -5.0258    1.0000 </r>
       <r>   -4.8966    1.0000 </r>
       <r>   -4.4082    1.0000 </r>
       <r>   -3.8441    1.0000 </r>
       <r>   -3.5266    1.0000 </r>
       <r>   -2.4548    1.0000 </r>
       <r>   -1.0841    0.0000 </r>
       <r>   -0.8128    0.0000 </r>
       <r>    0.8091    0.0000 </r>
       <r>    1.1383    0.0000 </r>
       <r>    1.5722    0.0000 </r>
       <r>    1.8676    0.0000 </r>
      </set>
      <set comment="kpoint 30">
       <r>  -27.6307    1.0000 </r>
       <r>  -27.6282    1.0000 </r>
       <r>  -27.6229    1.0000 </r>
       <r>  -27.6209    1.0000 </r>
       <r>  -27.6162    1.0000 </r>
       <r>  -27.6096    1.0000 </r>
       <r>  -27.5990    1.0000 </r>
       <r>  -27.5970    1.0000 </r>
       <r>  -27.5863    1.0000 </r>
       <r>  -27.5841    1.0000 </r>
       <r>  -16.3623    1.0000 </r>
       <r>  -15.5414    1.0000 </r>
       <r>  -15.1603    1.0000 </r>
       <r>  -14.9533    1.0000 </r>
       <r>  -10.8211    1.0000 </r>
       <r>   -9.8856    1.0000 </r>
       <r>   -6.7730    1.0000 </r>
       <r>   -6.7705    1.0000 </r>
       <r>   -6.4248    1.0000 </r>
       <r>   -5.4178    1.0000 </r>
       <r>   -5.2054    1.0000 </r>
       <r>   -5.0168    1.0000 </r>
       <r>   -4.3630    1.0000 </r>
       <r>   -3.9671    1.0000 </r>
       <r>   -3.3487    1.0000 </r>
       <r>   -2.5211    1.0000 </r>
       <r>   -0.9461    0.0000 </r>
       <r>   -0.7000    0.0000 </r>
       <r>    0.9986    0.0000 </r>
       <r>    1.1277    0.0000 </r>
       <r>    1.7121    0.0000 </r>
       <r>    2.1298    0.0000 </r>
      </set>
      <set comment="kpoint 31">
       <r>  -27.6302    1.0000 </r>
       <r>  -27.6284    1.0000 </r>
       <r>  -27.6221    1.0000 </r>
       <r>  -27.6209    1.0000 </r>
       <r>  -27.6158    1.0000 </r>
       <r>  -27.6116    1.0000 </r>
       <r>  -27.5985    1.0000 </r>
       <r>  -27.5972    1.0000 </r>
       <r>  -27.5859    1.0000 </r>
       <r>  -27.5845    1.0000 </r>
       <r>  -16.2094    1.0000 </r>
       <r>  -15.6960    1.0000 </r>
       <r>  -15.1188    1.0000 </r>
       <r>  -14.9974    1.0000 </r>
       <r>  -10.6754    1.0000 </r>
       <r>  -10.0964    1.0000 </r>
       <r>   -6.8297    1.0000 </r>
       <r>   -6.7815    1.0000 </r>
       <r>   -6.2535    1.0000 </r>
       <r>   -5.4337    1.0000 </r>
       <r>   -5.3813    1.0000 </r>
       <r>   -5.1583    1.0000 </r>
       <r>   -4.3142    1.0000 </r>
       <r>   -4.0725    1.0000 </r>
       <r>   -3.1636    1.0000 </r>
       <r>   -2.6441    1.0000 </r>
       <r>   -0.7734    0.0000 </r>
       <r>   -0.6140    0.0000 </r>
       <r>    1.1953    0.0000 </r>
       <r>    1.1962    0.0000 </r>
       <r>    1.7548    0.0000 </r>
       <r>    2.0029    0.0000 </r>
      </set>
      <set comment="kpoint 32">
       <r>  -27.6295    1.0000 </r>
       <r>  -27.6289    1.0000 </r>
       <r>  -27.6214    1.0000 </r>
       <r>  -27.6210    1.0000 </r>
       <r>  -27.6149    1.0000 </r>
       <r>  -27.6134    1.0000 </r>
       <r>  -27.5980    1.0000 </r>
       <r>  -27.5975    1.0000 </r>
       <r>  -27.5854    1.0000 </r>
       <r>  -27.5850    1.0000 </r>
       <r>  -16.0418    1.0000 </r>
       <r>  -15.8672    1.0000 </r>
       <r>  -15.0776    1.0000 </r>
       <r>  -15.0375    1.0000 </r>
       <r>  -10.5021    1.0000 </r>
       <r>  -10.3061    1.0000 </r>
       <r>   -6.8434    1.0000 </r>
       <r>   -6.8232    1.0000 </r>
       <r>   -5.9921    1.0000 </r>
       <r>   -5.7071    1.0000 </r>
       <r>   -5.3341    1.0000 </r>
       <r>   -5.2643    1.0000 </r>
       <r>   -4.2493    1.0000 </r>
       <r>   -4.1673    1.0000 </r>
       <r>   -2.9792    1.0000 </r>
       <r>   -2.8024    1.0000 </r>
       <r>   -0.6415    0.0000 </r>
       <r>   -0.5879    0.0000 </r>
       <r>    1.3230    0.0000 </r>
       <r>    1.3522    0.0000 </r>
       <r>    1.7266    0.0000 </r>
       <r>    1.8109    0.0000 </r>
      </set>
      <set comment="kpoint 33">
       <r>  -27.6308    1.0000 </r>
       <r>  -27.6287    1.0000 </r>
       <r>  -27.6247    1.0000 </r>
       <r>  -27.6185    1.0000 </r>
       <r>  -27.6177    1.0000 </r>
       <r>  -27.6058    1.0000 </r>
       <r>  -27.6003    1.0000 </r>
       <r>  -27.5974    1.0000 </r>
       <r>  -27.5872    1.0000 </r>
       <r>  -27.5838    1.0000 </r>
       <r>  -16.6077    1.0000 </r>
       <r>  -15.5016    1.0000 </r>
       <r>  -15.2177    1.0000 </r>
       <r>  -14.7827    1.0000 </r>
       <r>  -10.8097    1.0000 </r>
       <r>   -9.4312    1.0000 </r>
       <r>   -7.1598    1.0000 </r>
       <r>   -6.0867    1.0000 </r>
       <r>   -5.9139    1.0000 </r>
       <r>   -5.8673    1.0000 </r>
       <r>   -5.2719    1.0000 </r>
       <r>   -4.7472    1.0000 </r>
       <r>   -4.6252    1.0000 </r>
       <r>   -3.7057    1.0000 </r>
       <r>   -3.3570    1.0000 </r>
       <r>   -2.9977    1.0000 </r>
       <r>   -0.8387    0.0000 </r>
       <r>   -0.3161    0.0000 </r>
       <r>    0.4691    0.0000 </r>
       <r>    1.1908    0.0000 </r>
       <r>    1.2069    0.0000 </r>
       <r>    1.5250    0.0000 </r>
      </set>
      <set comment="kpoint 34">
       <r>  -27.6309    1.0000 </r>
       <r>  -27.6287    1.0000 </r>
       <r>  -27.6245    1.0000 </r>
       <r>  -27.6188    1.0000 </r>
       <r>  -27.6174    1.0000 </r>
       <r>  -27.6061    1.0000 </r>
       <r>  -27.6002    1.0000 </r>
       <r>  -27.5974    1.0000 </r>
       <r>  -27.5871    1.0000 </r>
       <r>  -27.5838    1.0000 </r>
       <r>  -16.5930    1.0000 </r>
       <r>  -15.5038    1.0000 </r>
       <r>  -15.2134    1.0000 </r>
       <r>  -14.7937    1.0000 </r>
       <r>  -10.8161    1.0000 </r>
       <r>   -9.4636    1.0000 </r>
       <r>   -7.1209    1.0000 </r>
       <r>   -6.1985    1.0000 </r>
       <r>   -6.1145    1.0000 </r>
       <r>   -5.5536    1.0000 </r>
       <r>   -5.3181    1.0000 </r>
       <r>   -4.7798    1.0000 </r>
       <r>   -4.5665    1.0000 </r>
       <r>   -3.6804    1.0000 </r>
       <r>   -3.4893    1.0000 </r>
       <r>   -2.8603    1.0000 </r>
       <r>   -0.8276    0.0000 </r>
       <r>   -0.4414    0.0000 </r>
       <r>    0.4938    0.0000 </r>
       <r>    1.2312    0.0000 </r>
       <r>    1.2686    0.0000 </r>
       <r>    1.4931    0.0000 </r>
      </set>
      <set comment="kpoint 35">
       <r>  -27.6310    1.0000 </r>
       <r>  -27.6286    1.0000 </r>
       <r>  -27.6240    1.0000 </r>
       <r>  -27.6194    1.0000 </r>
       <r>  -27.6170    1.0000 </r>
       <r>  -27.6069    1.0000 </r>
       <r>  -27.5999    1.0000 </r>
       <r>  -27.5972    1.0000 </r>
       <r>  -27.5869    1.0000 </r>
       <r>  -27.5839    1.0000 </r>
       <r>  -16.5496    1.0000 </r>
       <r>  -15.5124    1.0000 </r>
       <r>  -15.2008    1.0000 </r>
       <r>  -14.8252    1.0000 </r>
       <r>  -10.8308    1.0000 </r>
       <r>   -9.5583    1.0000 </r>
       <r>   -7.0090    1.0000 </r>
       <r>   -6.4508    1.0000 </r>
       <r>   -6.1996    1.0000 </r>
       <r>   -5.3897    1.0000 </r>
       <r>   -5.2275    1.0000 </r>
       <r>   -4.8749    1.0000 </r>
       <r>   -4.4634    1.0000 </r>
       <r>   -3.6853    1.0000 </r>
       <r>   -3.5965    1.0000 </r>
       <r>   -2.6531    1.0000 </r>
       <r>   -0.7951    0.0000 </r>
       <r>   -0.7089    0.0000 </r>
       <r>    0.5642    0.0000 </r>
       <r>    1.2284    0.0000 </r>
       <r>    1.3477    0.0000 </r>
       <r>    1.6364    0.0000 </r>
[...]
       <r>    1.5285    0.0000 </r>
       <r>    1.5766    0.0000 </r>
      </set>
      <set comment="kpoint 54">
       <r>  -27.6308    1.0000 </r>
       <r>  -27.6303    1.0000 </r>
       <r>  -27.6195    1.0000 </r>
       <r>  -27.6190    1.0000 </r>
       <r>  -27.6159    1.0000 </r>
       <r>  -27.6147    1.0000 </r>
       <r>  -27.5976    1.0000 </r>
       <r>  -27.5972    1.0000 </r>
       <r>  -27.5852    1.0000 </r>
       <r>  -27.5848    1.0000 </r>
       <r>  -16.0279    1.0000 </r>
       <r>  -15.8945    1.0000 </r>
       <r>  -15.0612    1.0000 </r>
       <r>  -15.0281    1.0000 </r>
       <r>  -10.6353    1.0000 </r>
       <r>  -10.4851    1.0000 </r>
       <r>   -6.8274    1.0000 </r>
       <r>   -6.7843    1.0000 </r>
       <r>   -5.7778    1.0000 </r>
       <r>   -5.6239    1.0000 </r>
       <r>   -5.1281    1.0000 </r>
       <r>   -4.9087    1.0000 </r>
       <r>   -4.2932    1.0000 </r>
       <r>   -4.2238    1.0000 </r>
       <r>   -2.5329    1.0000 </r>
       <r>   -2.3861    1.0000 </r>
       <r>   -1.0469    0.0000 </r>
       <r>   -0.8711    0.0000 </r>
       <r>    1.2260    0.0000 </r>
       <r>    1.2803    0.0000 </r>
       <r>    1.5727    0.0000 </r>
       <r>    1.5962    0.0000 </r>
      </set>
      <set comment="kpoint 55">
       <r>  -27.6310    1.0000 </r>
       <r>  -27.6307    1.0000 </r>
       <r>  -27.6189    1.0000 </r>
       <r>  -27.6187    1.0000 </r>
       <r>  -27.6162    1.0000 </r>
       <r>  -27.6155    1.0000 </r>
       <r>  -27.5973    1.0000 </r>
       <r>  -27.5971    1.0000 </r>
       <r>  -27.5850    1.0000 </r>
       <r>  -27.5848    1.0000 </r>
       <r>  -15.9667    1.0000 </r>
       <r>  -15.8807    1.0000 </r>
       <r>  -15.0665    1.0000 </r>
       <r>  -15.0488    1.0000 </r>
       <r>  -10.7051    1.0000 </r>
       <r>  -10.6120    1.0000 </r>
       <r>   -6.8546    1.0000 </r>
       <r>   -6.8266    1.0000 </r>
       <r>   -5.7649    1.0000 </r>
       <r>   -5.6873    1.0000 </r>
       <r>   -4.9391    1.0000 </r>
       <r>   -4.7704    1.0000 </r>
       <r>   -4.3180    1.0000 </r>
       <r>   -4.2621    1.0000 </r>
       <r>   -2.3892    1.0000 </r>
       <r>   -2.3027    1.0000 </r>
       <r>   -1.1887    0.0000 </r>
       <r>   -1.0464    0.0000 </r>
       <r>    1.2567    0.0000 </r>
       <r>    1.4003    0.0000 </r>
       <r>    1.5258    0.0000 </r>
       <r>    1.6161    0.0000 </r>
      </set>
      <set comment="kpoint 56">
       <r>  -27.6311    1.0000 </r>
       <r>  -27.6309    1.0000 </r>
       <r>  -27.6186    1.0000 </r>
       <r>  -27.6185    1.0000 </r>
       <r>  -27.6163    1.0000 </r>
       <r>  -27.6160    1.0000 </r>
       <r>  -27.5971    1.0000 </r>
       <r>  -27.5970    1.0000 </r>
       <r>  -27.5848    1.0000 </r>
       <r>  -27.5848    1.0000 </r>
       <r>  -15.9172    1.0000 </r>
       <r>  -15.8874    1.0000 </r>
       <r>  -15.0683    1.0000 </r>
       <r>  -15.0630    1.0000 </r>
       <r>  -10.7265    1.0000 </r>
       <r>  -10.6949    1.0000 </r>
       <r>   -6.8667    1.0000 </r>
       <r>   -6.8573    1.0000 </r>
       <r>   -5.7475    1.0000 </r>
       <r>   -5.7242    1.0000 </r>
       <r>   -4.7993    1.0000 </r>
       <r>   -4.7388    1.0000 </r>
       <r>   -4.3110    1.0000 </r>
       <r>   -4.2863    1.0000 </r>
       <r>   -2.3058    1.0000 </r>
       <r>   -2.2789    1.0000 </r>
       <r>   -1.2310    0.0000 </r>
       <r>   -1.1772    0.0000 </r>
       <r>    1.3214    0.0000 </r>
       <r>    1.4057    0.0000 </r>
       <r>    1.5241    0.0000 </r>
       <r>    1.5842    0.0000 </r>
      </set>
     </set>
    </set>
   </array>
  </eigenvalues>
  <separator name="orbital magnetization" >
   <v name="MAGDIPOLOUT">      0.00000000      0.00000000      0.00000000</v>
  </separator>
  <dos>
   <i name="efermi">     -2.12636750 </i>
   <total>
    <array>
     <dimension dim="1">gridpoints</dimension>
     <dimension dim="2">spin</dimension>
     <field>energy</field>
     <field>total</field>
     <field>integrated</field>
     <set>
      <set comment="spin 1">
       <r>   -29.1225     0.0000     0.0000 </r>
       <r>   -29.0132     0.0000     0.0000 </r>
       <r>   -28.9040     0.0000     0.0000 </r>
       <r>   -28.7947     0.0000     0.0000 </r>
       <r>   -28.6855     0.0000     0.0000 </r>
       <r>   -28.5763     0.0000     0.0000 </r>
       <r>   -28.4670     0.0000     0.0000 </r>
       <r>   -28.3578     0.0000     0.0000 </r>
       <r>   -28.2485     0.0000     0.0000 </r>
       <r>   -28.1393     0.0000     0.0000 </r>
       <r>   -28.0301     0.0000     0.0000 </r>
       <r>   -27.9208     0.0000     0.0000 </r>
       <r>   -27.8116     0.0000     0.0000 </r>
       <r>   -27.7023     0.0000     0.0000 </r>
       <r>   -27.5931   139.3499    15.2227 </r>
       <r>   -27.4839    43.7320    20.0000 </r>
       <r>   -27.3746     0.0000    20.0000 </r>
       <r>   -27.2654     0.0000    20.0000 </r>
       <r>   -27.1561     0.0000    20.0000 </r>
       <r>   -27.0469     0.0000    20.0000 </r>
       <r>   -26.9377     0.0000    20.0000 </r>
       <r>   -26.8284     0.0000    20.0000 </r>
       <r>   -26.7192     0.0000    20.0000 </r>
       <r>   -26.6099     0.0000    20.0000 </r>
       <r>   -26.5007     0.0000    20.0000 </r>
       <r>   -26.3915     0.0000    20.0000 </r>
       <r>   -26.2822     0.0000    20.0000 </r>
       <r>   -26.1730     0.0000    20.0000 </r>
       <r>   -26.0637     0.0000    20.0000 </r>
       <r>   -25.9545     0.0000    20.0000 </r>
       <r>   -25.8453     0.0000    20.0000 </r>
       <r>   -25.7360     0.0000    20.0000 </r>
       <r>   -25.6268     0.0000    20.0000 </r>
       <r>   -25.5175     0.0000    20.0000 </r>
       <r>   -25.4083     0.0000    20.0000 </r>
       <r>   -25.2990     0.0000    20.0000 </r>
       <r>   -25.1898     0.0000    20.0000 </r>
       <r>   -25.0806     0.0000    20.0000 </r>
       <r>   -24.9713     0.0000    20.0000 </r>
       <r>   -24.8621     0.0000    20.0000 </r>
       <r>   -24.7528     0.0000    20.0000 </r>
       <r>   -24.6436     0.0000    20.0000 </r>
       <r>   -24.5344     0.0000    20.0000 </r>
       <r>   -24.4251     0.0000    20.0000 </r>
       <r>   -24.3159     0.0000    20.0000 </r>
       <r>   -24.2066     0.0000    20.0000 </r>
       <r>   -24.0974     0.0000    20.0000 </r>
       <r>   -23.9882     0.0000    20.0000 </r>
       <r>   -23.8789     0.0000    20.0000 </r>
       <r>   -23.7697     0.0000    20.0000 </r>
       <r>   -23.6604     0.0000    20.0000 </r>
       <r>   -23.5512     0.0000    20.0000 </r>
       <r>   -23.4420     0.0000    20.0000 </r>
       <r>   -23.3327     0.0000    20.0000 </r>
       <r>   -23.2235     0.0000    20.0000 </r>
       <r>   -23.1142     0.0000    20.0000 </r>
       <r>   -23.0050     0.0000    20.0000 </r>
       <r>   -22.8958     0.0000    20.0000 </r>
       <r>   -22.7865     0.0000    20.0000 </r>
       <r>   -22.6773     0.0000    20.0000 </r>
       <r>   -22.5680     0.0000    20.0000 </r>
       <r>   -22.4588     0.0000    20.0000 </r>
       <r>   -22.3495     0.0000    20.0000 </r>
       <r>   -22.2403     0.0000    20.0000 </r>
       <r>   -22.1311     0.0000    20.0000 </r>
       <r>   -22.0218     0.0000    20.0000 </r>
       <r>   -21.9126     0.0000    20.0000 </r>
       <r>   -21.8033     0.0000    20.0000 </r>
       <r>   -21.6941     0.0000    20.0000 </r>
       <r>   -21.5849     0.0000    20.0000 </r>
       <r>   -21.4756     0.0000    20.0000 </r>
       <r>   -21.3664     0.0000    20.0000 </r>
       <r>   -21.2571     0.0000    20.0000 </r>
       <r>   -21.1479     0.0000    20.0000 </r>
       <r>   -21.0387     0.0000    20.0000 </r>
       <r>   -20.9294     0.0000    20.0000 </r>
       <r>   -20.8202     0.0000    20.0000 </r>
       <r>   -20.7109     0.0000    20.0000 </r>
       <r>   -20.6017     0.0000    20.0000 </r>
       <r>   -20.4925     0.0000    20.0000 </r>
       <r>   -20.3832     0.0000    20.0000 </r>
       <r>   -20.2740     0.0000    20.0000 </r>
       <r>   -20.1647     0.0000    20.0000 </r>
       <r>   -20.0555     0.0000    20.0000 </r>
       <r>   -19.9463     0.0000    20.0000 </r>
       <r>   -19.8370     0.0000    20.0000 </r>
       <r>   -19.7278     0.0000    20.0000 </r>
       <r>   -19.6185     0.0000    20.0000 </r>
       <r>   -19.5093     0.0000    20.0000 </r>
       <r>   -19.4000     0.0000    20.0000 </r>
       <r>   -19.2908     0.0000    20.0000 </r>
       <r>   -19.1816     0.0000    20.0000 </r>
       <r>   -19.0723     0.0000    20.0000 </r>
       <r>   -18.9631     0.0000    20.0000 </r>
       <r>   -18.8538     0.0000    20.0000 </r>
       <r>   -18.7446     0.0000    20.0000 </r>
       <r>   -18.6354     0.0000    20.0000 </r>
       <r>   -18.5261     0.0000    20.0000 </r>
       <r>   -18.4169     0.0000    20.0000 </r>
       <r>   -18.3076     0.0000    20.0000 </r>
       <r>   -18.1984     0.0000    20.0000 </r>
       <r>   -18.0892     0.0000    20.0000 </r>
       <r>   -17.9799     0.0000    20.0000 </r>
       <r>   -17.8707     0.0000    20.0000 </r>
       <r>   -17.7614     0.0000    20.0000 </r>
       <r>   -17.6522     0.0000    20.0000 </r>
       <r>   -17.5430     0.0000    20.0000 </r>
       <r>   -17.4337     0.0000    20.0000 </r>
       <r>   -17.3245     0.0000    20.0000 </r>
       <r>   -17.2152     0.0000    20.0000 </r>
       <r>   -17.1060     0.0000    20.0000 </r>
       <r>   -16.9968     0.0000    20.0000 </r>
       <r>   -16.8875     0.5798    20.0633 </r>
       <r>   -16.7783     1.5725    20.2351 </r>
       <r>   -16.6690     1.9709    20.4504 </r>
       <r>   -16.5598     2.0156    20.6706 </r>
       <r>   -16.4506     1.7106    20.8575 </r>
       <r>   -16.3413     2.0433    21.0807 </r>
       <r>   -16.2321     2.2121    21.3223 </r>
       <r>   -16.1228     2.2333    21.5663 </r>
       <r>   -16.0136     2.5762    21.8477 </r>
       <r>   -15.9043     3.1630    22.1933 </r>
       <r>   -15.7951     3.3948    22.5641 </r>
       <r>   -15.6859     2.8570    22.8762 </r>
       <r>   -15.5766     1.5287    23.0432 </r>
       <r>   -15.4674     2.0720    23.2696 </r>
       <r>   -15.3581     1.7591    23.4617 </r>
       <r>   -15.2489     5.5513    24.0682 </r>
       <r>   -15.1397     6.1716    24.7424 </r>
       <r>   -15.0304    11.8476    26.0366 </r>
       <r>   -14.9212     8.0676    26.9179 </r>
       <r>   -14.8119     5.8893    27.5613 </r>
       <r>   -14.7027     2.5642    27.8414 </r>
       <r>   -14.5935     1.4368    27.9984 </r>
       <r>   -14.4842     0.0150    28.0000 </r>
       <r>   -14.3750     0.0000    28.0000 </r>
       <r>   -14.2657     0.0000    28.0000 </r>
       <r>   -14.1565     0.0000    28.0000 </r>
       <r>   -14.0473     0.0000    28.0000 </r>
       <r>   -13.9380     0.0000    28.0000 </r>
       <r>   -13.8288     0.0000    28.0000 </r>
       <r>   -13.7195     0.0000    28.0000 </r>
       <r>   -13.6103     0.0000    28.0000 </r>
       <r>   -13.5011     0.0000    28.0000 </r>
       <r>   -13.3918     0.0000    28.0000 </r>
       <r>   -13.2826     0.0000    28.0000 </r>
       <r>   -13.1733     0.0000    28.0000 </r>
       <r>   -13.0641     0.0000    28.0000 </r>
       <r>   -12.9548     0.0000    28.0000 </r>
       <r>   -12.8456     0.0000    28.0000 </r>
       <r>   -12.7364     0.0000    28.0000 </r>
       <r>   -12.6271     0.0000    28.0000 </r>
       <r>   -12.5179     0.0000    28.0000 </r>
       <r>   -12.4086     0.0000    28.0000 </r>
       <r>   -12.2994     0.0000    28.0000 </r>
       <r>   -12.1902     0.0000    28.0000 </r>
       <r>   -12.0809     0.0000    28.0000 </r>
       <r>   -11.9717     0.0000    28.0000 </r>
       <r>   -11.8624     0.0000    28.0000 </r>
       <r>   -11.7532     0.0000    28.0000 </r>
       <r>   -11.6440     0.0656    28.0072 </r>
       <r>   -11.5347     0.6793    28.0814 </r>
       <r>   -11.4255     0.5219    28.1384 </r>
       <r>   -11.3162     0.7205    28.2171 </r>
       <r>   -11.2070     0.9236    28.3180 </r>
       <r>   -11.0978     0.9482    28.4216 </r>
       <r>   -10.9885     1.6214    28.5987 </r>
       <r>   -10.8793     0.4365    28.6464 </r>
       <r>   -10.7700     3.3562    29.0130 </r>
       <r>   -10.6608     3.3602    29.3801 </r>
       <r>   -10.5516     2.5986    29.6640 </r>
       <r>   -10.4423     3.0560    29.9978 </r>
       <r>   -10.3331     0.9175    30.0980 </r>
       <r>   -10.2238     2.2422    30.3430 </r>
       <r>   -10.1146     1.5555    30.5129 </r>
       <r>   -10.0054     1.4431    30.6706 </r>
       <r>    -9.8961     1.5767    30.8428 </r>
       <r>    -9.7869     1.0887    30.9617 </r>
       <r>    -9.6776     1.8279    31.1614 </r>
       <r>    -9.5684     1.0490    31.2760 </r>
       <r>    -9.4591     1.5180    31.4418 </r>
       <r>    -9.3499     1.6602    31.6232 </r>
       <r>    -9.2407     1.8787    31.8284 </r>
       <r>    -9.1314     1.5704    32.0000 </r>
       <r>    -9.0222     0.0002    32.0000 </r>
       <r>    -8.9129     0.0000    32.0000 </r>
       <r>    -8.8037     0.0000    32.0000 </r>
       <r>    -8.6945     0.0000    32.0000 </r>
       <r>    -8.5852     0.0000    32.0000 </r>
       <r>    -8.4760     0.0000    32.0000 </r>
       <r>    -8.3667     0.0000    32.0000 </r>
       <r>    -8.2575     0.0000    32.0000 </r>
       <r>    -8.1483     0.0000    32.0000 </r>
       <r>    -8.0390     0.0000    32.0000 </r>
       <r>    -7.9298     0.0000    32.0000 </r>
       <r>    -7.8205     0.0000    32.0000 </r>
       <r>    -7.7113     0.0000    32.0000 </r>
       <r>    -7.6021     0.0000    32.0000 </r>
       <r>    -7.4928     0.0000    32.0000 </r>
       <r>    -7.3836     1.5544    32.1698 </r>
       <r>    -7.2743     2.2841    32.4193 </r>
       <r>    -7.1651     1.7348    32.6088 </r>
       <r>    -7.0559     1.6683    32.7911 </r>
       <r>    -6.9466     2.1166    33.0223 </r>
       <r>    -6.8374     5.7324    33.6485 </r>
       <r>    -6.7281     8.6890    34.5977 </r>
       <r>    -6.6189     4.0686    35.0422 </r>
       <r>    -6.5096     1.3872    35.1937 </r>
       <r>    -6.4004     2.5542    35.4728 </r>
       <r>    -6.2912     1.3338    35.6185 </r>
       <r>    -6.1819     4.1833    36.0754 </r>
       <r>    -6.0727     5.9547    36.7259 </r>
       <r>    -5.9634     5.0661    37.2794 </r>
       <r>    -5.8542     4.0882    37.7260 </r>
       <r>    -5.7450     3.7443    38.1350 </r>
       <r>    -5.6357     4.4165    38.6175 </r>
       <r>    -5.5265     4.1788    39.0740 </r>
       <r>    -5.4172     6.8784    39.8254 </r>
       <r>    -5.3080     7.5010    40.6448 </r>
       <r>    -5.1988     6.0155    41.3019 </r>
       <r>    -5.0895     5.0427    41.8528 </r>
       <r>    -4.9803     5.8012    42.4865 </r>
       <r>    -4.8710     5.7485    43.1145 </r>
       <r>    -4.7618     4.9437    43.6546 </r>
       <r>    -4.6526     5.1087    44.2126 </r>
       <r>    -4.5433     2.6328    44.5002 </r>
       <r>    -4.4341     1.7535    44.6918 </r>
       <r>    -4.3248     5.4811    45.2906 </r>
       <r>    -4.2156     6.2699    45.9755 </r>
       <r>    -4.1064     4.4207    46.4584 </r>
       <r>    -3.9971     4.1190    46.9084 </r>
       <r>    -3.8879     3.5991    47.3016 </r>
       <r>    -3.7786     3.6853    47.7042 </r>
       <r>    -3.6694     3.5255    48.0893 </r>
       <r>    -3.5602     1.9688    48.3043 </r>
       <r>    -3.4509     3.1114    48.6442 </r>
       <r>    -3.3417     2.0978    48.8734 </r>
       <r>    -3.2324     2.8012    49.1794 </r>
       <r>    -3.1232     2.2948    49.4301 </r>
       <r>    -3.0139     2.0460    49.6536 </r>
       <r>    -2.9047     2.8466    49.9646 </r>
       <r>    -2.7955     2.6617    50.2553 </r>
       <r>    -2.6862     3.1351    50.5978 </r>
       <r>    -2.5770     3.5645    50.9872 </r>
       <r>    -2.4677     3.8475    51.4075 </r>
       <r>    -2.3585     3.2265    51.7600 </r>
       <r>    -2.2493     2.1903    51.9993 </r>
       <r>    -2.1400     0.0068    52.0000 </r>
       <r>    -2.0308     0.0000    52.0000 </r>
       <r>    -1.9215     0.0000    52.0000 </r>
       <r>    -1.8123     0.0000    52.0000 </r>
       <r>    -1.7031     0.0000    52.0000 </r>
       <r>    -1.5938     0.0000    52.0000 </r>
       <r>    -1.4846     0.0606    52.0066 </r>
       <r>    -1.3753     0.2146    52.0301 </r>
       <r>    -1.2661     1.3205    52.1743 </r>
       <r>    -1.1569     4.0881    52.6209 </r>
       <r>    -1.0476     4.8785    53.1538 </r>
       <r>    -0.9384     3.7582    53.5644 </r>
       <r>    -0.8291     3.3191    53.9270 </r>
       <r>    -0.7199     4.3806    54.4055 </r>
       <r>    -0.6107     3.8054    54.8212 </r>
       <r>    -0.5014     3.9202    55.2495 </r>
       <r>    -0.3922     2.5536    55.5284 </r>
       <r>    -0.2829     2.5929    55.8117 </r>
       <r>    -0.1737     1.2449    55.9477 </r>
       <r>    -0.0644     1.4570    56.1068 </r>
       <r>     0.0448     0.2451    56.1336 </r>
       <r>     0.1540     0.7449    56.2150 </r>
       <r>     0.2633     0.6660    56.2877 </r>
       <r>     0.3725     0.9697    56.3937 </r>
       <r>     0.4818     1.8065    56.5910 </r>
       <r>     0.5910     1.8399    56.7920 </r>
       <r>     0.7002     3.0240    57.1223 </r>
       <r>     0.8095     1.5870    57.2957 </r>
       <r>     0.9187     2.8194    57.6037 </r>
       <r>     1.0280     3.4836    57.9842 </r>
       <r>     1.1372     6.4528    58.6892 </r>
       <r>     1.2464     7.5950    59.5188 </r>
       <r>     1.3557     6.2098    60.1972 </r>
       <r>     1.4649     6.0737    60.8607 </r>
       <r>     1.5742     7.4622    61.6759 </r>
       <r>     1.6834     6.3775    62.3726 </r>
       <r>     1.7926     4.7907    62.8959 </r>
       <r>     1.9019     5.5832    63.5058 </r>
       <r>     2.0111     2.0782    63.7329 </r>
       <r>     2.1204     1.9697    63.9480 </r>
       <r>     2.2296     0.4757    64.0000 </r>
       <r>     2.3388     0.0000    64.0000 </r>
       <r>     2.4481     0.0000    64.0000 </r>
       <r>     2.5573     0.0000    64.0000 </r>
       <r>     2.6666     0.0000    64.0000 </r>
       <r>     2.7758     0.0000    64.0000 </r>
       <r>     2.8850     0.0000    64.0000 </r>
       <r>     2.9943     0.0000    64.0000 </r>
       <r>     3.1035     0.0000    64.0000 </r>
       <r>     3.2128     0.0000    64.0000 </r>
       <r>     3.3220     0.0000    64.0000 </r>
       <r>     3.4313     0.0000    64.0000 </r>
       <r>     3.5405     0.0000    64.0000 </r>
       <r>     3.6497     0.0000    64.0000 </r>
      </set>
     </set>
    </array>
   </total>
  </dos>
 </calculation>
 <structure name="finalpos" >
  <crystal>
   <varray name="basis" >
    <v>       4.80695400       0.00000000       0.00000000 </v>
    <v>       0.00000000       5.45864100       0.00000000 </v>
    <v>       0.00000000       0.00000000      18.07929100 </v>
   </varray>
   <i name="volume">    474.39040255 </i>
   <varray name="rec_basis" >
    <v>       0.20803195       0.00000000       0.00000000 </v>
    <v>       0.00000000       0.18319578       0.00000000 </v>
    <v>       0.00000000       0.00000000       0.05531190 </v>
   </varray>
  </crystal>
  <varray name="positions" >
   <v>       0.50000000       0.50000000       0.50000000 </v>
   <v>      -0.00000000       0.00000000       0.50000000 </v>
   <v>       0.25000000       0.25000000       0.41403959 </v>
   <v>       0.75000000       0.75000000       0.41403959 </v>
   <v>       0.75000000       0.25000000       0.58596041 </v>
   <v>       0.25000000       0.75000000       0.58596041 </v>
  </varray>
 </structure>
</modeling>
