<?xml version="1.0" encoding="ISO-8859-1"?>
<modeling>
 <generator>
  <i name="program" type="string">vasp </i>
  <i name="version" type="string">5.4.1  </i>
  <i name="subversion" type="string">24Jun15 (build Nov 20 2020 10:29:34) complex                          parallel </i>
  <i name="platform" type="string">IFC91_ompi </i>
  <i name="date" type="string">2021 09 09 </i>
  <i name="time" type="string">14:53:46 </i>
 </generator>
 <incar>
  <i type="string" name="PREC">a</i>
  <i type="string" name="ALGO"> Normal</i>
  <i type="int" name="ISPIN">     1</i>
  <i type="int" name="ICHARG">     2</i>
  <i type="int" name="NELM">   250</i>
  <i type="int" name="NELMDL">    -5</i>
  <i type="int" name="NELMIN">     6</i>
  <i type="int" name="IBRION">     2</i>
  <i name="EDIFF">      0.00001000</i>
  <i name="EDIFFG">     -0.01000000</i>
  <i type="int" name="NSW">   200</i>
  <i type="int" name="ISIF">     2</i>
  <i name="ENCUT">    520.00000000</i>
  <i name="POTIM">      0.30000000</i>
  <i type="logical" name="LREAL"> F  </i>
  <i type="int" name="ISMEAR">     0</i>
  <i name="SIGMA">      0.02000000</i>
  <i type="logical" name="LWAVE"> F  </i>
  <i type="logical" name="LCHARG"> F  </i>
  <i type="logical" name="LAECHG"> F  </i>
  <v type="int" name="KPOINT_BSE">    -1     0     0     0</v>
  <i type="int" name="NELM">   250</i>
 </incar>
 <kpoints>
  <generation param="Gamma">
   <v type="int" name="divisions">      21       15        1 </v>
   <v name="usershift">      0.00000000       0.00000000       0.00000000 </v>
   <v name="genvec1">      0.04761905       0.00000000       0.00000000 </v>
   <v name="genvec2">      0.00000000       0.06666667       0.00000000 </v>
   <v name="genvec3">      0.00000000       0.00000000       1.00000000 </v>
   <v name="shift">      0.00000000       0.00000000       0.00000000 </v>
  </generation>
  <varray name="kpointlist" >
   <v>       0.00000000       0.00000000       0.00000000 </v>
   <v>       0.04761905       0.00000000       0.00000000 </v>
   <v>       0.09523810       0.00000000       0.00000000 </v>
   <v>       0.14285714       0.00000000       0.00000000 </v>
   <v>       0.19047619       0.00000000       0.00000000 </v>
   <v>       0.23809524       0.00000000       0.00000000 </v>
   <v>       0.28571429       0.00000000       0.00000000 </v>
   <v>       0.33333333       0.00000000       0.00000000 </v>
   <v>       0.38095238       0.00000000       0.00000000 </v>
   <v>       0.42857143       0.00000000       0.00000000 </v>
   <v>       0.47619048       0.00000000       0.00000000 </v>
   <v>       0.00000000       0.06666667       0.00000000 </v>
   <v>       0.04761905       0.06666667       0.00000000 </v>
   <v>       0.09523810       0.06666667       0.00000000 </v>
   <v>       0.14285714       0.06666667       0.00000000 </v>
   <v>       0.19047619       0.06666667       0.00000000 </v>
   <v>       0.23809524       0.06666667       0.00000000 </v>
   <v>       0.28571429       0.06666667       0.00000000 </v>
   <v>       0.33333333       0.06666667       0.00000000 </v>
   <v>       0.38095238       0.06666667       0.00000000 </v>
   <v>       0.42857143       0.06666667       0.00000000 </v>
   <v>       0.47619048       0.06666667       0.00000000 </v>
   <v>      -0.47619048       0.06666667       0.00000000 </v>
   <v>      -0.42857143       0.06666667       0.00000000 </v>
   <v>      -0.38095238       0.06666667       0.00000000 </v>
   <v>      -0.33333333       0.06666667       0.00000000 </v>
   <v>      -0.28571429       0.06666667       0.00000000 </v>
   <v>      -0.23809524       0.06666667       0.00000000 </v>
   <v>      -0.19047619       0.06666667       0.00000000 </v>
   <v>      -0.14285714       0.06666667       0.00000000 </v>
   <v>      -0.09523810       0.06666667       0.00000000 </v>
   <v>      -0.04761905       0.06666667       0.00000000 </v>
   <v>       0.00000000       0.13333333       0.00000000 </v>
   <v>       0.04761905       0.13333333       0.00000000 </v>
   <v>       0.09523810       0.13333333       0.00000000 </v>
   <v>       0.14285714       0.13333333       0.00000000 </v>
   <v>       0.19047619       0.13333333       0.00000000 </v>
   <v>       0.23809524       0.13333333       0.00000000 </v>
   <v>       0.28571429       0.13333333       0.00000000 </v>
   <v>       0.33333333       0.13333333       0.00000000 </v>
   <v>       0.38095238       0.13333333       0.00000000 </v>
   <v>       0.42857143       0.13333333       0.00000000 </v>
   <v>       0.47619048       0.13333333       0.00000000 </v>
   <v>      -0.47619048       0.13333333       0.00000000 </v>
   <v>      -0.42857143       0.13333333       0.00000000 </v>
   <v>      -0.38095238       0.13333333       0.00000000 </v>
   <v>      -0.33333333       0.13333333       0.00000000 </v>
   <v>      -0.28571429       0.13333333       0.00000000 </v>
   <v>      -0.23809524       0.13333333       0.00000000 </v>
   <v>      -0.19047619       0.13333333       0.00000000 </v>
   <v>      -0.14285714       0.13333333       0.00000000 </v>
   <v>      -0.09523810       0.13333333       0.00000000 </v>
   <v>      -0.04761905       0.13333333       0.00000000 </v>
   <v>       0.00000000       0.20000000       0.00000000 </v>
   <v>       0.04761905       0.20000000       0.00000000 </v>
   <v>       0.09523810       0.20000000       0.00000000 </v>
   <v>       0.14285714       0.20000000       0.00000000 </v>
   <v>       0.19047619       0.20000000       0.00000000 </v>
   <v>       0.23809524       0.20000000       0.00000000 </v>
   <v>       0.28571429       0.20000000       0.00000000 </v>
   <v>       0.33333333       0.20000000       0.00000000 </v>
   <v>       0.38095238       0.20000000       0.00000000 </v>
   <v>       0.42857143       0.20000000       0.00000000 </v>
   <v>       0.47619048       0.20000000       0.00000000 </v>
   <v>      -0.47619048       0.20000000       0.00000000 </v>
   <v>      -0.42857143       0.20000000       0.00000000 </v>
   <v>      -0.38095238       0.20000000       0.00000000 </v>
   <v>      -0.33333333       0.20000000       0.00000000 </v>
   <v>      -0.28571429       0.20000000       0.00000000 </v>
   <v>      -0.23809524       0.20000000       0.00000000 </v>
   <v>      -0.19047619       0.20000000       0.00000000 </v>
   <v>      -0.14285714       0.20000000       0.00000000 </v>
   <v>      -0.09523810       0.20000000       0.00000000 </v>
   <v>      -0.04761905       0.20000000       0.00000000 </v>
   <v>       0.00000000       0.26666667       0.00000000 </v>
   <v>       0.04761905       0.26666667       0.00000000 </v>
   <v>       0.09523810       0.26666667       0.00000000 </v>
   <v>       0.14285714       0.26666667       0.00000000 </v>
   <v>       0.19047619       0.26666667       0.00000000 </v>
   <v>       0.23809524       0.26666667       0.00000000 </v>
   <v>       0.28571429       0.26666667       0.00000000 </v>
   <v>       0.33333333       0.26666667       0.00000000 </v>
   <v>       0.38095238       0.26666667       0.00000000 </v>
   <v>       0.42857143       0.26666667       0.00000000 </v>
   <v>       0.47619048       0.26666667       0.00000000 </v>
   <v>      -0.47619048       0.26666667       0.00000000 </v>
   <v>      -0.42857143       0.26666667       0.00000000 </v>
   <v>      -0.38095238       0.26666667       0.00000000 </v>
   <v>      -0.33333333       0.26666667       0.00000000 </v>
   <v>      -0.28571429       0.26666667       0.00000000 </v>
   <v>      -0.23809524       0.26666667       0.00000000 </v>
   <v>      -0.19047619       0.26666667       0.00000000 </v>
   <v>      -0.14285714       0.26666667       0.00000000 </v>
   <v>      -0.09523810       0.26666667       0.00000000 </v>
   <v>      -0.04761905       0.26666667       0.00000000 </v>
   <v>       0.00000000       0.33333333       0.00000000 </v>
   <v>       0.04761905       0.33333333       0.00000000 </v>
   <v>       0.09523810       0.33333333       0.00000000 </v>
   <v>       0.14285714       0.33333333       0.00000000 </v>
   <v>       0.19047619       0.33333333       0.00000000 </v>
   <v>       0.23809524       0.33333333       0.00000000 </v>
   <v>       0.28571429       0.33333333       0.00000000 </v>
   <v>       0.33333333       0.33333333       0.00000000 </v>
   <v>       0.38095238       0.33333333       0.00000000 </v>
   <v>       0.42857143       0.33333333       0.00000000 </v>
   <v>       0.47619048       0.33333333       0.00000000 </v>
   <v>      -0.47619048       0.33333333       0.00000000 </v>
   <v>      -0.42857143       0.33333333       0.00000000 </v>
   <v>      -0.38095238       0.33333333       0.00000000 </v>
   <v>      -0.33333333       0.33333333       0.00000000 </v>
   <v>      -0.28571429       0.33333333       0.00000000 </v>
   <v>      -0.23809524       0.33333333       0.00000000 </v>
   <v>      -0.19047619       0.33333333       0.00000000 </v>
   <v>      -0.14285714       0.33333333       0.00000000 </v>
   <v>      -0.09523810       0.33333333       0.00000000 </v>
   <v>      -0.04761905       0.33333333       0.00000000 </v>
   <v>       0.00000000       0.40000000       0.00000000 </v>
   <v>       0.04761905       0.40000000       0.00000000 </v>
   <v>       0.09523810       0.40000000       0.00000000 </v>
   <v>       0.14285714       0.40000000       0.00000000 </v>
   <v>       0.19047619       0.40000000       0.00000000 </v>
   <v>       0.23809524       0.40000000       0.00000000 </v>
   <v>       0.28571429       0.40000000       0.00000000 </v>
   <v>       0.33333333       0.40000000       0.00000000 </v>
   <v>       0.38095238       0.40000000       0.00000000 </v>
   <v>       0.42857143       0.40000000       0.00000000 </v>
   <v>       0.47619048       0.40000000       0.00000000 </v>
   <v>      -0.47619048       0.40000000       0.00000000 </v>
   <v>      -0.42857143       0.40000000       0.00000000 </v>
   <v>      -0.38095238       0.40000000       0.00000000 </v>
   <v>      -0.33333333       0.40000000       0.00000000 </v>
   <v>      -0.28571429       0.40000000       0.00000000 </v>
   <v>      -0.23809524       0.40000000       0.00000000 </v>
   <v>      -0.19047619       0.40000000       0.00000000 </v>
   <v>      -0.14285714       0.40000000       0.00000000 </v>
   <v>      -0.09523810       0.40000000       0.00000000 </v>
   <v>      -0.04761905       0.40000000       0.00000000 </v>
   <v>       0.00000000       0.46666667       0.00000000 </v>
   <v>       0.04761905       0.46666667       0.00000000 </v>
   <v>       0.09523810       0.46666667       0.00000000 </v>
   <v>       0.14285714       0.46666667       0.00000000 </v>
   <v>       0.19047619       0.46666667       0.00000000 </v>
   <v>       0.23809524       0.46666667       0.00000000 </v>
   <v>       0.28571429       0.46666667       0.00000000 </v>
   <v>       0.33333333       0.46666667       0.00000000 </v>
   <v>       0.38095238       0.46666667       0.00000000 </v>
   <v>       0.42857143       0.46666667       0.00000000 </v>
   <v>       0.47619048       0.46666667       0.00000000 </v>
   <v>      -0.47619048       0.46666667       0.00000000 </v>
   <v>      -0.42857143       0.46666667       0.00000000 </v>
   <v>      -0.38095238       0.46666667       0.00000000 </v>
   <v>      -0.33333333       0.46666667       0.00000000 </v>
   <v>      -0.28571429       0.46666667       0.00000000 </v>
   <v>      -0.23809524       0.46666667       0.00000000 </v>
   <v>      -0.19047619       0.46666667       0.00000000 </v>
   <v>      -0.14285714       0.46666667       0.00000000 </v>
   <v>      -0.09523810       0.46666667       0.00000000 </v>
   <v>      -0.04761905       0.46666667       0.00000000 </v>
  </varray>
  <varray name="weights" >
   <v>       0.00317460 </v>
   <v>       0.00634921 </v>
   <v>       0.00634921 </v>
   <v>       0.00634921 </v>
   <v>       0.00634921 </v>
   <v>       0.00634921 </v>
   <v>       0.00634921 </v>
   <v>       0.00634921 </v>
   <v>       0.00634921 </v>
   <v>       0.00634921 </v>
   <v>       0.00634921 </v>
   <v>       0.00634921 </v>
   <v>       0.00634921 </v>
   <v>       0.00634921 </v>
   <v>       0.00634921 </v>
   <v>       0.00634921 </v>
   <v>       0.00634921 </v>
   <v>       0.00634921 </v>
   <v>       0.00634921 </v>
   <v>       0.00634921 </v>
   <v>       0.00634921 </v>
   <v>       0.00634921 </v>
   <v>       0.00634921 </v>
   <v>       0.00634921 </v>
   <v>       0.00634921 </v>
   <v>       0.00634921 </v>
   <v>       0.00634921 </v>
   <v>       0.00634921 </v>
   <v>       0.00634921 </v>
   <v>       0.00634921 </v>
   <v>       0.00634921 </v>
   <v>       0.00634921 </v>
   <v>       0.00634921 </v>
   <v>       0.00634921 </v>
   <v>       0.00634921 </v>
   <v>       0.00634921 </v>
   <v>       0.00634921 </v>
   <v>       0.00634921 </v>
   <v>       0.00634921 </v>
   <v>       0.00634921 </v>
   <v>       0.00634921 </v>
   <v>       0.00634921 </v>
   <v>       0.00634921 </v>
   <v>       0.00634921 </v>
   <v>       0.00634921 </v>
   <v>       0.00634921 </v>
   <v>       0.00634921 </v>
   <v>       0.00634921 </v>
   <v>       0.00634921 </v>
   <v>       0.00634921 </v>
   <v>       0.00634921 </v>
   <v>       0.00634921 </v>
   <v>       0.00634921 </v>
   <v>       0.00634921 </v>
   <v>       0.00634921 </v>
   <v>       0.00634921 </v>
   <v>       0.00634921 </v>
   <v>       0.00634921 </v>
   <v>       0.00634921 </v>
   <v>       0.00634921 </v>
   <v>       0.00634921 </v>
   <v>       0.00634921 </v>
   <v>       0.00634921 </v>
   <v>       0.00634921 </v>
   <v>       0.00634921 </v>
   <v>       0.00634921 </v>
   <v>       0.00634921 </v>
   <v>       0.00634921 </v>
   <v>       0.00634921 </v>
   <v>       0.00634921 </v>
   <v>       0.00634921 </v>
   <v>       0.00634921 </v>
   <v>       0.00634921 </v>
   <v>       0.00634921 </v>
   <v>       0.00634921 </v>
   <v>       0.00634921 </v>
   <v>       0.00634921 </v>
   <v>       0.00634921 </v>
   <v>       0.00634921 </v>
   <v>       0.00634921 </v>
   <v>       0.00634921 </v>
   <v>       0.00634921 </v>
   <v>       0.00634921 </v>
   <v>       0.00634921 </v>
   <v>       0.00634921 </v>
   <v>       0.00634921 </v>
   <v>       0.00634921 </v>
   <v>       0.00634921 </v>
   <v>       0.00634921 </v>
   <v>       0.00634921 </v>
   <v>       0.00634921 </v>
   <v>       0.00634921 </v>
   <v>       0.00634921 </v>
   <v>       0.00634921 </v>
   <v>       0.00634921 </v>
   <v>       0.00634921 </v>
   <v>       0.00634921 </v>
   <v>       0.00634921 </v>
   <v>       0.00634921 </v>
   <v>       0.00634921 </v>
   <v>       0.00634921 </v>
   <v>       0.00634921 </v>
   <v>       0.00634921 </v>
   <v>       0.00634921 </v>
   <v>       0.00634921 </v>
   <v>       0.00634921 </v>
   <v>       0.00634921 </v>
   <v>       0.00634921 </v>
   <v>       0.00634921 </v>
   <v>       0.00634921 </v>
   <v>       0.00634921 </v>
   <v>       0.00634921 </v>
   <v>       0.00634921 </v>
   <v>       0.00634921 </v>
   <v>       0.00634921 </v>
   <v>       0.00634921 </v>
   <v>       0.00634921 </v>
   <v>       0.00634921 </v>
   <v>       0.00634921 </v>
   <v>       0.00634921 </v>
   <v>       0.00634921 </v>
   <v>       0.00634921 </v>
   <v>       0.00634921 </v>
   <v>       0.00634921 </v>
   <v>       0.00634921 </v>
   <v>       0.00634921 </v>
   <v>       0.00634921 </v>
   <v>       0.00634921 </v>
   <v>       0.00634921 </v>
   <v>       0.00634921 </v>
   <v>       0.00634921 </v>
   <v>       0.00634921 </v>
   <v>       0.00634921 </v>
   <v>       0.00634921 </v>
   <v>       0.00634921 </v>
   <v>       0.00634921 </v>
   <v>       0.00634921 </v>
   <v>       0.00634921 </v>
   <v>       0.00634921 </v>
   <v>       0.00634921 </v>
   <v>       0.00634921 </v>
   <v>       0.00634921 </v>
   <v>       0.00634921 </v>
   <v>       0.00634921 </v>
   <v>       0.00634921 </v>
   <v>       0.00634921 </v>
   <v>       0.00634921 </v>
   <v>       0.00634921 </v>
   <v>       0.00634921 </v>
   <v>       0.00634921 </v>
   <v>       0.00634921 </v>
   <v>       0.00634921 </v>
   <v>       0.00634921 </v>
   <v>       0.00634921 </v>
   <v>       0.00634921 </v>
   <v>       0.00634921 </v>
   <v>       0.00634921 </v>
   <v>       0.00634921 </v>
  </varray>
 </kpoints>
 <parameters>
  <separator name="general" >
   <i type="string" name="SYSTEM">unknown system</i>
   <i type="logical" name="LCOMPAT"> F  </i>
  </separator>
  <separator name="electronic" >
   <i type="string" name="PREC">a</i>
   <i name="ENMAX">    520.00000000</i>
   <i name="ENAUG">    342.92400000</i>
   <i name="EDIFF">      0.00001000</i>
   <i type="int" name="IALGO">    38</i>
   <i type="int" name="IWAVPR">    11</i>
   <i type="int" name="NBANDS">    16</i>
   <i name="NELECT">     20.00000000</i>
   <i type="int" name="TURBO">     0</i>
   <i type="int" name="IRESTART">     0</i>
   <i type="int" name="NREBOOT">     0</i>
   <i type="int" name="NMIN">     0</i>
   <i name="EREF">      0.00000000</i>
   <separator name="electronic smearing" >
    <i type="int" name="ISMEAR">     0</i>
    <i name="SIGMA">      0.02000000</i>
    <i name="KSPACING">      0.50000000</i>
    <i type="logical" name="KGAMMA"> T  </i>
   </separator>
   <separator name="electronic projectors" >
    <i type="logical" name="LREAL"> F  </i>
    <v name="ROPT">      0.00000000</v>
    <i type="int" name="LMAXPAW">  -100</i>
    <i type="int" name="LMAXMIX">     2</i>
    <i type="logical" name="NLSPLINE"> F  </i>
   </separator>
   <separator name="electronic startup" >
    <i type="int" name="ISTART">     0</i>
    <i type="int" name="ICHARG">     2</i>
    <i type="int" name="INIWAV">     1</i>
   </separator>
   <separator name="electronic spin" >
    <i type="int" name="ISPIN">     1</i>
    <i type="logical" name="LNONCOLLINEAR"> F  </i>
    <v name="MAGMOM">      1.00000000      1.00000000      1.00000000      1.00000000</v>
    <i name="NUPDOWN">     -1.00000000</i>
    <i type="logical" name="LSORBIT"> F  </i>
    <v name="SAXIS">      0.00000000      0.00000000      1.00000000</v>
    <i type="logical" name="LSPIRAL"> F  </i>
    <v name="QSPIRAL">      0.00000000      0.00000000      0.00000000</v>
    <i type="logical" name="LZEROZ"> F  </i>
   </separator>
   <separator name="electronic exchange-correlation" >
    <i type="logical" name="LASPH"> F  </i>
    <i type="logical" name="LMETAGGA"> F  </i>
   </separator>
   <separator name="electronic convergence" >
    <i type="int" name="NELM">   250</i>
    <i type="int" name="NELMDL">    -5</i>
    <i type="int" name="NELMIN">     6</i>
    <i name="ENINI">    520.00000000</i>
    <separator name="electronic convergence detail" >
     <i type="logical" name="LDIAG"> T  </i>
     <i type="logical" name="LSUBROT"> F  </i>
     <i name="WEIMIN">      0.00100000</i>
     <i name="EBREAK">      0.00000016</i>
     <i name="DEPER">      0.30000000</i>
     <i type="int" name="NRMM">     4</i>
     <i name="TIME">      0.40000000</i>
    </separator>
   </separator>
   <separator name="electronic mixer" >
    <i name="AMIX">      0.40000000</i>
    <i name="BMIX">      1.00000000</i>
    <i name="AMIN">      0.10000000</i>
    <i name="AMIX_MAG">      1.60000000</i>
    <i name="BMIX_MAG">      1.00000000</i>
    <separator name="electronic mixer details" >
     <i type="int" name="IMIX">     4</i>
     <i type="logical" name="MIXFIRST"> F  </i>
     <i type="int" name="MAXMIX">   -45</i>
     <i name="WC">    100.00000000</i>
     <i type="int" name="INIMIX">     1</i>
     <i type="int" name="MIXPRE">     1</i>
     <i type="int" name="MREMOVE">     5</i>
    </separator>
   </separator>
   <separator name="electronic dipolcorrection" >
    <i type="logical" name="LDIPOL"> F  </i>
    <i type="logical" name="LMONO"> F  </i>
    <i type="int" name="IDIPOL">     0</i>
    <i name="EPSILON">      1.00000000</i>
    <v name="DIPOL">   -100.00000000   -100.00000000   -100.00000000</v>
    <i name="EFIELD">      0.00000000</i>
   </separator>
  </separator>
  <separator name="grids" >
   <i type="int" name="NGX">    28</i>
   <i type="int" name="NGY">    36</i>
   <i type="int" name="NGZ">   150</i>
   <i type="int" name="NGXF">    56</i>
   <i type="int" name="NGYF">    72</i>
   <i type="int" name="NGZF">   300</i>
   <i type="logical" name="ADDGRID"> F  </i>
  </separator>
  <separator name="ionic" >
   <i type="int" name="NSW">   200</i>
   <i type="int" name="IBRION">     2</i>
   <i type="int" name="ISIF">     2</i>
   <i name="PSTRESS">      0.00000000</i>
   <i name="EDIFFG">     -0.01000000</i>
   <i type="int" name="NFREE">     1</i>
   <i name="POTIM">      0.30000000</i>
   <i name="SMASS">     -3.00000000</i>
   <i name="SCALEE">      1.00000000</i>
  </separator>
  <separator name="ionic md" >
   <i name="TEBEG">      0.00010000</i>
   <i name="TEEND">      0.00010000</i>
   <i type="int" name="NBLOCK">     1</i>
   <i type="int" name="KBLOCK">   200</i>
   <i type="int" name="NPACO">   256</i>
   <i name="APACO">     16.00000000</i>
  </separator>
  <separator name="symmetry" >
   <i type="int" name="ISYM">     2</i>
   <i name="SYMPREC">      0.00001000</i>
  </separator>
  <separator name="dos" >
   <i type="logical" name="LORBIT"> F  </i>
   <v name="RWIGS">     -1.00000000</v>
   <i type="int" name="NEDOS">   301</i>
   <i name="EMIN">     10.00000000</i>
   <i name="EMAX">    -10.00000000</i>
   <i name="EFERMI">      0.00000000</i>
  </separator>
  <separator name="writing" >
   <i type="int" name="NWRITE">     2</i>
   <i type="logical" name="LWAVE"> F  </i>
   <i type="logical" name="LCHARG"> F  </i>
   <i type="logical" name="LPARD"> F  </i>
   <i type="logical" name="LVTOT"> F  </i>
   <i type="logical" name="LVHAR"> F  </i>
   <i type="logical" name="LELF"> F  </i>
   <i type="logical" name="LOPTICS"> F  </i>
   <v name="STM">      0.00000000      0.00000000      0.00000000      0.00000000      0.00000000      0.00000000      0.00000000</v>
  </separator>
  <separator name="performance" >
   <i type="int" name="NPAR">     4</i>
   <i type="int" name="NSIM">     4</i>
   <i type="int" name="NBLK">    -1</i>
   <i type="logical" name="LPLANE"> T  </i>
   <i type="logical" name="LSCALAPACK"> T  </i>
   <i type="logical" name="LSCAAWARE"> F  </i>
   <i type="logical" name="LSCALU"> F  </i>
   <i type="logical" name="LASYNC"> F  </i>
   <i type="logical" name="LORBITALREAL"> F  </i>
  </separator>
  <separator name="miscellaneous" >
   <i type="int" name="IDIOT">     3</i>
   <i type="logical" name="LMUSIC"> F  </i>
   <v name="POMASS">     30.97400000</v>
   <v name="DARWINR">      0.00000000</v>
   <v name="DARWINV">      1.00000000</v>
   <i type="logical" name="LCORR"> T  </i>
  </separator>
  <i type="logical" name="GGA_COMPAT"> T  </i>
  <i type="logical" name="LBERRY"> F  </i>
  <i type="int" name="ICORELEVEL">     0</i>
  <i type="logical" name="LDAU"> F  </i>
  <i type="int" name="I_CONSTRAINED_M">     0</i>
  <separator name="electronic exchange-correlation" >
   <i type="string" name="GGA">--</i>
   <i type="int" name="VOSKOWN">     0</i>
   <i type="logical" name="LHFCALC"> F  </i>
   <i type="string" name="PRECFOCK"></i>
   <i type="logical" name="LSYMGRAD"> F  </i>
   <i type="logical" name="LHFONE"> F  </i>
   <i type="logical" name="LRHFCALC"> F  </i>
   <i type="logical" name="LTHOMAS"> F  </i>
   <i type="logical" name="LMODELHF"> F  </i>
   <i name="ENCUT4O">     -1.00000000</i>
   <i type="int" name="EXXOEP">     0</i>
   <i type="int" name="FOURORBIT">     0</i>
   <i name="AEXX">      0.00000000</i>
   <i name="HFALPHA">      0.00000000</i>
   <i name="MCALPHA">      0.00000000</i>
   <i name="ALDAX">      1.00000000</i>
   <i name="AGGAX">      1.00000000</i>
   <i name="ALDAC">      1.00000000</i>
   <i name="AGGAC">      1.00000000</i>
   <i type="int" name="NKREDX">     1</i>
   <i type="int" name="NKREDY">     1</i>
   <i type="int" name="NKREDZ">     1</i>
   <i type="logical" name="SHIFTRED"> F  </i>
   <i type="logical" name="ODDONLY"> F  </i>
   <i type="logical" name="EVENONLY"> F  </i>
   <i type="int" name="LMAXFOCK">     0</i>
   <i type="int" name="NMAXFOCKAE">     0</i>
   <i type="logical" name="LFOCKAEDFT"> F  </i>
   <i name="HFSCREEN">      0.00000000</i>
   <i name="HFSCREENC">      0.00000000</i>
   <i type="int" name="NBANDSGWLOW">     0</i>
  </separator>
  <separator name="vdW DFT" >
   <i type="logical" name="LUSE_VDW"> F  </i>
   <i name="Zab_VDW">     -0.84910000</i>
   <i name="PARAM1">      0.12340000</i>
   <i name="PARAM2">      1.00000000</i>
   <i name="PARAM3">      0.00000000</i>
  </separator>
  <separator name="model GW" >
   <i type="int" name="MODEL_GW">     0</i>
   <i name="MODEL_EPS0">     46.24604391</i>
   <i name="MODEL_ALPHA">      1.00000000</i>
  </separator>
  <separator name="linear response parameters" >
   <i type="logical" name="LEPSILON"> F  </i>
   <i type="logical" name="LRPA"> F  </i>
   <i type="logical" name="LNABLA"> F  </i>
   <i type="logical" name="LVEL"> F  </i>
   <i type="int" name="KINTER">     0</i>
   <i name="CSHIFT">      0.10000000</i>
   <i name="OMEGAMAX">     -1.00000000</i>
   <i name="DEG_THRESHOLD">      0.00200000</i>
  </separator>
  <separator name="orbital magnetization" >
   <i type="logical" name="NUCIND"> F  </i>
   <v name="MAGPOS">      0.00000000      0.00000000      0.00000000</v>
   <i type="logical" name="LNICSALL"> T  </i>
   <i type="logical" name="ORBITALMAG"> F  </i>
   <i type="logical" name="LMAGBLOCH"> F  </i>
   <i type="logical" name="LCHIMAG"> F  </i>
   <i type="logical" name="LGAUGE"> T  </i>
   <i type="int" name="MAGATOM">     0</i>
   <v name="MAGDIPOL">      0.00000000      0.00000000      0.00000000</v>
   <v name="AVECCONST">      0.00000000      0.00000000      0.00000000</v>
  </separator>
  <separator name="response functions" >
   <i type="logical" name="LADDER"> F  </i>
   <i type="logical" name="LFXC"> F  </i>
   <i type="logical" name="LHARTREE"> T  </i>
   <i type="int" name="IBSE">     0</i>
   <v type="int" name="KPOINT">    -1     0     0     0</v>
   <i type="logical" name="LTCTE"> F  </i>
   <i type="logical" name="LTETE"> F  </i>
   <i type="logical" name="LTRIPLET"> F  </i>
   <i type="logical" name="LFXCEPS"> F  </i>
   <i type="logical" name="LFXHEG"> F  </i>
   <i type="int" name="NATURALO">     0</i>
   <i type="logical" name="L2ORDER"> F  </i>
   <i type="logical" name="LUSEW"> F  </i>
   <i name="ENCUTGW">     -2.00000000</i>
   <i name="ENCUTGWSOFT">     -2.00000000</i>
   <i name="ENCUTLF">     -1.00000000</i>
   <i type="int" name="LMAXMP2">    -1</i>
   <i name="SCISSOR">      0.00000000</i>
   <i type="int" name="NOMEGA">     0</i>
   <i type="int" name="NOMEGAR">     0</i>
   <i type="int" name="NBANDSGW">    -1</i>
   <i type="int" name="NBANDSO">    -1</i>
   <i type="int" name="NBANDSV">    -1</i>
   <i type="int" name="NELM">   250</i>
   <i type="int" name="NELMHF">     1</i>
   <i type="int" name="DIM">     3</i>
   <i type="int" name="ANTIRES">     0</i>
   <i name="OMEGAMAX">    -30.00000000</i>
   <i name="OMEGAMIN">    -30.00000000</i>
   <i name="OMEGATL">   -200.00000000</i>
   <i type="int" name="OMEGAGRID">     0</i>
   <i name="CSHIFT">     -0.10000000</i>
   <i type="logical" name="SELFENERGY"> F  </i>
   <i type="logical" name="LSPECTRAL"> F  </i>
   <i type="logical" name="LSPECTRALGW"> F  </i>
   <i type="logical" name="LSINGLES"> F  </i>
   <i type="logical" name="LFERMIGW"> F  </i>
   <i type="logical" name="ODDONLYGW"> F  </i>
   <i type="logical" name="EVENONLYGW"> F  </i>
   <i type="int" name="NKREDLFX">     1</i>
   <i type="int" name="NKREDLFY">     1</i>
   <i type="int" name="NKREDLFZ">     1</i>
   <i type="int" name="MAXMEM">  1800</i>
   <i type="int" name="TELESCOPE">     0</i>
   <i type="int" name="TAUPAR">     1</i>
   <i type="int" name="OMEGAPAR">    -1</i>
   <i name="LAMBDA">      1.00000000</i>
  </separator>
  <separator name="External order field" >
   <i name="OFIELD_KAPPA">      0.00000000</i>
   <v name="OFIELD_K">      0.00000000      0.00000000      0.00000000</v>
   <i name="OFIELD_Q6_NEAR">      0.00000000</i>
   <i name="OFIELD_Q6_FAR">      0.00000000</i>
   <i name="OFIELD_A">      0.00000000</i>
  </separator>
 </parameters>
 <atominfo>
  <atoms>       4 </atoms>
  <types>       1 </types>
  <array name="atoms" >
   <dimension dim="1">ion</dimension>
   <field type="string">element</field>
   <field type="int">atomtype</field>
   <set>
    <rc><c>P </c><c>   1</c></rc>
    <rc><c>P </c><c>   1</c></rc>
    <rc><c>P </c><c>   1</c></rc>
    <rc><c>P </c><c>   1</c></rc>
   </set>
  </array>
  <array name="atomtypes" >
   <dimension dim="1">type</dimension>
   <field type="int">atomspertype</field>
   <field type="string">element</field>
   <field>mass</field>
   <field>valence</field>
   <field type="string">pseudopotential</field>
   <set>
    <rc><c>   4</c><c>P </c><c>     30.97400000</c><c>      5.00000000</c><c>  PAW_PBE P 06Sep2000                   </c></rc>
   </set>
  </array>
 </atominfo>
 <structure name="initialpos" >
  <crystal>
   <varray name="basis" >
    <v>       3.31364900       0.00000000       0.00000000 </v>
    <v>       0.00000000       4.64641000      -0.00005300 </v>
    <v>       0.00000000       0.00000000      20.02439000 </v>
   </varray>
   <i name="volume">    308.30695939 </i>
   <varray name="rec_basis" >
    <v>       0.30178211       0.00000000       0.00000000 </v>
    <v>       0.00000000       0.21521992       0.00000000 </v>
    <v>       0.00000000       0.00000057       0.04993910 </v>
   </varray>
  </crystal>
  <varray name="positions" >
   <v>       0.50000000       0.91077300       0.55252100 </v>
   <v>       0.50000000       0.08922700       0.44747900 </v>
   <v>       0.00000000       0.41076900       0.44747900 </v>
   <v>       0.00000000       0.58923100       0.55252100 </v>
  </varray>
 </structure>
 <calculation>
  <scstep>
   <time name="dav">    1.49    1.49</time>
   <time name="total">    1.52    1.52</time>
   <energy>
    <i name="alphaZ">      5.20312951 </i>
    <i name="ewald">   1839.69115460 </i>
    <i name="hartreedc">  -2433.61141145 </i>
    <i name="XCdc">     12.93849517 </i>
    <i name="pawpsdc">    559.04011960 </i>
    <i name="pawaedc">   -526.39432044 </i>
    <i name="eentropy">     -0.00040147 </i>
    <i name="bandstr">    -28.81768865 </i>
    <i name="atom">    704.16778566 </i>
    <i name="e_fr_energy">    132.21686254 </i>
    <i name="e_wo_entrp">    132.21726401 </i>
    <i name="e_0_energy">    132.21706327 </i>
   </energy>
  </scstep>
  <scstep>
   <time name="dav">    1.97    1.97</time>
   <time name="total">    1.97    1.97</time>
   <energy>
    <i name="e_fr_energy">     -6.22839724 </i>
    <i name="e_wo_entrp">     -6.22839724 </i>
    <i name="e_0_energy">     -6.22839724 </i>
   </energy>
  </scstep>
  <scstep>
   <time name="dav">    1.84    1.84</time>
   <time name="total">    1.84    1.84</time>
   <energy>
    <i name="e_fr_energy">    -21.33724594 </i>
    <i name="e_wo_entrp">    -21.33724594 </i>
    <i name="e_0_energy">    -21.33724594 </i>
   </energy>
  </scstep>
  <scstep>
   <time name="dav">    1.87    1.87</time>
   <time name="total">    1.87    1.87</time>
   <energy>
    <i name="e_fr_energy">    -21.64857217 </i>
    <i name="e_wo_entrp">    -21.64857217 </i>
    <i name="e_0_energy">    -21.64857217 </i>
   </energy>
  </scstep>
  <scstep>
   <time name="dav">    1.98    1.98</time>
   <time name="total">    2.07    2.07</time>
   <energy>
    <i name="e_fr_energy">    -21.65858296 </i>
    <i name="e_wo_entrp">    -21.65858296 </i>
    <i name="e_0_energy">    -21.65858296 </i>
   </energy>
  </scstep>
  <scstep>
   <time name="dav">    1.81    1.81</time>
   <time name="total">    1.92    1.93</time>
   <energy>
    <i name="e_fr_energy">    -21.52105104 </i>
    <i name="e_wo_entrp">    -21.52105104 </i>
    <i name="e_0_energy">    -21.52105104 </i>
   </energy>
  </scstep>
  <scstep>
   <time name="dav">    1.73    1.73</time>
   <time name="total">    1.84    1.84</time>
   <energy>
    <i name="e_fr_energy">    -21.45503774 </i>
    <i name="e_wo_entrp">    -21.45503774 </i>
    <i name="e_0_energy">    -21.45503774 </i>
   </energy>
  </scstep>
  <scstep>
   <time name="dav">    1.82    1.82</time>
   <time name="total">    1.93    1.93</time>
   <energy>
    <i name="e_fr_energy">    -21.45452790 </i>
    <i name="e_wo_entrp">    -21.45452790 </i>
    <i name="e_0_energy">    -21.45452790 </i>
   </energy>
  </scstep>
  <scstep>
   <time name="dav">    2.12    2.12</time>
   <time name="total">    2.24    2.24</time>
   <energy>
    <i name="e_fr_energy">    -21.45438729 </i>
    <i name="e_wo_entrp">    -21.45438729 </i>
    <i name="e_0_energy">    -21.45438729 </i>
   </energy>
  </scstep>
  <scstep>
   <time name="dav">    1.81    1.81</time>
   <time name="total">    1.93    1.93</time>
   <energy>
    <i name="e_fr_energy">    -21.45424346 </i>
    <i name="e_wo_entrp">    -21.45424346 </i>
    <i name="e_0_energy">    -21.45424346 </i>
   </energy>
  </scstep>
  <scstep>
   <time name="dav">    1.80    1.80</time>
   <time name="total">    1.92    1.92</time>
   <energy>
    <i name="e_fr_energy">    -21.45415743 </i>
    <i name="e_wo_entrp">    -21.45415743 </i>
    <i name="e_0_energy">    -21.45415743 </i>
   </energy>
  </scstep>
  <scstep>
   <time name="dav">    1.62    1.62</time>
   <time name="total">    1.73    1.73</time>
   <energy>
    <i name="e_fr_energy">    -21.45453852 </i>
    <i name="e_wo_entrp">    -21.45453852 </i>
    <i name="e_0_energy">    -21.45453852 </i>
   </energy>
  </scstep>
  <scstep>
   <time name="dav">    1.61    1.61</time>
   <time name="total">    1.73    1.73</time>
   <energy>
    <i name="e_fr_energy">    -21.45463298 </i>
    <i name="e_wo_entrp">    -21.45463298 </i>
    <i name="e_0_energy">    -21.45463298 </i>
   </energy>
  </scstep>
  <scstep>
   <time name="dav">    1.50    1.50</time>
   <time name="total">    1.61    1.61</time>
   <energy>
    <i name="e_fr_energy">    -21.45476036 </i>
    <i name="e_wo_entrp">    -21.45476036 </i>
    <i name="e_0_energy">    -21.45476036 </i>
   </energy>
  </scstep>
  <scstep>
   <time name="dav">    1.54    1.55</time>
   <time name="total">    1.66    1.66</time>
   <energy>
    <i name="e_fr_energy">    -21.45479241 </i>
    <i name="e_wo_entrp">    -21.45479241 </i>
    <i name="e_0_energy">    -21.45479241 </i>
   </energy>
  </scstep>
  <scstep>
   <time name="dav">    1.47    1.47</time>
   <time name="total">    1.59    1.59</time>
   <energy>
    <i name="e_fr_energy">    -21.45482285 </i>
    <i name="e_wo_entrp">    -21.45482285 </i>
    <i name="e_0_energy">    -21.45482285 </i>
   </energy>
  </scstep>
  <scstep>
   <time name="dav">    1.47    1.47</time>
   <time name="total">    1.49    1.49</time>
   <energy>
    <i name="alphaZ">      5.20312951 </i>
    <i name="ewald">   1839.69115460 </i>
    <i name="hartreedc">  -2448.56527982 </i>
    <i name="XCdc">     13.99071048 </i>
    <i name="pawpsdc">   2059.75762369 </i>
    <i name="pawaedc">  -2027.43544814 </i>
    <i name="eentropy">     -0.00000000 </i>
    <i name="bandstr">   -168.26450108 </i>
    <i name="atom">    704.16778566 </i>
    <i name="e_fr_energy">    -21.45482511 </i>
    <i name="e_wo_entrp">    -21.45482511 </i>
    <i name="e_0_energy">    -21.45482511 </i>
   </energy>
  </scstep>
  <structure>
   <crystal>
    <varray name="basis" >
     <v>       3.31364900       0.00000000       0.00000000 </v>
     <v>       0.00000000       4.64641000      -0.00005300 </v>
     <v>       0.00000000       0.00000000      20.02439000 </v>
    </varray>
    <i name="volume">    308.30695939 </i>
    <varray name="rec_basis" >
     <v>       0.30178211       0.00000000       0.00000000 </v>
     <v>       0.00000000       0.21521992       0.00000000 </v>
     <v>       0.00000000       0.00000057       0.04993910 </v>
    </varray>
   </crystal>
   <varray name="positions" >
    <v>       0.50000000       0.91077300       0.55252100 </v>
    <v>       0.50000000       0.08922700       0.44747900 </v>
    <v>       0.00000000       0.41076900       0.44747900 </v>
    <v>       0.00000000       0.58923100       0.55252100 </v>
   </varray>
  </structure>
  <varray name="forces" >
   <v>       0.00000017      -0.08655682      -0.02226044 </v>
   <v>      -0.00000017       0.08655682       0.02226044 </v>
   <v>      -0.00000013      -0.08658722       0.02226542 </v>
   <v>       0.00000013       0.08658722      -0.02226542 </v>
  </varray>
  <varray name="stress" >
   <v>      -3.22492585      -0.00000219       0.00000019 </v>
   <v>      -0.00000222      -2.41736046       0.00035733 </v>
   <v>       0.00000019       0.00035726      -0.55071017 </v>
  </varray>
  <energy>
   <i name="e_fr_energy">    -21.45482511 </i>
   <i name="e_wo_entrp">    -21.45482511 </i>
   <i name="e_0_energy">     -0.00000000 </i>
  </energy>
  <time name="totalsc">   31.61   31.65</time>
 </calculation>
 <calculation>
  <scstep>
   <time name="dav">    1.59    1.59</time>
   <time name="total">    1.71    1.71</time>
   <energy>
    <i name="alphaZ">      5.20312951 </i>
    <i name="ewald">   1840.65136635 </i>
    <i name="hartreedc">  -2449.38297275 </i>
    <i name="XCdc">     14.00625251 </i>
    <i name="pawpsdc">   2059.46195873 </i>
    <i name="pawaedc">  -2027.13982473 </i>
    <i name="eentropy">     -0.00000000 </i>
    <i name="bandstr">   -168.42311036 </i>
    <i name="atom">    704.16778566 </i>
    <i name="e_fr_energy">    -21.45541508 </i>
    <i name="e_wo_entrp">    -21.45541508 </i>
    <i name="e_0_energy">    -21.45541508 </i>
   </energy>
  </scstep>
  <scstep>
   <time name="dav">    1.94    1.94</time>
   <time name="total">    2.05    2.05</time>
   <energy>
    <i name="e_fr_energy">    -21.45550360 </i>
    <i name="e_wo_entrp">    -21.45550360 </i>
    <i name="e_0_energy">    -21.45550360 </i>
   </energy>
  </scstep>
  <scstep>
   <time name="dav">    1.65    1.65</time>
   <time name="total">    1.76    1.77</time>
   <energy>
    <i name="e_fr_energy">    -21.45550467 </i>
    <i name="e_wo_entrp">    -21.45550467 </i>
    <i name="e_0_energy">    -21.45550467 </i>
   </energy>
  </scstep>
  <scstep>
   <time name="dav">    1.35    1.35</time>
   <time name="total">    1.46    1.46</time>
   <energy>
    <i name="e_fr_energy">    -21.45550796 </i>
    <i name="e_wo_entrp">    -21.45550796 </i>
    <i name="e_0_energy">    -21.45550796 </i>
   </energy>
  </scstep>
  <scstep>
   <time name="dav">    1.21    1.21</time>
   <time name="total">    1.32    1.32</time>
   <energy>
    <i name="e_fr_energy">    -21.45550801 </i>
    <i name="e_wo_entrp">    -21.45550801 </i>
    <i name="e_0_energy">    -21.45550801 </i>
   </energy>
  </scstep>
  <scstep>
   <time name="dav">    1.18    1.18</time>
   <time name="total">    1.20    1.20</time>
   <energy>
    <i name="alphaZ">      5.20312951 </i>
    <i name="ewald">   1840.65136635 </i>
    <i name="hartreedc">  -2449.39170221 </i>
    <i name="XCdc">     14.00790402 </i>
    <i name="pawpsdc">   2069.03360091 </i>
    <i name="pawaedc">  -2036.71504572 </i>
    <i name="eentropy">     -0.00000000 </i>
    <i name="bandstr">   -168.41254715 </i>
    <i name="atom">    704.16778566 </i>
    <i name="e_fr_energy">    -21.45550863 </i>
    <i name="e_wo_entrp">    -21.45550863 </i>
    <i name="e_0_energy">    -21.45550863 </i>
   </energy>
  </scstep>
  <structure>
   <crystal>
    <varray name="basis" >
     <v>       3.31364900       0.00000000       0.00000000 </v>
     <v>       0.00000000       4.64641000      -0.00005300 </v>
     <v>       0.00000000       0.00000000      20.02439000 </v>
    </varray>
    <i name="volume">    308.30695939 </i>
    <varray name="rec_basis" >
     <v>       0.30178211       0.00000000       0.00000000 </v>
     <v>       0.00000000       0.21521992       0.00000000 </v>
     <v>       0.00000000       0.00000057       0.04993910 </v>
    </varray>
   </crystal>
   <varray name="positions" >
    <v>       0.50000000       0.91023378       0.55248882 </v>
    <v>       0.50000000       0.08976622       0.44751118 </v>
    <v>      -0.00000000       0.41022959       0.44751118 </v>
    <v>       0.00000000       0.58977041       0.55248882 </v>
   </varray>
  </structure>
  <varray name="forces" >
   <v>       0.00000000      -0.03470512      -0.02065831 </v>
   <v>      -0.00000000       0.03470512       0.02065831 </v>
   <v>       0.00000001      -0.03473027       0.02065935 </v>
   <v>      -0.00000001       0.03473027      -0.02065935 </v>
  </varray>
  <varray name="stress" >
   <v>      -2.99742702       0.00000110      -0.00000044 </v>
   <v>       0.00000119      -1.65258821       0.00029399 </v>
   <v>      -0.00000050       0.00029389      -0.53511429 </v>
  </varray>
  <energy>
   <i name="e_fr_energy">    -21.45550863 </i>
   <i name="e_wo_entrp">    -21.45550863 </i>
   <i name="e_0_energy">     -0.00000000 </i>
  </energy>
  <time name="totalsc">   10.28   10.30</time>
 </calculation>
 <calculation>
  <scstep>
   <time name="dav">    1.57    1.57</time>
   <time name="total">    1.68    1.68</time>
   <energy>
    <i name="alphaZ">      5.20312951 </i>
    <i name="ewald">   1841.38790279 </i>
    <i name="hartreedc">  -2450.00727954 </i>
    <i name="XCdc">     14.01978425 </i>
    <i name="pawpsdc">   2069.15793774 </i>
    <i name="pawaedc">  -2036.83936872 </i>
    <i name="eentropy">     -0.00000000 </i>
    <i name="bandstr">   -168.54550448 </i>
    <i name="atom">    704.16778566 </i>
    <i name="e_fr_energy">    -21.45561279 </i>
    <i name="e_wo_entrp">    -21.45561279 </i>
    <i name="e_0_energy">    -21.45561279 </i>
   </energy>
  </scstep>
  <scstep>
   <time name="dav">    1.92    1.92</time>
   <time name="total">    2.03    2.03</time>
   <energy>
    <i name="e_fr_energy">    -21.45566557 </i>
    <i name="e_wo_entrp">    -21.45566557 </i>
    <i name="e_0_energy">    -21.45566557 </i>
   </energy>
  </scstep>
  <scstep>
   <time name="dav">    1.53    1.53</time>
   <time name="total">    1.64    1.64</time>
   <energy>
    <i name="e_fr_energy">    -21.45566585 </i>
    <i name="e_wo_entrp">    -21.45566585 </i>
    <i name="e_0_energy">    -21.45566585 </i>
   </energy>
  </scstep>
  <scstep>
   <time name="dav">    1.22    1.22</time>
   <time name="total">    1.33    1.34</time>
   <energy>
    <i name="e_fr_energy">    -21.45566730 </i>
    <i name="e_wo_entrp">    -21.45566730 </i>
    <i name="e_0_energy">    -21.45566730 </i>
   </energy>
  </scstep>
  <scstep>
   <time name="dav">    1.14    1.14</time>
   <time name="total">    1.25    1.25</time>
   <energy>
    <i name="e_fr_energy">    -21.45566713 </i>
    <i name="e_wo_entrp">    -21.45566713 </i>
    <i name="e_0_energy">    -21.45566713 </i>
   </energy>
  </scstep>
  <scstep>
   <time name="dav">    1.15    1.16</time>
   <time name="total">    1.18    1.18</time>
   <energy>
    <i name="alphaZ">      5.20312951 </i>
    <i name="ewald">   1841.38790279 </i>
    <i name="hartreedc">  -2450.00777204 </i>
    <i name="XCdc">     14.02105265 </i>
    <i name="pawpsdc">   2076.69966432 </i>
    <i name="pawaedc">  -2044.38387143 </i>
    <i name="eentropy">     -0.00000000 </i>
    <i name="bandstr">   -168.54355880 </i>
    <i name="atom">    704.16778566 </i>
    <i name="e_fr_energy">    -21.45566734 </i>
    <i name="e_wo_entrp">    -21.45566734 </i>
    <i name="e_0_energy">    -21.45566734 </i>
   </energy>
  </scstep>
  <structure>
   <crystal>
    <varray name="basis" >
     <v>       3.31364900       0.00000000       0.00000000 </v>
     <v>       0.00000000       4.64641000      -0.00005300 </v>
     <v>       0.00000000       0.00000000      20.02439000 </v>
    </varray>
    <i name="volume">    308.30695939 </i>
    <varray name="rec_basis" >
     <v>       0.30178211       0.00000000       0.00000000 </v>
     <v>       0.00000000       0.21521992       0.00000000 </v>
     <v>       0.00000000       0.00000057       0.04993910 </v>
    </varray>
   </crystal>
   <varray name="positions" >
    <v>       0.50000000       0.90982080       0.55246418 </v>
    <v>       0.50000000       0.09017920       0.44753582 </v>
    <v>      -0.00000000       0.40981647       0.44753583 </v>
    <v>       0.00000000       0.59018353       0.55246417 </v>
   </varray>
  </structure>
  <varray name="forces" >
   <v>      -0.00000010       0.00531783      -0.01960559 </v>
   <v>       0.00000010      -0.00531783       0.01960559 </v>
   <v>      -0.00000004       0.00529656       0.01960380 </v>
   <v>       0.00000004      -0.00529656      -0.01960380 </v>
  </varray>
  <varray name="stress" >
   <v>      -2.81941231       0.00000022      -0.00000070 </v>
   <v>       0.00000024      -1.06032472       0.00024559 </v>
   <v>      -0.00000069       0.00024557      -0.51073802 </v>
  </varray>
  <energy>
   <i name="e_fr_energy">    -21.45566734 </i>
   <i name="e_wo_entrp">    -21.45566734 </i>
   <i name="e_0_energy">     -0.00000000 </i>
  </energy>
  <time name="totalsc">    9.89    9.90</time>
 </calculation>
 <calculation>
  <scstep>
   <time name="dav">    1.47    1.47</time>
   <time name="total">    1.58    1.58</time>
   <energy>
    <i name="alphaZ">      5.20312951 </i>
    <i name="ewald">   1842.01876618 </i>
    <i name="hartreedc">  -2450.60295582 </i>
    <i name="XCdc">     14.02521634 </i>
    <i name="pawpsdc">   2076.80503140 </i>
    <i name="pawaedc">  -2044.48923178 </i>
    <i name="eentropy">     -0.00000000 </i>
    <i name="bandstr">   -168.58344189 </i>
    <i name="atom">    704.16778566 </i>
    <i name="e_fr_energy">    -21.45570039 </i>
    <i name="e_wo_entrp">    -21.45570039 </i>
    <i name="e_0_energy">    -21.45570039 </i>
   </energy>
  </scstep>
  <scstep>
   <time name="dav">    1.81    1.81</time>
   <time name="total">    1.92    1.92</time>
   <energy>
    <i name="e_fr_energy">    -21.45570940 </i>
    <i name="e_wo_entrp">    -21.45570940 </i>
    <i name="e_0_energy">    -21.45570940 </i>
   </energy>
  </scstep>
  <scstep>
   <time name="dav">    1.17    1.17</time>
   <time name="total">    1.28    1.28</time>
   <energy>
    <i name="e_fr_energy">    -21.45570943 </i>
    <i name="e_wo_entrp">    -21.45570943 </i>
    <i name="e_0_energy">    -21.45570943 </i>
   </energy>
  </scstep>
  <scstep>
   <time name="dav">    1.17    1.17</time>
   <time name="total">    1.28    1.28</time>
   <energy>
    <i name="e_fr_energy">    -21.45570983 </i>
    <i name="e_wo_entrp">    -21.45570983 </i>
    <i name="e_0_energy">    -21.45570983 </i>
   </energy>
  </scstep>
  <scstep>
   <time name="dav">    1.13    1.13</time>
   <time name="total">    1.24    1.25</time>
   <energy>
    <i name="e_fr_energy">    -21.45570990 </i>
    <i name="e_wo_entrp">    -21.45570990 </i>
    <i name="e_0_energy">    -21.45570990 </i>
   </energy>
  </scstep>
  <scstep>
   <time name="dav">    1.12    1.12</time>
   <time name="total">    1.14    1.15</time>
   <energy>
    <i name="alphaZ">      5.20312951 </i>
    <i name="ewald">   1842.01876618 </i>
    <i name="hartreedc">  -2450.59982855 </i>
    <i name="XCdc">     14.02546144 </i>
    <i name="pawpsdc">   2078.94756386 </i>
    <i name="pawaedc">  -2046.63244419 </i>
    <i name="eentropy">     -0.00000000 </i>
    <i name="bandstr">   -168.58614392 </i>
    <i name="atom">    704.16778566 </i>
    <i name="e_fr_energy">    -21.45571000 </i>
    <i name="e_wo_entrp">    -21.45571000 </i>
    <i name="e_0_energy">    -21.45571000 </i>
   </energy>
  </scstep>
  <structure>
   <crystal>
    <varray name="basis" >
     <v>       3.31364900       0.00000000       0.00000000 </v>
     <v>       0.00000000       4.64641000      -0.00005300 </v>
     <v>       0.00000000       0.00000000      20.02439000 </v>
    </varray>
    <i name="volume">    308.30695939 </i>
    <varray name="rec_basis" >
     <v>       0.30178211       0.00000000       0.00000000 </v>
     <v>       0.00000000       0.21521992       0.00000000 </v>
     <v>       0.00000000       0.00000057       0.04993910 </v>
    </varray>
   </crystal>
   <varray name="positions" >
    <v>       0.50000000       0.90982511       0.55242947 </v>
    <v>       0.50000000       0.09017489       0.44757053 </v>
    <v>      -0.00000000       0.40982061       0.44757053 </v>
    <v>       0.00000000       0.59017939       0.55242947 </v>
   </varray>
  </structure>
  <varray name="forces" >
   <v>       0.00000000       0.00257477      -0.00949460 </v>
   <v>      -0.00000000      -0.00257477       0.00949460 </v>
   <v>       0.00000006       0.00255768       0.00949346 </v>
   <v>      -0.00000006      -0.00255768      -0.00949346 </v>
  </varray>
  <varray name="stress" >
   <v>      -2.80524975       0.00000062      -0.00000057 </v>
   <v>       0.00000061      -1.02894920       0.00019927 </v>
   <v>      -0.00000055       0.00019923      -0.28357643 </v>
  </varray>
  <energy>
   <i name="e_fr_energy">    -21.45571000 </i>
   <i name="e_wo_entrp">    -21.45571000 </i>
   <i name="e_0_energy">     -0.00000000 </i>
  </energy>
  <time name="totalsc">    9.16    9.18</time>
  <eigenvalues>
   <array>
    <dimension dim="1">band</dimension>
    <dimension dim="2">kpoint</dimension>
    <dimension dim="3">spin</dimension>
    <field>eigene</field>
    <field>occ</field>
    <set>
     <set comment="spin 1">
      <set comment="kpoint 1">
       <r>  -17.2133    1.0000 </r>
       <r>  -14.7684    1.0000 </r>
       <r>  -11.4982    1.0000 </r>
       <r>   -7.9339    1.0000 </r>
       <r>   -7.0279    1.0000 </r>
       <r>   -6.7530    1.0000 </r>
       <r>   -5.6614    1.0000 </r>
       <r>   -4.0944    1.0000 </r>
       <r>   -3.9138    1.0000 </r>
       <r>   -2.3148    1.0000 </r>
       <r>   -1.3678    0.0000 </r>
       <r>   -0.7152    0.0000 </r>
       <r>    0.2874    0.0000 </r>
       <r>    0.9347    0.0000 </r>
       <r>    2.1168    0.0000 </r>
       <r>    2.2896    0.0000 </r>
      </set>
      <set comment="kpoint 2">
       <r>  -17.1866    1.0000 </r>
       <r>  -14.7404    1.0000 </r>
       <r>  -11.5077    1.0000 </r>
       <r>   -7.9137    1.0000 </r>
       <r>   -7.0477    1.0000 </r>
       <r>   -6.7295    1.0000 </r>
       <r>   -5.8323    1.0000 </r>
       <r>   -4.2736    1.0000 </r>
       <r>   -3.9037    1.0000 </r>
       <r>   -2.3157    1.0000 </r>
       <r>   -1.3429    0.0000 </r>
       <r>   -0.4756    0.0000 </r>
       <r>    0.5254    0.0000 </r>
       <r>    0.7730    0.0000 </r>
       <r>    2.1445    0.0000 </r>
       <r>    2.3194    0.0000 </r>
      </set>
      <set comment="kpoint 3">
       <r>  -17.1066    1.0000 </r>
       <r>  -14.6567    1.0000 </r>
       <r>  -11.5416    1.0000 </r>
       <r>   -7.8540    1.0000 </r>
       <r>   -7.1269    1.0000 </r>
       <r>   -6.6594    1.0000 </r>
       <r>   -6.2499    1.0000 </r>
       <r>   -4.6854    1.0000 </r>
       <r>   -3.8771    1.0000 </r>
       <r>   -2.3367    1.0000 </r>
       <r>   -1.2687    0.0000 </r>
       <r>    0.1668    0.0000 </r>
       <r>    0.3717    0.0000 </r>
       <r>    1.1091    0.0000 </r>
       <r>    2.2227    0.0000 </r>
       <r>    2.4086    0.0000 </r>
      </set>
      <set comment="kpoint 4">
       <r>  -16.9737    1.0000 </r>
       <r>  -14.5173    1.0000 </r>
       <r>  -11.6155    1.0000 </r>
       <r>   -7.7571    1.0000 </r>
       <r>   -7.3262    1.0000 </r>
       <r>   -6.7480    1.0000 </r>
       <r>   -6.5442    1.0000 </r>
       <r>   -5.1021    1.0000 </r>
       <r>   -3.8462    1.0000 </r>
       <r>   -2.3979    1.0000 </r>
       <r>   -1.1466    0.0000 </r>
       <r>   -0.1225    0.0000 </r>
       <r>    1.0650    0.0000 </r>
       <r>    1.7305    0.0000 </r>
       <r>    2.2855    0.0000 </r>
       <r>    2.5567    0.0000 </r>
      </set>
      <set comment="kpoint 5">
       <r>  -16.7885    1.0000 </r>
       <r>  -14.3226    1.0000 </r>
       <r>  -11.7541    1.0000 </r>
       <r>   -7.7106    1.0000 </r>
       <r>   -7.6280    1.0000 </r>
       <r>   -7.2039    1.0000 </r>
       <r>   -6.3863    1.0000 </r>
       <r>   -5.3584    1.0000 </r>
       <r>   -3.8343    1.0000 </r>
       <r>   -2.5101    1.0000 </r>
       <r>   -0.9799    0.0000 </r>
       <r>   -0.5946    0.0000 </r>
       <r>    1.7645    0.0000 </r>
       <r>    1.8932    0.0000 </r>
       <r>    2.0724    0.0000 </r>
       <r>    2.6626    0.0000 </r>
      </set>
      <set comment="kpoint 6">
       <r>  -16.5520    1.0000 </r>
       <r>  -14.0730    1.0000 </r>
       <r>  -11.9817    1.0000 </r>
       <r>   -8.2637    1.0000 </r>
       <r>   -7.5427    1.0000 </r>
       <r>   -7.4751    1.0000 </r>
       <r>   -6.1899    1.0000 </r>
       <r>   -5.4256    1.0000 </r>
       <r>   -3.8751    1.0000 </r>
       <r>   -2.6819    1.0000 </r>
       <r>   -0.9561    0.0000 </r>
       <r>   -0.7766    0.0000 </r>
       <r>    1.2144    0.0000 </r>
       <r>    1.3232    0.0000 </r>
       <r>    2.5251    0.0000 </r>
       <r>    2.9130    0.0000 </r>
      </set>
      <set comment="kpoint 7">
       <r>  -16.2657    1.0000 </r>
       <r>  -13.7691    1.0000 </r>
       <r>  -12.3089    1.0000 </r>
       <r>   -8.9066    1.0000 </r>
       <r>   -7.7305    1.0000 </r>
       <r>   -7.3128    1.0000 </r>
       <r>   -5.9619    1.0000 </r>
       <r>   -5.3660    1.0000 </r>
       <r>   -3.9940    1.0000 </r>
       <r>   -2.9157    1.0000 </r>
       <r>   -1.1430    0.0000 </r>
       <r>   -0.5622    0.0000 </r>
       <r>    0.5803    0.0000 </r>
       <r>    0.7952    0.0000 </r>
       <r>    2.0966    0.0000 </r>
       <r>    3.2386    0.0000 </r>
      </set>
      <set comment="kpoint 8">
       <r>  -15.9315    1.0000 </r>
       <r>  -13.4116    1.0000 </r>
       <r>  -12.7225    1.0000 </r>
       <r>   -9.5765    1.0000 </r>
       <r>   -7.7707    1.0000 </r>
       <r>   -7.1655    1.0000 </r>
       <r>   -5.7132    1.0000 </r>
       <r>   -5.2439    1.0000 </r>
       <r>   -4.1720    1.0000 </r>
       <r>   -3.2031    1.0000 </r>
       <r>   -1.1373    0.0000 </r>
       <r>   -0.4406    0.0000 </r>
       <r>   -0.0100    0.0000 </r>
       <r>    0.4504    0.0000 </r>
       <r>    1.6009    0.0000 </r>
       <r>    2.9860    0.0000 </r>
      </set>
      <set comment="kpoint 9">
       <r>  -15.5521    1.0000 </r>
       <r>  -13.1935    1.0000 </r>
       <r>  -13.0016    1.0000 </r>
       <r>  -10.2384    1.0000 </r>
       <r>   -7.6921    1.0000 </r>
       <r>   -7.0700    1.0000 </r>
       <r>   -5.4612    1.0000 </r>
       <r>   -5.1093    1.0000 </r>
       <r>   -4.3370    1.0000 </r>
       <r>   -3.5230    1.0000 </r>
       <r>   -0.9684    0.0000 </r>
       <r>   -0.6006    0.0000 </r>
       <r>   -0.5065    0.0000 </r>
       <r>    0.5054    0.0000 </r>
       <r>    1.1008    0.0000 </r>
       <r>    2.5802    0.0000 </r>
      </set>
      <set comment="kpoint 10">
       <r>  -15.1314    1.0000 </r>
       <r>  -13.6913    1.0000 </r>
       <r>  -12.5406    1.0000 </r>
       <r>  -10.8742    1.0000 </r>
       <r>   -7.5344    1.0000 </r>
       <r>   -7.0665    1.0000 </r>
       <r>   -5.2326    1.0000 </r>
       <r>   -5.0086    1.0000 </r>
       <r>   -4.4049    1.0000 </r>
       <r>   -3.8445    1.0000 </r>
       <r>   -0.8701    0.0000 </r>
       <r>   -0.8672    0.0000 </r>
       <r>   -0.6792    0.0000 </r>
       <r>    0.6056    0.0000 </r>
       <r>    0.8184    0.0000 </r>
       <r>    2.1279    0.0000 </r>
      </set>
      <set comment="kpoint 11">
       <r>  -14.6750    1.0000 </r>
       <r>  -14.1910    1.0000 </r>
       <r>  -12.0303    1.0000 </r>
       <r>  -11.4736    1.0000 </r>
       <r>   -7.3424    1.0000 </r>
       <r>   -7.1682    1.0000 </r>
       <r>   -5.0627    1.0000 </r>
       <r>   -4.9849    1.0000 </r>
       <r>   -4.3309    1.0000 </r>
       <r>   -4.1291    1.0000 </r>
       <r>   -1.0533    0.0000 </r>
       <r>   -1.0466    0.0000 </r>
       <r>   -0.3042    0.0000 </r>
       <r>    0.1309    0.0000 </r>
       <r>    1.2217    0.0000 </r>
       <r>    1.6664    0.0000 </r>
      </set>
      <set comment="kpoint 12">
       <r>  -17.1921    1.0000 </r>
       <r>  -14.7994    1.0000 </r>
       <r>  -11.5023    1.0000 </r>
       <r>   -8.0969    1.0000 </r>
       <r>   -6.9205    1.0000 </r>
       <r>   -6.6644    1.0000 </r>
       <r>   -5.6452    1.0000 </r>
       <r>   -4.1099    1.0000 </r>
       <r>   -3.8246    1.0000 </r>
       <r>   -2.5086    1.0000 </r>
       <r>   -1.1872    0.0000 </r>
       <r>   -0.6985    0.0000 </r>
       <r>    0.2408    0.0000 </r>
       <r>    0.9230    0.0000 </r>
       <r>    2.1736    0.0000 </r>
       <r>    2.3194    0.0000 </r>
      </set>
      <set comment="kpoint 13">
       <r>  -17.1655    1.0000 </r>
       <r>  -14.7717    1.0000 </r>
       <r>  -11.5105    1.0000 </r>
       <r>   -8.0811    1.0000 </r>
       <r>   -6.9338    1.0000 </r>
       <r>   -6.6502    1.0000 </r>
       <r>   -5.8073    1.0000 </r>
       <r>   -4.2954    1.0000 </r>
       <r>   -3.8142    1.0000 </r>
       <r>   -2.5056    1.0000 </r>
       <r>   -1.1663    0.0000 </r>
       <r>   -0.4594    0.0000 </r>
       <r>    0.4713    0.0000 </r>
       <r>    0.7738    0.0000 </r>
       <r>    2.2000    0.0000 </r>
       <r>    2.3491    0.0000 </r>
      </set>
      <set comment="kpoint 14">
       <r>  -17.0855    1.0000 </r>
       <r>  -14.6885    1.0000 </r>
       <r>  -11.5404    1.0000 </r>
       <r>   -8.0382    1.0000 </r>
       <r>   -6.9903    1.0000 </r>
       <r>   -6.6372    1.0000 </r>
       <r>   -6.1705    1.0000 </r>
       <r>   -4.7173    1.0000 </r>
       <r>   -3.7941    1.0000 </r>
       <r>   -2.5114    1.0000 </r>
       <r>   -1.1075    0.0000 </r>
       <r>    0.1820    0.0000 </r>
       <r>    0.3582    0.0000 </r>
       <r>    1.0854    0.0000 </r>
       <r>    2.2744    0.0000 </r>
       <r>    2.4381    0.0000 </r>
      </set>
      <set comment="kpoint 15">
       <r>  -16.9527    1.0000 </r>
       <r>  -14.5502    1.0000 </r>
       <r>  -11.6078    1.0000 </r>
       <r>   -7.9897    1.0000 </r>
       <r>   -7.1341    1.0000 </r>
       <r>   -6.8600    1.0000 </r>
       <r>   -6.3368    1.0000 </r>
       <r>   -5.1431    1.0000 </r>
       <r>   -3.7785    1.0000 </r>
       <r>   -2.5465    1.0000 </r>
       <r>   -1.0103    0.0000 </r>
       <r>   -0.1138    0.0000 </r>
       <r>    1.0747    0.0000 </r>
       <r>    1.7253    0.0000 </r>
       <r>    2.2840    0.0000 </r>
       <r>    2.5276    0.0000 </r>
      </set>
      <set comment="kpoint 16">
       <r>  -16.7677    1.0000 </r>
       <r>  -14.3575    1.0000 </r>
       <r>  -11.7372    1.0000 </r>
       <r>   -8.0315    1.0000 </r>
       <r>   -7.3456    1.0000 </r>
       <r>   -7.2723    1.0000 </r>
       <r>   -6.2322    1.0000 </r>
       <r>   -5.4023    1.0000 </r>
       <r>   -3.7909    1.0000 </r>
       <r>   -2.6271    1.0000 </r>
       <r>   -0.8730    0.0000 </r>
       <r>   -0.5572    0.0000 </r>
       <r>    1.6965    0.0000 </r>
       <r>    1.8277    0.0000 </r>
       <r>    2.1578    0.0000 </r>
       <r>    2.6284    0.0000 </r>
      </set>
      <set comment="kpoint 17">
       <r>  -16.5316    1.0000 </r>
       <r>  -14.1113    1.0000 </r>
       <r>  -11.9539    1.0000 </r>
       <r>   -8.3809    1.0000 </r>
       <r>   -7.6029    1.0000 </r>
       <r>   -7.3989    1.0000 </r>
       <r>   -6.0569    1.0000 </r>
       <r>   -5.4683    1.0000 </r>
       <r>   -3.8620    1.0000 </r>
       <r>   -2.7667    1.0000 </r>
       <r>   -0.8826    0.0000 </r>
       <r>   -0.6991    0.0000 </r>
       <r>    1.1453    0.0000 </r>
       <r>    1.3076    0.0000 </r>
       <r>    2.5940    0.0000 </r>
       <r>    3.0147    0.0000 </r>
      </set>
      <set comment="kpoint 18">
       <r>  -16.2456    1.0000 </r>
       <r>  -13.8147    1.0000 </r>
       <r>  -12.2676    1.0000 </r>
       <r>   -8.9632    1.0000 </r>
       <r>   -7.7879    1.0000 </r>
       <r>   -7.2976    1.0000 </r>
       <r>   -5.8474    1.0000 </r>
       <r>   -5.4142    1.0000 </r>
       <r>   -4.0042    1.0000 </r>
       <r>   -2.9708    1.0000 </r>
       <r>   -1.0348    0.0000 </r>
       <r>   -0.5119    0.0000 </r>
       <r>    0.6209    0.0000 </r>
       <r>    0.6793    0.0000 </r>
       <r>    2.2678    0.0000 </r>
       <r>    3.2123    0.0000 </r>
      </set>
      <set comment="kpoint 19">
       <r>  -15.9120    1.0000 </r>
       <r>  -13.4804    1.0000 </r>
       <r>  -12.6541    1.0000 </r>
       <r>   -9.6121    1.0000 </r>
       <r>   -7.8247    1.0000 </r>
       <r>   -7.1669    1.0000 </r>
       <r>   -5.6227    1.0000 </r>
       <r>   -5.3156    1.0000 </r>
       <r>   -4.1777    1.0000 </r>
       <r>   -3.2299    1.0000 </r>
       <r>   -1.0095    0.0000 </r>
       <r>   -0.4342    0.0000 </r>
       <r>    0.0887    0.0000 </r>
       <r>    0.3006    0.0000 </r>
       <r>    1.8191    0.0000 </r>
       <r>    2.9337    0.0000 </r>
      </set>
      <set comment="kpoint 20">
       <r>  -15.5335    1.0000 </r>
       <r>  -13.3004    1.0000 </r>
       <r>  -12.8934    1.0000 </r>
       <r>  -10.2644    1.0000 </r>
       <r>   -7.7403    1.0000 </r>
       <r>   -7.0744    1.0000 </r>
       <r>   -5.4073    1.0000 </r>
       <r>   -5.2313    1.0000 </r>
       <r>   -4.2950    1.0000 </r>
       <r>   -3.5185    1.0000 </r>
       <r>   -0.8598    0.0000 </r>
       <r>   -0.6532    0.0000 </r>
       <r>   -0.3913    0.0000 </r>
       <r>    0.3865    0.0000 </r>
       <r>    1.3610    0.0000 </r>
       <r>    2.5366    0.0000 </r>
      </set>
      <set comment="kpoint 21">
       <r>  -15.1144    1.0000 </r>
       <r>  -13.6979    1.0000 </r>
       <r>  -12.5324    1.0000 </r>
       <r>  -10.8942    1.0000 </r>
       <r>   -7.5740    1.0000 </r>
       <r>   -7.0737    1.0000 </r>
       <r>   -5.2368    1.0000 </r>
       <r>   -5.1818    1.0000 </r>
       <r>   -4.2945    1.0000 </r>
       <r>   -3.7991    1.0000 </r>
       <r>   -0.9315    0.0000 </r>
       <r>   -0.8925    0.0000 </r>
       <r>   -0.4521    0.0000 </r>
       <r>    0.5594    0.0000 </r>
       <r>    1.0275    0.0000 </r>
       <r>    2.0939    0.0000 </r>
      </set>
      <set comment="kpoint 22">
       <r>  -14.6607    1.0000 </r>
       <r>  -14.1822    1.0000 </r>
       <r>  -12.0380    1.0000 </r>
       <r>  -11.4883    1.0000 </r>
       <r>   -7.3707    1.0000 </r>
       <r>   -7.1842    1.0000 </r>
       <r>   -5.1488    1.0000 </r>
       <r>   -5.1465    1.0000 </r>
       <r>   -4.1973    1.0000 </r>
       <r>   -4.0318    1.0000 </r>
       <r>   -1.0924    0.0000 </r>
       <r>   -1.0761    0.0000 </r>
       <r>   -0.1177    0.0000 </r>
       <r>    0.2823    0.0000 </r>
       <r>    1.2359    0.0000 </r>
       <r>    1.6469    0.0000 </r>
      </set>
      <set comment="kpoint 23">
       <r>  -14.6607    1.0000 </r>
       <r>  -14.1822    1.0000 </r>
       <r>  -12.0380    1.0000 </r>
       <r>  -11.4883    1.0000 </r>
       <r>   -7.3707    1.0000 </r>
       <r>   -7.1842    1.0000 </r>
       <r>   -5.1488    1.0000 </r>
       <r>   -5.1465    1.0000 </r>
       <r>   -4.1973    1.0000 </r>
       <r>   -4.0318    1.0000 </r>
       <r>   -1.0924    0.0000 </r>
       <r>   -1.0761    0.0000 </r>
       <r>   -0.1177    0.0000 </r>
       <r>    0.2823    0.0000 </r>
       <r>    1.2359    0.0000 </r>
       <r>    1.6469    0.0000 </r>
      </set>
      <set comment="kpoint 24">
       <r>  -15.1144    1.0000 </r>
       <r>  -13.6979    1.0000 </r>
       <r>  -12.5324    1.0000 </r>
       <r>  -10.8942    1.0000 </r>
       <r>   -7.5740    1.0000 </r>
       <r>   -7.0737    1.0000 </r>
       <r>   -5.2368    1.0000 </r>
       <r>   -5.1818    1.0000 </r>
       <r>   -4.2945    1.0000 </r>
       <r>   -3.7991    1.0000 </r>
       <r>   -0.9315    0.0000 </r>
       <r>   -0.8925    0.0000 </r>
       <r>   -0.4521    0.0000 </r>
       <r>    0.5594    0.0000 </r>
       <r>    1.0275    0.0000 </r>
       <r>    2.0939    0.0000 </r>
      </set>
      <set comment="kpoint 25">
       <r>  -15.5335    1.0000 </r>
       <r>  -13.3004    1.0000 </r>
       <r>  -12.8934    1.0000 </r>
       <r>  -10.2644    1.0000 </r>
       <r>   -7.7403    1.0000 </r>
       <r>   -7.0744    1.0000 </r>
       <r>   -5.4073    1.0000 </r>
       <r>   -5.2313    1.0000 </r>
       <r>   -4.2950    1.0000 </r>
       <r>   -3.5185    1.0000 </r>
       <r>   -0.8598    0.0000 </r>
       <r>   -0.6532    0.0000 </r>
       <r>   -0.3913    0.0000 </r>
       <r>    0.3865    0.0000 </r>
       <r>    1.3610    0.0000 </r>
       <r>    2.5366    0.0000 </r>
      </set>
      <set comment="kpoint 26">
       <r>  -15.9120    1.0000 </r>
       <r>  -13.4804    1.0000 </r>
       <r>  -12.6541    1.0000 </r>
       <r>   -9.6121    1.0000 </r>
       <r>   -7.8247    1.0000 </r>
       <r>   -7.1669    1.0000 </r>
       <r>   -5.6227    1.0000 </r>
       <r>   -5.3156    1.0000 </r>
       <r>   -4.1777    1.0000 </r>
       <r>   -3.2299    1.0000 </r>
       <r>   -1.0095    0.0000 </r>
       <r>   -0.4342    0.0000 </r>
       <r>    0.0887    0.0000 </r>
       <r>    0.3006    0.0000 </r>
       <r>    1.8191    0.0000 </r>
       <r>    2.9337    0.0000 </r>
      </set>
      <set comment="kpoint 27">
       <r>  -16.2456    1.0000 </r>
       <r>  -13.8147    1.0000 </r>
       <r>  -12.2676    1.0000 </r>
       <r>   -8.9632    1.0000 </r>
       <r>   -7.7879    1.0000 </r>
       <r>   -7.2976    1.0000 </r>
       <r>   -5.8474    1.0000 </r>
       <r>   -5.4142    1.0000 </r>
       <r>   -4.0042    1.0000 </r>
       <r>   -2.9708    1.0000 </r>
       <r>   -1.0348    0.0000 </r>
       <r>   -0.5119    0.0000 </r>
       <r>    0.6209    0.0000 </r>
       <r>    0.6793    0.0000 </r>
       <r>    2.2678    0.0000 </r>
       <r>    3.2123    0.0000 </r>
      </set>
      <set comment="kpoint 28">
       <r>  -16.5316    1.0000 </r>
       <r>  -14.1113    1.0000 </r>
       <r>  -11.9539    1.0000 </r>
       <r>   -8.3809    1.0000 </r>
       <r>   -7.6029    1.0000 </r>
       <r>   -7.3989    1.0000 </r>
       <r>   -6.0569    1.0000 </r>
       <r>   -5.4683    1.0000 </r>
       <r>   -3.8620    1.0000 </r>
       <r>   -2.7667    1.0000 </r>
       <r>   -0.8826    0.0000 </r>
       <r>   -0.6991    0.0000 </r>
       <r>    1.1453    0.0000 </r>
       <r>    1.3076    0.0000 </r>
       <r>    2.5940    0.0000 </r>
       <r>    3.0169    0.0000 </r>
      </set>
      <set comment="kpoint 29">
       <r>  -16.7677    1.0000 </r>
       <r>  -14.3575    1.0000 </r>
       <r>  -11.7372    1.0000 </r>
       <r>   -8.0315    1.0000 </r>
       <r>   -7.3456    1.0000 </r>
       <r>   -7.2723    1.0000 </r>
       <r>   -6.2322    1.0000 </r>
       <r>   -5.4023    1.0000 </r>
       <r>   -3.7909    1.0000 </r>
       <r>   -2.6271    1.0000 </r>
       <r>   -0.8730    0.0000 </r>
       <r>   -0.5572    0.0000 </r>
       <r>    1.6965    0.0000 </r>
       <r>    1.8277    0.0000 </r>
       <r>    2.1578    0.0000 </r>
       <r>    2.6284    0.0000 </r>
      </set>
      <set comment="kpoint 30">
       <r>  -16.9527    1.0000 </r>
       <r>  -14.5502    1.0000 </r>
       <r>  -11.6078    1.0000 </r>
       <r>   -7.9897    1.0000 </r>
       <r>   -7.1341    1.0000 </r>
       <r>   -6.8600    1.0000 </r>
       <r>   -6.3368    1.0000 </r>
       <r>   -5.1431    1.0000 </r>
       <r>   -3.7785    1.0000 </r>
       <r>   -2.5465    1.0000 </r>
       <r>   -1.0103    0.0000 </r>
       <r>   -0.1138    0.0000 </r>
       <r>    1.0747    0.0000 </r>
       <r>    1.7253    0.0000 </r>
       <r>    2.2840    0.0000 </r>
       <r>    2.5276    0.0000 </r>
      </set>
      <set comment="kpoint 31">
       <r>  -17.0855    1.0000 </r>
       <r>  -14.6885    1.0000 </r>
       <r>  -11.5404    1.0000 </r>
       <r>   -8.0382    1.0000 </r>
       <r>   -6.9903    1.0000 </r>
       <r>   -6.6372    1.0000 </r>
       <r>   -6.1705    1.0000 </r>
       <r>   -4.7173    1.0000 </r>
       <r>   -3.7941    1.0000 </r>
       <r>   -2.5114    1.0000 </r>
       <r>   -1.1075    0.0000 </r>
       <r>    0.1820    0.0000 </r>
       <r>    0.3582    0.0000 </r>
       <r>    1.0854    0.0000 </r>
       <r>    2.2744    0.0000 </r>
       <r>    2.4381    0.0000 </r>
      </set>
      <set comment="kpoint 32">
       <r>  -17.1655    1.0000 </r>
       <r>  -14.7717    1.0000 </r>
       <r>  -11.5105    1.0000 </r>
       <r>   -8.0811    1.0000 </r>
       <r>   -6.9338    1.0000 </r>
       <r>   -6.6502    1.0000 </r>
       <r>   -5.8073    1.0000 </r>
       <r>   -4.2954    1.0000 </r>
       <r>   -3.8142    1.0000 </r>
       <r>   -2.5056    1.0000 </r>
       <r>   -1.1663    0.0000 </r>
       <r>   -0.4594    0.0000 </r>
       <r>    0.4713    0.0000 </r>
       <r>    0.7738    0.0000 </r>
       <r>    2.2000    0.0000 </r>
       <r>    2.3491    0.0000 </r>
      </set>
      <set comment="kpoint 33">
       <r>  -17.1292    1.0000 </r>
       <r>  -14.8920    1.0000 </r>
       <r>  -11.5040    1.0000 </r>
       <r>   -8.4554    1.0000 </r>
       <r>   -6.7097    1.0000 </r>
       <r>   -6.4112    1.0000 </r>
       <r>   -5.5969    1.0000 </r>
       <r>   -4.1567    1.0000 </r>
       <r>   -3.5845    1.0000 </r>
       <r>   -2.8984    1.0000 </r>
       <r>   -0.8331    0.0000 </r>
       <r>   -0.6486    0.0000 </r>
       <r>    0.1061    0.0000 </r>
       <r>    0.8962    0.0000 </r>
       <r>    2.3370    0.0000 </r>
       <r>    2.4081    0.0000 </r>
      </set>
      <set comment="kpoint 34">
       <r>  -17.1025    1.0000 </r>
       <r>  -14.8647    1.0000 </r>
       <r>  -11.5089    1.0000 </r>
       <r>   -8.4432    1.0000 </r>
       <r>   -6.7145    1.0000 </r>
       <r>   -6.4308    1.0000 </r>
       <r>   -5.7265    1.0000 </r>
       <r>   -4.3524    1.0000 </r>
       <r>   -3.5810    1.0000 </r>
       <r>   -2.8913    1.0000 </r>
       <r>   -0.8182    0.0000 </r>
       <r>   -0.4096    0.0000 </r>
       <r>    0.3311    0.0000 </r>
       <r>    0.7694    0.0000 </r>
       <r>    2.3600    0.0000 </r>
       <r>    2.4376    0.0000 </r>
      </set>
      <set comment="kpoint 35">
       <r>  -17.0228    1.0000 </r>
       <r>  -14.7830    1.0000 </r>
       <r>  -11.5286    1.0000 </r>
       <r>   -8.4122    1.0000 </r>
       <r>   -6.7446    1.0000 </r>
       <r>   -6.5757    1.0000 </r>
       <r>   -5.9389    1.0000 </r>
       <r>   -4.7981    1.0000 </r>
       <r>   -3.5842    1.0000 </r>
       <r>   -2.8800    1.0000 </r>
       <r>   -0.7771    0.0000 </r>
       <r>    0.2282    0.0000 </r>
       <r>    0.3391    0.0000 </r>
       <r>    1.0101    0.0000 </r>
       <r>    2.4234    0.0000 </r>
       <r>    2.5260    0.0000 </r>
      </set>
      <set comment="kpoint 36">
       <r>  -16.8903    1.0000 </r>
       <r>  -14.6476    1.0000 </r>
       <r>  -11.5787    1.0000 </r>
       <r>   -8.3840    1.0000 </r>
       <r>   -6.9516    1.0000 </r>
       <r>   -6.8510    1.0000 </r>
       <r>   -5.9691    1.0000 </r>
       <r>   -5.2470    1.0000 </r>
       <r>   -3.6133    1.0000 </r>
       <r>   -2.8809    1.0000 </r>
       <r>   -0.7100    0.0000 </r>
       <r>   -0.0637    0.0000 </r>
       <r>    1.0973    0.0000 </r>
       <r>    1.6891    0.0000 </r>
       <r>    2.0582    0.0000 </r>
       <r>    2.5365    0.0000 </r>
      </set>
      <set comment="kpoint 37">
       <r>  -16.7059    1.0000 </r>
       <r>  -14.4596    1.0000 </r>
       <r>  -11.6842    1.0000 </r>
       <r>   -8.4214    1.0000 </r>
       <r>   -7.3819    1.0000 </r>
       <r>   -7.0677    1.0000 </r>
       <r>   -5.8747    1.0000 </r>
       <r>   -5.5094    1.0000 </r>
       <r>   -3.6922    1.0000 </r>
       <r>   -2.9107    1.0000 </r>
       <r>   -0.6163    0.0000 </r>
       <r>   -0.4257    0.0000 </r>
       <r>    1.3355    0.0000 </r>
       <r>    1.9709    0.0000 </r>
       <r>    2.2526    0.0000 </r>
       <r>    2.6534    0.0000 </r>
      </set>
      <set comment="kpoint 38">
       <r>  -16.4705    1.0000 </r>
       <r>  -14.2218    1.0000 </r>
       <r>  -11.8721    1.0000 </r>
       <r>   -8.6514    1.0000 </r>
       <r>   -7.7216    1.0000 </r>
       <r>   -7.2536    1.0000 </r>
       <r>   -5.7290    1.0000 </r>
       <r>   -5.5681    1.0000 </r>
       <r>   -3.8380    1.0000 </r>
       <r>   -2.9867    1.0000 </r>
       <r>   -0.6585    0.0000 </r>
       <r>   -0.4967    0.0000 </r>
       <r>    0.7859    0.0000 </r>
       <r>    1.5563    0.0000 </r>
       <r>    2.6885    0.0000 </r>
       <r>    3.0833    0.0000 </r>
      </set>
      <set comment="kpoint 39">
       <r>  -16.1857    1.0000 </r>
       <r>  -13.9411    1.0000 </r>
       <r>  -12.1529    1.0000 </r>
       <r>   -9.1219    1.0000 </r>
       <r>   -7.9126    1.0000 </r>
       <r>   -7.2674    1.0000 </r>
       <r>   -5.5629    1.0000 </r>
       <r>   -5.5288    1.0000 </r>
       <r>   -4.0294    1.0000 </r>
       <r>   -3.1191    1.0000 </r>
       <r>   -0.7300    0.0000 </r>
       <r>   -0.3734    0.0000 </r>
       <r>    0.2863    0.0000 </r>
       <r>    0.9532    0.0000 </r>
       <r>    2.5521    0.0000 </r>
       <r>    3.0598    0.0000 </r>
      </set>
      <set comment="kpoint 40">
       <r>  -15.8539    1.0000 </r>
       <r>  -13.6431    1.0000 </r>
       <r>  -12.4924    1.0000 </r>
       <r>   -9.7170    1.0000 </r>
       <r>   -7.9482    1.0000 </r>
       <r>   -7.1775    1.0000 </r>
       <r>   -5.4904    1.0000 </r>
       <r>   -5.4059    1.0000 </r>
       <r>   -4.1882    1.0000 </r>
       <r>   -3.2987    1.0000 </r>
       <r>   -0.6600    0.0000 </r>
       <r>   -0.4458    0.0000 </r>
       <r>    0.0873    0.0000 </r>
       <r>    0.3660    0.0000 </r>
       <r>    2.2489    0.0000 </r>
       <r>    2.7917    0.0000 </r>
      </set>
      <set comment="kpoint 41">
       <r>  -15.4782    1.0000 </r>
       <r>  -13.4721    1.0000 </r>
       <r>  -12.7181    1.0000 </r>
       <r>  -10.3421    1.0000 </r>
       <r>   -7.8541    1.0000 </r>
       <r>   -7.0890    1.0000 </r>
       <r>   -5.5050    1.0000 </r>
       <r>   -5.2969    1.0000 </r>
       <r>   -4.2232    1.0000 </r>
       <r>   -3.4944    1.0000 </r>
       <r>   -0.7669    0.0000 </r>
       <r>   -0.5532    0.0000 </r>
       <r>   -0.0739    0.0000 </r>
       <r>    0.2652    0.0000 </r>
       <r>    1.8641    0.0000 </r>
       <r>    2.4162    0.0000 </r>
      </set>
      <set comment="kpoint 42">
       <r>  -15.0638    1.0000 </r>
       <r>  -13.7203    1.0000 </r>
       <r>  -12.5055    1.0000 </r>
       <r>  -10.9544    1.0000 </r>
       <r>   -7.6698    1.0000 </r>
       <r>   -7.0908    1.0000 </r>
       <r>   -5.5195    1.0000 </r>
       <r>   -5.2762    1.0000 </r>
       <r>   -4.1302    1.0000 </r>
       <r>   -3.6710    1.0000 </r>
       <r>   -1.0230    0.0000 </r>
       <r>   -0.7548    0.0000 </r>
       <r>   -0.0167    0.0000 </r>
       <r>    0.5044    0.0000 </r>
       <r>    1.4871    0.0000 </r>
       <r>    2.0026    0.0000 </r>
      </set>
      <set comment="kpoint 43">
       <r>  -14.6186    1.0000 </r>
       <r>  -14.1578    1.0000 </r>
       <r>  -12.0602    1.0000 </r>
       <r>  -11.5325    1.0000 </r>
       <r>   -7.4403    1.0000 </r>
       <r>   -7.2231    1.0000 </r>
       <r>   -5.4580    1.0000 </r>
       <r>   -5.3488    1.0000 </r>
       <r>   -3.9790    1.0000 </r>
       <r>   -3.8245    1.0000 </r>
       <r>   -1.1166    0.0000 </r>
       <r>   -1.0163    0.0000 </r>
       <r>    0.2904    0.0000 </r>
       <r>    0.5578    0.0000 </r>
       <r>    1.3515    0.0000 </r>
       <r>    1.6092    0.0000 </r>
      </set>
      <set comment="kpoint 44">
       <r>  -14.6186    1.0000 </r>
       <r>  -14.1578    1.0000 </r>
       <r>  -12.0602    1.0000 </r>
       <r>  -11.5325    1.0000 </r>
       <r>   -7.4403    1.0000 </r>
       <r>   -7.2231    1.0000 </r>
       <r>   -5.4580    1.0000 </r>
       <r>   -5.3488    1.0000 </r>
       <r>   -3.9790    1.0000 </r>
       <r>   -3.8245    1.0000 </r>
       <r>   -1.1166    0.0000 </r>
       <r>   -1.0163    0.0000 </r>
       <r>    0.2904    0.0000 </r>
       <r>    0.5578    0.0000 </r>
       <r>    1.3515    0.0000 </r>
       <r>    1.6092    0.0000 </r>
      </set>
      <set comment="kpoint 45">
       <r>  -15.0638    1.0000 </r>
       <r>  -13.7203    1.0000 </r>
       <r>  -12.5055    1.0000 </r>
       <r>  -10.9544    1.0000 </r>
       <r>   -7.6698    1.0000 </r>
       <r>   -7.0908    1.0000 </r>
       <r>   -5.5195    1.0000 </r>
       <r>   -5.2762    1.0000 </r>
       <r>   -4.1302    1.0000 </r>
       <r>   -3.6710    1.0000 </r>
       <r>   -1.0230    0.0000 </r>
       <r>   -0.7548    0.0000 </r>
       <r>   -0.0167    0.0000 </r>
       <r>    0.5044    0.0000 </r>
       <r>    1.4871    0.0000 </r>
       <r>    2.0026    0.0000 </r>
      </set>
      <set comment="kpoint 46">
       <r>  -15.4782    1.0000 </r>
       <r>  -13.4721    1.0000 </r>
       <r>  -12.7181    1.0000 </r>
       <r>  -10.3421    1.0000 </r>
       <r>   -7.8541    1.0000 </r>
       <r>   -7.0890    1.0000 </r>
       <r>   -5.5050    1.0000 </r>
       <r>   -5.2969    1.0000 </r>
       <r>   -4.2232    1.0000 </r>
       <r>   -3.4944    1.0000 </r>
       <r>   -0.7669    0.0000 </r>
       <r>   -0.5532    0.0000 </r>
       <r>   -0.0739    0.0000 </r>
       <r>    0.2652    0.0000 </r>
       <r>    1.8641    0.0000 </r>
       <r>    2.4162    0.0000 </r>
      </set>
      <set comment="kpoint 47">
       <r>  -15.8539    1.0000 </r>
       <r>  -13.6431    1.0000 </r>
       <r>  -12.4924    1.0000 </r>
       <r>   -9.7170    1.0000 </r>
       <r>   -7.9482    1.0000 </r>
       <r>   -7.1775    1.0000 </r>
       <r>   -5.4904    1.0000 </r>
       <r>   -5.4059    1.0000 </r>
       <r>   -4.1882    1.0000 </r>
       <r>   -3.2987    1.0000 </r>
       <r>   -0.6600    0.0000 </r>
       <r>   -0.4458    0.0000 </r>
       <r>    0.0873    0.0000 </r>
       <r>    0.3660    0.0000 </r>
       <r>    2.2489    0.0000 </r>
       <r>    2.7917    0.0000 </r>
      </set>
      <set comment="kpoint 48">
       <r>  -16.1857    1.0000 </r>
       <r>  -13.9411    1.0000 </r>
       <r>  -12.1529    1.0000 </r>
       <r>   -9.1219    1.0000 </r>
       <r>   -7.9126    1.0000 </r>
       <r>   -7.2674    1.0000 </r>
       <r>   -5.5629    1.0000 </r>
       <r>   -5.5288    1.0000 </r>
       <r>   -4.0294    1.0000 </r>
       <r>   -3.1191    1.0000 </r>
       <r>   -0.7300    0.0000 </r>
       <r>   -0.3734    0.0000 </r>
       <r>    0.2863    0.0000 </r>
       <r>    0.9532    0.0000 </r>
       <r>    2.5521    0.0000 </r>
       <r>    3.0598    0.0000 </r>
      </set>
      <set comment="kpoint 49">
       <r>  -16.4705    1.0000 </r>
       <r>  -14.2218    1.0000 </r>
       <r>  -11.8721    1.0000 </r>
       <r>   -8.6514    1.0000 </r>
       <r>   -7.7216    1.0000 </r>
       <r>   -7.2536    1.0000 </r>
       <r>   -5.7290    1.0000 </r>
       <r>   -5.5681    1.0000 </r>
       <r>   -3.8380    1.0000 </r>
[...]
       <r>    3.3106    0.0000 </r>
       <r>    3.3734    0.0000 </r>
      </set>
      <set comment="kpoint 153">
       <r>  -15.3560    1.0000 </r>
       <r>  -15.1114    1.0000 </r>
       <r>  -10.9462    1.0000 </r>
       <r>  -10.6271    1.0000 </r>
       <r>   -7.9403    1.0000 </r>
       <r>   -7.7849    1.0000 </r>
       <r>   -5.2886    1.0000 </r>
       <r>   -5.0705    1.0000 </r>
       <r>   -3.8671    1.0000 </r>
       <r>   -3.7823    1.0000 </r>
       <r>    0.2277    0.0000 </r>
       <r>    0.6113    0.0000 </r>
       <r>    1.0734    0.0000 </r>
       <r>    1.3658    0.0000 </r>
       <r>    3.2656    0.0000 </r>
       <r>    3.3295    0.0000 </r>
      </set>
      <set comment="kpoint 154">
       <r>  -15.6232    1.0000 </r>
       <r>  -15.3736    1.0000 </r>
       <r>  -10.7844    1.0000 </r>
       <r>  -10.4565    1.0000 </r>
       <r>   -7.6304    1.0000 </r>
       <r>   -7.4719    1.0000 </r>
       <r>   -5.1589    1.0000 </r>
       <r>   -4.8864    1.0000 </r>
       <r>   -3.7822    1.0000 </r>
       <r>   -3.7518    1.0000 </r>
       <r>    0.2407    0.0000 </r>
       <r>    0.5359    0.0000 </r>
       <r>    1.1795    0.0000 </r>
       <r>    1.5120    0.0000 </r>
       <r>    2.9575    0.0000 </r>
       <r>    3.2135    0.0000 </r>
      </set>
      <set comment="kpoint 155">
       <r>  -15.8476    1.0000 </r>
       <r>  -15.5954    1.0000 </r>
       <r>  -10.7354    1.0000 </r>
       <r>  -10.4096    1.0000 </r>
       <r>   -7.1273    1.0000 </r>
       <r>   -6.9578    1.0000 </r>
       <r>   -5.1673    1.0000 </r>
       <r>   -4.8534    1.0000 </r>
       <r>   -3.7042    1.0000 </r>
       <r>   -3.5468    1.0000 </r>
       <r>    0.3427    0.0000 </r>
       <r>    0.5234    0.0000 </r>
       <r>    1.1916    0.0000 </r>
       <r>    1.5525    0.0000 </r>
       <r>    2.3379    0.0000 </r>
       <r>    2.5772    0.0000 </r>
      </set>
      <set comment="kpoint 156">
       <r>  -16.0251    1.0000 </r>
       <r>  -15.7714    1.0000 </r>
       <r>  -10.7492    1.0000 </r>
       <r>  -10.4286    1.0000 </r>
       <r>   -6.5033    1.0000 </r>
       <r>   -6.3224    1.0000 </r>
       <r>   -5.2290    1.0000 </r>
       <r>   -4.8965    1.0000 </r>
       <r>   -3.6387    1.0000 </r>
       <r>   -3.3655    1.0000 </r>
       <r>    0.4769    0.0000 </r>
       <r>    0.5359    0.0000 </r>
       <r>    1.1131    0.0000 </r>
       <r>    1.4201    0.0000 </r>
       <r>    1.7332    0.0000 </r>
       <r>    1.8404    0.0000 </r>
      </set>
      <set comment="kpoint 157">
       <r>  -16.1534    1.0000 </r>
       <r>  -15.8988    1.0000 </r>
       <r>  -10.7830    1.0000 </r>
       <r>  -10.4669    1.0000 </r>
       <r>   -5.8403    1.0000 </r>
       <r>   -5.6579    1.0000 </r>
       <r>   -5.2885    1.0000 </r>
       <r>   -4.9533    1.0000 </r>
       <r>   -3.6560    1.0000 </r>
       <r>   -3.2837    1.0000 </r>
       <r>    0.3174    0.0000 </r>
       <r>    0.3297    0.0000 </r>
       <r>    1.0724    0.0000 </r>
       <r>    1.1386    0.0000 </r>
       <r>    1.4621    0.0000 </r>
       <r>    1.5805    0.0000 </r>
      </set>
      <set comment="kpoint 158">
       <r>  -16.2308    1.0000 </r>
       <r>  -15.9759    1.0000 </r>
       <r>  -10.8113    1.0000 </r>
       <r>  -10.4981    1.0000 </r>
       <r>   -5.3541    1.0000 </r>
       <r>   -5.2487    1.0000 </r>
       <r>   -5.0541    1.0000 </r>
       <r>   -4.9949    1.0000 </r>
       <r>   -3.7754    1.0000 </r>
       <r>   -3.3233    1.0000 </r>
       <r>   -0.1141    0.0000 </r>
       <r>   -0.0766    0.0000 </r>
       <r>    1.1555    0.0000 </r>
       <r>    1.1729    0.0000 </r>
       <r>    1.4197    0.0000 </r>
       <r>    1.5248    0.0000 </r>
      </set>
     </set>
    </set>
   </array>
  </eigenvalues>
  <separator name="orbital magnetization" >
   <v name="MAGDIPOLOUT">      0.00000000      0.00000000      0.00000000</v>
  </separator>
  <dos>
   <i name="efermi">     -2.21800824 </i>
   <total>
    <array>
     <dimension dim="1">gridpoints</dimension>
     <dimension dim="2">spin</dimension>
     <field>energy</field>
     <field>total</field>
     <field>integrated</field>
     <set>
      <set comment="spin 1">
       <r>   -18.2539     0.0000     0.0000 </r>
       <r>   -18.1776     0.0000     0.0000 </r>
       <r>   -18.1013     0.0000     0.0000 </r>
       <r>   -18.0250     0.0000     0.0000 </r>
       <r>   -17.9487     0.0000     0.0000 </r>
       <r>   -17.8723     0.0000     0.0000 </r>
       <r>   -17.7960     0.0000     0.0000 </r>
       <r>   -17.7197     0.0000     0.0000 </r>
       <r>   -17.6434     0.0000     0.0000 </r>
       <r>   -17.5671     0.0000     0.0000 </r>
       <r>   -17.4908     0.0000     0.0000 </r>
       <r>   -17.4144     0.0000     0.0000 </r>
       <r>   -17.3381     0.0000     0.0000 </r>
       <r>   -17.2618     0.0000     0.0000 </r>
       <r>   -17.1855     0.3085     0.0235 </r>
       <r>   -17.1092     0.7862     0.0835 </r>
       <r>   -17.0329     0.7837     0.1434 </r>
       <r>   -16.9566     0.9802     0.2182 </r>
       <r>   -16.8802     0.9148     0.2880 </r>
       <r>   -16.8039     0.5449     0.3296 </r>
       <r>   -16.7276     1.1172     0.4148 </r>
       <r>   -16.6513     0.9129     0.4845 </r>
       <r>   -16.5750     0.8776     0.5515 </r>
       <r>   -16.4987     0.5873     0.5963 </r>
       <r>   -16.4223     1.4237     0.7049 </r>
       <r>   -16.3460     0.6476     0.7544 </r>
       <r>   -16.2697     0.5105     0.7933 </r>
       <r>   -16.1934     1.5979     0.9153 </r>
       <r>   -16.1171     0.5753     0.9592 </r>
       <r>   -16.0408     1.0004     1.0355 </r>
       <r>   -15.9644     0.8151     1.0977 </r>
       <r>   -15.8881     1.0895     1.1809 </r>
       <r>   -15.8118     1.0861     1.2638 </r>
       <r>   -15.7355     1.0911     1.3470 </r>
       <r>   -15.6592     0.4255     1.3795 </r>
       <r>   -15.5829     1.4018     1.4865 </r>
       <r>   -15.5065     0.9316     1.5576 </r>
       <r>   -15.4302     1.2883     1.6559 </r>
       <r>   -15.3539     1.1805     1.7460 </r>
       <r>   -15.2776     0.6628     1.7966 </r>
       <r>   -15.2013     1.2916     1.8951 </r>
       <r>   -15.1250     0.6830     1.9473 </r>
       <r>   -15.0486     2.0679     2.1051 </r>
       <r>   -14.9723     1.1984     2.1965 </r>
       <r>   -14.8960     0.8300     2.2599 </r>
       <r>   -14.8197     1.8984     2.4047 </r>
       <r>   -14.7434     1.6283     2.5290 </r>
       <r>   -14.6671     1.2442     2.6240 </r>
       <r>   -14.5908     2.0178     2.7780 </r>
       <r>   -14.5144     1.6374     2.9029 </r>
       <r>   -14.4381     0.8782     2.9699 </r>
       <r>   -14.3618     1.0686     3.0515 </r>
       <r>   -14.2855     1.3731     3.1563 </r>
       <r>   -14.2092     1.0351     3.2353 </r>
       <r>   -14.1329     1.4025     3.3423 </r>
       <r>   -14.0565     3.0159     3.5725 </r>
       <r>   -13.9802     0.2841     3.5941 </r>
       <r>   -13.9039     0.6580     3.6444 </r>
       <r>   -13.8276     0.9846     3.7195 </r>
       <r>   -13.7513     0.7840     3.7793 </r>
       <r>   -13.6750     0.9095     3.8487 </r>
       <r>   -13.5986     0.6506     3.8984 </r>
       <r>   -13.5223     0.0008     3.8985 </r>
       <r>   -13.4460     0.6529     3.9483 </r>
       <r>   -13.3697     0.1783     3.9619 </r>
       <r>   -13.2934     0.2304     3.9795 </r>
       <r>   -13.2171     0.1107     3.9879 </r>
       <r>   -13.1407     0.1584     4.0000 </r>
       <r>   -13.0644     0.0000     4.0000 </r>
       <r>   -12.9881     0.1382     4.0105 </r>
       <r>   -12.9118     0.0605     4.0152 </r>
       <r>   -12.8355     0.3005     4.0381 </r>
       <r>   -12.7592     0.0014     4.0382 </r>
       <r>   -12.6829     0.5023     4.0765 </r>
       <r>   -12.6065     0.3282     4.1016 </r>
       <r>   -12.5302     0.4394     4.1351 </r>
       <r>   -12.4539     1.2260     4.2287 </r>
       <r>   -12.3776     0.2806     4.2501 </r>
       <r>   -12.3013     0.6514     4.2998 </r>
       <r>   -12.2250     1.0581     4.3806 </r>
       <r>   -12.1486     0.6942     4.4335 </r>
       <r>   -12.0723     1.9956     4.5858 </r>
       <r>   -11.9960     1.5547     4.7045 </r>
       <r>   -11.9197     1.3179     4.8051 </r>
       <r>   -11.8434     0.6386     4.8538 </r>
       <r>   -11.7671     1.0313     4.9325 </r>
       <r>   -11.6907     1.6361     5.0574 </r>
       <r>   -11.6144     0.6175     5.1045 </r>
       <r>   -11.5381     2.6686     5.3081 </r>
       <r>   -11.4618     4.1932     5.6281 </r>
       <r>   -11.3855     1.4312     5.7374 </r>
       <r>   -11.3092     1.1057     5.8218 </r>
       <r>   -11.2328     1.8278     5.9612 </r>
       <r>   -11.1565     0.6720     6.0125 </r>
       <r>   -11.0802     0.5918     6.0577 </r>
       <r>   -11.0039     1.8263     6.1971 </r>
       <r>   -10.9276     0.9749     6.2715 </r>
       <r>   -10.8513     0.7805     6.3310 </r>
       <r>   -10.7749     1.1512     6.4189 </r>
       <r>   -10.6986     0.8326     6.4824 </r>
       <r>   -10.6223     0.8356     6.5462 </r>
       <r>   -10.5460     0.1652     6.5588 </r>
       <r>   -10.4697     0.8576     6.6243 </r>
       <r>   -10.3934     1.2656     6.7208 </r>
       <r>   -10.3171     0.7165     6.7755 </r>
       <r>   -10.2407     0.7104     6.8297 </r>
       <r>   -10.1644     0.1416     6.8405 </r>
       <r>   -10.0881     1.3586     6.9442 </r>
       <r>   -10.0118     0.7708     7.0031 </r>
       <r>    -9.9355     0.3286     7.0281 </r>
       <r>    -9.8592     0.3265     7.0531 </r>
       <r>    -9.7828     0.0137     7.0541 </r>
       <r>    -9.7065     1.2320     7.1481 </r>
       <r>    -9.6302     1.2456     7.2432 </r>
       <r>    -9.5539     0.5065     7.2818 </r>
       <r>    -9.4776     0.0092     7.2825 </r>
       <r>    -9.4013     0.0007     7.2826 </r>
       <r>    -9.3249     0.7675     7.3412 </r>
       <r>    -9.2486     1.0406     7.4206 </r>
       <r>    -9.1723     0.3544     7.4476 </r>
       <r>    -9.0960     0.3216     7.4722 </r>
       <r>    -9.0197     0.0163     7.4734 </r>
       <r>    -8.9434     0.6343     7.5218 </r>
       <r>    -8.8670     0.5335     7.5625 </r>
       <r>    -8.7907     1.1359     7.6492 </r>
       <r>    -8.7144     0.0206     7.6508 </r>
       <r>    -8.6381     0.2749     7.6718 </r>
       <r>    -8.5618     0.0579     7.6762 </r>
       <r>    -8.4855     0.0032     7.6764 </r>
       <r>    -8.4092     0.9762     7.7509 </r>
       <r>    -8.3328     0.8507     7.8159 </r>
       <r>    -8.2565     0.1155     7.8247 </r>
       <r>    -8.1802     0.2537     7.8440 </r>
       <r>    -8.1039     1.2502     7.9394 </r>
       <r>    -8.0276     3.0628     8.1732 </r>
       <r>    -7.9513     1.5178     8.2890 </r>
       <r>    -7.8749     1.5658     8.4085 </r>
       <r>    -7.7986     2.9333     8.6324 </r>
       <r>    -7.7223     2.6311     8.8332 </r>
       <r>    -7.6460     1.5896     8.9545 </r>
       <r>    -7.5697     1.5141     9.0700 </r>
       <r>    -7.4934     2.0514     9.2266 </r>
       <r>    -7.4170     2.3883     9.4089 </r>
       <r>    -7.3407     2.2146     9.5779 </r>
       <r>    -7.2644     3.6997     9.8602 </r>
       <r>    -7.1881     3.3178    10.1134 </r>
       <r>    -7.1118     3.6271    10.3902 </r>
       <r>    -7.0355     2.7737    10.6019 </r>
       <r>    -6.9591     0.9465    10.6741 </r>
       <r>    -6.8828     1.3367    10.7761 </r>
       <r>    -6.8065     1.3488    10.8791 </r>
       <r>    -6.7302     1.3009    10.9784 </r>
       <r>    -6.6539     2.4934    11.1686 </r>
       <r>    -6.5776     1.0921    11.2520 </r>
       <r>    -6.5012     1.0839    11.3347 </r>
       <r>    -6.4249     2.5479    11.5292 </r>
       <r>    -6.3486     1.0369    11.6083 </r>
       <r>    -6.2723     1.0087    11.6853 </r>
       <r>    -6.1960     2.2531    11.8572 </r>
       <r>    -6.1197     2.5887    12.0548 </r>
       <r>    -6.0434     0.8192    12.1173 </r>
       <r>    -5.9670     1.9419    12.2655 </r>
       <r>    -5.8907     1.2348    12.3597 </r>
       <r>    -5.8144     2.7084    12.5664 </r>
       <r>    -5.7381     1.9255    12.7134 </r>
       <r>    -5.6618     3.2243    12.9594 </r>
       <r>    -5.5855     4.3541    13.2917 </r>
       <r>    -5.5091     3.6539    13.5706 </r>
       <r>    -5.4328     3.0077    13.8001 </r>
       <r>    -5.3565     4.5023    14.1437 </r>
       <r>    -5.2802     2.4152    14.3280 </r>
       <r>    -5.2039     4.1869    14.6475 </r>
       <r>    -5.1276     2.6944    14.8532 </r>
       <r>    -5.0512     1.9950    15.0054 </r>
       <r>    -4.9749     1.8078    15.1434 </r>
       <r>    -4.8986     1.9284    15.2906 </r>
       <r>    -4.8223     1.6623    15.4174 </r>
       <r>    -4.7460     1.0688    15.4990 </r>
       <r>    -4.6697     0.8288    15.5622 </r>
       <r>    -4.5933     1.6729    15.6899 </r>
       <r>    -4.5170     1.9272    15.8370 </r>
       <r>    -4.4407     0.4345    15.8701 </r>
       <r>    -4.3644     0.5349    15.9110 </r>
       <r>    -4.2881     1.6219    16.0347 </r>
       <r>    -4.2118     1.2847    16.1328 </r>
       <r>    -4.1354     3.1295    16.3716 </r>
       <r>    -4.0591     2.1372    16.5347 </r>
       <r>    -3.9828     2.9800    16.7621 </r>
       <r>    -3.9065     1.8599    16.9041 </r>
       <r>    -3.8302     3.4262    17.1656 </r>
       <r>    -3.7539     5.9371    17.6186 </r>
       <r>    -3.6776     2.8724    17.8379 </r>
       <r>    -3.6012     2.9323    18.0616 </r>
       <r>    -3.5249     3.4134    18.3221 </r>
       <r>    -3.4486     3.4124    18.5826 </r>
       <r>    -3.3723     3.5139    18.8507 </r>
       <r>    -3.2960     3.7721    19.1386 </r>
       <r>    -3.2197     2.7155    19.3458 </r>
       <r>    -3.1433     0.6836    19.3980 </r>
       <r>    -3.0670     0.7074    19.4520 </r>
       <r>    -2.9907     1.4464    19.5624 </r>
       <r>    -2.9144     1.1132    19.6473 </r>
       <r>    -2.8381     1.8720    19.7902 </r>
       <r>    -2.7618     0.2159    19.8067 </r>
       <r>    -2.6854     0.1872    19.8210 </r>
       <r>    -2.6091     0.3987    19.8514 </r>
       <r>    -2.5328     0.3585    19.8787 </r>
       <r>    -2.4565     1.0065    19.9555 </r>
       <r>    -2.3802     0.1491    19.9669 </r>
       <r>    -2.3039     0.3798    19.9959 </r>
       <r>    -2.2275     0.0536    20.0000 </r>
       <r>    -2.1512     0.0000    20.0000 </r>
       <r>    -2.0749     0.0000    20.0000 </r>
       <r>    -1.9986     0.0000    20.0000 </r>
       <r>    -1.9223     0.0000    20.0000 </r>
       <r>    -1.8460     0.0000    20.0000 </r>
       <r>    -1.7697     0.0000    20.0000 </r>
       <r>    -1.6933     0.0000    20.0000 </r>
       <r>    -1.6170     0.0000    20.0000 </r>
       <r>    -1.5407     0.0000    20.0000 </r>
       <r>    -1.4644     0.0000    20.0000 </r>
       <r>    -1.3881     0.0064    20.0005 </r>
       <r>    -1.3118     0.2411    20.0189 </r>
       <r>    -1.2354     0.1670    20.0316 </r>
       <r>    -1.1591     0.4584    20.0666 </r>
       <r>    -1.0828     1.5509    20.1850 </r>
       <r>    -1.0065     2.1371    20.3481 </r>
       <r>    -0.9302     1.5203    20.4641 </r>
       <r>    -0.8539     1.6836    20.5926 </r>
       <r>    -0.7775     1.8939    20.7371 </r>
       <r>    -0.7012     2.1698    20.9027 </r>
       <r>    -0.6249     2.0618    21.0600 </r>
       <r>    -0.5486     1.6797    21.1882 </r>
       <r>    -0.4723     2.3705    21.3691 </r>
       <r>    -0.3960     4.1116    21.6829 </r>
       <r>    -0.3196     1.6707    21.8104 </r>
       <r>    -0.2433     3.1633    22.0518 </r>
       <r>    -0.1670     1.7564    22.1859 </r>
       <r>    -0.0907     3.7728    22.4738 </r>
       <r>    -0.0144     2.8836    22.6939 </r>
       <r>     0.0619     3.0837    22.9292 </r>
       <r>     0.1383     3.1329    23.1683 </r>
       <r>     0.2146     2.6718    23.3722 </r>
       <r>     0.2909     4.1412    23.6882 </r>
       <r>     0.3672     5.3384    24.0956 </r>
       <r>     0.4435     5.1292    24.4871 </r>
       <r>     0.5198     3.8131    24.7781 </r>
       <r>     0.5961     3.3984    25.0374 </r>
       <r>     0.6725     3.1515    25.2779 </r>
       <r>     0.7488     3.5359    25.5478 </r>
       <r>     0.8251     4.9283    25.9239 </r>
       <r>     0.9014     3.0454    26.1563 </r>
       <r>     0.9777     3.3497    26.4119 </r>
       <r>     1.0540     1.5798    26.5325 </r>
       <r>     1.1304     3.3555    26.7886 </r>
       <r>     1.2067     3.3805    27.0466 </r>
       <r>     1.2830     1.6938    27.1758 </r>
       <r>     1.3593     3.0519    27.4087 </r>
       <r>     1.4356     2.3660    27.5893 </r>
       <r>     1.5119     1.8982    27.7341 </r>
       <r>     1.5883     2.0029    27.8870 </r>
       <r>     1.6646     2.2964    28.0622 </r>
       <r>     1.7409     2.6006    28.2607 </r>
       <r>     1.8172     2.4622    28.4486 </r>
       <r>     1.8935     2.9400    28.6730 </r>
       <r>     1.9698     1.5830    28.7938 </r>
       <r>     2.0462     1.3123    28.8940 </r>
       <r>     2.1225     3.1862    29.1371 </r>
       <r>     2.1988     1.8483    29.2782 </r>
       <r>     2.2751     2.8160    29.4931 </r>
       <r>     2.3514     3.1604    29.7343 </r>
       <r>     2.4277     2.1107    29.8953 </r>
       <r>     2.5040     2.3164    30.0721 </r>
       <r>     2.5804     3.8290    30.3643 </r>
       <r>     2.6567     3.9247    30.6639 </r>
       <r>     2.7330     2.7840    30.8763 </r>
       <r>     2.8093     1.6517    31.0024 </r>
       <r>     2.8856     1.5008    31.1169 </r>
       <r>     2.9619     2.5320    31.3101 </r>
       <r>     3.0383     1.5573    31.4290 </r>
       <r>     3.1146     1.6006    31.5511 </r>
       <r>     3.1909     0.6323    31.5994 </r>
       <r>     3.2672     2.7347    31.8081 </r>
       <r>     3.3435     0.8003    31.8692 </r>
       <r>     3.4198     1.0445    31.9489 </r>
       <r>     3.4962     0.3363    31.9746 </r>
       <r>     3.5725     0.0089    31.9752 </r>
       <r>     3.6488     0.3244    32.0000 </r>
       <r>     3.7251     0.0001    32.0000 </r>
       <r>     3.8014     0.0000    32.0000 </r>
       <r>     3.8777     0.0000    32.0000 </r>
       <r>     3.9541     0.0000    32.0000 </r>
       <r>     4.0304     0.0000    32.0000 </r>
       <r>     4.1067     0.0000    32.0000 </r>
       <r>     4.1830     0.0000    32.0000 </r>
       <r>     4.2593     0.0000    32.0000 </r>
       <r>     4.3356     0.0000    32.0000 </r>
       <r>     4.4120     0.0000    32.0000 </r>
       <r>     4.4883     0.0000    32.0000 </r>
       <r>     4.5646     0.0000    32.0000 </r>
       <r>     4.6409     0.0000    32.0000 </r>
      </set>
     </set>
    </array>
   </total>
  </dos>
 </calculation>
 <structure name="finalpos" >
  <crystal>
   <varray name="basis" >
    <v>       3.31364900       0.00000000       0.00000000 </v>
    <v>       0.00000000       4.64641000      -0.00005300 </v>
    <v>       0.00000000       0.00000000      20.02439000 </v>
   </varray>
   <i name="volume">    308.30695939 </i>
   <varray name="rec_basis" >
    <v>       0.30178211       0.00000000       0.00000000 </v>
    <v>       0.00000000       0.21521992       0.00000000 </v>
    <v>       0.00000000       0.00000057       0.04993910 </v>
   </varray>
  </crystal>
  <varray name="positions" >
   <v>       0.50000000       0.90982511       0.55242947 </v>
   <v>       0.50000000       0.09017489       0.44757053 </v>
   <v>      -0.00000000       0.40982061       0.44757053 </v>
   <v>       0.00000000       0.59017939       0.55242947 </v>
  </varray>
 </structure>
</modeling>
