<?xml version="1.0" encoding="ISO-8859-1"?>
<modeling>
 <generator>
  <i name="program" type="string">vasp </i>
  <i name="version" type="string">5.4.1  </i>
  <i name="subversion" type="string">24Jun15 (build Nov 20 2020 10:29:34) complex                          parallel </i>
  <i name="platform" type="string">IFC91_ompi </i>
  <i name="date" type="string">2021 09 09 </i>
  <i name="time" type="string">15:19:19 </i>
 </generator>
 <incar>
  <i type="string" name="PREC">a</i>
  <i type="string" name="ALGO"> Normal</i>
  <i type="int" name="ISPIN">     1</i>
  <i type="int" name="ICHARG">     2</i>
  <i type="int" name="NELM">   250</i>
  <i type="int" name="NELMDL">    -5</i>
  <i type="int" name="NELMIN">     6</i>
  <i type="int" name="IBRION">     2</i>
  <i name="EDIFF">      0.00001000</i>
  <i name="EDIFFG">     -0.01000000</i>
  <i type="int" name="NSW">   200</i>
  <i type="int" name="ISIF">     2</i>
  <i name="ENCUT">    520.00000000</i>
  <i name="POTIM">      0.30000000</i>
  <i type="logical" name="LREAL"> F  </i>
  <i type="int" name="ISMEAR">     0</i>
  <i name="SIGMA">      0.02000000</i>
  <i type="logical" name="LWAVE"> F  </i>
  <i type="logical" name="LCHARG"> F  </i>
  <i type="logical" name="LAECHG"> F  </i>
  <v type="int" name="KPOINT_BSE">    -1     0     0     0</v>
  <i type="int" name="NELM">   250</i>
 </incar>
 <kpoints>
  <generation param="Gamma">
   <v type="int" name="divisions">      21       15        1 </v>
   <v name="usershift">      0.00000000       0.00000000       0.00000000 </v>
   <v name="genvec1">      0.04761905       0.00000000       0.00000000 </v>
   <v name="genvec2">     -0.00000000       0.06666667       0.00000000 </v>
   <v name="genvec3">     -0.00000000       0.00000000       1.00000000 </v>
   <v name="shift">      0.00000000       0.00000000       0.00000000 </v>
  </generation>
  <varray name="kpointlist" >
   <v>       0.00000000       0.00000000       0.00000000 </v>
   <v>       0.04761905      -0.00000000       0.00000000 </v>
   <v>       0.09523810      -0.00000000       0.00000000 </v>
   <v>       0.14285714      -0.00000000       0.00000000 </v>
   <v>       0.19047619      -0.00000000       0.00000000 </v>
   <v>       0.23809524      -0.00000000       0.00000000 </v>
   <v>       0.28571429      -0.00000000       0.00000000 </v>
   <v>       0.33333333      -0.00000000       0.00000000 </v>
   <v>       0.38095238      -0.00000000       0.00000000 </v>
   <v>       0.42857143      -0.00000000       0.00000000 </v>
   <v>       0.47619048      -0.00000000       0.00000000 </v>
   <v>       0.00000000       0.06666667       0.00000000 </v>
   <v>       0.04761905       0.06666667       0.00000000 </v>
   <v>       0.09523810       0.06666667       0.00000000 </v>
   <v>       0.14285714       0.06666667       0.00000000 </v>
   <v>       0.19047619       0.06666667       0.00000000 </v>
   <v>       0.23809524       0.06666667       0.00000000 </v>
   <v>       0.28571429       0.06666667       0.00000000 </v>
   <v>       0.33333333       0.06666667       0.00000000 </v>
   <v>       0.38095238       0.06666667       0.00000000 </v>
   <v>       0.42857143       0.06666667       0.00000000 </v>
   <v>       0.47619048       0.06666667       0.00000000 </v>
   <v>      -0.47619048       0.06666667       0.00000000 </v>
   <v>      -0.42857143       0.06666667       0.00000000 </v>
   <v>      -0.38095238       0.06666667       0.00000000 </v>
   <v>      -0.33333333       0.06666667       0.00000000 </v>
   <v>      -0.28571429       0.06666667       0.00000000 </v>
   <v>      -0.23809524       0.06666667       0.00000000 </v>
   <v>      -0.19047619       0.06666667       0.00000000 </v>
   <v>      -0.14285714       0.06666667       0.00000000 </v>
   <v>      -0.09523810       0.06666667       0.00000000 </v>
   <v>      -0.04761905       0.06666667       0.00000000 </v>
   <v>       0.00000000       0.13333333       0.00000000 </v>
   <v>       0.04761905       0.13333333       0.00000000 </v>
   <v>       0.09523810       0.13333333       0.00000000 </v>
   <v>       0.14285714       0.13333333       0.00000000 </v>
   <v>       0.19047619       0.13333333       0.00000000 </v>
   <v>       0.23809524       0.13333333       0.00000000 </v>
   <v>       0.28571429       0.13333333       0.00000000 </v>
   <v>       0.33333333       0.13333333       0.00000000 </v>
   <v>       0.38095238       0.13333333       0.00000000 </v>
   <v>       0.42857143       0.13333333       0.00000000 </v>
   <v>       0.47619048       0.13333333       0.00000000 </v>
   <v>      -0.47619048       0.13333333       0.00000000 </v>
   <v>      -0.42857143       0.13333333       0.00000000 </v>
   <v>      -0.38095238       0.13333333       0.00000000 </v>
   <v>      -0.33333333       0.13333333       0.00000000 </v>
   <v>      -0.28571429       0.13333333       0.00000000 </v>
   <v>      -0.23809524       0.13333333       0.00000000 </v>
   <v>      -0.19047619       0.13333333       0.00000000 </v>
   <v>      -0.14285714       0.13333333       0.00000000 </v>
   <v>      -0.09523810       0.13333333       0.00000000 </v>
   <v>      -0.04761905       0.13333333       0.00000000 </v>
   <v>       0.00000000       0.20000000       0.00000000 </v>
   <v>       0.04761905       0.20000000       0.00000000 </v>
   <v>       0.09523810       0.20000000       0.00000000 </v>
   <v>       0.14285714       0.20000000       0.00000000 </v>
   <v>       0.19047619       0.20000000       0.00000000 </v>
   <v>       0.23809524       0.20000000       0.00000000 </v>
   <v>       0.28571429       0.20000000       0.00000000 </v>
   <v>       0.33333333       0.20000000       0.00000000 </v>
   <v>       0.38095238       0.20000000       0.00000000 </v>
   <v>       0.42857143       0.20000000       0.00000000 </v>
   <v>       0.47619048       0.20000000       0.00000000 </v>
   <v>      -0.47619048       0.20000000       0.00000000 </v>
   <v>      -0.42857143       0.20000000       0.00000000 </v>
   <v>      -0.38095238       0.20000000       0.00000000 </v>
   <v>      -0.33333333       0.20000000       0.00000000 </v>
   <v>      -0.28571429       0.20000000       0.00000000 </v>
   <v>      -0.23809524       0.20000000       0.00000000 </v>
   <v>      -0.19047619       0.20000000       0.00000000 </v>
   <v>      -0.14285714       0.20000000       0.00000000 </v>
   <v>      -0.09523810       0.20000000       0.00000000 </v>
   <v>      -0.04761905       0.20000000       0.00000000 </v>
   <v>       0.00000000       0.26666667       0.00000000 </v>
   <v>       0.04761905       0.26666667       0.00000000 </v>
   <v>       0.09523810       0.26666667       0.00000000 </v>
   <v>       0.14285714       0.26666667       0.00000000 </v>
   <v>       0.19047619       0.26666667       0.00000000 </v>
   <v>       0.23809524       0.26666667       0.00000000 </v>
   <v>       0.28571429       0.26666667       0.00000000 </v>
   <v>       0.33333333       0.26666667       0.00000000 </v>
   <v>       0.38095238       0.26666667       0.00000000 </v>
   <v>       0.42857143       0.26666667       0.00000000 </v>
   <v>       0.47619048       0.26666667       0.00000000 </v>
   <v>      -0.47619048       0.26666667       0.00000000 </v>
   <v>      -0.42857143       0.26666667       0.00000000 </v>
   <v>      -0.38095238       0.26666667       0.00000000 </v>
   <v>      -0.33333333       0.26666667       0.00000000 </v>
   <v>      -0.28571429       0.26666667       0.00000000 </v>
   <v>      -0.23809524       0.26666667       0.00000000 </v>
   <v>      -0.19047619       0.26666667       0.00000000 </v>
   <v>      -0.14285714       0.26666667       0.00000000 </v>
   <v>      -0.09523810       0.26666667       0.00000000 </v>
   <v>      -0.04761905       0.26666667       0.00000000 </v>
   <v>       0.00000000       0.33333333       0.00000000 </v>
   <v>       0.04761905       0.33333333       0.00000000 </v>
   <v>       0.09523810       0.33333333       0.00000000 </v>
   <v>       0.14285714       0.33333333       0.00000000 </v>
   <v>       0.19047619       0.33333333       0.00000000 </v>
   <v>       0.23809524       0.33333333       0.00000000 </v>
   <v>       0.28571429       0.33333333       0.00000000 </v>
   <v>       0.33333333       0.33333333       0.00000000 </v>
   <v>       0.38095238       0.33333333       0.00000000 </v>
   <v>       0.42857143       0.33333333       0.00000000 </v>
   <v>       0.47619048       0.33333333       0.00000000 </v>
   <v>      -0.47619048       0.33333333       0.00000000 </v>
   <v>      -0.42857143       0.33333333       0.00000000 </v>
   <v>      -0.38095238       0.33333333       0.00000000 </v>
   <v>      -0.33333333       0.33333333       0.00000000 </v>
   <v>      -0.28571429       0.33333333       0.00000000 </v>
   <v>      -0.23809524       0.33333333       0.00000000 </v>
   <v>      -0.19047619       0.33333333       0.00000000 </v>
   <v>      -0.14285714       0.33333333       0.00000000 </v>
   <v>      -0.09523810       0.33333333       0.00000000 </v>
   <v>      -0.04761905       0.33333333       0.00000000 </v>
   <v>       0.00000000       0.40000000       0.00000000 </v>
   <v>       0.04761905       0.40000000       0.00000000 </v>
   <v>       0.09523810       0.40000000       0.00000000 </v>
   <v>       0.14285714       0.40000000       0.00000000 </v>
   <v>       0.19047619       0.40000000       0.00000000 </v>
   <v>       0.23809524       0.40000000       0.00000000 </v>
   <v>       0.28571429       0.40000000       0.00000000 </v>
   <v>       0.33333333       0.40000000       0.00000000 </v>
   <v>       0.38095238       0.40000000       0.00000000 </v>
   <v>       0.42857143       0.40000000       0.00000000 </v>
   <v>       0.47619048       0.40000000       0.00000000 </v>
   <v>      -0.47619048       0.40000000       0.00000000 </v>
   <v>      -0.42857143       0.40000000       0.00000000 </v>
   <v>      -0.38095238       0.40000000       0.00000000 </v>
   <v>      -0.33333333       0.40000000       0.00000000 </v>
   <v>      -0.28571429       0.40000000       0.00000000 </v>
   <v>      -0.23809524       0.40000000       0.00000000 </v>
   <v>      -0.19047619       0.40000000       0.00000000 </v>
   <v>      -0.14285714       0.40000000       0.00000000 </v>
   <v>      -0.09523810       0.40000000       0.00000000 </v>
   <v>      -0.04761905       0.40000000       0.00000000 </v>
   <v>       0.00000000       0.46666667       0.00000000 </v>
   <v>       0.04761905       0.46666667       0.00000000 </v>
   <v>       0.09523810       0.46666667       0.00000000 </v>
   <v>       0.14285714       0.46666667       0.00000000 </v>
   <v>       0.19047619       0.46666667       0.00000000 </v>
   <v>       0.23809524       0.46666667       0.00000000 </v>
   <v>       0.28571429       0.46666667       0.00000000 </v>
   <v>       0.33333333       0.46666667       0.00000000 </v>
   <v>       0.38095238       0.46666667       0.00000000 </v>
   <v>       0.42857143       0.46666667       0.00000000 </v>
   <v>       0.47619048       0.46666667       0.00000000 </v>
   <v>      -0.47619048       0.46666667       0.00000000 </v>
   <v>      -0.42857143       0.46666667       0.00000000 </v>
   <v>      -0.38095238       0.46666667       0.00000000 </v>
   <v>      -0.33333333       0.46666667       0.00000000 </v>
   <v>      -0.28571429       0.46666667       0.00000000 </v>
   <v>      -0.23809524       0.46666667       0.00000000 </v>
   <v>      -0.19047619       0.46666667       0.00000000 </v>
   <v>      -0.14285714       0.46666667       0.00000000 </v>
   <v>      -0.09523810       0.46666667       0.00000000 </v>
   <v>      -0.04761905       0.46666667       0.00000000 </v>
  </varray>
  <varray name="weights" >
   <v>       0.00317460 </v>
   <v>       0.00634921 </v>
   <v>       0.00634921 </v>
   <v>       0.00634921 </v>
   <v>       0.00634921 </v>
   <v>       0.00634921 </v>
   <v>       0.00634921 </v>
   <v>       0.00634921 </v>
   <v>       0.00634921 </v>
   <v>       0.00634921 </v>
   <v>       0.00634921 </v>
   <v>       0.00634921 </v>
   <v>       0.00634921 </v>
   <v>       0.00634921 </v>
   <v>       0.00634921 </v>
   <v>       0.00634921 </v>
   <v>       0.00634921 </v>
   <v>       0.00634921 </v>
   <v>       0.00634921 </v>
   <v>       0.00634921 </v>
   <v>       0.00634921 </v>
   <v>       0.00634921 </v>
   <v>       0.00634921 </v>
   <v>       0.00634921 </v>
   <v>       0.00634921 </v>
   <v>       0.00634921 </v>
   <v>       0.00634921 </v>
   <v>       0.00634921 </v>
   <v>       0.00634921 </v>
   <v>       0.00634921 </v>
   <v>       0.00634921 </v>
   <v>       0.00634921 </v>
   <v>       0.00634921 </v>
   <v>       0.00634921 </v>
   <v>       0.00634921 </v>
   <v>       0.00634921 </v>
   <v>       0.00634921 </v>
   <v>       0.00634921 </v>
   <v>       0.00634921 </v>
   <v>       0.00634921 </v>
   <v>       0.00634921 </v>
   <v>       0.00634921 </v>
   <v>       0.00634921 </v>
   <v>       0.00634921 </v>
   <v>       0.00634921 </v>
   <v>       0.00634921 </v>
   <v>       0.00634921 </v>
   <v>       0.00634921 </v>
   <v>       0.00634921 </v>
   <v>       0.00634921 </v>
   <v>       0.00634921 </v>
   <v>       0.00634921 </v>
   <v>       0.00634921 </v>
   <v>       0.00634921 </v>
   <v>       0.00634921 </v>
   <v>       0.00634921 </v>
   <v>       0.00634921 </v>
   <v>       0.00634921 </v>
   <v>       0.00634921 </v>
   <v>       0.00634921 </v>
   <v>       0.00634921 </v>
   <v>       0.00634921 </v>
   <v>       0.00634921 </v>
   <v>       0.00634921 </v>
   <v>       0.00634921 </v>
   <v>       0.00634921 </v>
   <v>       0.00634921 </v>
   <v>       0.00634921 </v>
   <v>       0.00634921 </v>
   <v>       0.00634921 </v>
   <v>       0.00634921 </v>
   <v>       0.00634921 </v>
   <v>       0.00634921 </v>
   <v>       0.00634921 </v>
   <v>       0.00634921 </v>
   <v>       0.00634921 </v>
   <v>       0.00634921 </v>
   <v>       0.00634921 </v>
   <v>       0.00634921 </v>
   <v>       0.00634921 </v>
   <v>       0.00634921 </v>
   <v>       0.00634921 </v>
   <v>       0.00634921 </v>
   <v>       0.00634921 </v>
   <v>       0.00634921 </v>
   <v>       0.00634921 </v>
   <v>       0.00634921 </v>
   <v>       0.00634921 </v>
   <v>       0.00634921 </v>
   <v>       0.00634921 </v>
   <v>       0.00634921 </v>
   <v>       0.00634921 </v>
   <v>       0.00634921 </v>
   <v>       0.00634921 </v>
   <v>       0.00634921 </v>
   <v>       0.00634921 </v>
   <v>       0.00634921 </v>
   <v>       0.00634921 </v>
   <v>       0.00634921 </v>
   <v>       0.00634921 </v>
   <v>       0.00634921 </v>
   <v>       0.00634921 </v>
   <v>       0.00634921 </v>
   <v>       0.00634921 </v>
   <v>       0.00634921 </v>
   <v>       0.00634921 </v>
   <v>       0.00634921 </v>
   <v>       0.00634921 </v>
   <v>       0.00634921 </v>
   <v>       0.00634921 </v>
   <v>       0.00634921 </v>
   <v>       0.00634921 </v>
   <v>       0.00634921 </v>
   <v>       0.00634921 </v>
   <v>       0.00634921 </v>
   <v>       0.00634921 </v>
   <v>       0.00634921 </v>
   <v>       0.00634921 </v>
   <v>       0.00634921 </v>
   <v>       0.00634921 </v>
   <v>       0.00634921 </v>
   <v>       0.00634921 </v>
   <v>       0.00634921 </v>
   <v>       0.00634921 </v>
   <v>       0.00634921 </v>
   <v>       0.00634921 </v>
   <v>       0.00634921 </v>
   <v>       0.00634921 </v>
   <v>       0.00634921 </v>
   <v>       0.00634921 </v>
   <v>       0.00634921 </v>
   <v>       0.00634921 </v>
   <v>       0.00634921 </v>
   <v>       0.00634921 </v>
   <v>       0.00634921 </v>
   <v>       0.00634921 </v>
   <v>       0.00634921 </v>
   <v>       0.00634921 </v>
   <v>       0.00634921 </v>
   <v>       0.00634921 </v>
   <v>       0.00634921 </v>
   <v>       0.00634921 </v>
   <v>       0.00634921 </v>
   <v>       0.00634921 </v>
   <v>       0.00634921 </v>
   <v>       0.00634921 </v>
   <v>       0.00634921 </v>
   <v>       0.00634921 </v>
   <v>       0.00634921 </v>
   <v>       0.00634921 </v>
   <v>       0.00634921 </v>
   <v>       0.00634921 </v>
   <v>       0.00634921 </v>
   <v>       0.00634921 </v>
   <v>       0.00634921 </v>
   <v>       0.00634921 </v>
   <v>       0.00634921 </v>
   <v>       0.00634921 </v>
  </varray>
 </kpoints>
 <parameters>
  <separator name="general" >
   <i type="string" name="SYSTEM">unknown system</i>
   <i type="logical" name="LCOMPAT"> F  </i>
  </separator>
  <separator name="electronic" >
   <i type="string" name="PREC">a</i>
   <i name="ENMAX">    520.00000000</i>
   <i name="ENAUG">    342.92400000</i>
   <i name="EDIFF">      0.00001000</i>
   <i type="int" name="IALGO">    38</i>
   <i type="int" name="IWAVPR">    11</i>
   <i type="int" name="NBANDS">    16</i>
   <i name="NELECT">     20.00000000</i>
   <i type="int" name="TURBO">     0</i>
   <i type="int" name="IRESTART">     0</i>
   <i type="int" name="NREBOOT">     0</i>
   <i type="int" name="NMIN">     0</i>
   <i name="EREF">      0.00000000</i>
   <separator name="electronic smearing" >
    <i type="int" name="ISMEAR">     0</i>
    <i name="SIGMA">      0.02000000</i>
    <i name="KSPACING">      0.50000000</i>
    <i type="logical" name="KGAMMA"> T  </i>
   </separator>
   <separator name="electronic projectors" >
    <i type="logical" name="LREAL"> F  </i>
    <v name="ROPT">      0.00000000</v>
    <i type="int" name="LMAXPAW">  -100</i>
    <i type="int" name="LMAXMIX">     2</i>
    <i type="logical" name="NLSPLINE"> F  </i>
   </separator>
   <separator name="electronic startup" >
    <i type="int" name="ISTART">     0</i>
    <i type="int" name="ICHARG">     2</i>
    <i type="int" name="INIWAV">     1</i>
   </separator>
   <separator name="electronic spin" >
    <i type="int" name="ISPIN">     1</i>
    <i type="logical" name="LNONCOLLINEAR"> F  </i>
    <v name="MAGMOM">      1.00000000      1.00000000      1.00000000      1.00000000</v>
    <i name="NUPDOWN">     -1.00000000</i>
    <i type="logical" name="LSORBIT"> F  </i>
    <v name="SAXIS">      0.00000000      0.00000000      1.00000000</v>
    <i type="logical" name="LSPIRAL"> F  </i>
    <v name="QSPIRAL">      0.00000000      0.00000000      0.00000000</v>
    <i type="logical" name="LZEROZ"> F  </i>
   </separator>
   <separator name="electronic exchange-correlation" >
    <i type="logical" name="LASPH"> F  </i>
    <i type="logical" name="LMETAGGA"> F  </i>
   </separator>
   <separator name="electronic convergence" >
    <i type="int" name="NELM">   250</i>
    <i type="int" name="NELMDL">    -5</i>
    <i type="int" name="NELMIN">     6</i>
    <i name="ENINI">    520.00000000</i>
    <separator name="electronic convergence detail" >
     <i type="logical" name="LDIAG"> T  </i>
     <i type="logical" name="LSUBROT"> F  </i>
     <i name="WEIMIN">      0.00100000</i>
     <i name="EBREAK">      0.00000016</i>
     <i name="DEPER">      0.30000000</i>
     <i type="int" name="NRMM">     4</i>
     <i name="TIME">      0.40000000</i>
    </separator>
   </separator>
   <separator name="electronic mixer" >
    <i name="AMIX">      0.40000000</i>
    <i name="BMIX">      1.00000000</i>
    <i name="AMIN">      0.10000000</i>
    <i name="AMIX_MAG">      1.60000000</i>
    <i name="BMIX_MAG">      1.00000000</i>
    <separator name="electronic mixer details" >
     <i type="int" name="IMIX">     4</i>
     <i type="logical" name="MIXFIRST"> F  </i>
     <i type="int" name="MAXMIX">   -45</i>
     <i name="WC">    100.00000000</i>
     <i type="int" name="INIMIX">     1</i>
     <i type="int" name="MIXPRE">     1</i>
     <i type="int" name="MREMOVE">     5</i>
    </separator>
   </separator>
   <separator name="electronic dipolcorrection" >
    <i type="logical" name="LDIPOL"> F  </i>
    <i type="logical" name="LMONO"> F  </i>
    <i type="int" name="IDIPOL">     0</i>
    <i name="EPSILON">      1.00000000</i>
    <v name="DIPOL">   -100.00000000   -100.00000000   -100.00000000</v>
    <i name="EFIELD">      0.00000000</i>
   </separator>
  </separator>
  <separator name="grids" >
   <i type="int" name="NGX">    28</i>
   <i type="int" name="NGY">    36</i>
   <i type="int" name="NGZ">   150</i>
   <i type="int" name="NGXF">    56</i>
   <i type="int" name="NGYF">    72</i>
   <i type="int" name="NGZF">   300</i>
   <i type="logical" name="ADDGRID"> F  </i>
  </separator>
  <separator name="ionic" >
   <i type="int" name="NSW">   200</i>
   <i type="int" name="IBRION">     2</i>
   <i type="int" name="ISIF">     2</i>
   <i name="PSTRESS">      0.00000000</i>
   <i name="EDIFFG">     -0.01000000</i>
   <i type="int" name="NFREE">     1</i>
   <i name="POTIM">      0.30000000</i>
   <i name="SMASS">     -3.00000000</i>
   <i name="SCALEE">      1.00000000</i>
  </separator>
  <separator name="ionic md" >
   <i name="TEBEG">      0.00010000</i>
   <i name="TEEND">      0.00010000</i>
   <i type="int" name="NBLOCK">     1</i>
   <i type="int" name="KBLOCK">   200</i>
   <i type="int" name="NPACO">   256</i>
   <i name="APACO">     16.00000000</i>
  </separator>
  <separator name="symmetry" >
   <i type="int" name="ISYM">     2</i>
   <i name="SYMPREC">      0.00001000</i>
  </separator>
  <separator name="dos" >
   <i type="logical" name="LORBIT"> F  </i>
   <v name="RWIGS">     -1.00000000</v>
   <i type="int" name="NEDOS">   301</i>
   <i name="EMIN">     10.00000000</i>
   <i name="EMAX">    -10.00000000</i>
   <i name="EFERMI">      0.00000000</i>
  </separator>
  <separator name="writing" >
   <i type="int" name="NWRITE">     2</i>
   <i type="logical" name="LWAVE"> F  </i>
   <i type="logical" name="LCHARG"> F  </i>
   <i type="logical" name="LPARD"> F  </i>
   <i type="logical" name="LVTOT"> F  </i>
   <i type="logical" name="LVHAR"> F  </i>
   <i type="logical" name="LELF"> F  </i>
   <i type="logical" name="LOPTICS"> F  </i>
   <v name="STM">      0.00000000      0.00000000      0.00000000      0.00000000      0.00000000      0.00000000      0.00000000</v>
  </separator>
  <separator name="performance" >
   <i type="int" name="NPAR">     4</i>
   <i type="int" name="NSIM">     4</i>
   <i type="int" name="NBLK">    -1</i>
   <i type="logical" name="LPLANE"> T  </i>
   <i type="logical" name="LSCALAPACK"> T  </i>
   <i type="logical" name="LSCAAWARE"> F  </i>
   <i type="logical" name="LSCALU"> F  </i>
   <i type="logical" name="LASYNC"> F  </i>
   <i type="logical" name="LORBITALREAL"> F  </i>
  </separator>
  <separator name="miscellaneous" >
   <i type="int" name="IDIOT">     3</i>
   <i type="logical" name="LMUSIC"> F  </i>
   <v name="POMASS">     30.97400000</v>
   <v name="DARWINR">      0.00000000</v>
   <v name="DARWINV">      1.00000000</v>
   <i type="logical" name="LCORR"> T  </i>
  </separator>
  <i type="logical" name="GGA_COMPAT"> T  </i>
  <i type="logical" name="LBERRY"> F  </i>
  <i type="int" name="ICORELEVEL">     0</i>
  <i type="logical" name="LDAU"> F  </i>
  <i type="int" name="I_CONSTRAINED_M">     0</i>
  <separator name="electronic exchange-correlation" >
   <i type="string" name="GGA">--</i>
   <i type="int" name="VOSKOWN">     0</i>
   <i type="logical" name="LHFCALC"> F  </i>
   <i type="string" name="PRECFOCK"></i>
   <i type="logical" name="LSYMGRAD"> F  </i>
   <i type="logical" name="LHFONE"> F  </i>
   <i type="logical" name="LRHFCALC"> F  </i>
   <i type="logical" name="LTHOMAS"> F  </i>
   <i type="logical" name="LMODELHF"> F  </i>
   <i name="ENCUT4O">     -1.00000000</i>
   <i type="int" name="EXXOEP">     0</i>
   <i type="int" name="FOURORBIT">     0</i>
   <i name="AEXX">      0.00000000</i>
   <i name="HFALPHA">      0.00000000</i>
   <i name="MCALPHA">      0.00000000</i>
   <i name="ALDAX">      1.00000000</i>
   <i name="AGGAX">      1.00000000</i>
   <i name="ALDAC">      1.00000000</i>
   <i name="AGGAC">      1.00000000</i>
   <i type="int" name="NKREDX">     1</i>
   <i type="int" name="NKREDY">     1</i>
   <i type="int" name="NKREDZ">     1</i>
   <i type="logical" name="SHIFTRED"> F  </i>
   <i type="logical" name="ODDONLY"> F  </i>
   <i type="logical" name="EVENONLY"> F  </i>
   <i type="int" name="LMAXFOCK">     0</i>
   <i type="int" name="NMAXFOCKAE">     0</i>
   <i type="logical" name="LFOCKAEDFT"> F  </i>
   <i name="HFSCREEN">      0.00000000</i>
   <i name="HFSCREENC">      0.00000000</i>
   <i type="int" name="NBANDSGWLOW">     0</i>
  </separator>
  <separator name="vdW DFT" >
   <i type="logical" name="LUSE_VDW"> F  </i>
   <i name="Zab_VDW">     -0.84910000</i>
   <i name="PARAM1">      0.12340000</i>
   <i name="PARAM2">      1.00000000</i>
   <i name="PARAM3">      0.00000000</i>
  </separator>
  <separator name="model GW" >
   <i type="int" name="MODEL_GW">     0</i>
   <i name="MODEL_EPS0">     45.77900657</i>
   <i name="MODEL_ALPHA">      1.00000000</i>
  </separator>
  <separator name="linear response parameters" >
   <i type="logical" name="LEPSILON"> F  </i>
   <i type="logical" name="LRPA"> F  </i>
   <i type="logical" name="LNABLA"> F  </i>
   <i type="logical" name="LVEL"> F  </i>
   <i type="int" name="KINTER">     0</i>
   <i name="CSHIFT">      0.10000000</i>
   <i name="OMEGAMAX">     -1.00000000</i>
   <i name="DEG_THRESHOLD">      0.00200000</i>
  </separator>
  <separator name="orbital magnetization" >
   <i type="logical" name="NUCIND"> F  </i>
   <v name="MAGPOS">      0.00000000      0.00000000      0.00000000</v>
   <i type="logical" name="LNICSALL"> T  </i>
   <i type="logical" name="ORBITALMAG"> F  </i>
   <i type="logical" name="LMAGBLOCH"> F  </i>
   <i type="logical" name="LCHIMAG"> F  </i>
   <i type="logical" name="LGAUGE"> T  </i>
   <i type="int" name="MAGATOM">     0</i>
   <v name="MAGDIPOL">      0.00000000      0.00000000      0.00000000</v>
   <v name="AVECCONST">      0.00000000      0.00000000      0.00000000</v>
  </separator>
  <separator name="response functions" >
   <i type="logical" name="LADDER"> F  </i>
   <i type="logical" name="LFXC"> F  </i>
   <i type="logical" name="LHARTREE"> T  </i>
   <i type="int" name="IBSE">     0</i>
   <v type="int" name="KPOINT">    -1     0     0     0</v>
   <i type="logical" name="LTCTE"> F  </i>
   <i type="logical" name="LTETE"> F  </i>
   <i type="logical" name="LTRIPLET"> F  </i>
   <i type="logical" name="LFXCEPS"> F  </i>
   <i type="logical" name="LFXHEG"> F  </i>
   <i type="int" name="NATURALO">     0</i>
   <i type="logical" name="L2ORDER"> F  </i>
   <i type="logical" name="LUSEW"> F  </i>
   <i name="ENCUTGW">     -2.00000000</i>
   <i name="ENCUTGWSOFT">     -2.00000000</i>
   <i name="ENCUTLF">     -1.00000000</i>
   <i type="int" name="LMAXMP2">    -1</i>
   <i name="SCISSOR">      0.00000000</i>
   <i type="int" name="NOMEGA">     0</i>
   <i type="int" name="NOMEGAR">     0</i>
   <i type="int" name="NBANDSGW">    -1</i>
   <i type="int" name="NBANDSO">    -1</i>
   <i type="int" name="NBANDSV">    -1</i>
   <i type="int" name="NELM">   250</i>
   <i type="int" name="NELMHF">     1</i>
   <i type="int" name="DIM">     3</i>
   <i type="int" name="ANTIRES">     0</i>
   <i name="OMEGAMAX">    -30.00000000</i>
   <i name="OMEGAMIN">    -30.00000000</i>
   <i name="OMEGATL">   -200.00000000</i>
   <i type="int" name="OMEGAGRID">     0</i>
   <i name="CSHIFT">     -0.10000000</i>
   <i type="logical" name="SELFENERGY"> F  </i>
   <i type="logical" name="LSPECTRAL"> F  </i>
   <i type="logical" name="LSPECTRALGW"> F  </i>
   <i type="logical" name="LSINGLES"> F  </i>
   <i type="logical" name="LFERMIGW"> F  </i>
   <i type="logical" name="ODDONLYGW"> F  </i>
   <i type="logical" name="EVENONLYGW"> F  </i>
   <i type="int" name="NKREDLFX">     1</i>
   <i type="int" name="NKREDLFY">     1</i>
   <i type="int" name="NKREDLFZ">     1</i>
   <i type="int" name="MAXMEM">  1800</i>
   <i type="int" name="TELESCOPE">     0</i>
   <i type="int" name="TAUPAR">     1</i>
   <i type="int" name="OMEGAPAR">    -1</i>
   <i name="LAMBDA">      1.00000000</i>
  </separator>
  <separator name="External order field" >
   <i name="OFIELD_KAPPA">      0.00000000</i>
   <v name="OFIELD_K">      0.00000000      0.00000000      0.00000000</v>
   <i name="OFIELD_Q6_NEAR">      0.00000000</i>
   <i name="OFIELD_Q6_FAR">      0.00000000</i>
   <i name="OFIELD_A">      0.00000000</i>
  </separator>
 </parameters>
 <atominfo>
  <atoms>       4 </atoms>
  <types>       1 </types>
  <array name="atoms" >
   <dimension dim="1">ion</dimension>
   <field type="string">element</field>
   <field type="int">atomtype</field>
   <set>
    <rc><c>P </c><c>   1</c></rc>
    <rc><c>P </c><c>   1</c></rc>
    <rc><c>P </c><c>   1</c></rc>
    <rc><c>P </c><c>   1</c></rc>
   </set>
  </array>
  <array name="atomtypes" >
   <dimension dim="1">type</dimension>
   <field type="int">atomspertype</field>
   <field type="string">element</field>
   <field>mass</field>
   <field>valence</field>
   <field type="string">pseudopotential</field>
   <set>
    <rc><c>   4</c><c>P </c><c>     30.97400000</c><c>      5.00000000</c><c>  PAW_PBE P 06Sep2000                   </c></rc>
   </set>
  </array>
 </atominfo>
 <structure name="initialpos" >
  <crystal>
   <varray name="basis" >
    <v>       3.29703900       0.03297400       0.00000000 </v>
    <v>       0.04623600       4.62312000      -0.00005300 </v>
    <v>       0.00000000       0.00000000      20.02439000 </v>
   </varray>
   <i name="volume">    305.19337711 </i>
   <varray name="rec_basis" >
    <v>       0.30333279      -0.00303364       0.00000000 </v>
    <v>      -0.00216349       0.21632578       0.00000000 </v>
    <v>      -0.00000001       0.00000057       0.04993910 </v>
   </varray>
  </crystal>
  <varray name="positions" >
   <v>       0.50000000       0.91077300       0.55252100 </v>
   <v>       0.50000000       0.08922700       0.44747900 </v>
   <v>       0.00000000       0.41076900       0.44747900 </v>
   <v>       0.00000000       0.58923100       0.55252100 </v>
  </varray>
 </structure>
 <calculation>
  <scstep>
   <time name="dav">    1.49    1.49</time>
   <time name="total">    1.52    1.52</time>
   <energy>
    <i name="alphaZ">      5.25621183 </i>
    <i name="ewald">   1863.59040064 </i>
    <i name="hartreedc">  -2457.30602969 </i>
    <i name="XCdc">     13.03238451 </i>
    <i name="pawpsdc">    559.04011960 </i>
    <i name="pawaedc">   -526.39432044 </i>
    <i name="eentropy">     -0.00035677 </i>
    <i name="bandstr">    -28.07820458 </i>
    <i name="atom">    704.16778566 </i>
    <i name="e_fr_energy">    133.30799077 </i>
    <i name="e_wo_entrp">    133.30834754 </i>
    <i name="e_0_energy">    133.30816915 </i>
   </energy>
  </scstep>
  <scstep>
   <time name="dav">    1.98    1.98</time>
   <time name="total">    1.98    1.98</time>
   <energy>
    <i name="e_fr_energy">     -6.20362054 </i>
    <i name="e_wo_entrp">     -6.20348936 </i>
    <i name="e_0_energy">     -6.20355495 </i>
   </energy>
  </scstep>
  <scstep>
   <time name="dav">    1.82    1.82</time>
   <time name="total">    1.82    1.82</time>
   <energy>
    <i name="e_fr_energy">    -21.33609717 </i>
    <i name="e_wo_entrp">    -21.33609717 </i>
    <i name="e_0_energy">    -21.33609717 </i>
   </energy>
  </scstep>
  <scstep>
   <time name="dav">    1.88    1.88</time>
   <time name="total">    1.88    1.88</time>
   <energy>
    <i name="e_fr_energy">    -21.65108876 </i>
    <i name="e_wo_entrp">    -21.65108876 </i>
    <i name="e_0_energy">    -21.65108876 </i>
   </energy>
  </scstep>
  <scstep>
   <time name="dav">    1.98    1.98</time>
   <time name="total">    2.08    2.08</time>
   <energy>
    <i name="e_fr_energy">    -21.66041271 </i>
    <i name="e_wo_entrp">    -21.66041271 </i>
    <i name="e_0_energy">    -21.66041271 </i>
   </energy>
  </scstep>
  <scstep>
   <time name="dav">    1.80    1.80</time>
   <time name="total">    1.92    1.92</time>
   <energy>
    <i name="e_fr_energy">    -21.51522452 </i>
    <i name="e_wo_entrp">    -21.51522452 </i>
    <i name="e_0_energy">    -21.51522452 </i>
   </energy>
  </scstep>
  <scstep>
   <time name="dav">    1.73    1.73</time>
   <time name="total">    1.84    1.84</time>
   <energy>
    <i name="e_fr_energy">    -21.44684675 </i>
    <i name="e_wo_entrp">    -21.44684675 </i>
    <i name="e_0_energy">    -21.44684675 </i>
   </energy>
  </scstep>
  <scstep>
   <time name="dav">    1.81    1.81</time>
   <time name="total">    1.92    1.92</time>
   <energy>
    <i name="e_fr_energy">    -21.44618671 </i>
    <i name="e_wo_entrp">    -21.44618671 </i>
    <i name="e_0_energy">    -21.44618671 </i>
   </energy>
  </scstep>
  <scstep>
   <time name="dav">    2.11    2.11</time>
   <time name="total">    2.22    2.22</time>
   <energy>
    <i name="e_fr_energy">    -21.44603807 </i>
    <i name="e_wo_entrp">    -21.44603807 </i>
    <i name="e_0_energy">    -21.44603807 </i>
   </energy>
  </scstep>
  <scstep>
   <time name="dav">    1.81    1.81</time>
   <time name="total">    1.92    1.92</time>
   <energy>
    <i name="e_fr_energy">    -21.44584617 </i>
    <i name="e_wo_entrp">    -21.44584617 </i>
    <i name="e_0_energy">    -21.44584617 </i>
   </energy>
  </scstep>
  <scstep>
   <time name="dav">    1.81    1.81</time>
   <time name="total">    1.92    1.92</time>
   <energy>
    <i name="e_fr_energy">    -21.44575541 </i>
    <i name="e_wo_entrp">    -21.44575541 </i>
    <i name="e_0_energy">    -21.44575541 </i>
   </energy>
  </scstep>
  <scstep>
   <time name="dav">    1.61    1.61</time>
   <time name="total">    1.72    1.72</time>
   <energy>
    <i name="e_fr_energy">    -21.44613699 </i>
    <i name="e_wo_entrp">    -21.44613699 </i>
    <i name="e_0_energy">    -21.44613699 </i>
   </energy>
  </scstep>
  <scstep>
   <time name="dav">    1.61    1.61</time>
   <time name="total">    1.72    1.72</time>
   <energy>
    <i name="e_fr_energy">    -21.44622909 </i>
    <i name="e_wo_entrp">    -21.44622909 </i>
    <i name="e_0_energy">    -21.44622909 </i>
   </energy>
  </scstep>
  <scstep>
   <time name="dav">    1.48    1.48</time>
   <time name="total">    1.59    1.59</time>
   <energy>
    <i name="e_fr_energy">    -21.44637363 </i>
    <i name="e_wo_entrp">    -21.44637363 </i>
    <i name="e_0_energy">    -21.44637363 </i>
   </energy>
  </scstep>
  <scstep>
   <time name="dav">    1.55    1.55</time>
   <time name="total">    1.66    1.66</time>
   <energy>
    <i name="e_fr_energy">    -21.44640938 </i>
    <i name="e_wo_entrp">    -21.44640938 </i>
    <i name="e_0_energy">    -21.44640938 </i>
   </energy>
  </scstep>
  <scstep>
   <time name="dav">    1.45    1.45</time>
   <time name="total">    1.56    1.56</time>
   <energy>
    <i name="e_fr_energy">    -21.44644182 </i>
    <i name="e_wo_entrp">    -21.44644182 </i>
    <i name="e_0_energy">    -21.44644182 </i>
   </energy>
  </scstep>
  <scstep>
   <time name="dav">    1.48    1.48</time>
   <time name="total">    1.50    1.50</time>
   <energy>
    <i name="alphaZ">      5.25621183 </i>
    <i name="ewald">   1863.59040064 </i>
    <i name="hartreedc">  -2472.71662816 </i>
    <i name="XCdc">     14.10078754 </i>
    <i name="pawpsdc">   2105.26931237 </i>
    <i name="pawaedc">  -2072.96341545 </i>
    <i name="eentropy">     -0.00000000 </i>
    <i name="bandstr">   -168.15089870 </i>
    <i name="atom">    704.16778566 </i>
    <i name="e_fr_energy">    -21.44644427 </i>
    <i name="e_wo_entrp">    -21.44644427 </i>
    <i name="e_0_energy">    -21.44644427 </i>
   </energy>
  </scstep>
  <structure>
   <crystal>
    <varray name="basis" >
     <v>       3.29703900       0.03297400       0.00000000 </v>
     <v>       0.04623600       4.62312000      -0.00005300 </v>
     <v>       0.00000000       0.00000000      20.02439000 </v>
    </varray>
    <i name="volume">    305.19337711 </i>
    <varray name="rec_basis" >
     <v>       0.30333279      -0.00303364       0.00000000 </v>
     <v>      -0.00216349       0.21632578       0.00000000 </v>
     <v>      -0.00000001       0.00000057       0.04993910 </v>
    </varray>
   </crystal>
   <varray name="positions" >
    <v>       0.50000000       0.91077300       0.55252100 </v>
    <v>       0.50000000       0.08922700       0.44747900 </v>
    <v>       0.00000000       0.41076900       0.44747900 </v>
    <v>       0.00000000       0.58923100       0.55252100 </v>
   </varray>
  </structure>
  <varray name="forces" >
   <v>      -0.25938997       0.02009244      -0.00304516 </v>
   <v>       0.25938997      -0.02009244       0.00304516 </v>
   <v>      -0.25938825       0.02006072       0.00304893 </v>
   <v>       0.25938825      -0.02006072      -0.00304893 </v>
  </varray>
  <varray name="stress" >
   <v>       0.44350644      -5.70004377       0.00004327 </v>
   <v>      -5.70004380       0.34358192       0.00034539 </v>
   <v>       0.00004325       0.00034541      -0.13217375 </v>
  </varray>
  <energy>
   <i name="e_fr_energy">    -21.44644427 </i>
   <i name="e_wo_entrp">    -21.44644427 </i>
   <i name="e_0_energy">     -0.00000000 </i>
  </energy>
  <time name="totalsc">   31.54   31.57</time>
 </calculation>
 <calculation>
  <scstep>
   <time name="dav">    1.55    1.55</time>
   <time name="total">    1.66    1.66</time>
   <energy>
    <i name="alphaZ">      5.25621183 </i>
    <i name="ewald">   1863.53011285 </i>
    <i name="hartreedc">  -2472.72074718 </i>
    <i name="XCdc">     14.09741886 </i>
    <i name="pawpsdc">   2104.88426219 </i>
    <i name="pawaedc">  -2072.57841578 </i>
    <i name="eentropy">     -0.00000000 </i>
    <i name="bandstr">   -168.08789510 </i>
    <i name="atom">    704.16778566 </i>
    <i name="e_fr_energy">    -21.45126666 </i>
    <i name="e_wo_entrp">    -21.45126666 </i>
    <i name="e_0_energy">    -21.45126666 </i>
   </energy>
  </scstep>
  <scstep>
   <time name="dav">    1.85    1.85</time>
   <time name="total">    1.96    1.96</time>
   <energy>
    <i name="e_fr_energy">    -21.45198981 </i>
    <i name="e_wo_entrp">    -21.45198981 </i>
    <i name="e_0_energy">    -21.45198981 </i>
   </energy>
  </scstep>
  <scstep>
   <time name="dav">    1.95    1.95</time>
   <time name="total">    2.06    2.06</time>
   <energy>
    <i name="e_fr_energy">    -21.45194905 </i>
    <i name="e_wo_entrp">    -21.45194905 </i>
    <i name="e_0_energy">    -21.45194905 </i>
   </energy>
  </scstep>
  <scstep>
   <time name="dav">    1.76    1.76</time>
   <time name="total">    1.87    1.87</time>
   <energy>
    <i name="e_fr_energy">    -21.45194106 </i>
    <i name="e_wo_entrp">    -21.45194106 </i>
    <i name="e_0_energy">    -21.45194106 </i>
   </energy>
  </scstep>
  <scstep>
   <time name="dav">    1.30    1.30</time>
   <time name="total">    1.41    1.42</time>
   <energy>
    <i name="e_fr_energy">    -21.45194284 </i>
    <i name="e_wo_entrp">    -21.45194284 </i>
    <i name="e_0_energy">    -21.45194284 </i>
   </energy>
  </scstep>
  <scstep>
   <time name="dav">    1.27    1.27</time>
   <time name="total">    1.30    1.30</time>
   <energy>
    <i name="alphaZ">      5.25621183 </i>
    <i name="ewald">   1863.53011285 </i>
    <i name="hartreedc">  -2472.71892624 </i>
    <i name="XCdc">     14.09636182 </i>
    <i name="pawpsdc">   2101.33688635 </i>
    <i name="pawaedc">  -2069.02954610 </i>
    <i name="eentropy">     -0.00000000 </i>
    <i name="bandstr">   -168.09082983 </i>
    <i name="atom">    704.16778566 </i>
    <i name="e_fr_energy">    -21.45194367 </i>
    <i name="e_wo_entrp">    -21.45194367 </i>
    <i name="e_0_energy">    -21.45194367 </i>
   </energy>
  </scstep>
  <structure>
   <crystal>
    <varray name="basis" >
     <v>       3.29703900       0.03297400       0.00000000 </v>
     <v>       0.04623600       4.62312000      -0.00005300 </v>
     <v>       0.00000000       0.00000000      20.02439000 </v>
    </varray>
    <i name="volume">    305.19337711 </i>
    <varray name="rec_basis" >
     <v>       0.30333279      -0.00303364       0.00000000 </v>
     <v>      -0.00216349       0.21632578       0.00000000 </v>
     <v>      -0.00000001       0.00000057       0.04993910 </v>
    </varray>
   </crystal>
   <varray name="positions" >
    <v>       0.49772075       0.91091506       0.55251660 </v>
    <v>       0.50227925       0.08908494       0.44748340 </v>
    <v>      -0.00227923       0.41091086       0.44748341 </v>
    <v>       0.00227923       0.58908914       0.55251659 </v>
   </varray>
  </structure>
  <varray name="forces" >
   <v>      -0.10446489      -0.00343427      -0.00082368 </v>
   <v>       0.10446489       0.00343427       0.00082368 </v>
   <v>      -0.10446319      -0.00346111       0.00082406 </v>
   <v>       0.10446319       0.00346111      -0.00082406 </v>
  </varray>
  <varray name="stress" >
   <v>       0.21321544      -3.63852374       0.00002284 </v>
   <v>      -3.63852372       0.04756751       0.00028657 </v>
   <v>       0.00002282       0.00028649      -0.08841851 </v>
  </varray>
  <energy>
   <i name="e_fr_energy">    -21.45194367 </i>
   <i name="e_wo_entrp">    -21.45194367 </i>
   <i name="e_0_energy">     -0.00000000 </i>
  </energy>
  <time name="totalsc">   11.04   11.05</time>
 </calculation>
 <calculation>
  <scstep>
   <time name="dav">    1.53    1.53</time>
   <time name="total">    1.65    1.65</time>
   <energy>
    <i name="alphaZ">      5.25621183 </i>
    <i name="ewald">   1863.50150291 </i>
    <i name="hartreedc">  -2472.71900623 </i>
    <i name="XCdc">     14.09427451 </i>
    <i name="pawpsdc">   2101.32845655 </i>
    <i name="pawaedc">  -2069.02111967 </i>
    <i name="eentropy">     -0.00000000 </i>
    <i name="bandstr">   -168.06080734 </i>
    <i name="atom">    704.16778566 </i>
    <i name="e_fr_energy">    -21.45270179 </i>
    <i name="e_wo_entrp">    -21.45270179 </i>
    <i name="e_0_energy">    -21.45270179 </i>
   </energy>
  </scstep>
  <scstep>
   <time name="dav">    1.81    1.81</time>
   <time name="total">    1.93    1.93</time>
   <energy>
    <i name="e_fr_energy">    -21.45302156 </i>
    <i name="e_wo_entrp">    -21.45302156 </i>
    <i name="e_0_energy">    -21.45302156 </i>
   </energy>
  </scstep>
  <scstep>
   <time name="dav">    1.97    1.97</time>
   <time name="total">    2.08    2.08</time>
   <energy>
    <i name="e_fr_energy">    -21.45300358 </i>
    <i name="e_wo_entrp">    -21.45300358 </i>
    <i name="e_0_energy">    -21.45300358 </i>
   </energy>
  </scstep>
  <scstep>
   <time name="dav">    1.50    1.50</time>
   <time name="total">    1.61    1.61</time>
   <energy>
    <i name="e_fr_energy">    -21.45299967 </i>
    <i name="e_wo_entrp">    -21.45299967 </i>
    <i name="e_0_energy">    -21.45299967 </i>
   </energy>
  </scstep>
  <scstep>
   <time name="dav">    1.21    1.21</time>
   <time name="total">    1.32    1.33</time>
   <energy>
    <i name="e_fr_energy">    -21.45300023 </i>
    <i name="e_wo_entrp">    -21.45300023 </i>
    <i name="e_0_energy">    -21.45300023 </i>
   </energy>
  </scstep>
  <scstep>
   <time name="dav">    1.18    1.18</time>
   <time name="total">    1.20    1.20</time>
   <energy>
    <i name="alphaZ">      5.25621183 </i>
    <i name="ewald">   1863.50150291 </i>
    <i name="hartreedc">  -2472.71964908 </i>
    <i name="XCdc">     14.09377466 </i>
    <i name="pawpsdc">   2099.42694686 </i>
    <i name="pawaedc">  -2067.11884394 </i>
    <i name="eentropy">     -0.00000000 </i>
    <i name="bandstr">   -168.06072929 </i>
    <i name="atom">    704.16778566 </i>
    <i name="e_fr_energy">    -21.45300039 </i>
    <i name="e_wo_entrp">    -21.45300039 </i>
    <i name="e_0_energy">    -21.45300039 </i>
   </energy>
  </scstep>
  <structure>
   <crystal>
    <varray name="basis" >
     <v>       3.29703900       0.03297400       0.00000000 </v>
     <v>       0.04623600       4.62312000      -0.00005300 </v>
     <v>       0.00000000       0.00000000      20.02439000 </v>
    </varray>
    <i name="volume">    305.19337711 </i>
    <varray name="rec_basis" >
     <v>       0.30333279      -0.00303364       0.00000000 </v>
     <v>      -0.00216349       0.21632578       0.00000000 </v>
     <v>      -0.00000001       0.00000057       0.04993910 </v>
    </varray>
   </crystal>
   <varray name="positions" >
    <v>       0.49620573       0.91100948       0.55251367 </v>
    <v>       0.50379427       0.08899052       0.44748633 </v>
    <v>      -0.00379424       0.41100515       0.44748634 </v>
    <v>       0.00379424       0.58899485       0.55251366 </v>
   </varray>
  </structure>
  <varray name="forces" >
   <v>      -0.00252764      -0.01547807       0.00050657 </v>
   <v>       0.00252764       0.01547807      -0.00050657 </v>
   <v>      -0.00252625      -0.01550140      -0.00050768 </v>
   <v>       0.00252625       0.01550140       0.00050768 </v>
  </varray>
  <varray name="stress" >
   <v>       0.10318702      -2.28604843       0.00001120 </v>
   <v>      -2.28604832      -0.09088045       0.00025007 </v>
   <v>       0.00001117       0.00025004      -0.05893118 </v>
  </varray>
  <energy>
   <i name="e_fr_energy">    -21.45300039 </i>
   <i name="e_wo_entrp">    -21.45300039 </i>
   <i name="e_0_energy">     -0.00000000 </i>
  </energy>
  <time name="totalsc">   10.56   10.57</time>
 </calculation>
 <calculation>
  <scstep>
   <time name="dav">    1.18    1.18</time>
   <time name="total">    1.29    1.29</time>
   <energy>
    <i name="alphaZ">      5.25621183 </i>
    <i name="ewald">   1863.50119454 </i>
    <i name="hartreedc">  -2472.72033240 </i>
    <i name="XCdc">     14.09375190 </i>
    <i name="pawpsdc">   2099.41930205 </i>
    <i name="pawaedc">  -2067.11120002 </i>
    <i name="eentropy">     -0.00000000 </i>
    <i name="bandstr">   -168.05971406 </i>
    <i name="atom">    704.16778566 </i>
    <i name="e_fr_energy">    -21.45300051 </i>
    <i name="e_wo_entrp">    -21.45300051 </i>
    <i name="e_0_energy">    -21.45300051 </i>
   </energy>
  </scstep>
  <scstep>
   <time name="dav">    1.14    1.14</time>
   <time name="total">    1.25    1.25</time>
   <energy>
    <i name="e_fr_energy">    -21.45300067 </i>
    <i name="e_wo_entrp">    -21.45300067 </i>
    <i name="e_0_energy">    -21.45300067 </i>
   </energy>
  </scstep>
  <scstep>
   <time name="dav">    1.13    1.13</time>
   <time name="total">    1.25    1.25</time>
   <energy>
    <i name="e_fr_energy">    -21.45300074 </i>
    <i name="e_wo_entrp">    -21.45300074 </i>
    <i name="e_0_energy">    -21.45300074 </i>
   </energy>
  </scstep>
  <scstep>
   <time name="dav">    1.15    1.15</time>
   <time name="total">    1.26    1.26</time>
   <energy>
    <i name="e_fr_energy">    -21.45300080 </i>
    <i name="e_wo_entrp">    -21.45300080 </i>
    <i name="e_0_energy">    -21.45300080 </i>
   </energy>
  </scstep>
  <scstep>
   <time name="dav">    1.12    1.12</time>
   <time name="total">    1.23    1.24</time>
   <energy>
    <i name="e_fr_energy">    -21.45300081 </i>
    <i name="e_wo_entrp">    -21.45300081 </i>
    <i name="e_0_energy">    -21.45300081 </i>
   </energy>
  </scstep>
  <scstep>
   <time name="dav">    1.10    1.10</time>
   <time name="total">    1.12    1.12</time>
   <energy>
    <i name="alphaZ">      5.25621183 </i>
    <i name="ewald">   1863.50119454 </i>
    <i name="hartreedc">  -2472.72142486 </i>
    <i name="XCdc">     14.09375164 </i>
    <i name="pawpsdc">   2099.40136769 </i>
    <i name="pawaedc">  -2067.09325757 </i>
    <i name="eentropy">     -0.00000000 </i>
    <i name="bandstr">   -168.05862976 </i>
    <i name="atom">    704.16778566 </i>
    <i name="e_fr_energy">    -21.45300082 </i>
    <i name="e_wo_entrp">    -21.45300082 </i>
    <i name="e_0_energy">    -21.45300082 </i>
   </energy>
  </scstep>
  <structure>
   <crystal>
    <varray name="basis" >
     <v>       3.29703900       0.03297400       0.00000000 </v>
     <v>       0.04623600       4.62312000      -0.00005300 </v>
     <v>       0.00000000       0.00000000      20.02439000 </v>
    </varray>
    <i name="volume">    305.19337711 </i>
    <varray name="rec_basis" >
     <v>       0.30333279      -0.00303364       0.00000000 </v>
     <v>      -0.00216349       0.21632578       0.00000000 </v>
     <v>      -0.00000001       0.00000057       0.04993910 </v>
    </varray>
   </crystal>
   <varray name="positions" >
    <v>       0.49618626       0.91101070       0.55251364 </v>
    <v>       0.50381374       0.08898930       0.44748636 </v>
    <v>      -0.00381371       0.41100636       0.44748638 </v>
    <v>       0.00381371       0.58899364       0.55251362 </v>
   </varray>
  </structure>
  <varray name="forces" >
   <v>      -0.00122364      -0.01562676       0.00051736 </v>
   <v>       0.00122364       0.01562676      -0.00051736 </v>
   <v>      -0.00122224      -0.01565005      -0.00051851 </v>
   <v>       0.00122224       0.01565005       0.00051851 </v>
  </varray>
  <varray name="stress" >
   <v>       0.10238414      -2.27608228       0.00001175 </v>
   <v>      -2.27608229      -0.09297486       0.00024982 </v>
   <v>       0.00001177       0.00024978      -0.05979322 </v>
  </varray>
  <energy>
   <i name="e_fr_energy">    -21.45300082 </i>
   <i name="e_wo_entrp">    -21.45300082 </i>
   <i name="e_0_energy">     -0.00000000 </i>
  </energy>
  <time name="totalsc">    8.18    8.19</time>
 </calculation>
 <calculation>
  <scstep>
   <time name="dav">    1.59    1.59</time>
   <time name="total">    1.70    1.70</time>
   <energy>
    <i name="alphaZ">      5.25621183 </i>
    <i name="ewald">   1863.56246712 </i>
    <i name="hartreedc">  -2472.75813793 </i>
    <i name="XCdc">     14.09601796 </i>
    <i name="pawpsdc">   2099.40255311 </i>
    <i name="pawaedc">  -2067.09444311 </i>
    <i name="eentropy">     -0.00000000 </i>
    <i name="bandstr">   -168.08547251 </i>
    <i name="atom">    704.16778566 </i>
    <i name="e_fr_energy">    -21.45301788 </i>
    <i name="e_wo_entrp">    -21.45301788 </i>
    <i name="e_0_energy">    -21.45301788 </i>
   </energy>
  </scstep>
  <scstep>
   <time name="dav">    1.67    1.67</time>
   <time name="total">    1.78    1.78</time>
   <energy>
    <i name="e_fr_energy">    -21.45302184 </i>
    <i name="e_wo_entrp">    -21.45302184 </i>
    <i name="e_0_energy">    -21.45302184 </i>
   </energy>
  </scstep>
  <scstep>
   <time name="dav">    1.09    1.09</time>
   <time name="total">    1.20    1.20</time>
   <energy>
    <i name="e_fr_energy">    -21.45302194 </i>
    <i name="e_wo_entrp">    -21.45302194 </i>
    <i name="e_0_energy">    -21.45302194 </i>
   </energy>
  </scstep>
  <scstep>
   <time name="dav">    1.12    1.12</time>
   <time name="total">    1.23    1.23</time>
   <energy>
    <i name="e_fr_energy">    -21.45302214 </i>
    <i name="e_wo_entrp">    -21.45302214 </i>
    <i name="e_0_energy">    -21.45302214 </i>
   </energy>
  </scstep>
  <scstep>
   <time name="dav">    1.10    1.10</time>
   <time name="total">    1.21    1.21</time>
   <energy>
    <i name="e_fr_energy">    -21.45302212 </i>
    <i name="e_wo_entrp">    -21.45302212 </i>
    <i name="e_0_energy">    -21.45302212 </i>
   </energy>
  </scstep>
  <scstep>
   <time name="dav">    1.10    1.10</time>
   <time name="total">    1.13    1.13</time>
   <energy>
    <i name="alphaZ">      5.25621183 </i>
    <i name="ewald">   1863.56246712 </i>
    <i name="hartreedc">  -2472.75906498 </i>
    <i name="XCdc">     14.09630411 </i>
    <i name="pawpsdc">   2100.93667481 </i>
    <i name="pawaedc">  -2068.62916684 </i>
    <i name="eentropy">     -0.00000000 </i>
    <i name="bandstr">   -168.08423384 </i>
    <i name="atom">    704.16778566 </i>
    <i name="e_fr_energy">    -21.45302213 </i>
    <i name="e_wo_entrp">    -21.45302213 </i>
    <i name="e_0_energy">    -21.45302213 </i>
   </energy>
  </scstep>
  <structure>
   <crystal>
    <varray name="basis" >
     <v>       3.29703900       0.03297400       0.00000000 </v>
     <v>       0.04623600       4.62312000      -0.00005300 </v>
     <v>       0.00000000       0.00000000      20.02439000 </v>
    </varray>
    <i name="volume">    305.19337711 </i>
    <varray name="rec_basis" >
     <v>       0.30333279      -0.00303364       0.00000000 </v>
     <v>      -0.00216349       0.21632578       0.00000000 </v>
     <v>      -0.00000001       0.00000057       0.04993910 </v>
    </varray>
   </crystal>
   <varray name="positions" >
    <v>       0.49616628       0.91090034       0.55251447 </v>
    <v>       0.50383372       0.08909966       0.44748553 </v>
    <v>      -0.00383367       0.41089584       0.44748554 </v>
    <v>       0.00383367       0.58910416       0.55251446 </v>
   </varray>
  </structure>
  <varray name="forces" >
   <v>      -0.00002916      -0.00428268      -0.00134805 </v>
   <v>       0.00002916       0.00428268       0.00134805 </v>
   <v>      -0.00002796      -0.00430146       0.00134731 </v>
   <v>       0.00002796       0.00430146      -0.00134731 </v>
  </varray>
  <varray name="stress" >
   <v>       0.14840600      -2.26038432       0.00001371 </v>
   <v>      -2.26038426       0.06127894       0.00020017 </v>
   <v>       0.00001367       0.00020018      -0.10229620 </v>
  </varray>
  <energy>
   <i name="e_fr_energy">    -21.45302213 </i>
   <i name="e_wo_entrp">    -21.45302213 </i>
   <i name="e_0_energy">     -0.00000000 </i>
  </energy>
  <time name="totalsc">    8.97    8.98</time>
  <eigenvalues>
   <array>
    <dimension dim="1">band</dimension>
    <dimension dim="2">kpoint</dimension>
    <dimension dim="3">spin</dimension>
    <field>eigene</field>
    <field>occ</field>
    <set>
     <set comment="spin 1">
      <set comment="kpoint 1">
       <r>  -17.2298    1.0000 </r>
       <r>  -14.7697    1.0000 </r>
       <r>  -11.4434    1.0000 </r>
       <r>   -7.9355    1.0000 </r>
       <r>   -6.9788    1.0000 </r>
       <r>   -6.7715    1.0000 </r>
       <r>   -5.5799    1.0000 </r>
       <r>   -4.0076    1.0000 </r>
       <r>   -3.9317    1.0000 </r>
       <r>   -2.2786    1.0000 </r>
       <r>   -1.3748    0.0000 </r>
       <r>   -0.6186    0.0000 </r>
       <r>    0.3954    0.0000 </r>
       <r>    1.0576    0.0000 </r>
       <r>    2.1348    0.0000 </r>
       <r>    2.2983    0.0000 </r>
      </set>
      <set comment="kpoint 2">
       <r>  -17.2027    1.0000 </r>
       <r>  -14.7415    1.0000 </r>
       <r>  -11.4524    1.0000 </r>
       <r>   -7.9150    1.0000 </r>
       <r>   -6.9967    1.0000 </r>
       <r>   -6.7476    1.0000 </r>
       <r>   -5.7556    1.0000 </r>
       <r>   -4.1916    1.0000 </r>
       <r>   -3.9208    1.0000 </r>
       <r>   -2.2785    1.0000 </r>
       <r>   -1.3495    0.0000 </r>
       <r>   -0.3746    0.0000 </r>
       <r>    0.6128    0.0000 </r>
       <r>    0.9153    0.0000 </r>
       <r>    2.1629    0.0000 </r>
       <r>    2.3286    0.0000 </r>
      </set>
      <set comment="kpoint 3">
       <r>  -17.1217    1.0000 </r>
       <r>  -14.6569    1.0000 </r>
       <r>  -11.4848    1.0000 </r>
       <r>   -7.8541    1.0000 </r>
       <r>   -7.0703    1.0000 </r>
       <r>   -6.6768    1.0000 </r>
       <r>   -6.1837    1.0000 </r>
       <r>   -4.6161    1.0000 </r>
       <r>   -3.8907    1.0000 </r>
       <r>   -2.2974    1.0000 </r>
       <r>   -1.2740    0.0000 </r>
       <r>    0.2786    0.0000 </r>
       <r>    0.4473    0.0000 </r>
       <r>    1.2592    0.0000 </r>
       <r>    2.2428    0.0000 </r>
       <r>    2.4189    0.0000 </r>
      </set>
      <set comment="kpoint 4">
       <r>  -16.9871    1.0000 </r>
       <r>  -14.5161    1.0000 </r>
       <r>  -11.5569    1.0000 </r>
       <r>   -7.7552    1.0000 </r>
       <r>   -7.2615    1.0000 </r>
       <r>   -6.6992    1.0000 </r>
       <r>   -6.5542    1.0000 </r>
       <r>   -5.0489    1.0000 </r>
       <r>   -3.8534    1.0000 </r>
       <r>   -2.3567    1.0000 </r>
       <r>   -1.1496    0.0000 </r>
       <r>   -0.0547    0.0000 </r>
       <r>    1.1902    0.0000 </r>
       <r>    1.8743    0.0000 </r>
       <r>    2.3173    0.0000 </r>
       <r>    2.5690    0.0000 </r>
      </set>
      <set comment="kpoint 5">
       <r>  -16.7995    1.0000 </r>
       <r>  -14.3194    1.0000 </r>
       <r>  -11.6941    1.0000 </r>
       <r>   -7.6408    1.0000 </r>
       <r>   -7.6231    1.0000 </r>
       <r>   -7.1628    1.0000 </r>
       <r>   -6.3963    1.0000 </r>
       <r>   -5.3179    1.0000 </r>
       <r>   -3.8317    1.0000 </r>
       <r>   -2.4676    1.0000 </r>
       <r>   -0.9792    0.0000 </r>
       <r>   -0.5435    0.0000 </r>
       <r>    1.8686    0.0000 </r>
       <r>    1.9452    0.0000 </r>
       <r>    2.2110    0.0000 </r>
       <r>    2.6892    0.0000 </r>
      </set>
      <set comment="kpoint 6">
       <r>  -16.5600    1.0000 </r>
       <r>  -14.0672    1.0000 </r>
       <r>  -11.9224    1.0000 </r>
       <r>   -8.1955    1.0000 </r>
       <r>   -7.5091    1.0000 </r>
       <r>   -7.4662    1.0000 </r>
       <r>   -6.1961    1.0000 </r>
       <r>   -5.3900    1.0000 </r>
       <r>   -3.8599    1.0000 </r>
       <r>   -2.6391    1.0000 </r>
       <r>   -0.9250    0.0000 </r>
       <r>   -0.7703    0.0000 </r>
       <r>    1.2887    0.0000 </r>
       <r>    1.3696    0.0000 </r>
       <r>    2.6039    0.0000 </r>
       <r>    2.9401    0.0000 </r>
      </set>
      <set comment="kpoint 7">
       <r>  -16.2699    1.0000 </r>
       <r>  -13.7601    1.0000 </r>
       <r>  -12.2531    1.0000 </r>
       <r>   -8.8444    1.0000 </r>
       <r>   -7.7004    1.0000 </r>
       <r>   -7.2986    1.0000 </r>
       <r>   -5.9629    1.0000 </r>
       <r>   -5.3303    1.0000 </r>
       <r>   -3.9673    1.0000 </r>
       <r>   -2.8744    1.0000 </r>
       <r>   -1.1310    0.0000 </r>
       <r>   -0.5452    0.0000 </r>
       <r>    0.6384    0.0000 </r>
       <r>    0.8289    0.0000 </r>
       <r>    2.1464    0.0000 </r>
       <r>    3.2685    0.0000 </r>
      </set>
      <set comment="kpoint 8">
       <r>  -15.9312    1.0000 </r>
       <r>  -13.3993    1.0000 </r>
       <r>  -12.6725    1.0000 </r>
       <r>   -9.5215    1.0000 </r>
       <r>   -7.7405    1.0000 </r>
       <r>   -7.1446    1.0000 </r>
       <r>   -5.7078    1.0000 </r>
       <r>   -5.2062    1.0000 </r>
       <r>   -4.1398    1.0000 </r>
       <r>   -3.1647    1.0000 </r>
       <r>   -1.1388    0.0000 </r>
       <r>   -0.4017    0.0000 </r>
       <r>    0.0372    0.0000 </r>
       <r>    0.4597    0.0000 </r>
       <r>    1.6385    0.0000 </r>
       <r>    3.0296    0.0000 </r>
      </set>
      <set comment="kpoint 9">
       <r>  -15.5465    1.0000 </r>
       <r>  -13.1550    1.0000 </r>
       <r>  -12.9812    1.0000 </r>
       <r>  -10.1908    1.0000 </r>
       <r>   -7.6595    1.0000 </r>
       <r>   -7.0415    1.0000 </r>
       <r>   -5.4483    1.0000 </r>
       <r>   -5.0696    1.0000 </r>
       <r>   -4.3062    1.0000 </r>
       <r>   -3.4888    1.0000 </r>
       <r>   -0.9785    0.0000 </r>
       <r>   -0.5517    0.0000 </r>
       <r>   -0.4644    0.0000 </r>
       <r>    0.5005    0.0000 </r>
       <r>    1.1301    0.0000 </r>
       <r>    2.6148    0.0000 </r>
      </set>
      <set comment="kpoint 10">
       <r>  -15.1200    1.0000 </r>
       <r>  -13.6583    1.0000 </r>
       <r>  -12.5178    1.0000 </r>
       <r>  -10.8336    1.0000 </r>
       <r>   -7.4986    1.0000 </r>
       <r>   -7.0313    1.0000 </r>
       <r>   -5.2111    1.0000 </r>
       <r>   -4.9684    1.0000 </r>
       <r>   -4.3785    1.0000 </r>
       <r>   -3.8150    1.0000 </r>
       <r>   -0.8544    0.0000 </r>
       <r>   -0.8289    0.0000 </r>
       <r>   -0.6644    0.0000 </r>
       <r>    0.6122    0.0000 </r>
       <r>    0.8329    0.0000 </r>
       <r>    2.1545    0.0000 </r>
      </set>
      <set comment="kpoint 11">
       <r>  -14.6570    1.0000 </r>
       <r>  -14.1657    1.0000 </r>
       <r>  -12.0022    1.0000 </r>
       <r>  -11.4395    1.0000 </r>
       <r>   -7.3040    1.0000 </r>
       <r>   -7.1294    1.0000 </r>
       <r>   -5.0326    1.0000 </r>
       <r>   -4.9479    1.0000 </r>
       <r>   -4.3067    1.0000 </r>
       <r>   -4.1034    1.0000 </r>
       <r>   -1.0266    0.0000 </r>
       <r>   -1.0137    0.0000 </r>
       <r>   -0.2999    0.0000 </r>
       <r>    0.1389    0.0000 </r>
       <r>    1.2348    0.0000 </r>
       <r>    1.6858    0.0000 </r>
      </set>
      <set comment="kpoint 12">
       <r>  -17.2083    1.0000 </r>
       <r>  -14.7999    1.0000 </r>
       <r>  -11.4516    1.0000 </r>
       <r>   -8.0926    1.0000 </r>
       <r>   -6.8821    1.0000 </r>
       <r>   -6.6787    1.0000 </r>
       <r>   -5.5635    1.0000 </r>
       <r>   -4.0227    1.0000 </r>
       <r>   -3.8364    1.0000 </r>
       <r>   -2.4797    1.0000 </r>
       <r>   -1.1883    0.0000 </r>
       <r>   -0.6019    0.0000 </r>
       <r>    0.3509    0.0000 </r>
       <r>    1.0433    0.0000 </r>
       <r>    2.1933    0.0000 </r>
       <r>    2.3286    0.0000 </r>
      </set>
      <set comment="kpoint 13">
       <r>  -17.1823    1.0000 </r>
       <r>  -14.7709    1.0000 </r>
       <r>  -11.4565    1.0000 </r>
       <r>   -8.0727    1.0000 </r>
       <r>   -6.8932    1.0000 </r>
       <r>   -6.6750    1.0000 </r>
       <r>   -5.7213    1.0000 </r>
       <r>   -4.2216    1.0000 </r>
       <r>   -3.8304    1.0000 </r>
       <r>   -2.4705    1.0000 </r>
       <r>   -1.1707    0.0000 </r>
       <r>   -0.3641    0.0000 </r>
       <r>    0.5434    0.0000 </r>
       <r>    0.9363    0.0000 </r>
       <r>    2.2182    0.0000 </r>
       <r>    2.3572    0.0000 </r>
      </set>
      <set comment="kpoint 14">
       <r>  -17.1023    1.0000 </r>
       <r>  -14.6858    1.0000 </r>
       <r>  -11.4822    1.0000 </r>
       <r>   -8.0237    1.0000 </r>
       <r>   -6.9449    1.0000 </r>
       <r>   -6.6686    1.0000 </r>
       <r>   -6.0917    1.0000 </r>
       <r>   -4.6595    1.0000 </r>
       <r>   -3.8145    1.0000 </r>
       <r>   -2.4698    1.0000 </r>
       <r>   -1.1128    0.0000 </r>
       <r>    0.2840    0.0000 </r>
       <r>    0.4040    0.0000 </r>
       <r>    1.2768    0.0000 </r>
       <r>    2.2924    0.0000 </r>
       <r>    2.4458    0.0000 </r>
      </set>
      <set comment="kpoint 15">
       <r>  -16.9688    1.0000 </r>
       <r>  -14.5449    1.0000 </r>
       <r>  -11.5451    1.0000 </r>
       <r>   -7.9654    1.0000 </r>
       <r>   -7.0847    1.0000 </r>
       <r>   -6.8482    1.0000 </r>
       <r>   -6.3171    1.0000 </r>
       <r>   -5.1023    1.0000 </r>
       <r>   -3.7996    1.0000 </r>
       <r>   -2.4998    1.0000 </r>
       <r>   -1.0143    0.0000 </r>
       <r>   -0.0675    0.0000 </r>
       <r>    1.1896    0.0000 </r>
       <r>    1.9194    0.0000 </r>
       <r>    2.2851    0.0000 </r>
       <r>    2.5261    0.0000 </r>
      </set>
      <set comment="kpoint 16">
       <r>  -16.7824    1.0000 </r>
       <r>  -14.3487    1.0000 </r>
       <r>  -11.6713    1.0000 </r>
       <r>   -7.9872    1.0000 </r>
       <r>   -7.3059    1.0000 </r>
       <r>   -7.2423    1.0000 </r>
       <r>   -6.2449    1.0000 </r>
       <r>   -5.3730    1.0000 </r>
       <r>   -3.8082    1.0000 </r>
       <r>   -2.5775    1.0000 </r>
       <r>   -0.8731    0.0000 </r>
       <r>   -0.5250    0.0000 </r>
       <r>    1.7002    0.0000 </r>
       <r>    2.0107    0.0000 </r>
       <r>    2.2570    0.0000 </r>
       <r>    2.6481    0.0000 </r>
      </set>
      <set comment="kpoint 17">
       <r>  -16.5441    1.0000 </r>
       <r>  -14.0982    1.0000 </r>
       <r>  -11.8879    1.0000 </r>
       <r>   -8.3210    1.0000 </r>
       <r>   -7.5721    1.0000 </r>
       <r>   -7.3716    1.0000 </r>
       <r>   -6.0803    1.0000 </r>
       <r>   -5.4415    1.0000 </r>
       <r>   -3.8704    1.0000 </r>
       <r>   -2.7170    1.0000 </r>
       <r>   -0.8696    0.0000 </r>
       <r>   -0.6920    0.0000 </r>
       <r>    1.1229    0.0000 </r>
       <r>    1.4577    0.0000 </r>
       <r>    2.6985    0.0000 </r>
       <r>    3.0561    0.0000 </r>
      </set>
      <set comment="kpoint 18">
       <r>  -16.2555    1.0000 </r>
       <r>  -13.7957    1.0000 </r>
       <r>  -12.2063    1.0000 </r>
       <r>   -8.9065    1.0000 </r>
       <r>   -7.7561    1.0000 </r>
       <r>   -7.2679    1.0000 </r>
       <r>   -5.8759    1.0000 </r>
       <r>   -5.3849    1.0000 </r>
       <r>   -4.0010    1.0000 </r>
       <r>   -2.9234    1.0000 </r>
       <r>   -1.0417    0.0000 </r>
       <r>   -0.4948    0.0000 </r>
       <r>    0.5958    0.0000 </r>
       <r>    0.8052    0.0000 </r>
       <r>    2.3899    0.0000 </r>
       <r>    3.2350    0.0000 </r>
      </set>
      <set comment="kpoint 19">
       <r>  -15.9184    1.0000 </r>
       <r>  -13.4504    1.0000 </r>
       <r>  -12.6057    1.0000 </r>
       <r>   -9.5624    1.0000 </r>
       <r>   -7.7891    1.0000 </r>
       <r>   -7.1327    1.0000 </r>
       <r>   -5.6536    1.0000 </r>
       <r>   -5.2817    1.0000 </r>
       <r>   -4.1636    1.0000 </r>
       <r>   -3.1863    1.0000 </r>
       <r>   -1.0304    0.0000 </r>
       <r>   -0.4167    0.0000 </r>
       <r>    0.1919    0.0000 </r>
       <r>    0.2884    0.0000 </r>
       <r>    1.9282    0.0000 </r>
       <r>    2.9598    0.0000 </r>
      </set>
      <set comment="kpoint 20">
       <r>  -15.5359    1.0000 </r>
       <r>  -13.2340    1.0000 </r>
       <r>  -12.8847    1.0000 </r>
       <r>  -10.2217    1.0000 </r>
       <r>   -7.6994    1.0000 </r>
       <r>   -7.0377    1.0000 </r>
       <r>   -5.4383    1.0000 </r>
       <r>   -5.1910    1.0000 </r>
       <r>   -4.2727    1.0000 </r>
       <r>   -3.4789    1.0000 </r>
       <r>   -0.8736    0.0000 </r>
       <r>   -0.6551    0.0000 </r>
       <r>   -0.3246    0.0000 </r>
       <r>    0.4157    0.0000 </r>
       <r>    1.4441    0.0000 </r>
       <r>    2.5551    0.0000 </r>
      </set>
      <set comment="kpoint 21">
       <r>  -15.1122    1.0000 </r>
       <r>  -13.6465    1.0000 </r>
       <r>  -12.5118    1.0000 </r>
       <r>  -10.8579    1.0000 </r>
       <r>   -7.5281    1.0000 </r>
       <r>   -7.0389    1.0000 </r>
       <r>   -5.2647    1.0000 </r>
       <r>   -5.1303    1.0000 </r>
       <r>   -4.2682    1.0000 </r>
       <r>   -3.7624    1.0000 </r>
       <r>   -0.9445    0.0000 </r>
       <r>   -0.7992    0.0000 </r>
       <r>   -0.5150    0.0000 </r>
       <r>    0.6716    0.0000 </r>
       <r>    1.0311    0.0000 </r>
       <r>    2.1073    0.0000 </r>
      </set>
      <set comment="kpoint 22">
       <r>  -14.6536    1.0000 </r>
       <r>  -14.1429    1.0000 </r>
       <r>  -12.0082    1.0000 </r>
       <r>  -11.4575    1.0000 </r>
       <r>   -7.3225    1.0000 </r>
       <r>   -7.1546    1.0000 </r>
       <r>   -5.1682    1.0000 </r>
       <r>   -5.0800    1.0000 </r>
       <r>   -4.1725    1.0000 </r>
       <r>   -3.9979    1.0000 </r>
       <r>   -1.1147    0.0000 </r>
       <r>   -0.9889    0.0000 </r>
       <r>   -0.1907    0.0000 </r>
       <r>    0.3953    0.0000 </r>
       <r>    1.2386    0.0000 </r>
       <r>    1.6594    0.0000 </r>
      </set>
      <set comment="kpoint 23">
       <r>  -14.6309    1.0000 </r>
       <r>  -14.1702    1.0000 </r>
       <r>  -12.0114    1.0000 </r>
       <r>  -11.4506    1.0000 </r>
       <r>   -7.3469    1.0000 </r>
       <r>   -7.1395    1.0000 </r>
       <r>   -5.1495    1.0000 </r>
       <r>   -5.0723    1.0000 </r>
       <r>   -4.1669    1.0000 </r>
       <r>   -4.0095    1.0000 </r>
       <r>   -1.1084    0.0000 </r>
       <r>   -1.0078    0.0000 </r>
       <r>   -0.0258    0.0000 </r>
       <r>    0.1996    0.0000 </r>
       <r>    1.2545    0.0000 </r>
       <r>    1.6718    0.0000 </r>
      </set>
      <set comment="kpoint 24">
       <r>  -15.0929    1.0000 </r>
       <r>  -13.6826    1.0000 </r>
       <r>  -12.5071    1.0000 </r>
       <r>  -10.8489    1.0000 </r>
       <r>   -7.5546    1.0000 </r>
       <r>   -7.0401    1.0000 </r>
       <r>   -5.1628    1.0000 </r>
       <r>   -5.1621    1.0000 </r>
       <r>   -4.2665    1.0000 </r>
       <r>   -3.7746    1.0000 </r>
       <r>   -0.9370    0.0000 </r>
       <r>   -0.8414    0.0000 </r>
       <r>   -0.3681    0.0000 </r>
       <r>    0.4749    0.0000 </r>
       <r>    1.0469    0.0000 </r>
       <r>    2.1330    0.0000 </r>
      </set>
      <set comment="kpoint 25">
       <r>  -15.5193    1.0000 </r>
       <r>  -13.2964    1.0000 </r>
       <r>  -12.8542    1.0000 </r>
       <r>  -10.2115    1.0000 </r>
       <r>   -7.7236    1.0000 </r>
       <r>   -7.0559    1.0000 </r>
       <r>   -5.3427    1.0000 </r>
       <r>   -5.1960    1.0000 </r>
       <r>   -4.2622    1.0000 </r>
       <r>   -3.4894    1.0000 </r>
       <r>   -0.8581    0.0000 </r>
       <r>   -0.5574    0.0000 </r>
       <r>   -0.3655    0.0000 </r>
       <r>    0.3542    0.0000 </r>
       <r>    1.3348    0.0000 </r>
       <r>    2.5868    0.0000 </r>
      </set>
      <set comment="kpoint 26">
       <r>  -15.9042    1.0000 </r>
       <r>  -13.4790    1.0000 </r>
       <r>  -12.6094    1.0000 </r>
       <r>   -9.5521    1.0000 </r>
       <r>   -7.8085    1.0000 </r>
       <r>   -7.1605    1.0000 </r>
       <r>   -5.5708    1.0000 </r>
       <r>   -5.2765    1.0000 </r>
       <r>   -4.1336    1.0000 </r>
       <r>   -3.1974    1.0000 </r>
       <r>   -0.9841    0.0000 </r>
       <r>   -0.3714    0.0000 </r>
       <r>    0.0873    0.0000 </r>
       <r>    0.3302    0.0000 </r>
       <r>    1.7822    0.0000 </r>
       <r>    2.9938    0.0000 </r>
      </set>
      <set comment="kpoint 27">
       <r>  -16.2435    1.0000 </r>
       <r>  -13.8127    1.0000 </r>
       <r>  -12.2213    1.0000 </r>
       <r>   -8.8978    1.0000 </r>
       <r>   -7.7690    1.0000 </r>
       <r>   -7.2976    1.0000 </r>
       <r>   -5.8087    1.0000 </r>
       <r>   -5.3766    1.0000 </r>
       <r>   -3.9537    1.0000 </r>
       <r>   -2.9376    1.0000 </r>
       <r>   -1.0010    0.0000 </r>
       <r>   -0.4931    0.0000 </r>
       <r>    0.6770    0.0000 </r>
       <r>    0.7163    0.0000 </r>
       <r>    2.2347    0.0000 </r>
       <r>    3.2903    0.0000 </r>
      </set>
      <set comment="kpoint 28">
       <r>  -16.5342    1.0000 </r>
       <r>  -14.1103    1.0000 </r>
       <r>  -11.9060    1.0000 </r>
       <r>   -8.3184    1.0000 </r>
       <r>   -7.5770    1.0000 </r>
       <r>   -7.3955    1.0000 </r>
       <r>   -6.0310    1.0000 </r>
       <r>   -5.4301    1.0000 </r>
       <r>   -3.8158    1.0000 </r>
       <r>   -2.7354    1.0000 </r>
       <r>   -0.8352    0.0000 </r>
       <r>   -0.6903    0.0000 </r>
       <r>    1.2678    0.0000 </r>
       <r>    1.3139    0.0000 </r>
       <r>    2.5961    0.0000 </r>
       <r>    3.0798    0.0000 </r>
      </set>
      <set comment="kpoint 29">
       <r>  -16.7745    1.0000 </r>
       <r>  -14.3576    1.0000 </r>
       <r>  -11.6890    1.0000 </r>
       <r>   -7.9992    1.0000 </r>
       <r>   -7.3148    1.0000 </r>
       <r>   -7.2350    1.0000 </r>
       <r>   -6.2189    1.0000 </r>
       <r>   -5.3568    1.0000 </r>
       <r>   -3.7566    1.0000 </r>
       <r>   -2.5989    1.0000 </r>
       <r>   -0.8663    0.0000 </r>
       <r>   -0.4912    0.0000 </r>
       <r>    1.8235    0.0000 </r>
       <r>    1.8623    0.0000 </r>
       <r>    2.3159    0.0000 </r>
       <r>    2.6642    0.0000 </r>
      </set>
      <set comment="kpoint 30">
       <r>  -16.9629    1.0000 </r>
       <r>  -14.5513    1.0000 </r>
       <r>  -11.5600    1.0000 </r>
       <r>   -7.9819    1.0000 </r>
       <r>   -7.0878    1.0000 </r>
       <r>   -6.8094    1.0000 </r>
       <r>   -6.3342    1.0000 </r>
       <r>   -5.0820    1.0000 </r>
       <r>   -3.7580    1.0000 </r>
       <r>   -2.5212    1.0000 </r>
       <r>   -1.0043    0.0000 </r>
       <r>   -0.0280    0.0000 </r>
       <r>    1.2108    0.0000 </r>
       <r>    1.8196    0.0000 </r>
       <r>    2.3607    0.0000 </r>
       <r>    2.6029    0.0000 </r>
      </set>
      <set comment="kpoint 31">
       <r>  -17.0984    1.0000 </r>
       <r>  -14.6899    1.0000 </r>
       <r>  -11.4927    1.0000 </r>
       <r>   -8.0362    1.0000 </r>
       <r>   -6.9473    1.0000 </r>
       <r>   -6.6157    1.0000 </r>
       <r>   -6.1336    1.0000 </r>
       <r>   -4.6392    1.0000 </r>
       <r>   -3.7864    1.0000 </r>
       <r>   -2.4873    1.0000 </r>
       <r>   -1.1027    0.0000 </r>
       <r>    0.3041    0.0000 </r>
       <r>    0.4647    0.0000 </r>
       <r>    1.1896    0.0000 </r>
       <r>    2.2997    0.0000 </r>
       <r>    2.4519    0.0000 </r>
      </set>
      <set comment="kpoint 32">
       <r>  -17.1803    1.0000 </r>
       <r>  -14.7729    1.0000 </r>
       <r>  -11.4620    1.0000 </r>
       <r>   -8.0792    1.0000 </r>
       <r>   -6.8946    1.0000 </r>
       <r>   -6.6519    1.0000 </r>
       <r>   -5.7410    1.0000 </r>
       <r>   -4.2073    1.0000 </r>
       <r>   -3.8174    1.0000 </r>
       <r>   -2.4805    1.0000 </r>
       <r>   -1.1637    0.0000 </r>
       <r>   -0.3524    0.0000 </r>
       <r>    0.5925    0.0000 </r>
       <r>    0.8755    0.0000 </r>
       <r>    2.2220    0.0000 </r>
       <r>    2.3603    0.0000 </r>
      </set>
      <set comment="kpoint 33">
       <r>  -17.1443    1.0000 </r>
       <r>  -14.8904    1.0000 </r>
       <r>  -11.4640    1.0000 </r>
       <r>   -8.4466    1.0000 </r>
       <r>   -6.6872    1.0000 </r>
       <r>   -6.4142    1.0000 </r>
       <r>   -5.5149    1.0000 </r>
       <r>   -4.0690    1.0000 </r>
       <r>   -3.5803    1.0000 </r>
       <r>   -2.8773    1.0000 </r>
       <r>   -0.8299    0.0000 </r>
       <r>   -0.5516    0.0000 </r>
       <r>    0.2211    0.0000 </r>
       <r>    1.0090    0.0000 </r>
       <r>    2.3608    0.0000 </r>
       <r>    2.4188    0.0000 </r>
      </set>
      <set comment="kpoint 34">
       <r>  -17.1193    1.0000 </r>
       <r>  -14.8606    1.0000 </r>
       <r>  -11.4637    1.0000 </r>
       <r>   -8.4284    1.0000 </r>
       <r>   -6.6890    1.0000 </r>
       <r>   -6.4514    1.0000 </r>
       <r>   -5.6342    1.0000 </r>
       <r>   -4.2840    1.0000 </r>
       <r>   -3.5871    1.0000 </r>
       <r>   -2.8627    1.0000 </r>
       <r>   -0.8179    0.0000 </r>
       <r>   -0.3202    0.0000 </r>
       <r>    0.4161    0.0000 </r>
       <r>    0.9262    0.0000 </r>
       <r>    2.3809    0.0000 </r>
       <r>    2.4458    0.0000 </r>
      </set>
      <set comment="kpoint 35">
       <r>  -17.0405    1.0000 </r>
       <r>  -14.7758    1.0000 </r>
       <r>  -11.4770    1.0000 </r>
       <r>   -8.3896    1.0000 </r>
       <r>   -6.7124    1.0000 </r>
       <r>   -6.5894    1.0000 </r>
       <r>   -5.8708    1.0000 </r>
       <r>   -4.7510    1.0000 </r>
       <r>   -3.5987    1.0000 </r>
       <r>   -2.8433    1.0000 </r>
       <r>   -0.7773    0.0000 </r>
       <r>    0.3204    0.0000 </r>
       <r>    0.3695    0.0000 </r>
       <r>    1.2307    0.0000 </r>
       <r>    2.4427    0.0000 </r>
       <r>    2.5321    0.0000 </r>
      </set>
      <set comment="kpoint 36">
       <r>  -16.9082    1.0000 </r>
       <r>  -14.6365    1.0000 </r>
       <r>  -11.5202    1.0000 </r>
       <r>   -8.3517    1.0000 </r>
       <r>   -6.9378    1.0000 </r>
       <r>   -6.8094    1.0000 </r>
       <r>   -5.9503    1.0000 </r>
       <r>   -5.2211    1.0000 </r>
       <r>   -3.6333    1.0000 </r>
       <r>   -2.8370    1.0000 </r>
       <r>   -0.7090    0.0000 </r>
       <r>   -0.0301    0.0000 </r>
       <r>    1.2012    0.0000 </r>
       <r>    1.9179    0.0000 </r>
       <r>    2.0111    0.0000 </r>
       <r>    2.5561    0.0000 </r>
      </set>
      <set comment="kpoint 37">
       <r>  -16.7234    1.0000 </r>
       <r>  -14.4436    1.0000 </r>
       <r>  -11.6197    1.0000 </r>
       <r>   -8.3774    1.0000 </r>
       <r>   -7.3603    1.0000 </r>
       <r>   -7.0228    1.0000 </r>
       <r>   -5.8854    1.0000 </r>
       <r>   -5.4968    1.0000 </r>
       <r>   -3.7130    1.0000 </r>
       <r>   -2.8614    1.0000 </r>
       <r>   -0.6116    0.0000 </r>
       <r>   -0.4057    0.0000 </r>
       <r>    1.3130    0.0000 </r>
       <r>    2.2194    0.0000 </r>
       <r>    2.3330    0.0000 </r>
       <r>    2.6815    0.0000 </r>
      </set>
      <set comment="kpoint 38">
       <r>  -16.4869    1.0000 </r>
       <r>  -14.1996    1.0000 </r>
       <r>  -11.8053    1.0000 </r>
       <r>   -8.5990    1.0000 </r>
       <r>   -7.7000    1.0000 </r>
       <r>   -7.2125    1.0000 </r>
       <r>   -5.7575    1.0000 </r>
       <r>   -5.5558    1.0000 </r>
       <r>   -3.8553    1.0000 </r>
       <r>   -2.9348    1.0000 </r>
       <r>   -0.6577    0.0000 </r>
       <r>   -0.4849    0.0000 </r>
       <r>    0.7461    0.0000 </r>
       <r>    1.7740    0.0000 </r>
       <r>    2.7540    0.0000 </r>
       <r>    3.0888    0.0000 </r>
      </set>
      <set comment="kpoint 39">
       <r>  -16.2004    1.0000 </r>
       <r>  -13.9103    1.0000 </r>
       <r>  -12.0903    1.0000 </r>
       <r>   -9.0713    1.0000 </r>
       <r>   -7.8896    1.0000 </r>
       <r>   -7.2247    1.0000 </r>
       <r>   -5.6045    1.0000 </r>
       <r>   -5.5100    1.0000 </r>
       <r>   -4.0411    1.0000 </r>
       <r>   -3.0676    1.0000 </r>
       <r>   -0.7479    0.0000 </r>
       <r>   -0.3546    0.0000 </r>
       <r>    0.2509    0.0000 </r>
       <r>    1.1408    0.0000 </r>
       <r>    2.6577    0.0000 </r>
       <r>    3.0807    0.0000 </r>
      </set>
      <set comment="kpoint 40">
       <r>  -15.8663    1.0000 </r>
       <r>  -13.5975    1.0000 </r>
       <r>  -12.4445    1.0000 </r>
       <r>   -9.6727    1.0000 </r>
       <r>   -7.9203    1.0000 </r>
       <r>   -7.1313    1.0000 </r>
       <r>   -5.4623    1.0000 </r>
       <r>   -5.4575    1.0000 </r>
       <r>   -4.1934    1.0000 </r>
       <r>   -3.2497    1.0000 </r>
       <r>   -0.6890    0.0000 </r>
       <r>   -0.4573    0.0000 </r>
       <r>    0.1013    0.0000 </r>
       <r>    0.5217    0.0000 </r>
       <r>    2.3697    0.0000 </r>
       <r>    2.8049    0.0000 </r>
      </set>
      <set comment="kpoint 41">
       <r>  -15.4878    1.0000 </r>
       <r>  -13.3987    1.0000 </r>
       <r>  -12.7002    1.0000 </r>
       <r>  -10.3044    1.0000 </r>
       <r>   -7.8189    1.0000 </r>
       <r>   -7.0441    1.0000 </r>
       <r>   -5.4642    1.0000 </r>
       <r>   -5.3549    1.0000 </r>
       <r>   -4.2197    1.0000 </r>
       <r>   -3.4484    1.0000 </r>
       <r>   -0.7951    0.0000 </r>
       <r>   -0.5457    0.0000 </r>
       <r>    0.0062    0.0000 </r>
       <r>    0.3207    0.0000 </r>
       <r>    1.9743    0.0000 </r>
       <r>    2.4219    0.0000 </r>
      </set>
      <set comment="kpoint 42">
       <r>  -15.0701    1.0000 </r>
       <r>  -13.6515    1.0000 </r>
       <r>  -12.4860    1.0000 </r>
       <r>  -10.9223    1.0000 </r>
       <r>   -7.6271    1.0000 </r>
       <r>   -7.0556    1.0000 </r>
       <r>   -5.4593    1.0000 </r>
       <r>   -5.3348    1.0000 </r>
       <r>   -4.1172    1.0000 </r>
       <r>   -3.6281    1.0000 </r>
       <r>   -1.0589    0.0000 </r>
       <r>   -0.6352    0.0000 </r>
       <r>   -0.0851    0.0000 </r>
       <r>    0.6089    0.0000 </r>
       <r>    1.5561    0.0000 </r>
       <r>    2.0061    0.0000 </r>
[...]
       <r>    3.2630    0.0000 </r>
       <r>    3.4634    0.0000 </r>
      </set>
      <set comment="kpoint 153">
       <r>  -15.3111    1.0000 </r>
       <r>  -15.1347    1.0000 </r>
       <r>  -10.9275    1.0000 </r>
       <r>  -10.5738    1.0000 </r>
       <r>   -7.9289    1.0000 </r>
       <r>   -7.7832    1.0000 </r>
       <r>   -5.2990    1.0000 </r>
       <r>   -4.9910    1.0000 </r>
       <r>   -3.8282    1.0000 </r>
       <r>   -3.7653    1.0000 </r>
       <r>    0.3477    0.0000 </r>
       <r>    0.6186    0.0000 </r>
       <r>    1.0762    0.0000 </r>
       <r>    1.4695    0.0000 </r>
       <r>    3.2708    0.0000 </r>
       <r>    3.4004    0.0000 </r>
      </set>
      <set comment="kpoint 154">
       <r>  -15.5885    1.0000 </r>
       <r>  -15.3939    1.0000 </r>
       <r>  -10.7676    1.0000 </r>
       <r>  -10.4253    1.0000 </r>
       <r>   -7.6201    1.0000 </r>
       <r>   -7.4331    1.0000 </r>
       <r>   -5.1545    1.0000 </r>
       <r>   -4.8469    1.0000 </r>
       <r>   -3.7268    1.0000 </r>
       <r>   -3.7134    1.0000 </r>
       <r>    0.3519    0.0000 </r>
       <r>    0.5508    0.0000 </r>
       <r>    1.1930    0.0000 </r>
       <r>    1.5869    0.0000 </r>
       <r>    3.0356    0.0000 </r>
       <r>    3.3135    0.0000 </r>
      </set>
      <set comment="kpoint 155">
       <r>  -15.8220    1.0000 </r>
       <r>  -15.6124    1.0000 </r>
       <r>  -10.7230    1.0000 </r>
       <r>  -10.3972    1.0000 </r>
       <r>   -7.1130    1.0000 </r>
       <r>   -6.8852    1.0000 </r>
       <r>   -5.1569    1.0000 </r>
       <r>   -4.8456    1.0000 </r>
       <r>   -3.5985    1.0000 </r>
       <r>   -3.5243    1.0000 </r>
       <r>    0.4544    0.0000 </r>
       <r>    0.5454    0.0000 </r>
       <r>    1.2146    0.0000 </r>
       <r>    1.5954    0.0000 </r>
       <r>    2.4470    0.0000 </r>
       <r>    2.7305    0.0000 </r>
      </set>
      <set comment="kpoint 156">
       <r>  -16.0077    1.0000 </r>
       <r>  -15.7848    1.0000 </r>
       <r>  -10.7421    1.0000 </r>
       <r>  -10.4276    1.0000 </r>
       <r>   -6.4813    1.0000 </r>
       <r>   -6.2249    1.0000 </r>
       <r>   -5.2193    1.0000 </r>
       <r>   -4.9020    1.0000 </r>
       <r>   -3.5215    1.0000 </r>
       <r>   -3.3365    1.0000 </r>
       <r>    0.5649    0.0000 </r>
       <r>    0.6086    0.0000 </r>
       <r>    1.1500    0.0000 </r>
       <r>    1.4483    0.0000 </r>
       <r>    1.8413    0.0000 </r>
       <r>    1.9626    0.0000 </r>
      </set>
      <set comment="kpoint 157">
       <r>  -16.1432    1.0000 </r>
       <r>  -15.9080    1.0000 </r>
       <r>  -10.7806    1.0000 </r>
       <r>  -10.4711    1.0000 </r>
       <r>   -5.8071    1.0000 </r>
       <r>   -5.5503    1.0000 </r>
       <r>   -5.2769    1.0000 </r>
       <r>   -4.9619    1.0000 </r>
       <r>   -3.5415    1.0000 </r>
       <r>   -3.2442    1.0000 </r>
       <r>    0.3675    0.0000 </r>
       <r>    0.4894    0.0000 </r>
       <r>    1.1351    0.0000 </r>
       <r>    1.1939    0.0000 </r>
       <r>    1.5132    0.0000 </r>
       <r>    1.6401    0.0000 </r>
      </set>
      <set comment="kpoint 158">
       <r>  -16.2272    1.0000 </r>
       <r>  -15.9803    1.0000 </r>
       <r>  -10.8126    1.0000 </r>
       <r>  -10.5033    1.0000 </r>
       <r>   -5.3529    1.0000 </r>
       <r>   -5.1974    1.0000 </r>
       <r>   -5.0019    1.0000 </r>
       <r>   -4.9395    1.0000 </r>
       <r>   -3.6721    1.0000 </r>
       <r>   -3.2700    1.0000 </r>
       <r>   -0.0365    0.0000 </r>
       <r>    0.0629    0.0000 </r>
       <r>    1.2036    0.0000 </r>
       <r>    1.2316    0.0000 </r>
       <r>    1.4744    0.0000 </r>
       <r>    1.5679    0.0000 </r>
      </set>
     </set>
    </set>
   </array>
  </eigenvalues>
  <separator name="orbital magnetization" >
   <v name="MAGDIPOLOUT">      0.00000000      0.00000000      0.00000000</v>
  </separator>
  <dos>
   <i name="efermi">     -2.14719709 </i>
   <total>
    <array>
     <dimension dim="1">gridpoints</dimension>
     <dimension dim="2">spin</dimension>
     <field>energy</field>
     <field>total</field>
     <field>integrated</field>
     <set>
      <set comment="spin 1">
       <r>   -18.2765     0.0000     0.0000 </r>
       <r>   -18.1997     0.0000     0.0000 </r>
       <r>   -18.1230     0.0000     0.0000 </r>
       <r>   -18.0462     0.0000     0.0000 </r>
       <r>   -17.9695     0.0000     0.0000 </r>
       <r>   -17.8927     0.0000     0.0000 </r>
       <r>   -17.8159     0.0000     0.0000 </r>
       <r>   -17.7392     0.0000     0.0000 </r>
       <r>   -17.6624     0.0000     0.0000 </r>
       <r>   -17.5857     0.0000     0.0000 </r>
       <r>   -17.5089     0.0000     0.0000 </r>
       <r>   -17.4321     0.0000     0.0000 </r>
       <r>   -17.3554     0.0000     0.0000 </r>
       <r>   -17.2786     0.0000     0.0000 </r>
       <r>   -17.2019     0.3037     0.0233 </r>
       <r>   -17.1251     0.7699     0.0824 </r>
       <r>   -17.0483     0.7773     0.1421 </r>
       <r>   -16.9716     0.9711     0.2166 </r>
       <r>   -16.8948     0.8840     0.2845 </r>
       <r>   -16.8181     0.5757     0.3287 </r>
       <r>   -16.7413     1.1142     0.4142 </r>
       <r>   -16.6645     0.8815     0.4819 </r>
       <r>   -16.5878     0.8471     0.5469 </r>
       <r>   -16.5110     0.6130     0.5939 </r>
       <r>   -16.4343     1.4259     0.7034 </r>
       <r>   -16.3575     0.6024     0.7496 </r>
       <r>   -16.2807     0.4173     0.7817 </r>
       <r>   -16.2040     1.6714     0.9100 </r>
       <r>   -16.1272     0.6300     0.9583 </r>
       <r>   -16.0505     0.8432     1.0231 </r>
       <r>   -15.9737     0.8998     1.0921 </r>
       <r>   -15.8969     1.0255     1.1708 </r>
       <r>   -15.8202     1.0799     1.2537 </r>
       <r>   -15.7434     0.9403     1.3259 </r>
       <r>   -15.6666     0.7100     1.3804 </r>
       <r>   -15.5899     1.1131     1.4658 </r>
       <r>   -15.5131     1.0633     1.5475 </r>
       <r>   -15.4364     1.2099     1.6403 </r>
       <r>   -15.3596     1.0451     1.7206 </r>
       <r>   -15.2828     1.0448     1.8008 </r>
       <r>   -15.2061     1.0911     1.8845 </r>
       <r>   -15.1293     0.7373     1.9411 </r>
       <r>   -15.0526     1.6956     2.0713 </r>
       <r>   -14.9758     1.5112     2.1873 </r>
       <r>   -14.8990     0.8013     2.2488 </r>
       <r>   -14.8223     1.5210     2.3655 </r>
       <r>   -14.7455     2.2247     2.5363 </r>
       <r>   -14.6688     0.7412     2.5932 </r>
       <r>   -14.5920     2.1687     2.7597 </r>
       <r>   -14.5152     1.4451     2.8706 </r>
       <r>   -14.4385     1.1153     2.9562 </r>
       <r>   -14.3617     0.9775     3.0312 </r>
       <r>   -14.2850     1.4474     3.1423 </r>
       <r>   -14.2082     0.7844     3.2025 </r>
       <r>   -14.1314     1.6086     3.3260 </r>
       <r>   -14.0547     2.1828     3.4936 </r>
       <r>   -13.9779     1.0466     3.5739 </r>
       <r>   -13.9012     0.7267     3.6297 </r>
       <r>   -13.8244     0.7229     3.6852 </r>
       <r>   -13.7476     1.0126     3.7629 </r>
       <r>   -13.6709     0.7011     3.8167 </r>
       <r>   -13.5941     0.8616     3.8829 </r>
       <r>   -13.5174     0.2038     3.8985 </r>
       <r>   -13.4406     0.4543     3.9334 </r>
       <r>   -13.3638     0.3696     3.9617 </r>
       <r>   -13.2871     0.1255     3.9714 </r>
       <r>   -13.2103     0.1997     3.9867 </r>
       <r>   -13.1336     0.1625     3.9992 </r>
       <r>   -13.0568     0.0107     4.0000 </r>
       <r>   -12.9800     0.0882     4.0068 </r>
       <r>   -12.9033     0.0929     4.0139 </r>
       <r>   -12.8265     0.3111     4.0378 </r>
       <r>   -12.7497     0.0042     4.0381 </r>
       <r>   -12.6730     0.3649     4.0661 </r>
       <r>   -12.5962     0.3915     4.0962 </r>
       <r>   -12.5195     0.2423     4.1148 </r>
       <r>   -12.4427     1.2788     4.2129 </r>
       <r>   -12.3659     0.3973     4.2434 </r>
       <r>   -12.2892     0.4185     4.2755 </r>
       <r>   -12.2124     1.1617     4.3647 </r>
       <r>   -12.1357     0.4284     4.3976 </r>
       <r>   -12.0589     2.0590     4.5557 </r>
       <r>   -11.9821     1.7989     4.6937 </r>
       <r>   -11.9054     0.9134     4.7638 </r>
       <r>   -11.8286     0.8532     4.8293 </r>
       <r>   -11.7519     1.0217     4.9078 </r>
       <r>   -11.6751     1.4510     5.0191 </r>
       <r>   -11.5983     0.8107     5.0814 </r>
       <r>   -11.5216     1.9969     5.2347 </r>
       <r>   -11.4448     4.5161     5.5813 </r>
       <r>   -11.3681     1.9592     5.7317 </r>
       <r>   -11.2913     0.9150     5.8019 </r>
       <r>   -11.2145     1.8611     5.9448 </r>
       <r>   -11.1378     0.7673     6.0037 </r>
       <r>   -11.0610     0.7885     6.0642 </r>
       <r>   -10.9843     1.7295     6.1970 </r>
       <r>   -10.9075     0.5989     6.2430 </r>
       <r>   -10.8307     1.0585     6.3242 </r>
       <r>   -10.7540     1.3328     6.4265 </r>
       <r>   -10.6772     0.7295     6.4825 </r>
       <r>   -10.6005     0.4168     6.5145 </r>
       <r>   -10.5237     0.6323     6.5630 </r>
       <r>   -10.4469     0.8412     6.6276 </r>
       <r>   -10.3702     1.2391     6.7227 </r>
       <r>   -10.2934     0.4320     6.7559 </r>
       <r>   -10.2166     0.7399     6.8127 </r>
       <r>   -10.1399     0.6135     6.8598 </r>
       <r>   -10.0631     1.0609     6.9412 </r>
       <r>    -9.9864     0.8067     7.0031 </r>
       <r>    -9.9096     0.2369     7.0213 </r>
       <r>    -9.8328     0.2508     7.0406 </r>
       <r>    -9.7561     0.2487     7.0596 </r>
       <r>    -9.6793     1.1272     7.1462 </r>
       <r>    -9.6026     1.0727     7.2285 </r>
       <r>    -9.5258     0.5952     7.2742 </r>
       <r>    -9.4490     0.1087     7.2825 </r>
       <r>    -9.3723     0.0000     7.2825 </r>
       <r>    -9.2955     0.9564     7.3560 </r>
       <r>    -9.2188     0.9768     7.4309 </r>
       <r>    -9.1420     0.2173     7.4476 </r>
       <r>    -9.0652     0.1549     7.4595 </r>
       <r>    -8.9885     0.1764     7.4730 </r>
       <r>    -8.9117     0.4133     7.5048 </r>
       <r>    -8.8350     0.9905     7.5808 </r>
       <r>    -8.7582     0.9007     7.6499 </r>
       <r>    -8.6814     0.0111     7.6508 </r>
       <r>    -8.6047     0.1199     7.6600 </r>
       <r>    -8.5279     0.2110     7.6762 </r>
       <r>    -8.4512     0.1015     7.6840 </r>
       <r>    -8.3744     1.0536     7.7649 </r>
       <r>    -8.2976     0.6448     7.8143 </r>
       <r>    -8.2209     0.0293     7.8166 </r>
       <r>    -8.1441     0.9034     7.8859 </r>
       <r>    -8.0674     1.9070     8.0323 </r>
       <r>    -7.9906     2.3756     8.2147 </r>
       <r>    -7.9138     1.7266     8.3472 </r>
       <r>    -7.8371     1.9313     8.4955 </r>
       <r>    -7.7603     2.6716     8.7005 </r>
       <r>    -7.6836     2.2017     8.8695 </r>
       <r>    -7.6068     1.4881     8.9838 </r>
       <r>    -7.5300     1.8946     9.1292 </r>
       <r>    -7.4533     1.8282     9.2695 </r>
       <r>    -7.3765     2.3711     9.4515 </r>
       <r>    -7.2997     2.3199     9.6296 </r>
       <r>    -7.2230     4.1112     9.9452 </r>
       <r>    -7.1462     2.7098    10.1532 </r>
       <r>    -7.0695     3.3556    10.4108 </r>
       <r>    -6.9927     2.4520    10.5990 </r>
       <r>    -6.9159     1.1303    10.6858 </r>
       <r>    -6.8392     1.4571    10.7976 </r>
       <r>    -6.7624     1.4514    10.9090 </r>
       <r>    -6.6857     1.7259    11.0415 </r>
       <r>    -6.6089     2.0221    11.1967 </r>
       <r>    -6.5321     1.2900    11.2957 </r>
       <r>    -6.4554     1.8319    11.4364 </r>
       <r>    -6.3786     1.3809    11.5424 </r>
       <r>    -6.3019     1.3690    11.6474 </r>
       <r>    -6.2251     1.5195    11.7641 </r>
       <r>    -6.1483     1.7066    11.8951 </r>
       <r>    -6.0716     2.0772    12.0545 </r>
       <r>    -5.9948     1.4663    12.1671 </r>
       <r>    -5.9181     2.0235    12.3224 </r>
       <r>    -5.8413     1.4470    12.4335 </r>
       <r>    -5.7645     2.0270    12.5891 </r>
       <r>    -5.6878     2.1722    12.7558 </r>
       <r>    -5.6110     4.5394    13.1043 </r>
       <r>    -5.5343     2.7638    13.3164 </r>
       <r>    -5.4575     4.4366    13.6570 </r>
       <r>    -5.3807     3.4032    13.9182 </r>
       <r>    -5.3040     3.5669    14.1920 </r>
       <r>    -5.2272     2.7013    14.3993 </r>
       <r>    -5.1505     3.3724    14.6582 </r>
       <r>    -5.0737     2.7600    14.8701 </r>
       <r>    -4.9969     1.9179    15.0173 </r>
       <r>    -4.9202     2.4144    15.2026 </r>
       <r>    -4.8434     1.5995    15.3254 </r>
       <r>    -4.7667     1.1766    15.4157 </r>
       <r>    -4.6899     0.9380    15.4877 </r>
       <r>    -4.6131     1.4238    15.5970 </r>
       <r>    -4.5364     1.7976    15.7350 </r>
       <r>    -4.4596     0.9581    15.8085 </r>
       <r>    -4.3828     0.6816    15.8609 </r>
       <r>    -4.3061     0.7514    15.9185 </r>
       <r>    -4.2293     1.5655    16.0387 </r>
       <r>    -4.1526     2.7641    16.2509 </r>
       <r>    -4.0758     2.5400    16.4458 </r>
       <r>    -3.9990     2.4604    16.6347 </r>
       <r>    -3.9223     2.8094    16.8504 </r>
       <r>    -3.8455     2.2876    17.0260 </r>
       <r>    -3.7688     4.6655    17.3841 </r>
       <r>    -3.6920     4.4943    17.7291 </r>
       <r>    -3.6152     2.7133    17.9373 </r>
       <r>    -3.5385     3.2527    18.1870 </r>
       <r>    -3.4617     3.3684    18.4456 </r>
       <r>    -3.3850     3.2614    18.6959 </r>
       <r>    -3.3082     3.0915    18.9332 </r>
       <r>    -3.2314     3.9797    19.2387 </r>
       <r>    -3.1547     1.6004    19.3616 </r>
       <r>    -3.0779     0.7317    19.4177 </r>
       <r>    -3.0012     0.4763    19.4543 </r>
       <r>    -2.9244     1.7637    19.5897 </r>
       <r>    -2.8476     1.8231    19.7296 </r>
       <r>    -2.7709     0.7908    19.7903 </r>
       <r>    -2.6941     0.3240    19.8152 </r>
       <r>    -2.6174     0.1806    19.8290 </r>
       <r>    -2.5406     0.3384    19.8550 </r>
       <r>    -2.4638     1.0857    19.9384 </r>
       <r>    -2.3871     0.2267    19.9558 </r>
       <r>    -2.3103     0.1955    19.9708 </r>
       <r>    -2.2336     0.3807    20.0000 </r>
       <r>    -2.1568     0.0002    20.0000 </r>
       <r>    -2.0800     0.0000    20.0000 </r>
       <r>    -2.0033     0.0000    20.0000 </r>
       <r>    -1.9265     0.0000    20.0000 </r>
       <r>    -1.8497     0.0000    20.0000 </r>
       <r>    -1.7730     0.0000    20.0000 </r>
       <r>    -1.6962     0.0000    20.0000 </r>
       <r>    -1.6195     0.0000    20.0000 </r>
       <r>    -1.5427     0.0000    20.0000 </r>
       <r>    -1.4659     0.0000    20.0000 </r>
       <r>    -1.3892     0.0132    20.0010 </r>
       <r>    -1.3124     0.2348    20.0190 </r>
       <r>    -1.2357     0.1651    20.0317 </r>
       <r>    -1.1589     0.5538    20.0742 </r>
       <r>    -1.0821     1.2877    20.1731 </r>
       <r>    -1.0054     1.7518    20.3075 </r>
       <r>    -0.9286     1.4332    20.4175 </r>
       <r>    -0.8519     1.9092    20.5641 </r>
       <r>    -0.7751     2.1820    20.7316 </r>
       <r>    -0.6983     1.2769    20.8296 </r>
       <r>    -0.6216     1.9387    20.9784 </r>
       <r>    -0.5448     2.0390    21.1349 </r>
       <r>    -0.4681     2.5464    21.3304 </r>
       <r>    -0.3913     2.1414    21.4948 </r>
       <r>    -0.3145     3.0529    21.7291 </r>
       <r>    -0.2378     2.0958    21.8900 </r>
       <r>    -0.1610     2.9470    22.1162 </r>
       <r>    -0.0843     1.9495    22.2659 </r>
       <r>    -0.0075     3.8355    22.5603 </r>
       <r>     0.0693     3.2705    22.8113 </r>
       <r>     0.1460     3.2739    23.0626 </r>
       <r>     0.2228     2.8559    23.2818 </r>
       <r>     0.2995     3.2507    23.5314 </r>
       <r>     0.3763     4.0646    23.8434 </r>
       <r>     0.4531     5.5702    24.2709 </r>
       <r>     0.5298     4.3767    24.6069 </r>
       <r>     0.6066     3.6864    24.8899 </r>
       <r>     0.6833     3.5915    25.1656 </r>
       <r>     0.7601     2.9075    25.3887 </r>
       <r>     0.8369     4.1072    25.7040 </r>
       <r>     0.9136     3.2185    25.9511 </r>
       <r>     0.9904     3.5115    26.2206 </r>
       <r>     1.0672     2.2747    26.3952 </r>
       <r>     1.1439     2.9367    26.6207 </r>
       <r>     1.2207     3.1164    26.8599 </r>
       <r>     1.2974     3.2513    27.1094 </r>
       <r>     1.3742     2.2230    27.2801 </r>
       <r>     1.4510     1.5009    27.3953 </r>
       <r>     1.5277     3.1864    27.6399 </r>
       <r>     1.6045     2.2411    27.8119 </r>
       <r>     1.6812     2.2498    27.9846 </r>
       <r>     1.7580     1.6695    28.1127 </r>
       <r>     1.8348     2.4898    28.3039 </r>
       <r>     1.9115     2.9644    28.5314 </r>
       <r>     1.9883     2.5956    28.7307 </r>
       <r>     2.0650     1.7395    28.8642 </r>
       <r>     2.1418     1.6180    28.9884 </r>
       <r>     2.2186     2.6747    29.1937 </r>
       <r>     2.2953     2.6080    29.3939 </r>
       <r>     2.3721     2.8758    29.6146 </r>
       <r>     2.4488     2.9591    29.8418 </r>
       <r>     2.5256     2.6132    30.0424 </r>
       <r>     2.6024     2.9426    30.2682 </r>
       <r>     2.6791     3.9204    30.5692 </r>
       <r>     2.7559     2.7923    30.7835 </r>
       <r>     2.8326     2.0161    30.9383 </r>
       <r>     2.9094     2.3753    31.1206 </r>
       <r>     2.9862     1.8700    31.2641 </r>
       <r>     3.0629     1.3202    31.3655 </r>
       <r>     3.1397     1.8570    31.5080 </r>
       <r>     3.2164     1.1614    31.5972 </r>
       <r>     3.2932     2.3474    31.7774 </r>
       <r>     3.3700     1.0803    31.8603 </r>
       <r>     3.4467     0.7345    31.9167 </r>
       <r>     3.5235     0.4295    31.9496 </r>
       <r>     3.6002     0.4787    31.9864 </r>
       <r>     3.6770     0.0161    31.9876 </r>
       <r>     3.7538     0.1614    32.0000 </r>
       <r>     3.8305     0.0000    32.0000 </r>
       <r>     3.9073     0.0000    32.0000 </r>
       <r>     3.9841     0.0000    32.0000 </r>
       <r>     4.0608     0.0000    32.0000 </r>
       <r>     4.1376     0.0000    32.0000 </r>
       <r>     4.2143     0.0000    32.0000 </r>
       <r>     4.2911     0.0000    32.0000 </r>
       <r>     4.3679     0.0000    32.0000 </r>
       <r>     4.4446     0.0000    32.0000 </r>
       <r>     4.5214     0.0000    32.0000 </r>
       <r>     4.5981     0.0000    32.0000 </r>
       <r>     4.6749     0.0000    32.0000 </r>
       <r>     4.7517     0.0000    32.0000 </r>
      </set>
     </set>
    </array>
   </total>
  </dos>
 </calculation>
 <structure name="finalpos" >
  <crystal>
   <varray name="basis" >
    <v>       3.29703900       0.03297400       0.00000000 </v>
    <v>       0.04623600       4.62312000      -0.00005300 </v>
    <v>       0.00000000       0.00000000      20.02439000 </v>
   </varray>
   <i name="volume">    305.19337711 </i>
   <varray name="rec_basis" >
    <v>       0.30333279      -0.00303364       0.00000000 </v>
    <v>      -0.00216349       0.21632578       0.00000000 </v>
    <v>      -0.00000001       0.00000057       0.04993910 </v>
   </varray>
  </crystal>
  <varray name="positions" >
   <v>       0.49616628       0.91090034       0.55251447 </v>
   <v>       0.50383372       0.08909966       0.44748553 </v>
   <v>      -0.00383367       0.41089584       0.44748554 </v>
   <v>       0.00383367       0.58910416       0.55251446 </v>
  </varray>
 </structure>
</modeling>
