<?xml version="1.0" encoding="ISO-8859-1"?>
<modeling>
 <generator>
  <i name="program" type="string">vasp </i>
  <i name="version" type="string">5.4.1  </i>
  <i name="subversion" type="string">24Jun15 (build Nov 20 2020 10:29:34) complex                          parallel </i>
  <i name="platform" type="string">IFC91_ompi </i>
  <i name="date" type="string">2021 09 14 </i>
  <i name="time" type="string">00:22:52 </i>
 </generator>
 <incar>
  <i type="int" name="ISTART">     1</i>
  <i type="string" name="PREC">a</i>
  <i type="string" name="ALGO"> Normal</i>
  <i type="int" name="ISPIN">     1</i>
  <i type="int" name="ICHARG">     2</i>
  <i type="int" name="NELM">   250</i>
  <i type="int" name="NELMDL">    -5</i>
  <i type="int" name="NELMIN">     6</i>
  <i type="int" name="IBRION">     2</i>
  <i name="EDIFF">      0.00001000</i>
  <i name="EDIFFG">     -0.00500000</i>
  <i type="int" name="NSW">     0</i>
  <i type="int" name="ISIF">     2</i>
  <i name="ENCUT">    520.00000000</i>
  <i name="POTIM">      0.25000000</i>
  <v name="MAGMOM">      0.60000000      0.60000000</v>
  <i type="string" name="LREAL"> Auto</i>
  <i type="int" name="ISMEAR">     0</i>
  <i name="SIGMA">      0.02000000</i>
  <i type="logical" name="LWAVE"> F  </i>
  <i type="logical" name="LCHARG"> F  </i>
  <i type="logical" name="LVHAR"> F  </i>
  <v type="int" name="KPOINT_BSE">    -1     0     0     0</v>
  <i type="int" name="NELM">   250</i>
 </incar>
 <kpoints>
  <generation param="Gamma">
   <v type="int" name="divisions">      24       24        1 </v>
   <v name="usershift">      0.00000000       0.00000000       0.00000000 </v>
   <v name="genvec1">      0.04166667       0.00000000       0.00000000 </v>
   <v name="genvec2">      0.00000000       0.04166667       0.00000000 </v>
   <v name="genvec3">      0.00000000       0.00000000       1.00000000 </v>
   <v name="shift">      0.00000000       0.00000000       0.00000000 </v>
  </generation>
  <varray name="kpointlist" >
   <v>       0.00000000       0.00000000       0.00000000 </v>
   <v>       0.04166667       0.00000000       0.00000000 </v>
   <v>       0.08333333      -0.00000000       0.00000000 </v>
   <v>       0.12500000      -0.00000000       0.00000000 </v>
   <v>       0.16666667      -0.00000000       0.00000000 </v>
   <v>       0.20833333      -0.00000000       0.00000000 </v>
   <v>       0.25000000      -0.00000000       0.00000000 </v>
   <v>       0.29166667       0.00000000       0.00000000 </v>
   <v>       0.33333333       0.00000000       0.00000000 </v>
   <v>       0.37500000      -0.00000000       0.00000000 </v>
   <v>       0.41666667      -0.00000000       0.00000000 </v>
   <v>       0.45833333       0.00000000       0.00000000 </v>
   <v>       0.50000000      -0.00000000       0.00000000 </v>
   <v>       0.04166667       0.04166667       0.00000000 </v>
   <v>       0.08333333       0.04166667       0.00000000 </v>
   <v>       0.12500000       0.04166667       0.00000000 </v>
   <v>       0.16666667       0.04166667       0.00000000 </v>
   <v>       0.20833333       0.04166667       0.00000000 </v>
   <v>       0.25000000       0.04166667       0.00000000 </v>
   <v>       0.29166667       0.04166667       0.00000000 </v>
   <v>       0.33333333       0.04166667       0.00000000 </v>
   <v>       0.37500000       0.04166667       0.00000000 </v>
   <v>       0.41666667       0.04166667       0.00000000 </v>
   <v>       0.45833333       0.04166667       0.00000000 </v>
   <v>       0.08333333       0.08333333       0.00000000 </v>
   <v>       0.12500000       0.08333333       0.00000000 </v>
   <v>       0.16666667       0.08333333       0.00000000 </v>
   <v>       0.20833333       0.08333333       0.00000000 </v>
   <v>       0.25000000       0.08333333       0.00000000 </v>
   <v>       0.29166667       0.08333333       0.00000000 </v>
   <v>       0.33333333       0.08333333       0.00000000 </v>
   <v>       0.37500000       0.08333333       0.00000000 </v>
   <v>       0.41666667       0.08333333       0.00000000 </v>
   <v>       0.45833333       0.08333333       0.00000000 </v>
   <v>       0.12500000       0.12500000       0.00000000 </v>
   <v>       0.16666667       0.12500000       0.00000000 </v>
   <v>       0.20833333       0.12500000       0.00000000 </v>
   <v>       0.25000000       0.12500000       0.00000000 </v>
   <v>       0.29166667       0.12500000       0.00000000 </v>
   <v>       0.33333333       0.12500000       0.00000000 </v>
   <v>       0.37500000       0.12500000       0.00000000 </v>
   <v>       0.41666667       0.12500000       0.00000000 </v>
   <v>       0.16666667       0.16666667       0.00000000 </v>
   <v>       0.20833333       0.16666667       0.00000000 </v>
   <v>       0.25000000       0.16666667       0.00000000 </v>
   <v>       0.29166667       0.16666667       0.00000000 </v>
   <v>       0.33333333       0.16666667       0.00000000 </v>
   <v>       0.37500000       0.16666667       0.00000000 </v>
   <v>       0.41666667       0.16666667       0.00000000 </v>
   <v>       0.20833333       0.20833333       0.00000000 </v>
   <v>       0.25000000       0.20833333       0.00000000 </v>
   <v>       0.29166667       0.20833333       0.00000000 </v>
   <v>       0.33333333       0.20833333       0.00000000 </v>
   <v>       0.37500000       0.20833333       0.00000000 </v>
   <v>       0.25000000       0.25000000       0.00000000 </v>
   <v>       0.29166667       0.25000000       0.00000000 </v>
   <v>       0.33333333       0.25000000       0.00000000 </v>
   <v>       0.37500000       0.25000000       0.00000000 </v>
   <v>       0.29166667       0.29166667       0.00000000 </v>
   <v>       0.33333333       0.29166667       0.00000000 </v>
   <v>       0.33333333       0.33333333       0.00000000 </v>
  </varray>
  <varray name="weights" >
   <v>       0.00173611 </v>
   <v>       0.01041667 </v>
   <v>       0.01041667 </v>
   <v>       0.01041667 </v>
   <v>       0.01041667 </v>
   <v>       0.01041667 </v>
   <v>       0.01041667 </v>
   <v>       0.01041667 </v>
   <v>       0.01041667 </v>
   <v>       0.01041667 </v>
   <v>       0.01041667 </v>
   <v>       0.01041667 </v>
   <v>       0.00520833 </v>
   <v>       0.01041667 </v>
   <v>       0.02083333 </v>
   <v>       0.02083333 </v>
   <v>       0.02083333 </v>
   <v>       0.02083333 </v>
   <v>       0.02083333 </v>
   <v>       0.02083333 </v>
   <v>       0.02083333 </v>
   <v>       0.02083333 </v>
   <v>       0.02083333 </v>
   <v>       0.02083333 </v>
   <v>       0.01041667 </v>
   <v>       0.02083333 </v>
   <v>       0.02083333 </v>
   <v>       0.02083333 </v>
   <v>       0.02083333 </v>
   <v>       0.02083333 </v>
   <v>       0.02083333 </v>
   <v>       0.02083333 </v>
   <v>       0.02083333 </v>
   <v>       0.01041667 </v>
   <v>       0.01041667 </v>
   <v>       0.02083333 </v>
   <v>       0.02083333 </v>
   <v>       0.02083333 </v>
   <v>       0.02083333 </v>
   <v>       0.02083333 </v>
   <v>       0.02083333 </v>
   <v>       0.02083333 </v>
   <v>       0.01041667 </v>
   <v>       0.02083333 </v>
   <v>       0.02083333 </v>
   <v>       0.02083333 </v>
   <v>       0.02083333 </v>
   <v>       0.02083333 </v>
   <v>       0.01041667 </v>
   <v>       0.01041667 </v>
   <v>       0.02083333 </v>
   <v>       0.02083333 </v>
   <v>       0.02083333 </v>
   <v>       0.02083333 </v>
   <v>       0.01041667 </v>
   <v>       0.02083333 </v>
   <v>       0.02083333 </v>
   <v>       0.01041667 </v>
   <v>       0.01041667 </v>
   <v>       0.02083333 </v>
   <v>       0.00347222 </v>
  </varray>
 </kpoints>
 <parameters>
  <separator name="general" >
   <i type="string" name="SYSTEM">unknown system</i>
   <i type="logical" name="LCOMPAT"> F  </i>
  </separator>
  <separator name="electronic" >
   <i type="string" name="PREC">a</i>
   <i name="ENMAX">    520.00000000</i>
   <i name="ENAUG">    644.87300000</i>
   <i name="EDIFF">      0.00001000</i>
   <i type="int" name="IALGO">    38</i>
   <i type="int" name="IWAVPR">    10</i>
   <i type="int" name="NBANDS">    12</i>
   <i name="NELECT">      8.00000000</i>
   <i type="int" name="TURBO">     0</i>
   <i type="int" name="IRESTART">     0</i>
   <i type="int" name="NREBOOT">     0</i>
   <i type="int" name="NMIN">     0</i>
   <i name="EREF">      0.00000000</i>
   <separator name="electronic smearing" >
    <i type="int" name="ISMEAR">     0</i>
    <i name="SIGMA">      0.02000000</i>
    <i name="KSPACING">      0.50000000</i>
    <i type="logical" name="KGAMMA"> T  </i>
   </separator>
   <separator name="electronic projectors" >
    <i type="logical" name="LREAL"> T  </i>
    <v name="ROPT">     -0.00025000</v>
    <i type="int" name="LMAXPAW">  -100</i>
    <i type="int" name="LMAXMIX">     2</i>
    <i type="logical" name="NLSPLINE"> F  </i>
   </separator>
   <separator name="electronic startup" >
    <i type="int" name="ISTART">     0</i>
    <i type="int" name="ICHARG">     2</i>
    <i type="int" name="INIWAV">     1</i>
   </separator>
   <separator name="electronic spin" >
    <i type="int" name="ISPIN">     1</i>
    <i type="logical" name="LNONCOLLINEAR"> F  </i>
    <v name="MAGMOM">      0.60000000      0.60000000</v>
    <i name="NUPDOWN">     -1.00000000</i>
    <i type="logical" name="LSORBIT"> F  </i>
    <v name="SAXIS">      0.00000000      0.00000000      1.00000000</v>
    <i type="logical" name="LSPIRAL"> F  </i>
    <v name="QSPIRAL">      0.00000000      0.00000000      0.00000000</v>
    <i type="logical" name="LZEROZ"> F  </i>
   </separator>
   <separator name="electronic exchange-correlation" >
    <i type="logical" name="LASPH"> F  </i>
    <i type="logical" name="LMETAGGA"> F  </i>
   </separator>
   <separator name="electronic convergence" >
    <i type="int" name="NELM">   250</i>
    <i type="int" name="NELMDL">    -5</i>
    <i type="int" name="NELMIN">     6</i>
    <i name="ENINI">    520.00000000</i>
    <separator name="electronic convergence detail" >
     <i type="logical" name="LDIAG"> T  </i>
     <i type="logical" name="LSUBROT"> F  </i>
     <i name="WEIMIN">      0.00000000</i>
     <i name="EBREAK">      0.00000021</i>
     <i name="DEPER">      0.30000000</i>
     <i type="int" name="NRMM">     4</i>
     <i name="TIME">      0.40000000</i>
    </separator>
   </separator>
   <separator name="electronic mixer" >
    <i name="AMIX">      0.40000000</i>
    <i name="BMIX">      1.00000000</i>
    <i name="AMIN">      0.10000000</i>
    <i name="AMIX_MAG">      1.60000000</i>
    <i name="BMIX_MAG">      1.00000000</i>
    <separator name="electronic mixer details" >
     <i type="int" name="IMIX">     4</i>
     <i type="logical" name="MIXFIRST"> F  </i>
     <i type="int" name="MAXMIX">   -45</i>
     <i name="WC">    100.00000000</i>
     <i type="int" name="INIMIX">     1</i>
     <i type="int" name="MIXPRE">     1</i>
     <i type="int" name="MREMOVE">     5</i>
    </separator>
   </separator>
   <separator name="electronic dipolcorrection" >
    <i type="logical" name="LDIPOL"> F  </i>
    <i type="logical" name="LMONO"> F  </i>
    <i type="int" name="IDIPOL">     0</i>
    <i name="EPSILON">      1.00000000</i>
    <v name="DIPOL">   -100.00000000   -100.00000000   -100.00000000</v>
    <i name="EFIELD">      0.00000000</i>
   </separator>
  </separator>
  <separator name="grids" >
   <i type="int" name="NGX">    18</i>
   <i type="int" name="NGY">    18</i>
   <i type="int" name="NGZ">   112</i>
   <i type="int" name="NGXF">    36</i>
   <i type="int" name="NGYF">    36</i>
   <i type="int" name="NGZF">   224</i>
   <i type="logical" name="ADDGRID"> F  </i>
  </separator>
  <separator name="ionic" >
   <i type="int" name="NSW">     0</i>
   <i type="int" name="IBRION">    -1</i>
   <i type="int" name="ISIF">     2</i>
   <i name="PSTRESS">      0.00000000</i>
   <i name="EDIFFG">     -0.00500000</i>
   <i type="int" name="NFREE">     1</i>
   <i name="POTIM">      0.25000000</i>
   <i name="SMASS">     -3.00000000</i>
   <i name="SCALEE">      1.00000000</i>
  </separator>
  <separator name="ionic md" >
   <i name="TEBEG">      0.00010000</i>
   <i name="TEEND">      0.00010000</i>
   <i type="int" name="NBLOCK">     1</i>
   <i type="int" name="KBLOCK">     1</i>
   <i type="int" name="NPACO">   256</i>
   <i name="APACO">     16.00000000</i>
  </separator>
  <separator name="symmetry" >
   <i type="int" name="ISYM">     2</i>
   <i name="SYMPREC">      0.00001000</i>
  </separator>
  <separator name="dos" >
   <i type="logical" name="LORBIT"> F  </i>
   <v name="RWIGS">     -1.00000000</v>
   <i type="int" name="NEDOS">   301</i>
   <i name="EMIN">     10.00000000</i>
   <i name="EMAX">    -10.00000000</i>
   <i name="EFERMI">      0.00000000</i>
  </separator>
  <separator name="writing" >
   <i type="int" name="NWRITE">     2</i>
   <i type="logical" name="LWAVE"> F  </i>
   <i type="logical" name="LCHARG"> F  </i>
   <i type="logical" name="LPARD"> F  </i>
   <i type="logical" name="LVTOT"> F  </i>
   <i type="logical" name="LVHAR"> F  </i>
   <i type="logical" name="LELF"> F  </i>
   <i type="logical" name="LOPTICS"> F  </i>
   <v name="STM">      0.00000000      0.00000000      0.00000000      0.00000000      0.00000000      0.00000000      0.00000000</v>
  </separator>
  <separator name="performance" >
   <i type="int" name="NPAR">     6</i>
   <i type="int" name="NSIM">     4</i>
   <i type="int" name="NBLK">    -1</i>
   <i type="logical" name="LPLANE"> T  </i>
   <i type="logical" name="LSCALAPACK"> T  </i>
   <i type="logical" name="LSCAAWARE"> F  </i>
   <i type="logical" name="LSCALU"> F  </i>
   <i type="logical" name="LASYNC"> F  </i>
   <i type="logical" name="LORBITALREAL"> F  </i>
  </separator>
  <separator name="miscellaneous" >
   <i type="int" name="IDIOT">     3</i>
   <i type="logical" name="LMUSIC"> F  </i>
   <v name="POMASS">     12.01100000</v>
   <v name="DARWINR">      0.00000000</v>
   <v name="DARWINV">      1.00000000</v>
   <i type="logical" name="LCORR"> T  </i>
  </separator>
  <i type="logical" name="GGA_COMPAT"> T  </i>
  <i type="logical" name="LBERRY"> F  </i>
  <i type="int" name="ICORELEVEL">     0</i>
  <i type="logical" name="LDAU"> F  </i>
  <i type="int" name="I_CONSTRAINED_M">     0</i>
  <separator name="electronic exchange-correlation" >
   <i type="string" name="GGA">--</i>
   <i type="int" name="VOSKOWN">     0</i>
   <i type="logical" name="LHFCALC"> F  </i>
   <i type="string" name="PRECFOCK"></i>
   <i type="logical" name="LSYMGRAD"> F  </i>
   <i type="logical" name="LHFONE"> F  </i>
   <i type="logical" name="LRHFCALC"> F  </i>
   <i type="logical" name="LTHOMAS"> F  </i>
   <i type="logical" name="LMODELHF"> F  </i>
   <i name="ENCUT4O">     -1.00000000</i>
   <i type="int" name="EXXOEP">     0</i>
   <i type="int" name="FOURORBIT">     0</i>
   <i name="AEXX">      0.00000000</i>
   <i name="HFALPHA">      0.00000000</i>
   <i name="MCALPHA">      0.00000000</i>
   <i name="ALDAX">      1.00000000</i>
   <i name="AGGAX">      1.00000000</i>
   <i name="ALDAC">      1.00000000</i>
   <i name="AGGAC">      1.00000000</i>
   <i type="int" name="NKREDX">     1</i>
   <i type="int" name="NKREDY">     1</i>
   <i type="int" name="NKREDZ">     1</i>
   <i type="logical" name="SHIFTRED"> F  </i>
   <i type="logical" name="ODDONLY"> F  </i>
   <i type="logical" name="EVENONLY"> F  </i>
   <i type="int" name="LMAXFOCK">     0</i>
   <i type="int" name="NMAXFOCKAE">     0</i>
   <i type="logical" name="LFOCKAEDFT"> F  </i>
   <i name="HFSCREEN">      0.00000000</i>
   <i name="HFSCREENC">      0.00000000</i>
   <i type="int" name="NBANDSGWLOW">     0</i>
  </separator>
  <separator name="vdW DFT" >
   <i type="logical" name="LUSE_VDW"> F  </i>
   <i name="Zab_VDW">     -0.84910000</i>
   <i name="PARAM1">      0.12340000</i>
   <i name="PARAM2">      1.00000000</i>
   <i name="PARAM3">      0.00000000</i>
  </separator>
  <separator name="model GW" >
   <i type="int" name="MODEL_GW">     0</i>
   <i name="MODEL_EPS0">     23.44091675</i>
   <i name="MODEL_ALPHA">      1.00000000</i>
  </separator>
  <separator name="linear response parameters" >
   <i type="logical" name="LEPSILON"> F  </i>
   <i type="logical" name="LRPA"> F  </i>
   <i type="logical" name="LNABLA"> F  </i>
   <i type="logical" name="LVEL"> F  </i>
   <i type="int" name="KINTER">     0</i>
   <i name="CSHIFT">      0.10000000</i>
   <i name="OMEGAMAX">     -1.00000000</i>
   <i name="DEG_THRESHOLD">      0.00200000</i>
  </separator>
  <separator name="orbital magnetization" >
   <i type="logical" name="NUCIND"> F  </i>
   <v name="MAGPOS">      0.00000000      0.00000000      0.00000000</v>
   <i type="logical" name="LNICSALL"> T  </i>
   <i type="logical" name="ORBITALMAG"> F  </i>
   <i type="logical" name="LMAGBLOCH"> F  </i>
   <i type="logical" name="LCHIMAG"> F  </i>
   <i type="logical" name="LGAUGE"> T  </i>
   <i type="int" name="MAGATOM">     0</i>
   <v name="MAGDIPOL">      0.00000000      0.00000000      0.00000000</v>
   <v name="AVECCONST">      0.00000000      0.00000000      0.00000000</v>
  </separator>
  <separator name="response functions" >
   <i type="logical" name="LADDER"> F  </i>
   <i type="logical" name="LFXC"> F  </i>
   <i type="logical" name="LHARTREE"> T  </i>
   <i type="int" name="IBSE">     0</i>
   <v type="int" name="KPOINT">    -1     0     0     0</v>
   <i type="logical" name="LTCTE"> F  </i>
   <i type="logical" name="LTETE"> F  </i>
   <i type="logical" name="LTRIPLET"> F  </i>
   <i type="logical" name="LFXCEPS"> F  </i>
   <i type="logical" name="LFXHEG"> F  </i>
   <i type="int" name="NATURALO">     0</i>
   <i type="logical" name="L2ORDER"> F  </i>
   <i type="logical" name="LUSEW"> F  </i>
   <i name="ENCUTGW">     -2.00000000</i>
   <i name="ENCUTGWSOFT">     -2.00000000</i>
   <i name="ENCUTLF">     -1.00000000</i>
   <i type="int" name="LMAXMP2">    -1</i>
   <i name="SCISSOR">      0.00000000</i>
   <i type="int" name="NOMEGA">     0</i>
   <i type="int" name="NOMEGAR">     0</i>
   <i type="int" name="NBANDSGW">    -1</i>
   <i type="int" name="NBANDSO">    -1</i>
   <i type="int" name="NBANDSV">    -1</i>
   <i type="int" name="NELM">   250</i>
   <i type="int" name="NELMHF">     1</i>
   <i type="int" name="DIM">     3</i>
   <i type="int" name="ANTIRES">     0</i>
   <i name="OMEGAMAX">    -30.00000000</i>
   <i name="OMEGAMIN">    -30.00000000</i>
   <i name="OMEGATL">   -200.00000000</i>
   <i type="int" name="OMEGAGRID">     0</i>
   <i name="CSHIFT">     -0.10000000</i>
   <i type="logical" name="SELFENERGY"> F  </i>
   <i type="logical" name="LSPECTRAL"> F  </i>
   <i type="logical" name="LSPECTRALGW"> F  </i>
   <i type="logical" name="LSINGLES"> F  </i>
   <i type="logical" name="LFERMIGW"> F  </i>
   <i type="logical" name="ODDONLYGW"> F  </i>
   <i type="logical" name="EVENONLYGW"> F  </i>
   <i type="int" name="NKREDLFX">     1</i>
   <i type="int" name="NKREDLFY">     1</i>
   <i type="int" name="NKREDLFZ">     1</i>
   <i type="int" name="MAXMEM">  1800</i>
   <i type="int" name="TELESCOPE">     0</i>
   <i type="int" name="TAUPAR">     1</i>
   <i type="int" name="OMEGAPAR">    -1</i>
   <i name="LAMBDA">      1.00000000</i>
  </separator>
  <separator name="External order field" >
   <i name="OFIELD_KAPPA">      0.00000000</i>
   <v name="OFIELD_K">      0.00000000      0.00000000      0.00000000</v>
   <i name="OFIELD_Q6_NEAR">      0.00000000</i>
   <i name="OFIELD_Q6_FAR">      0.00000000</i>
   <i name="OFIELD_A">      0.00000000</i>
  </separator>
 </parameters>
 <atominfo>
  <atoms>       2 </atoms>
  <types>       1 </types>
  <array name="atoms" >
   <dimension dim="1">ion</dimension>
   <field type="string">element</field>
   <field type="int">atomtype</field>
   <set>
    <rc><c>C </c><c>   1</c></rc>
    <rc><c>C </c><c>   1</c></rc>
   </set>
  </array>
  <array name="atomtypes" >
   <dimension dim="1">type</dimension>
   <field type="int">atomspertype</field>
   <field type="string">element</field>
   <field>mass</field>
   <field>valence</field>
   <field type="string">pseudopotential</field>
   <set>
    <rc><c>   2</c><c>C </c><c>     12.01100000</c><c>      4.00000000</c><c>  PAW_PBE C 08Apr2002                   </c></rc>
   </set>
  </array>
 </atominfo>
 <structure name="initialpos" >
  <crystal>
   <varray name="basis" >
    <v>       2.45253800       0.00000000       0.00000000 </v>
    <v>      -1.22626900       2.12396000       0.00000000 </v>
    <v>       0.00000000       0.00000000      15.00000000 </v>
   </varray>
   <i name="volume">     78.13638916 </i>
   <varray name="rec_basis" >
    <v>       0.40774088       0.23540933       0.00000000 </v>
    <v>       0.00000000       0.47081866       0.00000000 </v>
    <v>       0.00000000       0.00000000       0.06666667 </v>
   </varray>
  </crystal>
  <varray name="positions" >
   <v>       0.00000000       0.00000000       0.50000000 </v>
   <v>       0.33333300       0.66666700       0.50000000 </v>
  </varray>
 </structure>
 <calculation>
  <scstep>
   <time name="dav">    0.16    0.16</time>
   <time name="total">    0.17    0.19</time>
   <energy>
    <i name="alphaZ">      4.20529881 </i>
    <i name="ewald">    848.81973207 </i>
    <i name="hartreedc">  -1066.79404564 </i>
    <i name="XCdc">     26.43375369 </i>
    <i name="pawpsdc">    217.04409276 </i>
    <i name="pawaedc">   -218.18290438 </i>
    <i name="eentropy">     -0.00037567 </i>
    <i name="bandstr">    -69.82026386 </i>
    <i name="atom">    294.29778662 </i>
    <i name="e_fr_energy">     36.00307440 </i>
    <i name="e_wo_entrp">     36.00345008 </i>
    <i name="e_0_energy">     36.00326224 </i>
   </energy>
  </scstep>
  <scstep>
   <time name="dav">    0.23    0.23</time>
   <time name="total">    0.23    0.23</time>
   <energy>
    <i name="e_fr_energy">    -18.18882194 </i>
    <i name="e_wo_entrp">    -18.18882194 </i>
    <i name="e_0_energy">    -18.18882194 </i>
   </energy>
  </scstep>
  <scstep>
   <time name="dav">    0.27    0.27</time>
   <time name="total">    0.27    0.27</time>
   <energy>
    <i name="e_fr_energy">    -19.77962357 </i>
    <i name="e_wo_entrp">    -19.77954523 </i>
    <i name="e_0_energy">    -19.77958440 </i>
   </energy>
  </scstep>
  <scstep>
   <time name="dav">    0.24    0.24</time>
   <time name="total">    0.24    0.24</time>
   <energy>
    <i name="e_fr_energy">    -19.78398712 </i>
    <i name="e_wo_entrp">    -19.78390876 </i>
    <i name="e_0_energy">    -19.78394794 </i>
   </energy>
  </scstep>
  <scstep>
   <time name="dav">    0.27    0.27</time>
   <time name="total">    0.28    0.28</time>
   <energy>
    <i name="e_fr_energy">    -19.78399518 </i>
    <i name="e_wo_entrp">    -19.78391682 </i>
    <i name="e_0_energy">    -19.78395600 </i>
   </energy>
  </scstep>
  <scstep>
   <time name="dav">    0.21    0.21</time>
   <time name="total">    0.23    0.23</time>
   <energy>
    <i name="e_fr_energy">    -18.82302293 </i>
    <i name="e_wo_entrp">    -18.82294457 </i>
    <i name="e_0_energy">    -18.82298375 </i>
   </energy>
  </scstep>
  <scstep>
   <time name="dav">    0.25    0.25</time>
   <time name="total">    0.26    0.26</time>
   <energy>
    <i name="e_fr_energy">    -18.45308746 </i>
    <i name="e_wo_entrp">    -18.45300910 </i>
    <i name="e_0_energy">    -18.45304828 </i>
   </energy>
  </scstep>
  <scstep>
   <time name="dav">    0.23    0.23</time>
   <time name="total">    0.25    0.25</time>
   <energy>
    <i name="e_fr_energy">    -18.44502395 </i>
    <i name="e_wo_entrp">    -18.44494559 </i>
    <i name="e_0_energy">    -18.44498477 </i>
   </energy>
  </scstep>
  <scstep>
   <time name="dav">    0.22    0.22</time>
   <time name="total">    0.23    0.24</time>
   <energy>
    <i name="e_fr_energy">    -18.44310336 </i>
    <i name="e_wo_entrp">    -18.44302500 </i>
    <i name="e_0_energy">    -18.44306418 </i>
   </energy>
  </scstep>
  <scstep>
   <time name="dav">    0.19    0.19</time>
   <time name="total">    0.21    0.21</time>
   <energy>
    <i name="e_fr_energy">    -18.44136210 </i>
    <i name="e_wo_entrp">    -18.44128374 </i>
    <i name="e_0_energy">    -18.44132292 </i>
   </energy>
  </scstep>
  <scstep>
   <time name="dav">    0.18    0.18</time>
   <time name="total">    0.20    0.20</time>
   <energy>
    <i name="e_fr_energy">    -18.44164673 </i>
    <i name="e_wo_entrp">    -18.44156837 </i>
    <i name="e_0_energy">    -18.44160755 </i>
   </energy>
  </scstep>
  <scstep>
   <time name="dav">    0.19    0.19</time>
   <time name="total">    0.20    0.20</time>
   <energy>
    <i name="e_fr_energy">    -18.44183433 </i>
    <i name="e_wo_entrp">    -18.44175597 </i>
    <i name="e_0_energy">    -18.44179515 </i>
   </energy>
  </scstep>
  <scstep>
   <time name="dav">    0.19    0.19</time>
   <time name="total">    0.20    0.20</time>
   <energy>
    <i name="e_fr_energy">    -18.44257074 </i>
    <i name="e_wo_entrp">    -18.44249238 </i>
    <i name="e_0_energy">    -18.44253156 </i>
   </energy>
  </scstep>
  <scstep>
   <time name="dav">    0.24    0.24</time>
   <time name="total">    0.26    0.26</time>
   <energy>
    <i name="e_fr_energy">    -18.44262189 </i>
    <i name="e_wo_entrp">    -18.44254353 </i>
    <i name="e_0_energy">    -18.44258271 </i>
   </energy>
  </scstep>
  <scstep>
   <time name="dav">    0.18    0.18</time>
   <time name="total">    0.20    0.20</time>
   <energy>
    <i name="e_fr_energy">    -18.44272835 </i>
    <i name="e_wo_entrp">    -18.44265000 </i>
    <i name="e_0_energy">    -18.44268918 </i>
   </energy>
  </scstep>
  <scstep>
   <time name="dav">    0.18    0.18</time>
   <time name="total">    0.19    0.19</time>
   <energy>
    <i name="alphaZ">      4.20529881 </i>
    <i name="ewald">    848.81973207 </i>
    <i name="hartreedc">  -1100.93489207 </i>
    <i name="XCdc">     27.64310671 </i>
    <i name="pawpsdc">    857.04162686 </i>
    <i name="pawaedc">   -858.41812910 </i>
    <i name="eentropy">     -0.00007836 </i>
    <i name="bandstr">    -91.09718734 </i>
    <i name="atom">    294.29778662 </i>
    <i name="e_fr_energy">    -18.44273579 </i>
    <i name="e_wo_entrp">    -18.44265743 </i>
    <i name="e_0_energy">    -18.44269661 </i>
   </energy>
  </scstep>
  <structure>
   <crystal>
    <varray name="basis" >
     <v>       2.45253800       0.00000000       0.00000000 </v>
     <v>      -1.22626900       2.12396000       0.00000000 </v>
     <v>       0.00000000       0.00000000      15.00000000 </v>
    </varray>
    <i name="volume">     78.13638916 </i>
    <varray name="rec_basis" >
     <v>       0.40774088       0.23540933       0.00000000 </v>
     <v>       0.00000000       0.47081866       0.00000000 </v>
     <v>       0.00000000       0.00000000       0.06666667 </v>
    </varray>
   </crystal>
   <varray name="positions" >
    <v>       0.00000000       0.00000000       0.50000000 </v>
    <v>       0.33333300       0.66666700       0.50000000 </v>
   </varray>
  </structure>
  <varray name="forces" >
   <v>       0.00000000       0.00000000       0.00000000 </v>
   <v>       0.00000000       0.00000000       0.00000000 </v>
  </varray>
  <varray name="stress" >
   <v>      17.49244381       0.00000000       0.00000000 </v>
   <v>       0.00000000      17.49244033      -0.00000000 </v>
   <v>       0.00000000       0.00000000      -0.22631345 </v>
  </varray>
  <energy>
   <i name="e_fr_energy">    -18.44273579 </i>
   <i name="e_wo_entrp">    -18.44269661 </i>
   <i name="e_0_energy">     -0.00007836 </i>
  </energy>
  <time name="totalsc">    3.80    3.83</time>
  <eigenvalues>
   <array>
    <dimension dim="1">band</dimension>
    <dimension dim="2">kpoint</dimension>
    <dimension dim="3">spin</dimension>
    <field>eigene</field>
    <field>occ</field>
    <set>
     <set comment="spin 1">
      <set comment="kpoint 1">
       <r>  -21.8344    1.0000 </r>
       <r>   -9.9160    1.0000 </r>
       <r>   -5.2111    1.0000 </r>
       <r>   -5.2111    1.0000 </r>
       <r>    1.0169    0.0000 </r>
       <r>    1.9283    0.0000 </r>
       <r>    2.4281    0.0000 </r>
       <r>    4.3534    0.0000 </r>
       <r>    5.0966    0.0000 </r>
       <r>    6.2393    0.0000 </r>
       <r>    6.2394    0.0000 </r>
       <r>    8.2370    0.0000 </r>
      </set>
      <set comment="kpoint 2">
       <r>  -21.7929    1.0000 </r>
       <r>   -9.8663    1.0000 </r>
       <r>   -5.3814    1.0000 </r>
       <r>   -5.3019    1.0000 </r>
       <r>    1.0733    0.0000 </r>
       <r>    1.9851    0.0000 </r>
       <r>    2.4855    0.0000 </r>
       <r>    4.4099    0.0000 </r>
       <r>    5.1517    0.0000 </r>
       <r>    6.2654    0.0000 </r>
       <r>    6.4211    0.0000 </r>
       <r>    8.2919    0.0000 </r>
      </set>
      <set comment="kpoint 3">
       <r>  -21.6687    1.0000 </r>
       <r>   -9.7176    1.0000 </r>
       <r>   -5.8667    1.0000 </r>
       <r>   -5.5555    1.0000 </r>
       <r>    1.2422    0.0000 </r>
       <r>    2.1555    0.0000 </r>
       <r>    2.6576    0.0000 </r>
       <r>    4.5792    0.0000 </r>
       <r>    5.3167    0.0000 </r>
       <r>    6.3158    0.0000 </r>
       <r>    6.9460    0.0000 </r>
       <r>    8.4558    0.0000 </r>
      </set>
      <set comment="kpoint 4">
       <r>  -21.4620    1.0000 </r>
       <r>   -9.4708    1.0000 </r>
       <r>   -6.6034    1.0000 </r>
       <r>   -5.9259    1.0000 </r>
       <r>    1.5238    0.0000 </r>
       <r>    2.4392    0.0000 </r>
       <r>    2.9445    0.0000 </r>
       <r>    4.8610    0.0000 </r>
       <r>    5.5893    0.0000 </r>
       <r>    6.3398    0.0000 </r>
       <r>    7.7647    0.0000 </r>
       <r>    8.1785    0.0000 </r>
      </set>
      <set comment="kpoint 5">
       <r>  -21.1734    1.0000 </r>
       <r>   -9.1278    1.0000 </r>
       <r>   -7.5181    1.0000 </r>
       <r>   -6.3607    1.0000 </r>
       <r>    1.9179    0.0000 </r>
       <r>    2.8355    0.0000 </r>
       <r>    3.3462    0.0000 </r>
       <r>    5.2537    0.0000 </r>
       <r>    5.9466    0.0000 </r>
       <r>    6.3271    0.0000 </r>
       <r>    7.3114    0.0000 </r>
       <r>    9.1121    0.0000 </r>
      </set>
      <set comment="kpoint 6">
       <r>  -20.8037    1.0000 </r>
       <r>   -8.6912    1.0000 </r>
       <r>   -8.5457    1.0000 </r>
       <r>   -6.8146    1.0000 </r>
       <r>    2.4242    0.0000 </r>
       <r>    3.3426    0.0000 </r>
       <r>    3.8624    0.0000 </r>
       <r>    5.7418    0.0000 </r>
       <r>    6.1047    0.0000 </r>
       <r>    6.3144    0.0000 </r>
       <r>    6.5651    0.0000 </r>
       <r>    9.5989    0.0000 </r>
      </set>
      <set comment="kpoint 7">
       <r>  -20.3543    1.0000 </r>
       <r>   -9.6356    1.0000 </r>
       <r>   -8.1656    1.0000 </r>
       <r>   -7.2534    1.0000 </r>
       <r>    3.0420    0.0000 </r>
       <r>    3.9494    0.0000 </r>
       <r>    4.4926    0.0000 </r>
       <r>    5.1726    0.0000 </r>
       <r>    5.9886    0.0000 </r>
       <r>    6.3985    0.0000 </r>
       <r>    7.1523    0.0000 </r>
       <r>   10.1873    0.0000 </r>
      </set>
      <set comment="kpoint 8">
       <r>  -19.8266    1.0000 </r>
       <r>  -10.7497    1.0000 </r>
       <r>   -7.6530    1.0000 </r>
       <r>   -7.5583    1.0000 </r>
       <r>    3.7700    0.0000 </r>
       <r>    3.9318    0.0000 </r>
       <r>    4.7578    0.0000 </r>
       <r>    5.2330    0.0000 </r>
       <r>    5.8413    0.0000 </r>
       <r>    7.1197    0.0000 </r>
       <r>    7.8749    0.0000 </r>
       <r>   10.8702    0.0000 </r>
      </set>
      <set comment="kpoint 9">
       <r>  -19.2233    1.0000 </r>
       <r>  -11.8601    1.0000 </r>
       <r>   -7.9969    1.0000 </r>
       <r>   -6.8816    1.0000 </r>
       <r>    2.7811    0.0000 </r>
       <r>    4.6035    0.0000 </r>
       <r>    5.5719    0.0000 </r>
       <r>    5.6729    0.0000 </r>
       <r>    6.1168    0.0000 </r>
       <r>    7.9538    0.0000 </r>
       <r>    8.7126    0.0000 </r>
       <r>   11.6316    0.0000 </r>
      </set>
      <set comment="kpoint 10">
       <r>  -18.5484    1.0000 </r>
       <r>  -12.9448    1.0000 </r>
       <r>   -8.2737    1.0000 </r>
       <r>   -6.1589    1.0000 </r>
       <r>    1.6434    0.0000 </r>
       <r>    5.4256    0.0000 </r>
       <r>    5.6780    0.0000 </r>
       <r>    6.5208    0.0000 </r>
       <r>    7.0819    0.0000 </r>
       <r>    8.8923    0.0000 </r>
       <r>    9.6605    0.0000 </r>
       <r>   12.4166    0.0000 </r>
      </set>
      <set comment="kpoint 11">
       <r>  -17.8106    1.0000 </r>
       <r>  -13.9830    1.0000 </r>
       <r>   -8.4760    1.0000 </r>
       <r>   -5.4397    1.0000 </r>
       <r>    0.6121    0.0000 </r>
       <r>    5.4238    0.0000 </r>
       <r>    6.6365    0.0000 </r>
       <r>    7.5775    0.0000 </r>
       <r>    8.1685    0.0000 </r>
       <r>    9.9254    0.0000 </r>
       <r>   10.7138    0.0000 </r>
       <r>   11.7344    0.0000 </r>
      </set>
      <set comment="kpoint 12">
       <r>  -17.0405    1.0000 </r>
       <r>  -14.9362    1.0000 </r>
       <r>   -8.5991    1.0000 </r>
       <r>   -4.8383    1.0000 </r>
       <r>   -0.1825    0.0000 </r>
       <r>    5.3678    0.0000 </r>
       <r>    7.7871    0.0000 </r>
       <r>    8.7322    0.0000 </r>
       <r>    9.3685    0.0000 </r>
       <r>   10.3707    0.0000 </r>
       <r>   10.9632    0.0000 </r>
       <r>   11.4042    0.0000 </r>
      </set>
      <set comment="kpoint 13">
       <r>  -16.5172    1.0000 </r>
       <r>  -15.5210    1.0000 </r>
       <r>   -8.6404    1.0000 </r>
       <r>   -4.5820    1.0000 </r>
       <r>   -0.5041    0.0000 </r>
       <r>    5.3479    0.0000 </r>
       <r>    8.9642    0.0000 </r>
       <r>    9.1145    0.0000 </r>
       <r>    9.8645    0.0000 </r>
       <r>   10.0927    0.0000 </r>
       <r>   10.6698    0.0000 </r>
       <r>   10.6933    0.0000 </r>
      </set>
      <set comment="kpoint 14">
       <r>  -21.7101    1.0000 </r>
       <r>   -9.7671    1.0000 </r>
       <r>   -5.6998    1.0000 </r>
       <r>   -5.4836    1.0000 </r>
       <r>    1.1859    0.0000 </r>
       <r>    2.0987    0.0000 </r>
       <r>    2.6003    0.0000 </r>
       <r>    4.5228    0.0000 </r>
       <r>    5.2619    0.0000 </r>
       <r>    6.3284    0.0000 </r>
       <r>    6.7473    0.0000 </r>
       <r>    8.4015    0.0000 </r>
      </set>
      <set comment="kpoint 15">
       <r>  -21.5446    1.0000 </r>
       <r>   -9.5694    1.0000 </r>
       <r>   -6.2894    1.0000 </r>
       <r>   -5.8172    1.0000 </r>
       <r>    1.4112    0.0000 </r>
       <r>    2.3258    0.0000 </r>
       <r>    2.8298    0.0000 </r>
       <r>    4.7484    0.0000 </r>
       <r>    5.4819    0.0000 </r>
       <r>    6.4181    0.0000 </r>
       <r>    7.3515    0.0000 </r>
       <r>    8.4441    0.0000 </r>
      </set>
      <set comment="kpoint 16">
       <r>  -21.2970    1.0000 </r>
       <r>   -9.2744    1.0000 </r>
       <r>   -7.0936    1.0000 </r>
       <r>   -6.2418    1.0000 </r>
       <r>    1.7491    0.0000 </r>
       <r>    2.6659    0.0000 </r>
       <r>    3.1741    0.0000 </r>
       <r>    5.0860    0.0000 </r>
       <r>    5.8070    0.0000 </r>
       <r>    6.4590    0.0000 </r>
       <r>    7.6790    0.0000 </r>
       <r>    8.2065    0.0000 </r>
      </set>
      <set comment="kpoint 17">
       <r>  -20.9678    1.0000 </r>
       <r>   -8.8844    1.0000 </r>
       <r>   -8.0479    1.0000 </r>
       <r>   -6.7035    1.0000 </r>
       <r>    2.1995    0.0000 </r>
       <r>    3.1180    0.0000 </r>
       <r>    3.6332    0.0000 </r>
       <r>    5.5320    0.0000 </r>
       <r>    6.1809    0.0000 </r>
       <r>    6.4822    0.0000 </r>
       <r>    6.7479    0.0000 </r>
       <r>    9.3805    0.0000 </r>
      </set>
      <set comment="kpoint 18">
       <r>  -20.5583    1.0000 </r>
       <r>   -9.0947    1.0000 </r>
       <r>   -8.4030    1.0000 </r>
       <r>   -7.1622    1.0000 </r>
       <r>    2.7617    0.0000 </r>
       <r>    3.6783    0.0000 </r>
       <r>    4.2066    0.0000 </r>
       <r>    5.6581    0.0000 </r>
       <r>    6.1295    0.0000 </r>
       <r>    6.2229    0.0000 </r>
       <r>    6.8863    0.0000 </r>
       <r>    9.9165    0.0000 </r>
      </set>
      <set comment="kpoint 19">
       <r>  -20.0697    1.0000 </r>
       <r>  -10.1886    1.0000 </r>
       <r>   -7.8358    1.0000 </r>
       <r>   -7.5897    1.0000 </r>
       <r>    3.4350    0.0000 </r>
       <r>    4.2590    0.0000 </r>
       <r>    4.6376    0.0000 </r>
       <r>    4.8936    0.0000 </r>
       <r>    6.0936    0.0000 </r>
       <r>    6.7819    0.0000 </r>
       <r>    7.5421    0.0000 </r>
       <r>   10.5494    0.0000 </r>
      </set>
      <set comment="kpoint 20">
       <r>  -19.5042    1.0000 </r>
       <r>  -11.2955    1.0000 </r>
       <r>   -7.9668    1.0000 </r>
       <r>   -7.1922    1.0000 </r>
       <r>    3.3368    0.0000 </r>
       <r>    4.2173    0.0000 </r>
       <r>    5.1793    0.0000 </r>
       <r>    5.6801    0.0000 </r>
       <r>    5.9617    0.0000 </r>
       <r>    7.5606    0.0000 </r>
       <r>    8.3220    0.0000 </r>
       <r>   11.2665    0.0000 </r>
      </set>
      <set comment="kpoint 21">
       <r>  -18.8648    1.0000 </r>
       <r>  -12.3898    1.0000 </r>
       <r>   -8.2804    1.0000 </r>
       <r>   -6.4888    1.0000 </r>
       <r>    2.1854    0.0000 </r>
       <r>    5.0993    0.0000 </r>
       <r>    5.8044    0.0000 </r>
       <r>    6.0697    0.0000 </r>
       <r>    6.6262    0.0000 </r>
       <r>    8.4456    0.0000 </r>
       <r>    9.2147    0.0000 </r>
       <r>   12.0338    0.0000 </r>
      </set>
      <set comment="kpoint 22">
       <r>  -18.1574    1.0000 </r>
       <r>  -13.4501    1.0000 </r>
       <r>   -8.5220    1.0000 </r>
       <r>   -5.7588    1.0000 </r>
       <r>    1.0957    0.0000 </r>
       <r>    5.6388    0.0000 </r>
       <r>    6.1547    0.0000 </r>
       <r>    7.0720    0.0000 </r>
       <r>    7.6538    0.0000 </r>
       <r>    9.4287    0.0000 </r>
       <r>   10.2155    0.0000 </r>
       <r>   12.3861    0.0000 </r>
      </set>
      <set comment="kpoint 23">
       <r>  -17.3969    1.0000 </r>
       <r>  -14.4511    1.0000 </r>
       <r>   -8.6858    1.0000 </r>
       <r>   -5.0767    1.0000 </r>
       <r>    0.1638    0.0000 </r>
       <r>    5.5792    0.0000 </r>
       <r>    7.2394    0.0000 </r>
       <r>    8.1756    0.0000 </r>
       <r>    8.7972    0.0000 </r>
       <r>   10.4863    0.0000 </r>
       <r>   11.0712    0.0000 </r>
       <r>   11.3297    0.0000 </r>
      </set>
      <set comment="kpoint 24">
       <r>  -16.6650    1.0000 </r>
       <r>  -15.3048    1.0000 </r>
       <r>   -8.7685    1.0000 </r>
       <r>   -4.6123    1.0000 </r>
       <r>   -0.4283    0.0000 </r>
       <r>    5.5405    0.0000 </r>
       <r>    8.4379    0.0000 </r>
       <r>    9.3617    0.0000 </r>
       <r>    9.7337    0.0000 </r>
       <r>   10.0564    0.0000 </r>
       <r>   10.6343    0.0000 </r>
       <r>   11.4194    0.0000 </r>
      </set>
      <set comment="kpoint 25">
       <r>  -21.3382    1.0000 </r>
       <r>   -9.3234    1.0000 </r>
       <r>   -6.9075    1.0000 </r>
       <r>   -6.2445    1.0000 </r>
       <r>    1.6929    0.0000 </r>
       <r>    2.6093    0.0000 </r>
       <r>    3.1168    0.0000 </r>
       <r>    5.0300    0.0000 </r>
       <r>    5.7578    0.0000 </r>
       <r>    6.6283    0.0000 </r>
       <r>    7.8082    0.0000 </r>
       <r>    7.8578    0.0000 </r>
      </set>
      <set comment="kpoint 26">
       <r>  -21.0500    1.0000 </r>
       <r>   -8.9814    1.0000 </r>
       <r>   -7.6994    1.0000 </r>
       <r>   -6.7487    1.0000 </r>
       <r>    2.0872    0.0000 </r>
       <r>    3.0054    0.0000 </r>
       <r>    3.5186    0.0000 </r>
       <r>    5.4228    0.0000 </r>
       <r>    6.1394    0.0000 </r>
       <r>    6.7927    0.0000 </r>
       <r>    6.9869    0.0000 </r>
       <r>    8.5339    0.0000 </r>
      </set>
      <set comment="kpoint 27">
       <r>  -20.6810    1.0000 </r>
       <r>   -8.6315    1.0000 </r>
       <r>   -8.5462    1.0000 </r>
       <r>   -7.2573    1.0000 </r>
       <r>    2.5937    0.0000 </r>
       <r>    3.5127    0.0000 </r>
       <r>    4.0351    0.0000 </r>
       <r>    5.8953    0.0000 </r>
       <r>    6.0581    0.0000 </r>
       <r>    6.5686    0.0000 </r>
       <r>    6.8849    0.0000 </r>
       <r>    9.4251    0.0000 </r>
      </set>
      <set comment="kpoint 28">
       <r>  -20.2323    1.0000 </r>
       <r>   -9.6550    1.0000 </r>
       <r>   -8.0222    1.0000 </r>
       <r>   -7.7325    1.0000 </r>
       <r>    3.2118    0.0000 </r>
       <r>    4.1196    0.0000 </r>
       <r>    4.6660    0.0000 </r>
       <r>    4.9708    0.0000 </r>
       <r>    6.5498    0.0000 </r>
       <r>    6.6496    0.0000 </r>
       <r>    7.3362    0.0000 </r>
       <r>   10.3240    0.0000 </r>
      </set>
      <set comment="kpoint 29">
       <r>  -19.7058    1.0000 </r>
       <r>  -10.7246    1.0000 </r>
       <r>   -8.1547    1.0000 </r>
       <r>   -7.4166    1.0000 </r>
       <r>    3.8104    0.0000 </r>
       <r>    3.9404    0.0000 </r>
       <r>    4.8923    0.0000 </r>
       <r>    5.4101    0.0000 </r>
       <r>    6.5380    0.0000 </r>
       <r>    7.2718    0.0000 </r>
       <r>    8.0464    0.0000 </r>
       <r>   10.9822    0.0000 </r>
      </set>
      <set comment="kpoint 30">
       <r>  -19.1040    1.0000 </r>
       <r>  -11.8051    1.0000 </r>
       <r>   -8.5121    1.0000 </r>
       <r>   -6.7414    1.0000 </r>
       <r>    2.6829    0.0000 </r>
       <r>    4.7773    0.0000 </r>
       <r>    5.7226    0.0000 </r>
       <r>    6.2423    0.0000 </r>
       <r>    6.4314    0.0000 </r>
       <r>    8.0992    0.0000 </r>
       <r>    8.8806    0.0000 </r>
       <r>   11.6882    0.0000 </r>
      </set>
      <set comment="kpoint 31">
       <r>  -18.4312    1.0000 </r>
       <r>  -12.8693    1.0000 </r>
       <r>   -8.7969    1.0000 </r>
       <r>   -6.0193    1.0000 </r>
       <r>    1.5762    0.0000 </r>
       <r>    5.7096    0.0000 </r>
       <r>    6.2823    0.0000 </r>
       <r>    6.6674    0.0000 </r>
       <r>    7.2549    0.0000 </r>
       <r>    9.0234    0.0000 </r>
       <r>    9.8259    0.0000 </r>
       <r>   12.3207    0.0000 </r>
      </set>
      <set comment="kpoint 32">
       <r>  -17.6962    1.0000 </r>
       <r>  -13.8934    1.0000 </r>
       <r>   -9.0037    1.0000 </r>
       <r>   -5.2982    1.0000 </r>
       <r>    0.5655    0.0000 </r>
       <r>    6.1411    0.0000 </r>
       <r>    6.8077    0.0000 </r>
       <r>    7.7125    0.0000 </r>
       <r>    8.3397    0.0000 </r>
       <r>   10.0233    0.0000 </r>
       <r>   10.8747    0.0000 </r>
       <r>   11.7928    0.0000 </r>
      </set>
      <set comment="kpoint 33">
       <r>  -16.9301    1.0000 </r>
       <r>  -14.8365    1.0000 </r>
       <r>   -9.1291    1.0000 </r>
       <r>   -4.6911    1.0000 </r>
       <r>   -0.2211    0.0000 </r>
       <r>    6.0921    0.0000 </r>
       <r>    7.9473    0.0000 </r>
       <r>    8.8404    0.0000 </r>
       <r>    9.5383    0.0000 </r>
       <r>   10.5000    0.0000 </r>
       <r>   10.9130    0.0000 </r>
       <r>   11.5500    0.0000 </r>
      </set>
      <set comment="kpoint 34">
       <r>  -16.4111    1.0000 </r>
       <r>  -15.4151    1.0000 </r>
       <r>   -9.1711    1.0000 </r>
       <r>   -4.4302    1.0000 </r>
       <r>   -0.5428    0.0000 </r>
       <r>    6.0726    0.0000 </r>
       <r>    9.1103    0.0000 </r>
       <r>    9.2703    0.0000 </r>
       <r>    9.8389    0.0000 </r>
       <r>   10.2637    0.0000 </r>
       <r>   10.8363    0.0000 </r>
       <r>   10.8622    0.0000 </r>
      </set>
      <set comment="kpoint 35">
       <r>  -20.7219    1.0000 </r>
       <r>   -8.5940    1.0000 </r>
       <r>   -8.4171    1.0000 </r>
       <r>   -7.3522    1.0000 </r>
       <r>    2.5378    0.0000 </r>
       <r>    3.4572    0.0000 </r>
       <r>    3.9779    0.0000 </r>
       <r>    5.8706    0.0000 </r>
       <r>    6.1452    0.0000 </r>
       <r>    6.5813    0.0000 </r>
       <r>    7.1949    0.0000 </r>
       <r>    8.8632    0.0000 </r>
      </set>
      <set comment="kpoint 36">
       <r>  -20.3138    1.0000 </r>
       <r>   -9.2613    1.0000 </r>
       <r>   -8.1158    1.0000 </r>
       <r>   -7.9422    1.0000 </r>
       <r>    3.1002    0.0000 </r>
       <r>    4.0187    0.0000 </r>
       <r>    4.5519    0.0000 </r>
       <r>    5.1934    0.0000 </r>
       <r>    6.4284    0.0000 </r>
       <r>    7.0953    0.0000 </r>
       <r>    7.4653    0.0000 </r>
       <r>    9.4450    0.0000 </r>
      </set>
      <set comment="kpoint 37">
       <r>  -19.8272    1.0000 </r>
       <r>  -10.2149    1.0000 </r>
       <r>   -8.4582    1.0000 </r>
       <r>   -7.5523    1.0000 </r>
       <r>    3.7738    0.0000 </r>
       <r>    4.1472    0.0000 </r>
       <r>    4.7077    0.0000 </r>
       <r>    5.2402    0.0000 </r>
       <r>    7.0931    0.0000 </r>
       <r>    7.3325    0.0000 </r>
       <r>    7.9075    0.0000 </r>
       <r>   10.3146    0.0000 </r>
      </set>
      <set comment="kpoint 38">
       <r>  -19.2643    1.0000 </r>
       <r>  -11.2316    1.0000 </r>
       <r>   -8.8874    1.0000 </r>
       <r>   -6.9122    1.0000 </r>
       <r>    3.0797    0.0000 </r>
       <r>    4.5572    0.0000 </r>
       <r>    5.4828    0.0000 </r>
       <r>    6.0418    0.0000 </r>
       <r>    7.2657    0.0000 </r>
       <r>    7.8603    0.0000 </r>
       <r>    8.6627    0.0000 </r>
       <r>   11.4283    0.0000 </r>
      </set>
      <set comment="kpoint 39">
       <r>  -18.6286    1.0000 </r>
       <r>  -12.2679    1.0000 </r>
       <r>   -9.2308    1.0000 </r>
       <r>   -6.2114    1.0000 </r>
       <r>    2.0005    0.0000 </r>
       <r>    5.4479    0.0000 </r>
       <r>    6.3684    0.0000 </r>
       <r>    6.9410    0.0000 </r>
       <r>    7.1694    0.0000 </r>
       <r>    8.7202    0.0000 </r>
       <r>    9.5481    0.0000 </r>
       <r>   11.9656    0.0000 </r>
      </set>
      <set comment="kpoint 40">
       <r>  -17.9260    1.0000 </r>
       <r>  -13.2899    1.0000 </r>
       <r>   -9.4889    1.0000 </r>
       <r>   -5.4807    1.0000 </r>
       <r>    0.9666    0.0000 </r>
       <r>    6.4350    0.0000 </r>
       <r>    7.0455    0.0000 </r>
       <r>    7.3503    0.0000 </r>
       <r>    7.9981    0.0000 </r>
       <r>    9.6468    0.0000 </r>
       <r>   10.5418    0.0000 </r>
       <r>   12.1450    0.0000 </r>
      </set>
      <set comment="kpoint 41">
       <r>  -17.1723    1.0000 </r>
       <r>  -14.2649    1.0000 </r>
       <r>   -9.6616    1.0000 </r>
       <r>   -4.7909    1.0000 </r>
       <r>    0.0651    0.0000 </r>
       <r>    6.9305    0.0000 </r>
       <r>    7.5713    0.0000 </r>
       <r>    8.4066    0.0000 </r>
       <r>    9.1383    0.0000 </r>
       <r>   10.5341    0.0000 </r>
       <r>   11.2595    0.0000 </r>
       <r>   11.6498    0.0000 </r>
      </set>
      <set comment="kpoint 42">
       <r>  -16.4496    1.0000 </r>
       <r>  -15.1006    1.0000 </r>
       <r>   -9.7481    1.0000 </r>
       <r>   -4.3124    1.0000 </r>
       <r>   -0.5222    0.0000 </r>
       <r>    6.8993    0.0000 </r>
       <r>    8.7481    0.0000 </r>
       <r>    9.4464    0.0000 </r>
       <r>   10.0153    0.0000 </r>
       <r>   10.3946    0.0000 </r>
       <r>   10.6732    0.0000 </r>
       <r>   11.7484    0.0000 </r>
      </set>
      <set comment="kpoint 43">
       <r>  -19.8677    1.0000 </r>
       <r>   -9.9681    1.0000 </r>
       <r>   -8.6408    1.0000 </r>
       <r>   -7.5977    1.0000 </r>
       <r>    3.7182    0.0000 </r>
       <r>    4.2796    0.0000 </r>
       <r>    4.6348    0.0000 </r>
       <r>    5.1833    0.0000 </r>
       <r>    7.0321    0.0000 </r>
       <r>    7.7004    0.0000 </r>
       <r>    8.0742    0.0000 </r>
       <r>    9.5805    0.0000 </r>
      </set>
      <set comment="kpoint 44">
       <r>  -19.3447    1.0000 </r>
       <r>  -10.7901    1.0000 </r>
       <r>   -9.2427    1.0000 </r>
       <r>   -6.9983    1.0000 </r>
       <r>    3.3063    0.0000 </r>
       <r>    4.4465    0.0000 </r>
       <r>    5.3574    0.0000 </r>
       <r>    5.9288    0.0000 </r>
       <r>    7.7372    0.0000 </r>
       <r>    8.1639    0.0000 </r>
       <r>    8.6055    0.0000 </r>
       <r>   10.1429    0.0000 </r>
      </set>
      <set comment="kpoint 45">
       <r>  -18.7477    1.0000 </r>
       <r>  -11.7128    1.0000 </r>
       <r>   -9.7082    1.0000 </r>
       <r>   -6.3289    1.0000 </r>
       <r>    2.3009    0.0000 </r>
       <r>    5.2833    0.0000 </r>
       <r>    6.1820    0.0000 </r>
       <r>    6.7877    0.0000 </r>
       <r>    8.1989    0.0000 </r>
       <r>    8.5298    0.0000 </r>
       <r>    9.3891    0.0000 </r>
       <r>   11.0152    0.0000 </r>
      </set>
      <set comment="kpoint 46">
       <r>  -18.0813    1.0000 </r>
       <r>  -12.6819    1.0000 </r>
       <r>  -10.0508    1.0000 </r>
       <r>   -5.6095    1.0000 </r>
       <r>    1.2994    0.0000 </r>
       <r>    6.2257    0.0000 </r>
       <r>    7.0967    0.0000 </r>
       <r>    7.7530    0.0000 </r>
       <r>    8.1208    0.0000 </r>
       <r>    9.3748    0.0000 </r>
       <r>   10.3198    0.0000 </r>
       <r>   11.7821    0.0000 </r>
      </set>
      <set comment="kpoint 47">
       <r>  -17.3551    1.0000 </r>
       <r>  -13.6472    1.0000 </r>
       <r>  -10.2876    1.0000 </r>
       <r>   -4.8830    1.0000 </r>
       <r>    0.3588    0.0000 </r>
       <r>    7.2641    0.0000 </r>
       <r>    8.0202    0.0000 </r>
       <r>    8.0712    0.0000 </r>
       <r>    8.8545    0.0000 </r>
       <r>   10.1591    0.0000 </r>
       <r>   11.3425    0.0000 </r>
       <r>   11.8215    0.0000 </r>
      </set>
      <set comment="kpoint 48">
       <r>  -16.6009    1.0000 </r>
       <r>  -14.5528    1.0000 </r>
       <r>  -10.4273    1.0000 </r>
       <r>   -4.2558    1.0000 </r>
       <r>   -0.4022    0.0000 </r>
       <r>    7.9280    0.0000 </r>
       <r>    8.4327    0.0000 </r>
       <r>    9.0003    0.0000 </r>
       <r>   10.0464    0.0000 </r>
       <r>   10.6280    0.0000 </r>
       <r>   10.8468    0.0000 </r>
       <r>   12.0311    0.0000 </r>
      </set>
      <set comment="kpoint 49">
       <r>  -16.0931    1.0000 </r>
       <r>  -15.1123    1.0000 </r>
       <r>  -10.4735    1.0000 </r>
       <r>   -3.9767    1.0000 </r>
       <r>   -0.7268    0.0000 </r>
       <r>    7.9176    0.0000 </r>
       <r>    9.4753    0.0000 </r>
       <r>    9.5351    0.0000 </r>
       <r>    9.7297    0.0000 </r>
       <r>   10.7766    0.0000 </r>
       <r>   11.3321    0.0000 </r>
       <r>   11.3666    0.0000 </r>
      </set>
      <set comment="kpoint 50">
       <r>  -18.7875    1.0000 </r>
       <r>  -11.4325    1.0000 </r>
       <r>   -9.9665    1.0000 </r>
       <r>   -6.3684    1.0000 </r>
       <r>    2.4110    0.0000 </r>
       <r>    5.2281    0.0000 </r>
       <r>    6.1180    0.0000 </r>
       <r>    6.7313    0.0000 </r>
       <r>    8.4643    0.0000 </r>
       <r>    8.9418    0.0000 </r>
       <r>    9.3996    0.0000 </r>
       <r>   10.1610    0.0000 </r>
      </set>
      <set comment="kpoint 51">
       <r>  -18.1594    1.0000 </r>
       <r>  -12.1960    1.0000 </r>
       <r>  -10.5239    1.0000 </r>
       <r>   -5.6759    1.0000 </r>
       <r>    1.4916    0.0000 </r>
       <r>    6.1162    0.0000 </r>
       <r>    6.9639    0.0000 </r>
       <r>    7.6468    0.0000 </r>
       <r>    9.2293    0.0000 </r>
       <r>    9.2420    0.0000 </r>
       <r>   10.2197    0.0000 </r>
       <r>   10.7729    0.0000 </r>
      </set>
      <set comment="kpoint 52">
       <r>  -17.4674    1.0000 </r>
       <r>  -13.0577    1.0000 </r>
       <r>  -10.8980    1.0000 </r>
       <r>   -4.9463    1.0000 </r>
       <r>    0.5813    0.0000 </r>
       <r>    7.1056    0.0000 </r>
       <r>    7.8521    0.0000 </r>
       <r>    8.6706    0.0000 </r>
       <r>    9.2027    0.0000 </r>
       <r>    9.8996    0.0000 </r>
       <r>   11.1585    0.0000 </r>
       <r>   11.5162    0.0000 </r>
      </set>
      <set comment="kpoint 53">
       <r>  -16.7279    1.0000 </r>
       <r>  -13.9429    1.0000 </r>
       <r>  -11.1255    1.0000 </r>
       <r>   -4.2389    1.0000 </r>
       <r>   -0.2526    0.0000 </r>
       <r>    8.1841    0.0000 </r>
       <r>    8.6455    0.0000 </r>
       <r>    9.1165    0.0000 </r>
       <r>    9.8213    0.0000 </r>
       <r>   10.3609    0.0000 </r>
       <r>   11.4275    0.0000 </r>
       <r>   12.1252    0.0000 </r>
      </set>
      <set comment="kpoint 54">
       <r>  -16.0219    1.0000 </r>
       <r>  -14.7301    1.0000 </r>
       <r>  -11.2338    1.0000 </r>
       <r>   -3.7199    1.0000 </r>
       <r>   -0.8369    0.0000 </r>
       <r>    9.0348    0.0000 </r>
       <r>    9.0652    0.0000 </r>
       <r>    9.3697    0.0000 </r>
       <r>   10.5304    0.0000 </r>
       <r>   10.9521    0.0000 </r>
       <r>   11.0673    0.0000 </r>
       <r>   12.3893    0.0000 </r>
      </set>
      <set comment="kpoint 55">
       <r>  -17.5052    1.0000 </r>
       <r>  -12.7487    1.0000 </r>
       <r>  -11.2167    1.0000 </r>
       <r>   -4.9687    1.0000 </r>
       <r>    0.6648    0.0000 </r>
       <r>    7.0510    0.0000 </r>
       <r>    7.7746    0.0000 </r>
       <r>    8.6175    0.0000 </r>
       <r>    9.8064    0.0000 </r>
       <r>   10.1742    0.0000 </r>
       <r>   10.6646    0.0000 </r>
       <r>   11.1773    0.0000 </r>
      </set>
      <set comment="kpoint 56">
       <r>  -16.7958    1.0000 </r>
       <r>  -13.4321    1.0000 </r>
       <r>  -11.6838    1.0000 </r>
       <r>   -4.2375    1.0000 </r>
       <r>   -0.1516    0.0000 </r>
       <r>    8.0783    0.0000 </r>
       <r>    8.4435    0.0000 </r>
       <r>    9.6943    0.0000 </r>
       <r>   10.1960    0.0000 </r>
       <r>   10.2857    0.0000 </r>
       <r>   11.2157    0.0000 </r>
       <r>   12.0759    0.0000 </r>
      </set>
      <set comment="kpoint 57">
       <r>  -16.0627    1.0000 </r>
       <r>  -14.1913    1.0000 </r>
       <r>  -11.9295    1.0000 </r>
       <r>   -3.5638    1.0000 </r>
       <r>   -0.8768    0.0000 </r>
       <r>    8.7230    0.0000 </r>
       <r>    9.1721    0.0000 </r>
       <r>   10.1967    0.0000 </r>
       <r>   10.8726    0.0000 </r>
       <r>   10.8812    0.0000 </r>
       <r>   11.2165    0.0000 </r>
       <r>   12.8662    0.0000 </r>
      </set>
      <set comment="kpoint 58">
       <r>  -15.5642    1.0000 </r>
       <r>  -14.7062    1.0000 </r>
       <r>  -12.0048    1.0000 </r>
       <r>   -3.2267    1.0000 </r>
       <r>   -1.2313    0.0000 </r>
       <r>    8.7616    0.0000 </r>
       <r>   10.0927    0.0000 </r>
       <r>   10.1749    0.0000 </r>
       <r>   10.5113    0.0000 </r>
       <r>   11.6301    0.0000 </r>
       <r>   12.1344    0.0000 </r>
       <r>   12.1967    0.0000 </r>
      </set>
      <set comment="kpoint 59">
       <r>  -16.0845    1.0000 </r>
       <r>  -13.8854    1.0000 </r>
       <r>  -12.2816    1.0000 </r>
       <r>   -3.5124    1.0000 </r>
       <r>   -0.8839    0.0000 </r>
       <r>    8.5959    0.0000 </r>
       <r>    9.1206    0.0000 </r>
       <r>   10.8060    0.0000 </r>
       <r>   10.8266    0.0000 </r>
       <r>   10.9833    0.0000 </r>
       <r>   11.2051    0.0000 </r>
       <r>   12.9616    0.0000 </r>
      </set>
      <set comment="kpoint 60">
       <r>  -15.3994    1.0000 </r>
       <r>  -14.4449    1.0000 </r>
       <r>  -12.5811    1.0000 </r>
       <r>   -2.8752    1.0000 </r>
       <r>   -1.5220    0.0000 </r>
       <r>    8.5410    0.0000 </r>
       <r>   10.1538    0.0000 </r>
       <r>   10.8587    0.0000 </r>
       <r>   11.2252    0.0000 </r>
       <r>   11.8205    0.0000 </r>
       <r>   12.0631    0.0000 </r>
       <r>   13.2355    0.0000 </r>
      </set>
      <set comment="kpoint 61">
       <r>  -14.8268    1.0000 </r>
       <r>  -14.8268    1.0000 </r>
       <r>  -12.8541    1.0000 </r>
       <r>   -2.1902    0.5004 </r>
       <r>   -2.1901    0.4996 </r>
       <r>    8.4527    0.0000 </r>
       <r>   10.8091    0.0000 </r>
       <r>   10.8091    0.0000 </r>
       <r>   11.3762    0.0000 </r>
       <r>   12.8216    0.0000 </r>
       <r>   12.8449    0.0000 </r>
       <r>   13.1309    0.0000 </r>
      </set>
     </set>
    </set>
   </array>
  </eigenvalues>
  <separator name="orbital magnetization" >
   <v name="MAGDIPOLOUT">      0.00000000      0.00000000      0.00000000</v>
  </separator>
  <dos>
   <i name="efermi">     -2.19015833 </i>
   <total>
    <array>
     <dimension dim="1">gridpoints</dimension>
     <dimension dim="2">spin</dimension>
     <field>energy</field>
     <field>total</field>
     <field>integrated</field>
     <set>
      <set comment="spin 1">
       <r>   -23.5879     0.0000     0.0000 </r>
       <r>   -23.4593     0.0000     0.0000 </r>
       <r>   -23.3307     0.0000     0.0000 </r>
       <r>   -23.2021     0.0000     0.0000 </r>
       <r>   -23.0735     0.0000     0.0000 </r>
       <r>   -22.9449     0.0000     0.0000 </r>
       <r>   -22.8163     0.0000     0.0000 </r>
       <r>   -22.6878     0.0000     0.0000 </r>
       <r>   -22.5592     0.0000     0.0000 </r>
       <r>   -22.4306     0.0000     0.0000 </r>
       <r>   -22.3020     0.0000     0.0000 </r>
       <r>   -22.1734     0.0000     0.0000 </r>
       <r>   -22.0448     0.0000     0.0000 </r>
       <r>   -21.9162     0.0000     0.0000 </r>
       <r>   -21.7876     0.1315     0.0169 </r>
       <r>   -21.6590     0.3414     0.0608 </r>
       <r>   -21.5305     0.3128     0.1010 </r>
       <r>   -21.4019     0.2134     0.1285 </r>
       <r>   -21.2733     0.4708     0.1890 </r>
       <r>   -21.1447     0.1738     0.2114 </r>
       <r>   -21.0161     0.3249     0.2531 </r>
       <r>   -20.8875     0.3239     0.2951 </r>
       <r>   -20.7589     0.1626     0.3160 </r>
       <r>   -20.6303     0.4853     0.3785 </r>
       <r>   -20.5017     0.3240     0.4201 </r>
       <r>   -20.3731     0.0147     0.4220 </r>
       <r>   -20.2446     0.5342     0.4907 </r>
       <r>   -20.1160     0.2614     0.5243 </r>
       <r>   -19.9874     0.3239     0.5660 </r>
       <r>   -19.8588     0.1253     0.5821 </r>
       <r>   -19.7302     0.5365     0.6511 </r>
       <r>   -19.6016     0.3103     0.6910 </r>
       <r>   -19.4730     0.3195     0.7321 </r>
       <r>   -19.3444     0.1692     0.7538 </r>
       <r>   -19.2158     0.5967     0.8305 </r>
       <r>   -19.0873     0.3344     0.8736 </r>
       <r>   -18.9587     0.0382     0.8785 </r>
       <r>   -18.8301     0.3220     0.9199 </r>
       <r>   -18.7015     0.4857     0.9826 </r>
       <r>   -18.5729     0.3307     1.0252 </r>
       <r>   -18.4443     0.2126     1.0525 </r>
       <r>   -18.3157     0.2668     1.0868 </r>
       <r>   -18.1871     0.0139     1.0886 </r>
       <r>   -18.0585     0.9407     1.2096 </r>
       <r>   -17.9299     0.1443     1.2281 </r>
       <r>   -17.8014     0.3176     1.2689 </r>
       <r>   -17.6728     0.3499     1.3139 </r>
       <r>   -17.5442     0.0163     1.3160 </r>
       <r>   -17.4156     0.5158     1.3824 </r>
       <r>   -17.2870     0.6178     1.4618 </r>
       <r>   -17.1584     0.2711     1.4967 </r>
       <r>   -17.0298     0.1784     1.5196 </r>
       <r>   -16.9012     0.3539     1.5651 </r>
       <r>   -16.7726     0.3146     1.6056 </r>
       <r>   -16.6441     0.6420     1.6881 </r>
       <r>   -16.5155     0.3907     1.7384 </r>
       <r>   -16.3869     0.5156     1.8047 </r>
       <r>   -16.2583     0.0070     1.8056 </r>
       <r>   -16.1297     0.0009     1.8057 </r>
       <r>   -16.0011     0.9482     1.9276 </r>
       <r>   -15.8725     0.0230     1.9306 </r>
       <r>   -15.7439     0.0000     1.9306 </r>
       <r>   -15.6153     0.0000     1.9306 </r>
       <r>   -15.4867     0.2424     1.9617 </r>
       <r>   -15.3582     0.4855     2.0242 </r>
       <r>   -15.2296     0.3240     2.0660 </r>
       <r>   -15.1010     0.2859     2.1027 </r>
       <r>   -14.9724     0.2010     2.1286 </r>
       <r>   -14.8438     0.2719     2.1635 </r>
       <r>   -14.7152     0.6407     2.2459 </r>
       <r>   -14.5866     0.1694     2.2677 </r>
       <r>   -14.4580     0.4795     2.3294 </r>
       <r>   -14.3294     0.4899     2.3924 </r>
       <r>   -14.2008     0.4048     2.4444 </r>
       <r>   -14.0723     0.2433     2.4757 </r>
       <r>   -13.9437     0.3163     2.5164 </r>
       <r>   -13.8151     0.6553     2.6007 </r>
       <r>   -13.6865     0.0009     2.6008 </r>
       <r>   -13.5579     0.3231     2.6424 </r>
       <r>   -13.4293     0.4885     2.7052 </r>
       <r>   -13.3007     0.2312     2.7349 </r>
       <r>   -13.1721     0.2524     2.7674 </r>
       <r>   -13.0435     0.2727     2.8024 </r>
       <r>   -12.9150     0.2107     2.8295 </r>
       <r>   -12.7864     0.3813     2.8786 </r>
       <r>   -12.6578     0.4712     2.9391 </r>
       <r>   -12.5292     0.3382     2.9826 </r>
       <r>   -12.4006     0.0720     2.9919 </r>
       <r>   -12.2720     0.4986     3.0560 </r>
       <r>   -12.1434     0.5634     3.1285 </r>
       <r>   -12.0148     0.0388     3.1335 </r>
       <r>   -11.8862     0.4521     3.1916 </r>
       <r>   -11.7576     0.4809     3.2535 </r>
       <r>   -11.6291     0.6478     3.3368 </r>
       <r>   -11.5005     0.0000     3.3368 </r>
       <r>   -11.3719     0.1620     3.3576 </r>
       <r>   -11.2433     0.4770     3.4190 </r>
       <r>   -11.1147     0.9091     3.5359 </r>
       <r>   -10.9861     0.0720     3.5451 </r>
       <r>   -10.8575     0.3233     3.5867 </r>
       <r>   -10.7289     0.5980     3.6637 </r>
       <r>   -10.6003     0.2121     3.6910 </r>
       <r>   -10.4718     0.4134     3.7441 </r>
       <r>   -10.3432     0.3966     3.7951 </r>
       <r>   -10.2146     0.4995     3.8594 </r>
       <r>   -10.0860     0.4747     3.9204 </r>
       <r>    -9.9574     0.5674     3.9934 </r>
       <r>    -9.8288     0.2669     4.0277 </r>
       <r>    -9.7002     0.8626     4.1387 </r>
       <r>    -9.5716     1.0610     4.2752 </r>
       <r>    -9.4430     0.6643     4.3606 </r>
       <r>    -9.3144     0.1241     4.3766 </r>
       <r>    -9.1859     1.3617     4.5517 </r>
       <r>    -9.0573     0.9468     4.6734 </r>
       <r>    -8.9287     0.6489     4.7571 </r>
       <r>    -8.8001     0.7845     4.8579 </r>
       <r>    -8.6715     0.9374     4.9785 </r>
       <r>    -8.5429     1.2633     5.1409 </r>
       <r>    -8.4143     1.4694     5.3299 </r>
       <r>    -8.2857     0.4700     5.3904 </r>
       <r>    -8.1571     0.5972     5.4671 </r>
       <r>    -8.0286     0.9571     5.5902 </r>
       <r>    -7.9000     1.0531     5.7256 </r>
       <r>    -7.7714     0.3250     5.7675 </r>
       <r>    -7.6428     0.7713     5.8667 </r>
       <r>    -7.5142     1.1071     6.0090 </r>
       <r>    -7.3856     0.3844     6.0586 </r>
       <r>    -7.2570     0.3947     6.1094 </r>
       <r>    -7.1284     0.9040     6.2256 </r>
       <r>    -6.9998     0.4701     6.2864 </r>
       <r>    -6.8712     0.7847     6.3873 </r>
       <r>    -6.7427     0.5673     6.4605 </r>
       <r>    -6.6141     0.6408     6.5429 </r>
       <r>    -6.4855     0.3175     6.5837 </r>
       <r>    -6.3569     0.3665     6.6308 </r>
       <r>    -6.2283     1.1858     6.7833 </r>
       <r>    -6.0997     0.5240     6.8507 </r>
       <r>    -5.9711     0.3240     6.8924 </r>
       <r>    -5.8425     0.3287     6.9346 </r>
       <r>    -5.7139     0.6698     7.0208 </r>
       <r>    -5.5854     0.7719     7.1201 </r>
       <r>    -5.4568     0.6586     7.2048 </r>
       <r>    -5.3282     0.3355     7.2479 </r>
       <r>    -5.1996     0.5181     7.3145 </r>
       <r>    -5.0710     0.2242     7.3434 </r>
       <r>    -4.9424     0.4654     7.4032 </r>
       <r>    -4.8138     0.6279     7.4840 </r>
       <r>    -4.6852     0.5284     7.5519 </r>
       <r>    -4.5566     0.5115     7.6177 </r>
       <r>    -4.4280     0.0939     7.6298 </r>
       <r>    -4.2995     0.3369     7.6731 </r>
       <r>    -4.1709     1.0303     7.8056 </r>
       <r>    -4.0423     0.0000     7.8056 </r>
       <r>    -3.9137     0.1620     7.8264 </r>
       <r>    -3.7851     0.0000     7.8264 </r>
       <r>    -3.6565     0.3240     7.8681 </r>
       <r>    -3.5279     0.3444     7.9123 </r>
       <r>    -3.3993     0.1398     7.9306 </r>
       <r>    -3.2707     0.0001     7.9306 </r>
       <r>    -3.1421     0.1619     7.9514 </r>
       <r>    -3.0136     0.0000     7.9514 </r>
       <r>    -2.8850     0.0795     7.9616 </r>
       <r>    -2.7564     0.2445     7.9931 </r>
       <r>    -2.6278     0.0000     7.9931 </r>
       <r>    -2.4992     0.0000     7.9931 </r>
       <r>    -2.3706     0.0000     7.9931 </r>
       <r>    -2.2420     0.0000     7.9931 </r>
       <r>    -2.1134     0.1080     8.0069 </r>
       <r>    -1.9848     0.0000     8.0069 </r>
       <r>    -1.8563     0.0000     8.0069 </r>
       <r>    -1.7277     0.0000     8.0069 </r>
       <r>    -1.5991     0.0000     8.0069 </r>
       <r>    -1.4705     0.3240     8.0486 </r>
       <r>    -1.3419     0.0000     8.0486 </r>
       <r>    -1.2133     0.1456     8.0673 </r>
       <r>    -1.0847     0.0164     8.0694 </r>
       <r>    -0.9561     0.0000     8.0694 </r>
       <r>    -0.8275     0.7278     8.1630 </r>
       <r>    -0.6989     0.2403     8.1939 </r>
       <r>    -0.5704     0.0083     8.1950 </r>
       <r>    -0.4418     0.6191     8.2746 </r>
       <r>    -0.3132     0.5917     8.3507 </r>
       <r>    -0.1846     0.7212     8.4434 </r>
       <r>    -0.0560     0.4113     8.4965 </r>
       <r>     0.0726     0.2274     8.5258 </r>
       <r>     0.2012     0.4194     8.5797 </r>
       <r>     0.3298     0.0064     8.5807 </r>
       <r>     0.4584     0.3176     8.6215 </r>
       <r>     0.5869     0.5212     8.6886 </r>
       <r>     0.7155     0.4508     8.7465 </r>
       <r>     0.8441     0.0000     8.7465 </r>
       <r>     0.9727     0.2160     8.7743 </r>
       <r>     1.1013     0.5056     8.8393 </r>
       <r>     1.2299     0.3085     8.8790 </r>
       <r>     1.3585     0.4549     8.9375 </r>
       <r>     1.4871     0.4464     8.9949 </r>
       <r>     1.6157     0.6908     9.0837 </r>
       <r>     1.7443     0.4382     9.1402 </r>
       <r>     1.8728     0.2059     9.1667 </r>
       <r>     2.0014     0.5008     9.2311 </r>
       <r>     2.1300     0.6634     9.3164 </r>
       <r>     2.2586     0.8069     9.4202 </r>
       <r>     2.3872     0.6559     9.5045 </r>
       <r>     2.5158     0.6739     9.5912 </r>
       <r>     2.6444     0.8518     9.7007 </r>
       <r>     2.7730     1.0606     9.8373 </r>
       <r>     2.9016     0.6716     9.9236 </r>
       <r>     3.0301     0.5053     9.9886 </r>
       <r>     3.1587     1.3205    10.1584 </r>
       <r>     3.2873     0.6326    10.2399 </r>
       <r>     3.4159     0.9718    10.3648 </r>
       <r>     3.5445     1.0903    10.5050 </r>
       <r>     3.6731     0.4496    10.5634 </r>
       <r>     3.8017     0.9339    10.6835 </r>
       <r>     3.9303     0.5716    10.7573 </r>
       <r>     4.0589     1.2775    10.9216 </r>
       <r>     4.1875     0.6963    11.0112 </r>
       <r>     4.3160     1.0995    11.1527 </r>
       <r>     4.4446     0.3332    11.1956 </r>
       <r>     4.5732     1.1447    11.3430 </r>
       <r>     4.7018     1.2478    11.5034 </r>
       <r>     4.8304     1.0269    11.6357 </r>
       <r>     4.9590     0.8733    11.7480 </r>
       <r>     5.0876     0.6704    11.8342 </r>
       <r>     5.2162     1.6049    12.0406 </r>
       <r>     5.3448     1.5069    12.2348 </r>
       <r>     5.4734     1.9240    12.4822 </r>
       <r>     5.6019     1.7366    12.7055 </r>
       <r>     5.7305     1.9157    12.9519 </r>
       <r>     5.8591     1.2297    13.1100 </r>
       <r>     5.9877     1.3435    13.2828 </r>
       <r>     6.1163     2.3808    13.5890 </r>
       <r>     6.2449     3.2474    14.0066 </r>
       <r>     6.3735     1.7001    14.2252 </r>
       <r>     6.5021     2.3689    14.5300 </r>
       <r>     6.6307     1.8466    14.7675 </r>
       <r>     6.7592     1.4881    14.9589 </r>
       <r>     6.8878     1.8057    15.1911 </r>
       <r>     7.0164     2.0206    15.4509 </r>
       <r>     7.1450     2.6247    15.7884 </r>
       <r>     7.2736     1.8590    16.0276 </r>
       <r>     7.4022     1.8077    16.2604 </r>
       <r>     7.5308     0.3990    16.3117 </r>
       <r>     7.6594     1.5617    16.5125 </r>
       <r>     7.7880     1.9867    16.7680 </r>
       <r>     7.9166     1.6235    16.9771 </r>
       <r>     8.0451     1.7101    17.1970 </r>
       <r>     8.1737     2.2718    17.4891 </r>
       <r>     8.3023     1.4789    17.6793 </r>
       <r>     8.4309     1.5513    17.8788 </r>
       <r>     8.5595     2.5154    18.2023 </r>
       <r>     8.6881     1.6329    18.4122 </r>
       <r>     8.8167     1.8053    18.6444 </r>
       <r>     8.9453     1.4109    18.8259 </r>
       <r>     9.0739     1.3490    18.9993 </r>
       <r>     9.2024     1.8522    19.2376 </r>
       <r>     9.3310     1.2373    19.3967 </r>
       <r>     9.4596     3.1430    19.8009 </r>
       <r>     9.5882     1.2104    19.9568 </r>
       <r>     9.7168     1.0318    20.0896 </r>
       <r>     9.8454     1.3225    20.2597 </r>
       <r>     9.9740     0.9781    20.3855 </r>
       <r>    10.1026     1.4803    20.5758 </r>
       <r>    10.2312     2.8603    20.9437 </r>
       <r>    10.3598     1.7539    21.1698 </r>
       <r>    10.4883     0.8769    21.2829 </r>
       <r>    10.6169     1.9556    21.5344 </r>
       <r>    10.7455     1.3614    21.7095 </r>
       <r>    10.8741     2.3245    22.0086 </r>
       <r>    11.0027     2.0072    22.2668 </r>
       <r>    11.1313     0.9577    22.3900 </r>
       <r>    11.2599     1.8775    22.6315 </r>
       <r>    11.3885     1.4124    22.8135 </r>
       <r>    11.5171     1.2994    22.9806 </r>
       <r>    11.6456     0.8761    23.0932 </r>
       <r>    11.7742     1.1705    23.2437 </r>
       <r>    11.9028     1.1823    23.3958 </r>
       <r>    12.0314     0.6335    23.4773 </r>
       <r>    12.1600     1.7427    23.7014 </r>
       <r>    12.2886     0.2176    23.7296 </r>
       <r>    12.4172     1.0398    23.8634 </r>
       <r>    12.5458     0.0906    23.8750 </r>
       <r>    12.6744     0.0000    23.8750 </r>
       <r>    12.8030     0.0051    23.8757 </r>
       <r>    12.9315     0.4296    23.9309 </r>
       <r>    13.0601     0.1593    23.9514 </r>
       <r>    13.1887     0.0542    23.9584 </r>
       <r>    13.3173     0.3239    24.0000 </r>
       <r>    13.4459     0.0000    24.0000 </r>
       <r>    13.5745     0.0000    24.0000 </r>
       <r>    13.7031     0.0000    24.0000 </r>
       <r>    13.8317     0.0000    24.0000 </r>
       <r>    13.9603     0.0000    24.0000 </r>
       <r>    14.0888     0.0000    24.0000 </r>
       <r>    14.2174     0.0000    24.0000 </r>
       <r>    14.3460     0.0000    24.0000 </r>
       <r>    14.4746     0.0000    24.0000 </r>
       <r>    14.6032     0.0000    24.0000 </r>
       <r>    14.7318     0.0000    24.0000 </r>
       <r>    14.8604     0.0000    24.0000 </r>
       <r>    14.9890     0.0000    24.0000 </r>
      </set>
     </set>
    </array>
   </total>
  </dos>
 </calculation>
 <structure name="finalpos" >
  <crystal>
   <varray name="basis" >
    <v>       2.45253800       0.00000000       0.00000000 </v>
    <v>      -1.22626900       2.12396000       0.00000000 </v>
    <v>       0.00000000       0.00000000      15.00000000 </v>
   </varray>
   <i name="volume">     78.13638916 </i>
   <varray name="rec_basis" >
    <v>       0.40774088       0.23540933       0.00000000 </v>
    <v>       0.00000000       0.47081866       0.00000000 </v>
    <v>       0.00000000       0.00000000       0.06666667 </v>
   </varray>
  </crystal>
  <varray name="positions" >
   <v>       0.00000000       0.00000000       0.50000000 </v>
   <v>       0.33333300       0.66666700       0.50000000 </v>
  </varray>
 </structure>
</modeling>
