 running on   48 total cores
 distrk:  each k-point on   48 cores,    1 groups
 distr:  one band on    8 cores,    6 groups
 using from now: INCAR     
 vasp.5.4.1 24Jun15 (build Nov 20 2020 10:29:34) complex                        
  
 POSCAR found type information on POSCAR  C 
 POSCAR found :  1 types and       2 ions
 scaLAPACK will be used

 ----------------------------------------------------------------------------- 
|                                                                             |
|  ADVICE TO THIS USER RUNNING 'VASP/VAMP'   (HEAR YOUR MASTER'S VOICE ...):  |
|                                                                             |
|      You have a (more or less) 'small supercell' and for smaller cells      |
|      it is recommended  to use the reciprocal-space projection scheme!      |
|      The real space optimization is not  efficient for small cells and it   |
|      is also less accurate ...                                              |
|      Therefore set LREAL=.FALSE. in the  INCAR file                         |
|                                                                             |
 ----------------------------------------------------------------------------- 

 LDA part: xc-table for Pade appr. of Perdew
 POSCAR, INCAR and KPOINTS ok, starting setup
 WARNING: small aliasing (wrap around) errors must be expected
 FFT: planning ...
 WAVECAR not read
 entering main loop
       N       E                     dE             d eps       ncg     rms          rms(c)
DAV:   1     0.360030744049E+02    0.36003E+02   -0.37548E+03  1464   0.497E+02
DAV:   2    -0.181888219372E+02   -0.54192E+02   -0.48686E+02  1992   0.979E+01
DAV:   3    -0.197796235730E+02   -0.15908E+01   -0.15907E+01  2244   0.234E+01
DAV:   4    -0.197839871207E+02   -0.43635E-02   -0.43635E-02  2028   0.124E+00
DAV:   5    -0.197839951769E+02   -0.80563E-05   -0.80553E-05  2160   0.478E-02    0.645E+00
DAV:   6    -0.188230229311E+02    0.96097E+00   -0.93757E-01  1824   0.466E+00    0.379E+00
DAV:   7    -0.184530874640E+02    0.36994E+00   -0.12211E+00  2136   0.520E+00    0.979E-01
DAV:   8    -0.184450239513E+02    0.80635E-02   -0.98384E-03  2004   0.653E-01    0.938E-02
DAV:   9    -0.184431033625E+02    0.19206E-02   -0.12674E-03  1908   0.139E-01    0.734E-02
DAV:  10    -0.184413621022E+02    0.17413E-02   -0.28335E-03  1704   0.174E-01    0.396E-02
DAV:  11    -0.184416467300E+02   -0.28463E-03   -0.17025E-04  1572   0.585E-02    0.648E-02
DAV:  12    -0.184418343275E+02   -0.18760E-03   -0.35326E-05  1668   0.299E-02    0.103E-02
DAV:  13    -0.184425707361E+02   -0.73641E-03   -0.19985E-04  1644   0.370E-02    0.580E-03
DAV:  14    -0.184426218905E+02   -0.51154E-04   -0.58833E-07  2016   0.307E-03    0.287E-03
DAV:  15    -0.184427283548E+02   -0.10646E-03   -0.91257E-06  1572   0.750E-03    0.893E-04
DAV:  16    -0.184427357945E+02   -0.74397E-05   -0.17428E-07  1620   0.157E-03
   1 F= -.18442736E+02 E0= -.18442697E+02  d E =-.783596E-04
