<?xml version="1.0" encoding="ISO-8859-1"?>
<modeling>
 <generator>
  <i name="program" type="string">vasp </i>
  <i name="version" type="string">5.4.1  </i>
  <i name="subversion" type="string">24Jun15 (build Nov 20 2020 10:29:34) complex                          parallel </i>
  <i name="platform" type="string">IFC91_ompi </i>
  <i name="date" type="string">2021 09 09 </i>
  <i name="time" type="string">14:53:29 </i>
 </generator>
 <incar>
  <i type="string" name="PREC">a</i>
  <i type="string" name="ALGO"> Normal</i>
  <i type="int" name="ISPIN">     1</i>
  <i type="int" name="ICHARG">     2</i>
  <i type="int" name="NELM">   250</i>
  <i type="int" name="NELMDL">    -5</i>
  <i type="int" name="NELMIN">     6</i>
  <i type="int" name="IBRION">     2</i>
  <i name="EDIFF">      0.00001000</i>
  <i name="EDIFFG">     -0.01000000</i>
  <i type="int" name="NSW">   200</i>
  <i type="int" name="ISIF">     2</i>
  <i name="ENCUT">    520.00000000</i>
  <i name="POTIM">      0.30000000</i>
  <i type="logical" name="LREAL"> F  </i>
  <i type="int" name="ISMEAR">     0</i>
  <i name="SIGMA">      0.02000000</i>
  <i type="logical" name="LWAVE"> F  </i>
  <i type="logical" name="LCHARG"> F  </i>
  <i type="logical" name="LAECHG"> F  </i>
  <v type="int" name="KPOINT_BSE">    -1     0     0     0</v>
  <i type="int" name="NELM">   250</i>
 </incar>
 <kpoints>
  <generation param="Gamma">
   <v type="int" name="divisions">      22       15        1 </v>
   <v name="usershift">      0.00000000       0.00000000       0.00000000 </v>
   <v name="genvec1">      0.04545455       0.00000000       0.00000000 </v>
   <v name="genvec2">      0.00000000       0.06666667       0.00000000 </v>
   <v name="genvec3">      0.00000000       0.00000000       1.00000000 </v>
   <v name="shift">      0.00000000       0.00000000       0.00000000 </v>
  </generation>
  <varray name="kpointlist" >
   <v>       0.00000000       0.00000000       0.00000000 </v>
   <v>       0.04545455       0.00000000       0.00000000 </v>
   <v>       0.09090909       0.00000000       0.00000000 </v>
   <v>       0.13636364       0.00000000       0.00000000 </v>
   <v>       0.18181818       0.00000000       0.00000000 </v>
   <v>       0.22727273       0.00000000       0.00000000 </v>
   <v>       0.27272727       0.00000000       0.00000000 </v>
   <v>       0.31818182       0.00000000       0.00000000 </v>
   <v>       0.36363636       0.00000000       0.00000000 </v>
   <v>       0.40909091       0.00000000       0.00000000 </v>
   <v>       0.45454545       0.00000000       0.00000000 </v>
   <v>       0.50000000       0.00000000       0.00000000 </v>
   <v>       0.00000000       0.06666667       0.00000000 </v>
   <v>       0.04545455       0.06666667       0.00000000 </v>
   <v>       0.09090909       0.06666667       0.00000000 </v>
   <v>       0.13636364       0.06666667       0.00000000 </v>
   <v>       0.18181818       0.06666667       0.00000000 </v>
   <v>       0.22727273       0.06666667       0.00000000 </v>
   <v>       0.27272727       0.06666667       0.00000000 </v>
   <v>       0.31818182       0.06666667       0.00000000 </v>
   <v>       0.36363636       0.06666667       0.00000000 </v>
   <v>       0.40909091       0.06666667       0.00000000 </v>
   <v>       0.45454545       0.06666667       0.00000000 </v>
   <v>       0.50000000       0.06666667       0.00000000 </v>
   <v>      -0.45454545       0.06666667       0.00000000 </v>
   <v>      -0.40909091       0.06666667       0.00000000 </v>
   <v>      -0.36363636       0.06666667       0.00000000 </v>
   <v>      -0.31818182       0.06666667       0.00000000 </v>
   <v>      -0.27272727       0.06666667       0.00000000 </v>
   <v>      -0.22727273       0.06666667       0.00000000 </v>
   <v>      -0.18181818       0.06666667       0.00000000 </v>
   <v>      -0.13636364       0.06666667       0.00000000 </v>
   <v>      -0.09090909       0.06666667       0.00000000 </v>
   <v>      -0.04545455       0.06666667       0.00000000 </v>
   <v>       0.00000000       0.13333333       0.00000000 </v>
   <v>       0.04545455       0.13333333       0.00000000 </v>
   <v>       0.09090909       0.13333333       0.00000000 </v>
   <v>       0.13636364       0.13333333       0.00000000 </v>
   <v>       0.18181818       0.13333333       0.00000000 </v>
   <v>       0.22727273       0.13333333       0.00000000 </v>
   <v>       0.27272727       0.13333333       0.00000000 </v>
   <v>       0.31818182       0.13333333       0.00000000 </v>
   <v>       0.36363636       0.13333333       0.00000000 </v>
   <v>       0.40909091       0.13333333       0.00000000 </v>
   <v>       0.45454545       0.13333333       0.00000000 </v>
   <v>       0.50000000       0.13333333       0.00000000 </v>
   <v>      -0.45454545       0.13333333       0.00000000 </v>
   <v>      -0.40909091       0.13333333       0.00000000 </v>
   <v>      -0.36363636       0.13333333       0.00000000 </v>
   <v>      -0.31818182       0.13333333       0.00000000 </v>
   <v>      -0.27272727       0.13333333       0.00000000 </v>
   <v>      -0.22727273       0.13333333       0.00000000 </v>
   <v>      -0.18181818       0.13333333       0.00000000 </v>
   <v>      -0.13636364       0.13333333       0.00000000 </v>
   <v>      -0.09090909       0.13333333       0.00000000 </v>
   <v>      -0.04545455       0.13333333       0.00000000 </v>
   <v>       0.00000000       0.20000000       0.00000000 </v>
   <v>       0.04545455       0.20000000       0.00000000 </v>
   <v>       0.09090909       0.20000000       0.00000000 </v>
   <v>       0.13636364       0.20000000       0.00000000 </v>
   <v>       0.18181818       0.20000000       0.00000000 </v>
   <v>       0.22727273       0.20000000       0.00000000 </v>
   <v>       0.27272727       0.20000000       0.00000000 </v>
   <v>       0.31818182       0.20000000       0.00000000 </v>
   <v>       0.36363636       0.20000000       0.00000000 </v>
   <v>       0.40909091       0.20000000       0.00000000 </v>
   <v>       0.45454545       0.20000000       0.00000000 </v>
   <v>       0.50000000       0.20000000       0.00000000 </v>
   <v>      -0.45454545       0.20000000       0.00000000 </v>
   <v>      -0.40909091       0.20000000       0.00000000 </v>
   <v>      -0.36363636       0.20000000       0.00000000 </v>
   <v>      -0.31818182       0.20000000       0.00000000 </v>
   <v>      -0.27272727       0.20000000       0.00000000 </v>
   <v>      -0.22727273       0.20000000       0.00000000 </v>
   <v>      -0.18181818       0.20000000       0.00000000 </v>
   <v>      -0.13636364       0.20000000       0.00000000 </v>
   <v>      -0.09090909       0.20000000       0.00000000 </v>
   <v>      -0.04545455       0.20000000       0.00000000 </v>
   <v>       0.00000000       0.26666667       0.00000000 </v>
   <v>       0.04545455       0.26666667       0.00000000 </v>
   <v>       0.09090909       0.26666667       0.00000000 </v>
   <v>       0.13636364       0.26666667       0.00000000 </v>
   <v>       0.18181818       0.26666667       0.00000000 </v>
   <v>       0.22727273       0.26666667       0.00000000 </v>
   <v>       0.27272727       0.26666667       0.00000000 </v>
   <v>       0.31818182       0.26666667       0.00000000 </v>
   <v>       0.36363636       0.26666667       0.00000000 </v>
   <v>       0.40909091       0.26666667       0.00000000 </v>
   <v>       0.45454545       0.26666667       0.00000000 </v>
   <v>       0.50000000       0.26666667       0.00000000 </v>
   <v>      -0.45454545       0.26666667       0.00000000 </v>
   <v>      -0.40909091       0.26666667       0.00000000 </v>
   <v>      -0.36363636       0.26666667       0.00000000 </v>
   <v>      -0.31818182       0.26666667       0.00000000 </v>
   <v>      -0.27272727       0.26666667       0.00000000 </v>
   <v>      -0.22727273       0.26666667       0.00000000 </v>
   <v>      -0.18181818       0.26666667       0.00000000 </v>
   <v>      -0.13636364       0.26666667       0.00000000 </v>
   <v>      -0.09090909       0.26666667       0.00000000 </v>
   <v>      -0.04545455       0.26666667       0.00000000 </v>
   <v>       0.00000000       0.33333333       0.00000000 </v>
   <v>       0.04545455       0.33333333       0.00000000 </v>
   <v>       0.09090909       0.33333333       0.00000000 </v>
   <v>       0.13636364       0.33333333       0.00000000 </v>
   <v>       0.18181818       0.33333333       0.00000000 </v>
   <v>       0.22727273       0.33333333       0.00000000 </v>
   <v>       0.27272727       0.33333333       0.00000000 </v>
   <v>       0.31818182       0.33333333       0.00000000 </v>
   <v>       0.36363636       0.33333333       0.00000000 </v>
   <v>       0.40909091       0.33333333       0.00000000 </v>
   <v>       0.45454545       0.33333333       0.00000000 </v>
   <v>       0.50000000       0.33333333       0.00000000 </v>
   <v>      -0.45454545       0.33333333       0.00000000 </v>
   <v>      -0.40909091       0.33333333       0.00000000 </v>
   <v>      -0.36363636       0.33333333       0.00000000 </v>
   <v>      -0.31818182       0.33333333       0.00000000 </v>
   <v>      -0.27272727       0.33333333       0.00000000 </v>
   <v>      -0.22727273       0.33333333       0.00000000 </v>
   <v>      -0.18181818       0.33333333       0.00000000 </v>
   <v>      -0.13636364       0.33333333       0.00000000 </v>
   <v>      -0.09090909       0.33333333       0.00000000 </v>
   <v>      -0.04545455       0.33333333       0.00000000 </v>
   <v>       0.00000000       0.40000000       0.00000000 </v>
   <v>       0.04545455       0.40000000       0.00000000 </v>
   <v>       0.09090909       0.40000000       0.00000000 </v>
   <v>       0.13636364       0.40000000       0.00000000 </v>
   <v>       0.18181818       0.40000000       0.00000000 </v>
   <v>       0.22727273       0.40000000       0.00000000 </v>
   <v>       0.27272727       0.40000000       0.00000000 </v>
   <v>       0.31818182       0.40000000       0.00000000 </v>
   <v>       0.36363636       0.40000000       0.00000000 </v>
   <v>       0.40909091       0.40000000       0.00000000 </v>
   <v>       0.45454545       0.40000000       0.00000000 </v>
   <v>       0.50000000       0.40000000       0.00000000 </v>
   <v>      -0.45454545       0.40000000       0.00000000 </v>
   <v>      -0.40909091       0.40000000       0.00000000 </v>
   <v>      -0.36363636       0.40000000       0.00000000 </v>
   <v>      -0.31818182       0.40000000       0.00000000 </v>
   <v>      -0.27272727       0.40000000       0.00000000 </v>
   <v>      -0.22727273       0.40000000       0.00000000 </v>
   <v>      -0.18181818       0.40000000       0.00000000 </v>
   <v>      -0.13636364       0.40000000       0.00000000 </v>
   <v>      -0.09090909       0.40000000       0.00000000 </v>
   <v>      -0.04545455       0.40000000       0.00000000 </v>
   <v>       0.00000000       0.46666667       0.00000000 </v>
   <v>       0.04545455       0.46666667       0.00000000 </v>
   <v>       0.09090909       0.46666667       0.00000000 </v>
   <v>       0.13636364       0.46666667       0.00000000 </v>
   <v>       0.18181818       0.46666667       0.00000000 </v>
   <v>       0.22727273       0.46666667       0.00000000 </v>
   <v>       0.27272727       0.46666667       0.00000000 </v>
   <v>       0.31818182       0.46666667       0.00000000 </v>
   <v>       0.36363636       0.46666667       0.00000000 </v>
   <v>       0.40909091       0.46666667       0.00000000 </v>
   <v>       0.45454545       0.46666667       0.00000000 </v>
   <v>       0.50000000       0.46666667       0.00000000 </v>
   <v>      -0.45454545       0.46666667       0.00000000 </v>
   <v>      -0.40909091       0.46666667       0.00000000 </v>
   <v>      -0.36363636       0.46666667       0.00000000 </v>
   <v>      -0.31818182       0.46666667       0.00000000 </v>
   <v>      -0.27272727       0.46666667       0.00000000 </v>
   <v>      -0.22727273       0.46666667       0.00000000 </v>
   <v>      -0.18181818       0.46666667       0.00000000 </v>
   <v>      -0.13636364       0.46666667       0.00000000 </v>
   <v>      -0.09090909       0.46666667       0.00000000 </v>
   <v>      -0.04545455       0.46666667       0.00000000 </v>
  </varray>
  <varray name="weights" >
   <v>       0.00303030 </v>
   <v>       0.00606061 </v>
   <v>       0.00606061 </v>
   <v>       0.00606061 </v>
   <v>       0.00606061 </v>
   <v>       0.00606061 </v>
   <v>       0.00606061 </v>
   <v>       0.00606061 </v>
   <v>       0.00606061 </v>
   <v>       0.00606061 </v>
   <v>       0.00606061 </v>
   <v>       0.00303030 </v>
   <v>       0.00606061 </v>
   <v>       0.00606061 </v>
   <v>       0.00606061 </v>
   <v>       0.00606061 </v>
   <v>       0.00606061 </v>
   <v>       0.00606061 </v>
   <v>       0.00606061 </v>
   <v>       0.00606061 </v>
   <v>       0.00606061 </v>
   <v>       0.00606061 </v>
   <v>       0.00606061 </v>
   <v>       0.00606061 </v>
   <v>       0.00606061 </v>
   <v>       0.00606061 </v>
   <v>       0.00606061 </v>
   <v>       0.00606061 </v>
   <v>       0.00606061 </v>
   <v>       0.00606061 </v>
   <v>       0.00606061 </v>
   <v>       0.00606061 </v>
   <v>       0.00606061 </v>
   <v>       0.00606061 </v>
   <v>       0.00606061 </v>
   <v>       0.00606061 </v>
   <v>       0.00606061 </v>
   <v>       0.00606061 </v>
   <v>       0.00606061 </v>
   <v>       0.00606061 </v>
   <v>       0.00606061 </v>
   <v>       0.00606061 </v>
   <v>       0.00606061 </v>
   <v>       0.00606061 </v>
   <v>       0.00606061 </v>
   <v>       0.00606061 </v>
   <v>       0.00606061 </v>
   <v>       0.00606061 </v>
   <v>       0.00606061 </v>
   <v>       0.00606061 </v>
   <v>       0.00606061 </v>
   <v>       0.00606061 </v>
   <v>       0.00606061 </v>
   <v>       0.00606061 </v>
   <v>       0.00606061 </v>
   <v>       0.00606061 </v>
   <v>       0.00606061 </v>
   <v>       0.00606061 </v>
   <v>       0.00606061 </v>
   <v>       0.00606061 </v>
   <v>       0.00606061 </v>
   <v>       0.00606061 </v>
   <v>       0.00606061 </v>
   <v>       0.00606061 </v>
   <v>       0.00606061 </v>
   <v>       0.00606061 </v>
   <v>       0.00606061 </v>
   <v>       0.00606061 </v>
   <v>       0.00606061 </v>
   <v>       0.00606061 </v>
   <v>       0.00606061 </v>
   <v>       0.00606061 </v>
   <v>       0.00606061 </v>
   <v>       0.00606061 </v>
   <v>       0.00606061 </v>
   <v>       0.00606061 </v>
   <v>       0.00606061 </v>
   <v>       0.00606061 </v>
   <v>       0.00606061 </v>
   <v>       0.00606061 </v>
   <v>       0.00606061 </v>
   <v>       0.00606061 </v>
   <v>       0.00606061 </v>
   <v>       0.00606061 </v>
   <v>       0.00606061 </v>
   <v>       0.00606061 </v>
   <v>       0.00606061 </v>
   <v>       0.00606061 </v>
   <v>       0.00606061 </v>
   <v>       0.00606061 </v>
   <v>       0.00606061 </v>
   <v>       0.00606061 </v>
   <v>       0.00606061 </v>
   <v>       0.00606061 </v>
   <v>       0.00606061 </v>
   <v>       0.00606061 </v>
   <v>       0.00606061 </v>
   <v>       0.00606061 </v>
   <v>       0.00606061 </v>
   <v>       0.00606061 </v>
   <v>       0.00606061 </v>
   <v>       0.00606061 </v>
   <v>       0.00606061 </v>
   <v>       0.00606061 </v>
   <v>       0.00606061 </v>
   <v>       0.00606061 </v>
   <v>       0.00606061 </v>
   <v>       0.00606061 </v>
   <v>       0.00606061 </v>
   <v>       0.00606061 </v>
   <v>       0.00606061 </v>
   <v>       0.00606061 </v>
   <v>       0.00606061 </v>
   <v>       0.00606061 </v>
   <v>       0.00606061 </v>
   <v>       0.00606061 </v>
   <v>       0.00606061 </v>
   <v>       0.00606061 </v>
   <v>       0.00606061 </v>
   <v>       0.00606061 </v>
   <v>       0.00606061 </v>
   <v>       0.00606061 </v>
   <v>       0.00606061 </v>
   <v>       0.00606061 </v>
   <v>       0.00606061 </v>
   <v>       0.00606061 </v>
   <v>       0.00606061 </v>
   <v>       0.00606061 </v>
   <v>       0.00606061 </v>
   <v>       0.00606061 </v>
   <v>       0.00606061 </v>
   <v>       0.00606061 </v>
   <v>       0.00606061 </v>
   <v>       0.00606061 </v>
   <v>       0.00606061 </v>
   <v>       0.00606061 </v>
   <v>       0.00606061 </v>
   <v>       0.00606061 </v>
   <v>       0.00606061 </v>
   <v>       0.00606061 </v>
   <v>       0.00606061 </v>
   <v>       0.00606061 </v>
   <v>       0.00606061 </v>
   <v>       0.00606061 </v>
   <v>       0.00606061 </v>
   <v>       0.00606061 </v>
   <v>       0.00606061 </v>
   <v>       0.00606061 </v>
   <v>       0.00606061 </v>
   <v>       0.00606061 </v>
   <v>       0.00606061 </v>
   <v>       0.00606061 </v>
   <v>       0.00606061 </v>
   <v>       0.00606061 </v>
   <v>       0.00606061 </v>
   <v>       0.00606061 </v>
   <v>       0.00606061 </v>
   <v>       0.00606061 </v>
   <v>       0.00606061 </v>
   <v>       0.00606061 </v>
   <v>       0.00606061 </v>
   <v>       0.00606061 </v>
   <v>       0.00606061 </v>
   <v>       0.00606061 </v>
   <v>       0.00606061 </v>
   <v>       0.00606061 </v>
  </varray>
 </kpoints>
 <parameters>
  <separator name="general" >
   <i type="string" name="SYSTEM">unknown system</i>
   <i type="logical" name="LCOMPAT"> F  </i>
  </separator>
  <separator name="electronic" >
   <i type="string" name="PREC">a</i>
   <i name="ENMAX">    520.00000000</i>
   <i name="ENAUG">    342.92400000</i>
   <i name="EDIFF">      0.00001000</i>
   <i type="int" name="IALGO">    38</i>
   <i type="int" name="IWAVPR">    11</i>
   <i type="int" name="NBANDS">    16</i>
   <i name="NELECT">     20.00000000</i>
   <i type="int" name="TURBO">     0</i>
   <i type="int" name="IRESTART">     0</i>
   <i type="int" name="NREBOOT">     0</i>
   <i type="int" name="NMIN">     0</i>
   <i name="EREF">      0.00000000</i>
   <separator name="electronic smearing" >
    <i type="int" name="ISMEAR">     0</i>
    <i name="SIGMA">      0.02000000</i>
    <i name="KSPACING">      0.50000000</i>
    <i type="logical" name="KGAMMA"> T  </i>
   </separator>
   <separator name="electronic projectors" >
    <i type="logical" name="LREAL"> F  </i>
    <v name="ROPT">      0.00000000</v>
    <i type="int" name="LMAXPAW">  -100</i>
    <i type="int" name="LMAXMIX">     2</i>
    <i type="logical" name="NLSPLINE"> F  </i>
   </separator>
   <separator name="electronic startup" >
    <i type="int" name="ISTART">     0</i>
    <i type="int" name="ICHARG">     2</i>
    <i type="int" name="INIWAV">     1</i>
   </separator>
   <separator name="electronic spin" >
    <i type="int" name="ISPIN">     1</i>
    <i type="logical" name="LNONCOLLINEAR"> F  </i>
    <v name="MAGMOM">      1.00000000      1.00000000      1.00000000      1.00000000</v>
    <i name="NUPDOWN">     -1.00000000</i>
    <i type="logical" name="LSORBIT"> F  </i>
    <v name="SAXIS">      0.00000000      0.00000000      1.00000000</v>
    <i type="logical" name="LSPIRAL"> F  </i>
    <v name="QSPIRAL">      0.00000000      0.00000000      0.00000000</v>
    <i type="logical" name="LZEROZ"> F  </i>
   </separator>
   <separator name="electronic exchange-correlation" >
    <i type="logical" name="LASPH"> F  </i>
    <i type="logical" name="LMETAGGA"> F  </i>
   </separator>
   <separator name="electronic convergence" >
    <i type="int" name="NELM">   250</i>
    <i type="int" name="NELMDL">    -5</i>
    <i type="int" name="NELMIN">     6</i>
    <i name="ENINI">    520.00000000</i>
    <separator name="electronic convergence detail" >
     <i type="logical" name="LDIAG"> T  </i>
     <i type="logical" name="LSUBROT"> F  </i>
     <i name="WEIMIN">      0.00100000</i>
     <i name="EBREAK">      0.00000016</i>
     <i name="DEPER">      0.30000000</i>
     <i type="int" name="NRMM">     4</i>
     <i name="TIME">      0.40000000</i>
    </separator>
   </separator>
   <separator name="electronic mixer" >
    <i name="AMIX">      0.40000000</i>
    <i name="BMIX">      1.00000000</i>
    <i name="AMIN">      0.10000000</i>
    <i name="AMIX_MAG">      1.60000000</i>
    <i name="BMIX_MAG">      1.00000000</i>
    <separator name="electronic mixer details" >
     <i type="int" name="IMIX">     4</i>
     <i type="logical" name="MIXFIRST"> F  </i>
     <i type="int" name="MAXMIX">   -45</i>
     <i name="WC">    100.00000000</i>
     <i type="int" name="INIMIX">     1</i>
     <i type="int" name="MIXPRE">     1</i>
     <i type="int" name="MREMOVE">     5</i>
    </separator>
   </separator>
   <separator name="electronic dipolcorrection" >
    <i type="logical" name="LDIPOL"> F  </i>
    <i type="logical" name="LMONO"> F  </i>
    <i type="int" name="IDIPOL">     0</i>
    <i name="EPSILON">      1.00000000</i>
    <v name="DIPOL">   -100.00000000   -100.00000000   -100.00000000</v>
    <i name="EFIELD">      0.00000000</i>
   </separator>
  </separator>
  <separator name="grids" >
   <i type="int" name="NGX">    24</i>
   <i type="int" name="NGY">    36</i>
   <i type="int" name="NGZ">   150</i>
   <i type="int" name="NGXF">    48</i>
   <i type="int" name="NGYF">    72</i>
   <i type="int" name="NGZF">   300</i>
   <i type="logical" name="ADDGRID"> F  </i>
  </separator>
  <separator name="ionic" >
   <i type="int" name="NSW">   200</i>
   <i type="int" name="IBRION">     2</i>
   <i type="int" name="ISIF">     2</i>
   <i name="PSTRESS">      0.00000000</i>
   <i name="EDIFFG">     -0.01000000</i>
   <i type="int" name="NFREE">     1</i>
   <i name="POTIM">      0.30000000</i>
   <i name="SMASS">     -3.00000000</i>
   <i name="SCALEE">      1.00000000</i>
  </separator>
  <separator name="ionic md" >
   <i name="TEBEG">      0.00010000</i>
   <i name="TEEND">      0.00010000</i>
   <i type="int" name="NBLOCK">     1</i>
   <i type="int" name="KBLOCK">   200</i>
   <i type="int" name="NPACO">   256</i>
   <i name="APACO">     16.00000000</i>
  </separator>
  <separator name="symmetry" >
   <i type="int" name="ISYM">     2</i>
   <i name="SYMPREC">      0.00001000</i>
  </separator>
  <separator name="dos" >
   <i type="logical" name="LORBIT"> F  </i>
   <v name="RWIGS">     -1.00000000</v>
   <i type="int" name="NEDOS">   301</i>
   <i name="EMIN">     10.00000000</i>
   <i name="EMAX">    -10.00000000</i>
   <i name="EFERMI">      0.00000000</i>
  </separator>
  <separator name="writing" >
   <i type="int" name="NWRITE">     2</i>
   <i type="logical" name="LWAVE"> F  </i>
   <i type="logical" name="LCHARG"> F  </i>
   <i type="logical" name="LPARD"> F  </i>
   <i type="logical" name="LVTOT"> F  </i>
   <i type="logical" name="LVHAR"> F  </i>
   <i type="logical" name="LELF"> F  </i>
   <i type="logical" name="LOPTICS"> F  </i>
   <v name="STM">      0.00000000      0.00000000      0.00000000      0.00000000      0.00000000      0.00000000      0.00000000</v>
  </separator>
  <separator name="performance" >
   <i type="int" name="NPAR">     4</i>
   <i type="int" name="NSIM">     4</i>
   <i type="int" name="NBLK">    -1</i>
   <i type="logical" name="LPLANE"> T  </i>
   <i type="logical" name="LSCALAPACK"> T  </i>
   <i type="logical" name="LSCAAWARE"> F  </i>
   <i type="logical" name="LSCALU"> F  </i>
   <i type="logical" name="LASYNC"> F  </i>
   <i type="logical" name="LORBITALREAL"> F  </i>
  </separator>
  <separator name="miscellaneous" >
   <i type="int" name="IDIOT">     3</i>
   <i type="logical" name="LMUSIC"> F  </i>
   <v name="POMASS">     30.97400000</v>
   <v name="DARWINR">      0.00000000</v>
   <v name="DARWINV">      1.00000000</v>
   <i type="logical" name="LCORR"> T  </i>
  </separator>
  <i type="logical" name="GGA_COMPAT"> T  </i>
  <i type="logical" name="LBERRY"> F  </i>
  <i type="int" name="ICORELEVEL">     0</i>
  <i type="logical" name="LDAU"> F  </i>
  <i type="int" name="I_CONSTRAINED_M">     0</i>
  <separator name="electronic exchange-correlation" >
   <i type="string" name="GGA">--</i>
   <i type="int" name="VOSKOWN">     0</i>
   <i type="logical" name="LHFCALC"> F  </i>
   <i type="string" name="PRECFOCK"></i>
   <i type="logical" name="LSYMGRAD"> F  </i>
   <i type="logical" name="LHFONE"> F  </i>
   <i type="logical" name="LRHFCALC"> F  </i>
   <i type="logical" name="LTHOMAS"> F  </i>
   <i type="logical" name="LMODELHF"> F  </i>
   <i name="ENCUT4O">     -1.00000000</i>
   <i type="int" name="EXXOEP">     0</i>
   <i type="int" name="FOURORBIT">     0</i>
   <i name="AEXX">      0.00000000</i>
   <i name="HFALPHA">      0.00000000</i>
   <i name="MCALPHA">      0.00000000</i>
   <i name="ALDAX">      1.00000000</i>
   <i name="AGGAX">      1.00000000</i>
   <i name="ALDAC">      1.00000000</i>
   <i name="AGGAC">      1.00000000</i>
   <i type="int" name="NKREDX">     1</i>
   <i type="int" name="NKREDY">     1</i>
   <i type="int" name="NKREDZ">     1</i>
   <i type="logical" name="SHIFTRED"> F  </i>
   <i type="logical" name="ODDONLY"> F  </i>
   <i type="logical" name="EVENONLY"> F  </i>
   <i type="int" name="LMAXFOCK">     0</i>
   <i type="int" name="NMAXFOCKAE">     0</i>
   <i type="logical" name="LFOCKAEDFT"> F  </i>
   <i name="HFSCREEN">      0.00000000</i>
   <i name="HFSCREENC">      0.00000000</i>
   <i type="int" name="NBANDSGWLOW">     0</i>
  </separator>
  <separator name="vdW DFT" >
   <i type="logical" name="LUSE_VDW"> F  </i>
   <i name="Zab_VDW">     -0.84910000</i>
   <i name="PARAM1">      0.12340000</i>
   <i name="PARAM2">      1.00000000</i>
   <i name="PARAM3">      0.00000000</i>
  </separator>
  <separator name="model GW" >
   <i type="int" name="MODEL_GW">     0</i>
   <i name="MODEL_EPS0">     45.55865497</i>
   <i name="MODEL_ALPHA">      1.00000000</i>
  </separator>
  <separator name="linear response parameters" >
   <i type="logical" name="LEPSILON"> F  </i>
   <i type="logical" name="LRPA"> F  </i>
   <i type="logical" name="LNABLA"> F  </i>
   <i type="logical" name="LVEL"> F  </i>
   <i type="int" name="KINTER">     0</i>
   <i name="CSHIFT">      0.10000000</i>
   <i name="OMEGAMAX">     -1.00000000</i>
   <i name="DEG_THRESHOLD">      0.00200000</i>
  </separator>
  <separator name="orbital magnetization" >
   <i type="logical" name="NUCIND"> F  </i>
   <v name="MAGPOS">      0.00000000      0.00000000      0.00000000</v>
   <i type="logical" name="LNICSALL"> T  </i>
   <i type="logical" name="ORBITALMAG"> F  </i>
   <i type="logical" name="LMAGBLOCH"> F  </i>
   <i type="logical" name="LCHIMAG"> F  </i>
   <i type="logical" name="LGAUGE"> T  </i>
   <i type="int" name="MAGATOM">     0</i>
   <v name="MAGDIPOL">      0.00000000      0.00000000      0.00000000</v>
   <v name="AVECCONST">      0.00000000      0.00000000      0.00000000</v>
  </separator>
  <separator name="response functions" >
   <i type="logical" name="LADDER"> F  </i>
   <i type="logical" name="LFXC"> F  </i>
   <i type="logical" name="LHARTREE"> T  </i>
   <i type="int" name="IBSE">     0</i>
   <v type="int" name="KPOINT">    -1     0     0     0</v>
   <i type="logical" name="LTCTE"> F  </i>
   <i type="logical" name="LTETE"> F  </i>
   <i type="logical" name="LTRIPLET"> F  </i>
   <i type="logical" name="LFXCEPS"> F  </i>
   <i type="logical" name="LFXHEG"> F  </i>
   <i type="int" name="NATURALO">     0</i>
   <i type="logical" name="L2ORDER"> F  </i>
   <i type="logical" name="LUSEW"> F  </i>
   <i name="ENCUTGW">     -2.00000000</i>
   <i name="ENCUTGWSOFT">     -2.00000000</i>
   <i name="ENCUTLF">     -1.00000000</i>
   <i type="int" name="LMAXMP2">    -1</i>
   <i name="SCISSOR">      0.00000000</i>
   <i type="int" name="NOMEGA">     0</i>
   <i type="int" name="NOMEGAR">     0</i>
   <i type="int" name="NBANDSGW">    -1</i>
   <i type="int" name="NBANDSO">    -1</i>
   <i type="int" name="NBANDSV">    -1</i>
   <i type="int" name="NELM">   250</i>
   <i type="int" name="NELMHF">     1</i>
   <i type="int" name="DIM">     3</i>
   <i type="int" name="ANTIRES">     0</i>
   <i name="OMEGAMAX">    -30.00000000</i>
   <i name="OMEGAMIN">    -30.00000000</i>
   <i name="OMEGATL">   -200.00000000</i>
   <i type="int" name="OMEGAGRID">     0</i>
   <i name="CSHIFT">     -0.10000000</i>
   <i type="logical" name="SELFENERGY"> F  </i>
   <i type="logical" name="LSPECTRAL"> F  </i>
   <i type="logical" name="LSPECTRALGW"> F  </i>
   <i type="logical" name="LSINGLES"> F  </i>
   <i type="logical" name="LFERMIGW"> F  </i>
   <i type="logical" name="ODDONLYGW"> F  </i>
   <i type="logical" name="EVENONLYGW"> F  </i>
   <i type="int" name="NKREDLFX">     1</i>
   <i type="int" name="NKREDLFY">     1</i>
   <i type="int" name="NKREDLFZ">     1</i>
   <i type="int" name="MAXMEM">  1800</i>
   <i type="int" name="TELESCOPE">     0</i>
   <i type="int" name="TAUPAR">     1</i>
   <i type="int" name="OMEGAPAR">    -1</i>
   <i name="LAMBDA">      1.00000000</i>
  </separator>
  <separator name="External order field" >
   <i name="OFIELD_KAPPA">      0.00000000</i>
   <v name="OFIELD_K">      0.00000000      0.00000000      0.00000000</v>
   <i name="OFIELD_Q6_NEAR">      0.00000000</i>
   <i name="OFIELD_Q6_FAR">      0.00000000</i>
   <i name="OFIELD_A">      0.00000000</i>
  </separator>
 </parameters>
 <atominfo>
  <atoms>       4 </atoms>
  <types>       1 </types>
  <array name="atoms" >
   <dimension dim="1">ion</dimension>
   <field type="string">element</field>
   <field type="int">atomtype</field>
   <set>
    <rc><c>P </c><c>   1</c></rc>
    <rc><c>P </c><c>   1</c></rc>
    <rc><c>P </c><c>   1</c></rc>
    <rc><c>P </c><c>   1</c></rc>
   </set>
  </array>
  <array name="atomtypes" >
   <dimension dim="1">type</dimension>
   <field type="int">atomspertype</field>
   <field type="string">element</field>
   <field>mass</field>
   <field>valence</field>
   <field type="string">pseudopotential</field>
   <set>
    <rc><c>   4</c><c>P </c><c>     30.97400000</c><c>      5.00000000</c><c>  PAW_PBE P 06Sep2000                   </c></rc>
   </set>
  </array>
 </atominfo>
 <structure name="initialpos" >
  <crystal>
   <varray name="basis" >
    <v>       3.28067700       0.00000000       0.00000000 </v>
    <v>       0.00000000       4.62335100      -0.00005300 </v>
    <v>       0.00000000       0.00000000      20.02439000 </v>
   </varray>
   <i name="volume">    303.72436649 </i>
   <varray name="rec_basis" >
    <v>       0.30481513       0.00000000       0.00000000 </v>
    <v>       0.00000000       0.21629333       0.00000000 </v>
    <v>       0.00000000       0.00000057       0.04993910 </v>
   </varray>
  </crystal>
  <varray name="positions" >
   <v>       0.50000000       0.91077300       0.55252100 </v>
   <v>       0.50000000       0.08922700       0.44747900 </v>
   <v>       0.00000000       0.41076900       0.44747900 </v>
   <v>       0.00000000       0.58923100       0.55252100 </v>
  </varray>
 </structure>
 <calculation>
  <scstep>
   <time name="dav">    1.31    1.31</time>
   <time name="total">    1.33    1.33</time>
   <energy>
    <i name="alphaZ">      5.28163433 </i>
    <i name="ewald">   1875.15157264 </i>
    <i name="hartreedc">  -2468.78248703 </i>
    <i name="XCdc">     13.07876944 </i>
    <i name="pawpsdc">    559.04011960 </i>
    <i name="pawaedc">   -526.39432044 </i>
    <i name="eentropy">     -0.00023811 </i>
    <i name="bandstr">    -27.55483518 </i>
    <i name="atom">    704.16778566 </i>
    <i name="e_fr_energy">    133.98800090 </i>
    <i name="e_wo_entrp">    133.98823901 </i>
    <i name="e_0_energy">    133.98811996 </i>
   </energy>
  </scstep>
  <scstep>
   <time name="dav">    1.76    1.76</time>
   <time name="total">    1.76    1.76</time>
   <energy>
    <i name="e_fr_energy">     -6.32896009 </i>
    <i name="e_wo_entrp">     -6.32896009 </i>
    <i name="e_0_energy">     -6.32896009 </i>
   </energy>
  </scstep>
  <scstep>
   <time name="dav">    1.61    1.61</time>
   <time name="total">    1.61    1.62</time>
   <energy>
    <i name="e_fr_energy">    -21.35832921 </i>
    <i name="e_wo_entrp">    -21.35832921 </i>
    <i name="e_0_energy">    -21.35832921 </i>
   </energy>
  </scstep>
  <scstep>
   <time name="dav">    1.64    1.64</time>
   <time name="total">    1.64    1.64</time>
   <energy>
    <i name="e_fr_energy">    -21.66453478 </i>
    <i name="e_wo_entrp">    -21.66453478 </i>
    <i name="e_0_energy">    -21.66453478 </i>
   </energy>
  </scstep>
  <scstep>
   <time name="dav">    1.73    1.73</time>
   <time name="total">    1.81    1.81</time>
   <energy>
    <i name="e_fr_energy">    -21.67439060 </i>
    <i name="e_wo_entrp">    -21.67439060 </i>
    <i name="e_0_energy">    -21.67439060 </i>
   </energy>
  </scstep>
  <scstep>
   <time name="dav">    1.55    1.55</time>
   <time name="total">    1.64    1.64</time>
   <energy>
    <i name="e_fr_energy">    -21.52564425 </i>
    <i name="e_wo_entrp">    -21.52564425 </i>
    <i name="e_0_energy">    -21.52564425 </i>
   </energy>
  </scstep>
  <scstep>
   <time name="dav">    1.54    1.54</time>
   <time name="total">    1.62    1.62</time>
   <energy>
    <i name="e_fr_energy">    -21.45631220 </i>
    <i name="e_wo_entrp">    -21.45631220 </i>
    <i name="e_0_energy">    -21.45631220 </i>
   </energy>
  </scstep>
  <scstep>
   <time name="dav">    1.58    1.58</time>
   <time name="total">    1.67    1.67</time>
   <energy>
    <i name="e_fr_energy">    -21.45553415 </i>
    <i name="e_wo_entrp">    -21.45553415 </i>
    <i name="e_0_energy">    -21.45553415 </i>
   </energy>
  </scstep>
  <scstep>
   <time name="dav">    1.83    1.83</time>
   <time name="total">    1.91    1.92</time>
   <energy>
    <i name="e_fr_energy">    -21.45538243 </i>
    <i name="e_wo_entrp">    -21.45538243 </i>
    <i name="e_0_energy">    -21.45538243 </i>
   </energy>
  </scstep>
  <scstep>
   <time name="dav">    1.57    1.57</time>
   <time name="total">    1.65    1.65</time>
   <energy>
    <i name="e_fr_energy">    -21.45518310 </i>
    <i name="e_wo_entrp">    -21.45518310 </i>
    <i name="e_0_energy">    -21.45518310 </i>
   </energy>
  </scstep>
  <scstep>
   <time name="dav">    1.59    1.59</time>
   <time name="total">    1.67    1.67</time>
   <energy>
    <i name="e_fr_energy">    -21.45508082 </i>
    <i name="e_wo_entrp">    -21.45508082 </i>
    <i name="e_0_energy">    -21.45508082 </i>
   </energy>
  </scstep>
  <scstep>
   <time name="dav">    1.42    1.42</time>
   <time name="total">    1.51    1.51</time>
   <energy>
    <i name="e_fr_energy">    -21.45547182 </i>
    <i name="e_wo_entrp">    -21.45547182 </i>
    <i name="e_0_energy">    -21.45547182 </i>
   </energy>
  </scstep>
  <scstep>
   <time name="dav">    1.41    1.41</time>
   <time name="total">    1.50    1.50</time>
   <energy>
    <i name="e_fr_energy">    -21.45556324 </i>
    <i name="e_wo_entrp">    -21.45556324 </i>
    <i name="e_0_energy">    -21.45556324 </i>
   </energy>
  </scstep>
  <scstep>
   <time name="dav">    1.31    1.31</time>
   <time name="total">    1.39    1.40</time>
   <energy>
    <i name="e_fr_energy">    -21.45570798 </i>
    <i name="e_wo_entrp">    -21.45570798 </i>
    <i name="e_0_energy">    -21.45570798 </i>
   </energy>
  </scstep>
  <scstep>
   <time name="dav">    1.35    1.35</time>
   <time name="total">    1.43    1.44</time>
   <energy>
    <i name="e_fr_energy">    -21.45574731 </i>
    <i name="e_wo_entrp">    -21.45574731 </i>
    <i name="e_0_energy">    -21.45574731 </i>
   </energy>
  </scstep>
  <scstep>
   <time name="dav">    1.28    1.28</time>
   <time name="total">    1.37    1.37</time>
   <energy>
    <i name="e_fr_energy">    -21.45578091 </i>
    <i name="e_wo_entrp">    -21.45578091 </i>
    <i name="e_0_energy">    -21.45578091 </i>
   </energy>
  </scstep>
  <scstep>
   <time name="dav">    1.29    1.29</time>
   <time name="total">    1.31    1.31</time>
   <energy>
    <i name="alphaZ">      5.28163433 </i>
    <i name="ewald">   1875.15157264 </i>
    <i name="hartreedc">  -2484.42404440 </i>
    <i name="XCdc">     14.15449884 </i>
    <i name="pawpsdc">   2125.57312368 </i>
    <i name="pawaedc">  -2093.27421089 </i>
    <i name="eentropy">     -0.00000000 </i>
    <i name="bandstr">   -168.08614292 </i>
    <i name="atom">    704.16778566 </i>
    <i name="e_fr_energy">    -21.45578307 </i>
    <i name="e_wo_entrp">    -21.45578307 </i>
    <i name="e_0_energy">    -21.45578307 </i>
   </energy>
  </scstep>
  <structure>
   <crystal>
    <varray name="basis" >
     <v>       3.28067700       0.00000000       0.00000000 </v>
     <v>       0.00000000       4.62335100      -0.00005300 </v>
     <v>       0.00000000       0.00000000      20.02439000 </v>
    </varray>
    <i name="volume">    303.72436649 </i>
    <varray name="rec_basis" >
     <v>       0.30481513       0.00000000       0.00000000 </v>
     <v>       0.00000000       0.21629333       0.00000000 </v>
     <v>       0.00000000       0.00000057       0.04993910 </v>
    </varray>
   </crystal>
   <varray name="positions" >
    <v>       0.50000000       0.91077300       0.55252100 </v>
    <v>       0.50000000       0.08922700       0.44747900 </v>
    <v>       0.00000000       0.41076900       0.44747900 </v>
    <v>       0.00000000       0.58923100       0.55252100 </v>
   </varray>
  </structure>
  <varray name="forces" >
   <v>       0.00000033       0.02804780       0.00339686 </v>
   <v>      -0.00000033      -0.02804780      -0.00339686 </v>
   <v>      -0.00000034       0.02801522      -0.00339436 </v>
   <v>       0.00000034      -0.02801522       0.00339436 </v>
  </varray>
  <varray name="stress" >
   <v>       2.92691274       0.00000716       0.00000257 </v>
   <v>       0.00000709       0.87306119       0.00034144 </v>
   <v>       0.00000252       0.00034149       0.01128054 </v>
  </varray>
  <energy>
   <i name="e_fr_energy">    -21.45578307 </i>
   <i name="e_wo_entrp">    -21.45578307 </i>
   <i name="e_0_energy">     -0.00000000 </i>
  </energy>
  <time name="totalsc">   27.60   27.65</time>
 </calculation>
 <calculation>
  <scstep>
   <time name="dav">    1.38    1.38</time>
   <time name="total">    1.47    1.47</time>
   <energy>
    <i name="alphaZ">      5.28163433 </i>
    <i name="ewald">   1874.93619959 </i>
    <i name="hartreedc">  -2484.26862515 </i>
    <i name="XCdc">     14.15009118 </i>
    <i name="pawpsdc">   2125.17264324 </i>
    <i name="pawaedc">  -2092.87377946 </i>
    <i name="eentropy">     -0.00000000 </i>
    <i name="bandstr">   -168.02179755 </i>
    <i name="atom">    704.16778566 </i>
    <i name="e_fr_energy">    -21.45584815 </i>
    <i name="e_wo_entrp">    -21.45584815 </i>
    <i name="e_0_energy">    -21.45584815 </i>
   </energy>
  </scstep>
  <scstep>
   <time name="dav">    1.66    1.66</time>
   <time name="total">    1.75    1.75</time>
   <energy>
    <i name="e_fr_energy">    -21.45585843 </i>
    <i name="e_wo_entrp">    -21.45585843 </i>
    <i name="e_0_energy">    -21.45585843 </i>
   </energy>
  </scstep>
  <scstep>
   <time name="dav">    1.09    1.09</time>
   <time name="total">    1.18    1.18</time>
   <energy>
    <i name="e_fr_energy">    -21.45585931 </i>
    <i name="e_wo_entrp">    -21.45585931 </i>
    <i name="e_0_energy">    -21.45585931 </i>
   </energy>
  </scstep>
  <scstep>
   <time name="dav">    1.18    1.18</time>
   <time name="total">    1.26    1.27</time>
   <energy>
    <i name="e_fr_energy">    -21.45586175 </i>
    <i name="e_wo_entrp">    -21.45586175 </i>
    <i name="e_0_energy">    -21.45586175 </i>
   </energy>
  </scstep>
  <scstep>
   <time name="dav">    1.10    1.10</time>
   <time name="total">    1.18    1.18</time>
   <energy>
    <i name="e_fr_energy">    -21.45586259 </i>
    <i name="e_wo_entrp">    -21.45586259 </i>
    <i name="e_0_energy">    -21.45586259 </i>
   </energy>
  </scstep>
  <scstep>
   <time name="dav">    1.07    1.07</time>
   <time name="total">    1.09    1.09</time>
   <energy>
    <i name="alphaZ">      5.28163433 </i>
    <i name="ewald">   1874.93619959 </i>
    <i name="hartreedc">  -2484.27256774 </i>
    <i name="XCdc">     14.14951750 </i>
    <i name="pawpsdc">   2122.26381553 </i>
    <i name="pawaedc">  -2089.96379751 </i>
    <i name="eentropy">     -0.00000000 </i>
    <i name="bandstr">   -168.01845045 </i>
    <i name="atom">    704.16778566 </i>
    <i name="e_fr_energy">    -21.45586309 </i>
    <i name="e_wo_entrp">    -21.45586309 </i>
    <i name="e_0_energy">    -21.45586309 </i>
   </energy>
  </scstep>
  <structure>
   <crystal>
    <varray name="basis" >
     <v>       3.28067700       0.00000000       0.00000000 </v>
     <v>       0.00000000       4.62335100      -0.00005300 </v>
     <v>       0.00000000       0.00000000      20.02439000 </v>
    </varray>
    <i name="volume">    303.72436649 </i>
    <varray name="rec_basis" >
     <v>       0.30481513       0.00000000       0.00000000 </v>
     <v>       0.00000000       0.21629333       0.00000000 </v>
     <v>       0.00000000       0.00000057       0.04993910 </v>
    </varray>
   </crystal>
   <varray name="positions" >
    <v>       0.50000000       0.91094860       0.55252591 </v>
    <v>       0.50000000       0.08905140       0.44747409 </v>
    <v>      -0.00000000       0.41094440       0.44747409 </v>
    <v>       0.00000000       0.58905560       0.55252591 </v>
   </varray>
  </structure>
  <varray name="forces" >
   <v>      -0.00000001       0.01005208       0.00456524 </v>
   <v>       0.00000001      -0.01005208      -0.00456524 </v>
   <v>       0.00000007       0.01002507      -0.00456486 </v>
   <v>      -0.00000007      -0.01002507       0.00456486 </v>
  </varray>
  <varray name="stress" >
   <v>       2.84477198       0.00000072      -0.00000104 </v>
   <v>       0.00000069       0.61179241       0.00027987 </v>
   <v>      -0.00000113       0.00027985       0.03262097 </v>
  </varray>
  <energy>
   <i name="e_fr_energy">    -21.45586309 </i>
   <i name="e_wo_entrp">    -21.45586309 </i>
   <i name="e_0_energy">     -0.00000000 </i>
  </energy>
  <time name="totalsc">    8.69    8.71</time>
 </calculation>
 <calculation>
  <scstep>
   <time name="dav">    1.39    1.39</time>
   <time name="total">    1.47    1.48</time>
   <energy>
    <i name="alphaZ">      5.28163433 </i>
    <i name="ewald">   1874.80851712 </i>
    <i name="hartreedc">  -2484.17364217 </i>
    <i name="XCdc">     14.14688175 </i>
    <i name="pawpsdc">   2122.18776346 </i>
    <i name="pawaedc">  -2089.88774063 </i>
    <i name="eentropy">     -0.00000000 </i>
    <i name="bandstr">   -167.98707048 </i>
    <i name="atom">    704.16778566 </i>
    <i name="e_fr_energy">    -21.45587096 </i>
    <i name="e_wo_entrp">    -21.45587096 </i>
    <i name="e_0_energy">    -21.45587096 </i>
   </energy>
  </scstep>
  <scstep>
   <time name="dav">    1.48    1.48</time>
   <time name="total">    1.57    1.57</time>
   <energy>
    <i name="e_fr_energy">    -21.45587406 </i>
    <i name="e_wo_entrp">    -21.45587406 </i>
    <i name="e_0_energy">    -21.45587406 </i>
   </energy>
  </scstep>
  <scstep>
   <time name="dav">    1.04    1.04</time>
   <time name="total">    1.12    1.12</time>
   <energy>
    <i name="e_fr_energy">    -21.45587406 </i>
    <i name="e_wo_entrp">    -21.45587406 </i>
    <i name="e_0_energy">    -21.45587406 </i>
   </energy>
  </scstep>
  <scstep>
   <time name="dav">    1.06    1.06</time>
   <time name="total">    1.14    1.15</time>
   <energy>
    <i name="e_fr_energy">    -21.45587420 </i>
    <i name="e_wo_entrp">    -21.45587420 </i>
    <i name="e_0_energy">    -21.45587420 </i>
   </energy>
  </scstep>
  <scstep>
   <time name="dav">    1.01    1.01</time>
   <time name="total">    1.09    1.10</time>
   <energy>
    <i name="e_fr_energy">    -21.45587433 </i>
    <i name="e_wo_entrp">    -21.45587433 </i>
    <i name="e_0_energy">    -21.45587433 </i>
   </energy>
  </scstep>
  <scstep>
   <time name="dav">    0.98    0.99</time>
   <time name="total">    1.00    1.00</time>
   <energy>
    <i name="alphaZ">      5.28163433 </i>
    <i name="ewald">   1874.80851712 </i>
    <i name="hartreedc">  -2484.17581293 </i>
    <i name="XCdc">     14.14656871 </i>
    <i name="pawpsdc">   2120.40271277 </i>
    <i name="pawaedc">  -2088.10202922 </i>
    <i name="eentropy">     -0.00000000 </i>
    <i name="bandstr">   -167.98525083 </i>
    <i name="atom">    704.16778566 </i>
    <i name="e_fr_energy">    -21.45587441 </i>
    <i name="e_wo_entrp">    -21.45587441 </i>
    <i name="e_0_energy">    -21.45587441 </i>
   </energy>
  </scstep>
  <structure>
   <crystal>
    <varray name="basis" >
     <v>       3.28067700       0.00000000       0.00000000 </v>
     <v>       0.00000000       4.62335100      -0.00005300 </v>
     <v>       0.00000000       0.00000000      20.02439000 </v>
    </varray>
    <i name="volume">    303.72436649 </i>
    <varray name="rec_basis" >
     <v>       0.30481513       0.00000000       0.00000000 </v>
     <v>       0.00000000       0.21629333       0.00000000 </v>
     <v>       0.00000000       0.00000057       0.04993910 </v>
    </varray>
   </crystal>
   <varray name="positions" >
    <v>       0.50000000       0.91105279       0.55252882 </v>
    <v>       0.50000000       0.08894721       0.44747118 </v>
    <v>      -0.00000000       0.41104846       0.44747118 </v>
    <v>       0.00000000       0.58895154       0.55252882 </v>
   </varray>
  </structure>
  <varray name="forces" >
   <v>      -0.00000003      -0.00052419       0.00520315 </v>
   <v>       0.00000003       0.00052419      -0.00520315 </v>
   <v>       0.00000008      -0.00054798      -0.00520384 </v>
   <v>      -0.00000008       0.00054798       0.00520384 </v>
  </varray>
  <varray name="stress" >
   <v>       2.79599730       0.00000007      -0.00000141 </v>
   <v>       0.00000009       0.46003470       0.00024604 </v>
   <v>      -0.00000140       0.00024599       0.04622760 </v>
  </varray>
  <energy>
   <i name="e_fr_energy">    -21.45587441 </i>
   <i name="e_wo_entrp">    -21.45587441 </i>
   <i name="e_0_energy">     -0.00000000 </i>
  </energy>
  <time name="totalsc">    8.10    8.12</time>
  <eigenvalues>
   <array>
    <dimension dim="1">band</dimension>
    <dimension dim="2">kpoint</dimension>
    <dimension dim="3">spin</dimension>
    <field>eigene</field>
    <field>occ</field>
    <set>
     <set comment="spin 1">
      <set comment="kpoint 1">
       <r>  -17.2516    1.0000 </r>
       <r>  -14.7981    1.0000 </r>
       <r>  -11.4366    1.0000 </r>
       <r>   -7.9515    1.0000 </r>
       <r>   -6.9756    1.0000 </r>
       <r>   -6.7873    1.0000 </r>
       <r>   -5.5156    1.0000 </r>
       <r>   -3.9478    1.0000 </r>
       <r>   -3.9434    1.0000 </r>
       <r>   -2.2701    1.0000 </r>
       <r>   -1.3885    0.0000 </r>
       <r>   -0.5415    0.0000 </r>
       <r>    0.5128    0.0000 </r>
       <r>    1.1108    0.0000 </r>
       <r>    2.1346    0.0000 </r>
       <r>    2.3009    0.0000 </r>
      </set>
      <set comment="kpoint 2">
       <r>  -17.2266    1.0000 </r>
       <r>  -14.7721    1.0000 </r>
       <r>  -11.4437    1.0000 </r>
       <r>   -7.9324    1.0000 </r>
       <r>   -6.9894    1.0000 </r>
       <r>   -6.7652    1.0000 </r>
       <r>   -5.6819    1.0000 </r>
       <r>   -4.1182    1.0000 </r>
       <r>   -3.9370    1.0000 </r>
       <r>   -2.2685    1.0000 </r>
       <r>   -1.3650    0.0000 </r>
       <r>   -0.3140    0.0000 </r>
       <r>    0.7380    0.0000 </r>
       <r>    0.9539    0.0000 </r>
       <r>    2.1605    0.0000 </r>
       <r>    2.3288    0.0000 </r>
      </set>
      <set comment="kpoint 3">
       <r>  -17.1519    1.0000 </r>
       <r>  -14.6941    1.0000 </r>
       <r>  -11.4695    1.0000 </r>
       <r>   -7.8759    1.0000 </r>
       <r>   -7.0468    1.0000 </r>
       <r>   -6.6994    1.0000 </r>
       <r>   -6.0932    1.0000 </r>
       <r>   -4.5310    1.0000 </r>
       <r>   -3.9075    1.0000 </r>
       <r>   -2.2816    1.0000 </r>
       <r>   -1.2951    0.0000 </r>
       <r>    0.2988    0.0000 </r>
       <r>    0.5602    0.0000 </r>
       <r>    1.2969    0.0000 </r>
       <r>    2.2353    0.0000 </r>
       <r>    2.4121    0.0000 </r>
      </set>
      <set comment="kpoint 4">
       <r>  -17.0278    1.0000 </r>
       <r>  -14.5643    1.0000 </r>
       <r>  -11.5279    1.0000 </r>
       <r>   -7.7838    1.0000 </r>
       <r>   -7.1995    1.0000 </r>
       <r>   -6.5942    1.0000 </r>
       <r>   -6.5909    1.0000 </r>
       <r>   -4.9752    1.0000 </r>
       <r>   -3.8686    1.0000 </r>
       <r>   -2.3295    1.0000 </r>
       <r>   -1.1795    0.0000 </r>
       <r>    0.0651    0.0000 </r>
       <r>    1.1617    0.0000 </r>
       <r>    1.9164    0.0000 </r>
       <r>    2.3279    0.0000 </r>
       <r>    2.5504    0.0000 </r>
      </set>
      <set comment="kpoint 5">
       <r>  -16.8547    1.0000 </r>
       <r>  -14.3830    1.0000 </r>
       <r>  -11.6410    1.0000 </r>
       <r>   -7.6601    1.0000 </r>
       <r>   -7.5185    1.0000 </r>
       <r>   -7.0679    1.0000 </r>
       <r>   -6.4417    1.0000 </r>
       <r>   -5.2829    1.0000 </r>
       <r>   -3.8389    1.0000 </r>
       <r>   -2.4229    1.0000 </r>
       <r>   -1.0206    0.0000 </r>
       <r>   -0.4257    0.0000 </r>
       <r>    2.0086    0.0000 </r>
       <r>    2.0915    0.0000 </r>
       <r>    2.1466    0.0000 </r>
       <r>    2.6684    0.0000 </r>
      </set>
      <set comment="kpoint 6">
       <r>  -16.6335    1.0000 </r>
       <r>  -14.1504    1.0000 </r>
       <r>  -11.8338    1.0000 </r>
       <r>   -8.0156    1.0000 </r>
       <r>   -7.5114    1.0000 </r>
       <r>   -7.4398    1.0000 </r>
       <r>   -6.2552    1.0000 </r>
       <r>   -5.3968    1.0000 </r>
       <r>   -3.8472    1.0000 </r>
       <r>   -2.5708    1.0000 </r>
       <r>   -0.8318    0.0000 </r>
       <r>   -0.8234    0.0000 </r>
       <r>    1.4764    0.0000 </r>
       <r>    1.5418    0.0000 </r>
       <r>    2.7074    0.0000 </r>
       <r>    2.8833    0.0000 </r>
      </set>
      <set comment="kpoint 7">
       <r>  -16.3653    1.0000 </r>
       <r>  -13.8671    1.0000 </r>
       <r>  -12.1220    1.0000 </r>
       <r>   -8.6230    1.0000 </r>
       <r>   -7.6703    1.0000 </r>
       <r>   -7.3488    1.0000 </r>
       <r>   -6.0368    1.0000 </r>
       <r>   -5.3665    1.0000 </r>
       <r>   -3.9241    1.0000 </r>
       <r>   -2.7781    1.0000 </r>
       <r>   -1.0874    0.0000 </r>
       <r>   -0.6017    0.0000 </r>
       <r>    0.8407    0.0000 </r>
       <r>    0.9954    0.0000 </r>
       <r>    2.2933    0.0000 </r>
       <r>    3.1827    0.0000 </r>
      </set>
      <set comment="kpoint 8">
       <r>  -16.0517    1.0000 </r>
       <r>  -13.5338    1.0000 </r>
       <r>  -12.5002    1.0000 </r>
       <r>   -9.2724    1.0000 </r>
       <r>   -7.7541    1.0000 </r>
       <r>   -7.1912    1.0000 </r>
       <r>   -5.7947    1.0000 </r>
       <r>   -5.2582    1.0000 </r>
       <r>   -4.0724    1.0000 </r>
       <r>   -3.0409    1.0000 </r>
       <r>   -1.1581    0.0000 </r>
       <r>   -0.4097    0.0000 </r>
       <r>    0.2365    0.0000 </r>
       <r>    0.5537    0.0000 </r>
       <r>    1.8027    0.0000 </r>
       <r>    3.1873    0.0000 </r>
      </set>
      <set comment="kpoint 9">
       <r>  -15.6948    1.0000 </r>
       <r>  -13.1511    1.0000 </r>
       <r>  -12.9447    1.0000 </r>
       <r>   -9.9236    1.0000 </r>
       <r>   -7.7127    1.0000 </r>
       <r>   -7.0683    1.0000 </r>
       <r>   -5.5424    1.0000 </r>
       <r>   -5.1226    1.0000 </r>
       <r>   -4.2429    1.0000 </r>
       <r>   -3.3438    1.0000 </r>
       <r>   -1.0568    0.0000 </r>
       <r>   -0.4412    0.0000 </r>
       <r>   -0.2900    0.0000 </r>
       <r>    0.4361    0.0000 </r>
       <r>    1.3120    0.0000 </r>
       <r>    2.8101    0.0000 </r>
      </set>
      <set comment="kpoint 10">
       <r>  -15.2977    1.0000 </r>
       <r>  -13.4258    1.0000 </r>
       <r>  -12.7204    1.0000 </r>
       <r>  -10.5557    1.0000 </r>
       <r>   -7.5813    1.0000 </r>
       <r>   -7.0188    1.0000 </r>
       <r>   -5.3006    1.0000 </r>
       <r>   -5.0029    1.0000 </r>
       <r>   -4.3556    1.0000 </r>
       <r>   -3.6617    1.0000 </r>
       <r>   -0.8226    0.0000 </r>
       <r>   -0.7047    0.0000 </r>
       <r>   -0.7019    0.0000 </r>
       <r>    0.6770    0.0000 </r>
       <r>    0.8243    0.0000 </r>
       <r>    2.3751    0.0000 </r>
      </set>
      <set comment="kpoint 11">
       <r>  -14.8647    1.0000 </r>
       <r>  -13.9177    1.0000 </r>
       <r>  -12.2430    1.0000 </r>
       <r>  -11.1570    1.0000 </r>
       <r>   -7.3995    1.0000 </r>
       <r>   -7.0704    1.0000 </r>
       <r>   -5.0988    1.0000 </r>
       <r>   -4.9415    1.0000 </r>
       <r>   -4.3470    1.0000 </r>
       <r>   -3.9620    1.0000 </r>
       <r>   -0.9615    0.0000 </r>
       <r>   -0.9410    0.0000 </r>
       <r>   -0.4929    0.0000 </r>
       <r>    0.3500    0.0000 </r>
       <r>    1.0479    0.0000 </r>
       <r>    1.9202    0.0000 </r>
      </set>
      <set comment="kpoint 12">
       <r>  -14.4017    1.0000 </r>
       <r>  -14.4017    1.0000 </r>
       <r>  -11.7209    1.0000 </r>
       <r>  -11.7209    1.0000 </r>
       <r>   -7.2122    1.0000 </r>
       <r>   -7.2122    1.0000 </r>
       <r>   -4.9714    1.0000 </r>
       <r>   -4.9714    1.0000 </r>
       <r>   -4.2051    1.0000 </r>
       <r>   -4.2051    1.0000 </r>
       <r>   -1.0407    0.0000 </r>
       <r>   -1.0407    0.0000 </r>
       <r>   -0.0951    0.0000 </r>
       <r>   -0.0951    0.0000 </r>
       <r>    1.4711    0.0000 </r>
       <r>    1.4711    0.0000 </r>
      </set>
      <set comment="kpoint 13">
       <r>  -17.2301    1.0000 </r>
       <r>  -14.8280    1.0000 </r>
       <r>  -11.4456    1.0000 </r>
       <r>   -8.1066    1.0000 </r>
       <r>   -6.8815    1.0000 </r>
       <r>   -6.6934    1.0000 </r>
       <r>   -5.4992    1.0000 </r>
       <r>   -3.9587    1.0000 </r>
       <r>   -3.8512    1.0000 </r>
       <r>   -2.4756    1.0000 </r>
       <r>   -1.1978    0.0000 </r>
       <r>   -0.5251    0.0000 </r>
       <r>    0.4676    0.0000 </r>
       <r>    1.0971    0.0000 </r>
       <r>    2.1937    0.0000 </r>
       <r>    2.3313    0.0000 </r>
      </set>
      <set comment="kpoint 14">
       <r>  -17.2052    1.0000 </r>
       <r>  -14.8022    1.0000 </r>
       <r>  -11.4515    1.0000 </r>
       <r>   -8.0908    1.0000 </r>
       <r>   -6.8901    1.0000 </r>
       <r>   -6.6786    1.0000 </r>
       <r>   -5.6588    1.0000 </r>
       <r>   -4.1411    1.0000 </r>
       <r>   -3.8382    1.0000 </r>
       <r>   -2.4704    1.0000 </r>
       <r>   -1.1781    0.0000 </r>
       <r>   -0.2980    0.0000 </r>
       <r>    0.6844    0.0000 </r>
       <r>    0.9524    0.0000 </r>
       <r>    2.2185    0.0000 </r>
       <r>    2.3590    0.0000 </r>
      </set>
      <set comment="kpoint 15">
       <r>  -17.1306    1.0000 </r>
       <r>  -14.7247    1.0000 </r>
       <r>  -11.4736    1.0000 </r>
       <r>   -8.0464    1.0000 </r>
       <r>   -6.9295    1.0000 </r>
       <r>   -6.6501    1.0000 </r>
       <r>   -6.0352    1.0000 </r>
       <r>   -4.5631    1.0000 </r>
       <r>   -3.8147    1.0000 </r>
       <r>   -2.4690    1.0000 </r>
       <r>   -1.1228    0.0000 </r>
       <r>    0.3141    0.0000 </r>
       <r>    0.5428    0.0000 </r>
       <r>    1.2725    0.0000 </r>
       <r>    2.2899    0.0000 </r>
       <r>    2.4421    0.0000 </r>
      </set>
      <set comment="kpoint 16">
       <r>  -17.0065    1.0000 </r>
       <r>  -14.5958    1.0000 </r>
       <r>  -11.5257    1.0000 </r>
       <r>   -7.9866    1.0000 </r>
       <r>   -7.0416    1.0000 </r>
       <r>   -6.7629    1.0000 </r>
       <r>   -6.3208    1.0000 </r>
       <r>   -5.0169    1.0000 </r>
       <r>   -3.7898    1.0000 </r>
       <r>   -2.4914    1.0000 </r>
       <r>   -1.0317    0.0000 </r>
       <r>    0.0667    0.0000 </r>
       <r>    1.1730    0.0000 </r>
       <r>    1.9077    0.0000 </r>
       <r>    2.3653    0.0000 </r>
       <r>    2.5800    0.0000 </r>
      </set>
      <set comment="kpoint 17">
       <r>  -16.8336    1.0000 </r>
       <r>  -14.4160    1.0000 </r>
       <r>  -11.6300    1.0000 </r>
       <r>   -7.9665    1.0000 </r>
       <r>   -7.2522    1.0000 </r>
       <r>   -7.1497    1.0000 </r>
       <r>   -6.2680    1.0000 </r>
       <r>   -5.3298    1.0000 </r>
       <r>   -3.7825    1.0000 </r>
       <r>   -2.5529    1.0000 </r>
       <r>   -0.9026    0.0000 </r>
       <r>   -0.3988    0.0000 </r>
       <r>    1.8950    0.0000 </r>
       <r>    2.0691    0.0000 </r>
       <r>    2.2370    0.0000 </r>
       <r>    2.6292    0.0000 </r>
      </set>
      <set comment="kpoint 18">
       <r>  -16.6126    1.0000 </r>
       <r>  -14.1860    1.0000 </r>
       <r>  -11.8121    1.0000 </r>
       <r>   -8.1815    1.0000 </r>
       <r>   -7.5066    1.0000 </r>
       <r>   -7.3870    1.0000 </r>
       <r>   -6.1091    1.0000 </r>
       <r>   -5.4426    1.0000 </r>
       <r>   -3.8210    1.0000 </r>
       <r>   -2.6676    1.0000 </r>
       <r>   -0.7707    0.0000 </r>
       <r>   -0.7357    0.0000 </r>
       <r>    1.3616    0.0000 </r>
       <r>    1.5723    0.0000 </r>
       <r>    2.6955    0.0000 </r>
       <r>    3.0187    0.0000 </r>
      </set>
      <set comment="kpoint 19">
       <r>  -16.3447    1.0000 </r>
       <r>  -13.9078    1.0000 </r>
       <r>  -12.0881    1.0000 </r>
       <r>   -8.6938    1.0000 </r>
       <r>   -7.7331    1.0000 </r>
       <r>   -7.3210    1.0000 </r>
       <r>   -5.9097    1.0000 </r>
       <r>   -5.4138    1.0000 </r>
       <r>   -3.9276    1.0000 </r>
       <r>   -2.8439    1.0000 </r>
       <r>   -0.9888    0.0000 </r>
       <r>   -0.5415    0.0000 </r>
       <r>    0.8147    0.0000 </r>
       <r>    0.9443    0.0000 </r>
       <r>    2.4423    0.0000 </r>
       <r>    3.2545    0.0000 </r>
      </set>
      <set comment="kpoint 20">
       <r>  -16.0316    1.0000 </r>
       <r>  -13.5871    1.0000 </r>
       <r>  -12.4486    1.0000 </r>
       <r>   -9.3136    1.0000 </r>
       <r>   -7.8138    1.0000 </r>
       <r>   -7.1903    1.0000 </r>
       <r>   -5.6892    1.0000 </r>
       <r>   -5.3201    1.0000 </r>
       <r>   -4.0864    1.0000 </r>
       <r>   -3.0784    1.0000 </r>
       <r>   -1.0314    0.0000 </r>
       <r>   -0.3808    0.0000 </r>
       <r>    0.3400    0.0000 </r>
       <r>    0.3840    0.0000 </r>
       <r>    2.0107    0.0000 </r>
       <r>    3.1291    0.0000 </r>
      </set>
      <set comment="kpoint 21">
       <r>  -15.6755    1.0000 </r>
       <r>  -13.2730    1.0000 </r>
       <r>  -12.8219    1.0000 </r>
       <r>   -9.9525    1.0000 </r>
       <r>   -7.7675    1.0000 </r>
       <r>   -7.0735    1.0000 </r>
       <r>   -5.4677    1.0000 </r>
       <r>   -5.2233    1.0000 </r>
       <r>   -4.2286    1.0000 </r>
       <r>   -3.3524    1.0000 </r>
       <r>   -0.9258    0.0000 </r>
       <r>   -0.4818    0.0000 </r>
       <r>   -0.1844    0.0000 </r>
       <r>    0.3156    0.0000 </r>
       <r>    1.5575    0.0000 </r>
       <r>    2.7621    0.0000 </r>
      </set>
      <set comment="kpoint 22">
       <r>  -15.2796    1.0000 </r>
       <r>  -13.4504    1.0000 </r>
       <r>  -12.6937    1.0000 </r>
       <r>  -10.5778    1.0000 </r>
       <r>   -7.6285    1.0000 </r>
       <r>   -7.0255    1.0000 </r>
       <r>   -5.2737    1.0000 </r>
       <r>   -5.1617    1.0000 </r>
       <r>   -4.2746    1.0000 </r>
       <r>   -3.6349    1.0000 </r>
       <r>   -0.8064    0.0000 </r>
       <r>   -0.7744    0.0000 </r>
       <r>   -0.4958    0.0000 </r>
       <r>    0.5285    0.0000 </r>
       <r>    1.1395    0.0000 </r>
       <r>    2.3358    0.0000 </r>
      </set>
      <set comment="kpoint 23">
       <r>  -14.8485    1.0000 </r>
       <r>  -13.9134    1.0000 </r>
       <r>  -12.2454    1.0000 </r>
       <r>  -11.1741    1.0000 </r>
       <r>   -7.4364    1.0000 </r>
       <r>   -7.0832    1.0000 </r>
       <r>   -5.1442    1.0000 </r>
       <r>   -5.1236    1.0000 </r>
       <r>   -4.2138    1.0000 </r>
       <r>   -3.8880    1.0000 </r>
       <r>   -1.0023    0.0000 </r>
       <r>   -0.9815    0.0000 </r>
       <r>   -0.2821    0.0000 </r>
       <r>    0.4711    0.0000 </r>
       <r>    1.1010    0.0000 </r>
       <r>    1.8919    0.0000 </r>
      </set>
      <set comment="kpoint 24">
       <r>  -14.3892    1.0000 </r>
       <r>  -14.3892    1.0000 </r>
       <r>  -11.7325    1.0000 </r>
       <r>  -11.7325    1.0000 </r>
       <r>   -7.2366    1.0000 </r>
       <r>   -7.2366    1.0000 </r>
       <r>   -5.1027    1.0000 </r>
       <r>   -5.1027    1.0000 </r>
       <r>   -4.0822    1.0000 </r>
       <r>   -4.0822    1.0000 </r>
       <r>   -1.0797    0.0000 </r>
       <r>   -1.0797    0.0000 </r>
       <r>    0.0887    0.0000 </r>
       <r>    0.0887    0.0000 </r>
       <r>    1.4621    0.0000 </r>
       <r>    1.4621    0.0000 </r>
      </set>
      <set comment="kpoint 25">
       <r>  -14.8485    1.0000 </r>
       <r>  -13.9134    1.0000 </r>
       <r>  -12.2454    1.0000 </r>
       <r>  -11.1741    1.0000 </r>
       <r>   -7.4364    1.0000 </r>
       <r>   -7.0832    1.0000 </r>
       <r>   -5.1442    1.0000 </r>
       <r>   -5.1236    1.0000 </r>
       <r>   -4.2138    1.0000 </r>
       <r>   -3.8880    1.0000 </r>
       <r>   -1.0023    0.0000 </r>
       <r>   -0.9815    0.0000 </r>
       <r>   -0.2821    0.0000 </r>
       <r>    0.4711    0.0000 </r>
       <r>    1.1010    0.0000 </r>
       <r>    1.8919    0.0000 </r>
      </set>
      <set comment="kpoint 26">
       <r>  -15.2796    1.0000 </r>
       <r>  -13.4504    1.0000 </r>
       <r>  -12.6937    1.0000 </r>
       <r>  -10.5778    1.0000 </r>
       <r>   -7.6285    1.0000 </r>
       <r>   -7.0255    1.0000 </r>
       <r>   -5.2737    1.0000 </r>
       <r>   -5.1617    1.0000 </r>
       <r>   -4.2746    1.0000 </r>
       <r>   -3.6349    1.0000 </r>
       <r>   -0.8064    0.0000 </r>
       <r>   -0.7744    0.0000 </r>
       <r>   -0.4958    0.0000 </r>
       <r>    0.5285    0.0000 </r>
       <r>    1.1395    0.0000 </r>
       <r>    2.3358    0.0000 </r>
      </set>
      <set comment="kpoint 27">
       <r>  -15.6755    1.0000 </r>
       <r>  -13.2730    1.0000 </r>
       <r>  -12.8219    1.0000 </r>
       <r>   -9.9525    1.0000 </r>
       <r>   -7.7675    1.0000 </r>
       <r>   -7.0735    1.0000 </r>
       <r>   -5.4677    1.0000 </r>
       <r>   -5.2233    1.0000 </r>
       <r>   -4.2286    1.0000 </r>
       <r>   -3.3524    1.0000 </r>
       <r>   -0.9258    0.0000 </r>
       <r>   -0.4818    0.0000 </r>
       <r>   -0.1844    0.0000 </r>
       <r>    0.3156    0.0000 </r>
       <r>    1.5575    0.0000 </r>
       <r>    2.7621    0.0000 </r>
      </set>
      <set comment="kpoint 28">
       <r>  -16.0316    1.0000 </r>
       <r>  -13.5871    1.0000 </r>
       <r>  -12.4486    1.0000 </r>
       <r>   -9.3136    1.0000 </r>
       <r>   -7.8138    1.0000 </r>
       <r>   -7.1903    1.0000 </r>
       <r>   -5.6892    1.0000 </r>
       <r>   -5.3201    1.0000 </r>
       <r>   -4.0864    1.0000 </r>
       <r>   -3.0784    1.0000 </r>
       <r>   -1.0314    0.0000 </r>
       <r>   -0.3808    0.0000 </r>
       <r>    0.3400    0.0000 </r>
       <r>    0.3840    0.0000 </r>
       <r>    2.0107    0.0000 </r>
       <r>    3.1291    0.0000 </r>
      </set>
      <set comment="kpoint 29">
       <r>  -16.3447    1.0000 </r>
       <r>  -13.9078    1.0000 </r>
       <r>  -12.0881    1.0000 </r>
       <r>   -8.6938    1.0000 </r>
       <r>   -7.7331    1.0000 </r>
       <r>   -7.3210    1.0000 </r>
       <r>   -5.9097    1.0000 </r>
       <r>   -5.4138    1.0000 </r>
       <r>   -3.9276    1.0000 </r>
       <r>   -2.8439    1.0000 </r>
       <r>   -0.9888    0.0000 </r>
       <r>   -0.5415    0.0000 </r>
       <r>    0.8147    0.0000 </r>
       <r>    0.9443    0.0000 </r>
       <r>    2.4423    0.0000 </r>
       <r>    3.2545    0.0000 </r>
      </set>
      <set comment="kpoint 30">
       <r>  -16.6126    1.0000 </r>
       <r>  -14.1860    1.0000 </r>
       <r>  -11.8121    1.0000 </r>
       <r>   -8.1815    1.0000 </r>
       <r>   -7.5066    1.0000 </r>
       <r>   -7.3870    1.0000 </r>
       <r>   -6.1091    1.0000 </r>
       <r>   -5.4426    1.0000 </r>
       <r>   -3.8210    1.0000 </r>
       <r>   -2.6676    1.0000 </r>
       <r>   -0.7707    0.0000 </r>
       <r>   -0.7357    0.0000 </r>
       <r>    1.3616    0.0000 </r>
       <r>    1.5723    0.0000 </r>
       <r>    2.6955    0.0000 </r>
       <r>    3.0148    0.0000 </r>
      </set>
      <set comment="kpoint 31">
       <r>  -16.8336    1.0000 </r>
       <r>  -14.4160    1.0000 </r>
       <r>  -11.6300    1.0000 </r>
       <r>   -7.9665    1.0000 </r>
       <r>   -7.2522    1.0000 </r>
       <r>   -7.1497    1.0000 </r>
       <r>   -6.2680    1.0000 </r>
       <r>   -5.3298    1.0000 </r>
       <r>   -3.7825    1.0000 </r>
       <r>   -2.5529    1.0000 </r>
       <r>   -0.9026    0.0000 </r>
       <r>   -0.3988    0.0000 </r>
       <r>    1.8950    0.0000 </r>
       <r>    2.0691    0.0000 </r>
       <r>    2.2370    0.0000 </r>
       <r>    2.6292    0.0000 </r>
      </set>
      <set comment="kpoint 32">
       <r>  -17.0065    1.0000 </r>
       <r>  -14.5958    1.0000 </r>
       <r>  -11.5257    1.0000 </r>
       <r>   -7.9866    1.0000 </r>
       <r>   -7.0416    1.0000 </r>
       <r>   -6.7629    1.0000 </r>
       <r>   -6.3208    1.0000 </r>
       <r>   -5.0169    1.0000 </r>
       <r>   -3.7898    1.0000 </r>
       <r>   -2.4914    1.0000 </r>
       <r>   -1.0317    0.0000 </r>
       <r>    0.0667    0.0000 </r>
       <r>    1.1730    0.0000 </r>
       <r>    1.9077    0.0000 </r>
       <r>    2.3653    0.0000 </r>
       <r>    2.5800    0.0000 </r>
      </set>
      <set comment="kpoint 33">
       <r>  -17.1306    1.0000 </r>
       <r>  -14.7247    1.0000 </r>
       <r>  -11.4736    1.0000 </r>
       <r>   -8.0464    1.0000 </r>
       <r>   -6.9295    1.0000 </r>
       <r>   -6.6501    1.0000 </r>
       <r>   -6.0352    1.0000 </r>
       <r>   -4.5631    1.0000 </r>
       <r>   -3.8147    1.0000 </r>
       <r>   -2.4690    1.0000 </r>
       <r>   -1.1228    0.0000 </r>
       <r>    0.3141    0.0000 </r>
       <r>    0.5428    0.0000 </r>
       <r>    1.2725    0.0000 </r>
       <r>    2.2899    0.0000 </r>
       <r>    2.4421    0.0000 </r>
      </set>
      <set comment="kpoint 34">
       <r>  -17.2052    1.0000 </r>
       <r>  -14.8022    1.0000 </r>
       <r>  -11.4515    1.0000 </r>
       <r>   -8.0908    1.0000 </r>
       <r>   -6.8901    1.0000 </r>
       <r>   -6.6786    1.0000 </r>
       <r>   -5.6588    1.0000 </r>
       <r>   -4.1411    1.0000 </r>
       <r>   -3.8382    1.0000 </r>
       <r>   -2.4704    1.0000 </r>
       <r>   -1.1781    0.0000 </r>
       <r>   -0.2980    0.0000 </r>
       <r>    0.6844    0.0000 </r>
       <r>    0.9524    0.0000 </r>
       <r>    2.2185    0.0000 </r>
       <r>    2.3590    0.0000 </r>
      </set>
      <set comment="kpoint 35">
       <r>  -17.1662    1.0000 </r>
       <r>  -14.9177    1.0000 </r>
       <r>  -11.4603    1.0000 </r>
       <r>   -8.4587    1.0000 </r>
       <r>   -6.6902    1.0000 </r>
       <r>   -6.4260    1.0000 </r>
       <r>   -5.4504    1.0000 </r>
       <r>   -4.0046    1.0000 </r>
       <r>   -3.5923    1.0000 </r>
       <r>   -2.8776    1.0000 </r>
       <r>   -0.8358    0.0000 </r>
       <r>   -0.4756    0.0000 </r>
       <r>    0.3355    0.0000 </r>
       <r>    1.0649    0.0000 </r>
       <r>    2.3631    0.0000 </r>
       <r>    2.4216    0.0000 </r>
      </set>
      <set comment="kpoint 36">
       <r>  -17.1413    1.0000 </r>
       <r>  -14.8922    1.0000 </r>
       <r>  -11.4630    1.0000 </r>
       <r>   -8.4459    1.0000 </r>
       <r>   -6.6913    1.0000 </r>
       <r>   -6.4367    1.0000 </r>
       <r>   -5.5857    1.0000 </r>
       <r>   -4.1956    1.0000 </r>
       <r>   -3.5860    1.0000 </r>
       <r>   -2.8690    1.0000 </r>
       <r>   -0.8212    0.0000 </r>
       <r>   -0.2484    0.0000 </r>
       <r>    0.5452    0.0000 </r>
       <r>    0.9414    0.0000 </r>
       <r>    2.3848    0.0000 </r>
       <r>    2.4491    0.0000 </r>
      </set>
      <set comment="kpoint 37">
       <r>  -17.0668    1.0000 </r>
       <r>  -14.8160    1.0000 </r>
       <r>  -11.4756    1.0000 </r>
       <r>   -8.4115    1.0000 </r>
       <r>   -6.7068    1.0000 </r>
       <r>   -6.5282    1.0000 </r>
       <r>   -5.8487    1.0000 </r>
       <r>   -4.6409    1.0000 </r>
       <r>   -3.5823    1.0000 </r>
       <r>   -2.8528    1.0000 </r>
       <r>   -0.7815    0.0000 </r>
       <r>    0.3610    0.0000 </r>
       <r>    0.5128    0.0000 </r>
       <r>    1.1953    0.0000 </r>
       <r>    2.4469    0.0000 </r>
       <r>    2.5315    0.0000 </r>
      </set>
      <set comment="kpoint 38">
       <r>  -16.9431    1.0000 </r>
       <r>  -14.6895    1.0000 </r>
       <r>  -11.5113    1.0000 </r>
       <r>   -8.3705    1.0000 </r>
       <r>   -6.8399    1.0000 </r>
       <r>   -6.7798    1.0000 </r>
       <r>   -5.9514    1.0000 </r>
       <r>   -5.1207    1.0000 </r>
       <r>   -3.5975    1.0000 </r>
       <r>   -2.8443    1.0000 </r>
       <r>   -0.7174    0.0000 </r>
       <r>    0.0974    0.0000 </r>
       <r>    1.2032    0.0000 </r>
       <r>    1.8631    0.0000 </r>
       <r>    2.2423    0.0000 </r>
       <r>    2.5535    0.0000 </r>
      </set>
      <set comment="kpoint 39">
       <r>  -16.7706    1.0000 </r>
       <r>  -14.5135    1.0000 </r>
       <r>  -11.5925    1.0000 </r>
       <r>   -8.3663    1.0000 </r>
       <r>   -7.2639    1.0000 </r>
       <r>   -6.9663    1.0000 </r>
       <r>   -5.8880    1.0000 </r>
       <r>   -5.4446    1.0000 </r>
       <r>   -3.6523    1.0000 </r>
       <r>   -2.8588    1.0000 </r>
       <r>   -0.6284    0.0000 </r>
       <r>   -0.2938    0.0000 </r>
       <r>    1.5422    0.0000 </r>
       <r>    2.1990    0.0000 </r>
       <r>    2.3128    0.0000 </r>
       <r>    2.6668    0.0000 </r>
      </set>
      <set comment="kpoint 40">
       <r>  -16.5503    1.0000 </r>
       <r>  -14.2901    1.0000 </r>
       <r>  -11.7463    1.0000 </r>
       <r>   -8.5041    1.0000 </r>
       <r>   -7.6305    1.0000 </r>
       <r>   -7.1894    1.0000 </r>
       <r>   -5.7564    1.0000 </r>
       <r>   -5.5496    1.0000 </r>
       <r>   -3.7681    1.0000 </r>
       <r>   -2.9128    1.0000 </r>
       <r>   -0.5749    0.0000 </r>
       <r>   -0.5131    0.0000 </r>
       <r>    0.9930    0.0000 </r>
       <r>    1.8249    0.0000 </r>
       <r>    2.7385    0.0000 </r>
       <r>    3.0829    0.0000 </r>
      </set>
      <set comment="kpoint 41">
       <r>  -16.2834    1.0000 </r>
       <r>  -14.0236    1.0000 </r>
       <r>  -11.9908    1.0000 </r>
       <r>   -8.8848    1.0000 </r>
       <r>   -7.8648    1.0000 </r>
       <r>   -7.2628    1.0000 </r>
       <r>   -5.5958    1.0000 </r>
       <r>   -5.5238    1.0000 </r>
       <r>   -3.9411    1.0000 </r>
       <r>   -3.0196    1.0000 </r>
       <r>   -0.7036    0.0000 </r>
       <r>   -0.3774    0.0000 </r>
       <r>    0.4620    0.0000 </r>
       <r>    1.2286    0.0000 </r>
       <r>    2.6581    0.0000 </r>
       <r>    3.1886    0.0000 </r>
      </set>
      <set comment="kpoint 42">
       <r>  -15.9717    1.0000 </r>
       <r>  -13.7273    1.0000 </r>
       <r>  -12.3130    1.0000 </r>
       <r>   -9.4337    1.0000 </r>
       <r>   -7.9474    1.0000 </r>
       <r>   -7.1957    1.0000 </r>
       <r>   -5.4702    1.0000 </r>
       <r>   -5.4329    1.0000 </r>
       <r>   -4.1165    1.0000 </r>
       <r>   -3.1783    1.0000 </r>
       <r>   -0.6833    0.0000 </r>
       <r>   -0.3168    0.0000 </r>
       <r>    0.0984    0.0000 </r>
       <r>    0.6291    0.0000 </r>
       <r>    2.4013    0.0000 </r>
       <r>    2.9751    0.0000 </r>
      </set>
      <set comment="kpoint 43">
       <r>  -15.6179    1.0000 </r>
       <r>  -13.4657    1.0000 </r>
       <r>  -12.6264    1.0000 </r>
       <r>  -10.0387    1.0000 </r>
       <r>   -7.8949    1.0000 </r>
       <r>   -7.0925    1.0000 </r>
       <r>   -5.4609    1.0000 </r>
       <r>   -5.3007    1.0000 </r>
       <r>   -4.2021    1.0000 </r>
       <r>   -3.3666    1.0000 </r>
       <r>   -0.5929    0.0000 </r>
       <r>   -0.5672    0.0000 </r>
       <r>    0.1114    0.0000 </r>
       <r>    0.1869    0.0000 </r>
       <r>    2.0461    0.0000 </r>
       <r>    2.6292    0.0000 </r>
      </set>
      <set comment="kpoint 44">
       <r>  -15.2255    1.0000 </r>
       <r>  -13.5204    1.0000 </r>
       <r>  -12.6183    1.0000 </r>
       <r>  -10.6444    1.0000 </r>
       <r>   -7.7414    1.0000 </r>
       <r>   -7.0434    1.0000 </r>
       <r>   -5.4882    1.0000 </r>
       <r>   -5.2389    1.0000 </r>
       <r>   -4.1525    1.0000 </r>
       <r>   -3.5496    1.0000 </r>
       <r>   -0.8950    0.0000 </r>
       <r>   -0.5999    0.0000 </r>
       <r>   -0.0778    0.0000 </r>
       <r>    0.4293    0.0000 </r>
       <r>    1.6578    0.0000 </r>
       <r>    2.2274    0.0000 </r>
      </set>
      <set comment="kpoint 45">
       <r>  -14.8005    1.0000 </r>
       <r>  -13.9031    1.0000 </r>
       <r>  -12.2509    1.0000 </r>
       <r>  -11.2256    1.0000 </r>
       <r>   -7.5265    1.0000 </r>
       <r>   -7.1141    1.0000 </r>
       <r>   -5.4662    1.0000 </r>
       <r>   -5.2717    1.0000 </r>
       <r>   -4.0159    1.0000 </r>
       <r>   -3.7081    1.0000 </r>
       <r>   -1.0679    0.0000 </r>
       <r>   -0.8790    0.0000 </r>
       <r>    0.1619    0.0000 </r>
       <r>    0.6131    0.0000 </r>
       <r>    1.3731    0.0000 </r>
       <r>    1.8204    0.0000 </r>
      </set>
      <set comment="kpoint 46">
       <r>  -14.3528    1.0000 </r>
       <r>  -14.3528    1.0000 </r>
       <r>  -11.7671    1.0000 </r>
       <r>  -11.7671    1.0000 </r>
       <r>   -7.2968    1.0000 </r>
       <r>   -7.2968    1.0000 </r>
       <r>   -5.3721    1.0000 </r>
       <r>   -5.3721    1.0000 </r>
       <r>   -3.8584    1.0000 </r>
       <r>   -3.8584    1.0000 </r>
       <r>   -1.0626    0.0000 </r>
       <r>   -1.0626    0.0000 </r>
       <r>    0.4740    0.0000 </r>
       <r>    0.4740    0.0000 </r>
       <r>    1.4717    0.0000 </r>
       <r>    1.4717    0.0000 </r>
      </set>
      <set comment="kpoint 47">
       <r>  -14.8005    1.0000 </r>
       <r>  -13.9031    1.0000 </r>
       <r>  -12.2509    1.0000 </r>
       <r>  -11.2256    1.0000 </r>
       <r>   -7.5265    1.0000 </r>
       <r>   -7.1141    1.0000 </r>
       <r>   -5.4662    1.0000 </r>
       <r>   -5.2717    1.0000 </r>
       <r>   -4.0159    1.0000 </r>
       <r>   -3.7081    1.0000 </r>
       <r>   -1.0679    0.0000 </r>
       <r>   -0.8790    0.0000 </r>
       <r>    0.1619    0.0000 </r>
       <r>    0.6131    0.0000 </r>
       <r>    1.3731    0.0000 </r>
       <r>    1.8204    0.0000 </r>
      </set>
      <set comment="kpoint 48">
       <r>  -15.2255    1.0000 </r>
       <r>  -13.5204    1.0000 </r>
       <r>  -12.6183    1.0000 </r>
       <r>  -10.6444    1.0000 </r>
       <r>   -7.7414    1.0000 </r>
       <r>   -7.0434    1.0000 </r>
       <r>   -5.4882    1.0000 </r>
       <r>   -5.2389    1.0000 </r>
       <r>   -4.1525    1.0000 </r>
       <r>   -3.5496    1.0000 </r>
       <r>   -0.8950    0.0000 </r>
       <r>   -0.5999    0.0000 </r>
       <r>   -0.0778    0.0000 </r>
       <r>    0.4293    0.0000 </r>
       <r>    1.6578    0.0000 </r>
       <r>    2.2274    0.0000 </r>
      </set>
      <set comment="kpoint 49">
       <r>  -15.6179    1.0000 </r>
       <r>  -13.4657    1.0000 </r>
       <r>  -12.6264    1.0000 </r>
       <r>  -10.0387    1.0000 </r>
       <r>   -7.8949    1.0000 </r>
       <r>   -7.0925    1.0000 </r>
       <r>   -5.4609    1.0000 </r>
       <r>   -5.3007    1.0000 </r>
       <r>   -4.2021    1.0000 </r>
       <r>   -3.3666    1.0000 </r>
       <r>   -0.5929    0.0000 </r>
       <r>   -0.5672    0.0000 </r>
       <r>    0.1114    0.0000 </r>
       <r>    0.1869    0.0000 </r>
       <r>    2.0461    0.0000 </r>
       <r>    2.6292    0.0000 </r>
      </set>
      <set comment="kpoint 50">
       <r>  -15.9717    1.0000 </r>
       <r>  -13.7273    1.0000 </r>
       <r>  -12.3130    1.0000 </r>
       <r>   -9.4337    1.0000 </r>
       <r>   -7.9474    1.0000 </r>
       <r>   -7.1957    1.0000 </r>
       <r>   -5.4702    1.0000 </r>
       <r>   -5.4329    1.0000 </r>
       <r>   -4.1165    1.0000 </r>
       <r>   -3.1783    1.0000 </r>
       <r>   -0.6833    0.0000 </r>
       <r>   -0.3168    0.0000 </r>
       <r>    0.0984    0.0000 </r>
       <r>    0.6291    0.0000 </r>
       <r>    2.4013    0.0000 </r>
       <r>    2.9751    0.0000 </r>
      </set>
      <set comment="kpoint 51">
       <r>  -16.2834    1.0000 </r>
       <r>  -14.0236    1.0000 </r>
       <r>  -11.9908    1.0000 </r>
       <r>   -8.8848    1.0000 </r>
       <r>   -7.8648    1.0000 </r>
       <r>   -7.2628    1.0000 </r>
       <r>   -5.5958    1.0000 </r>
       <r>   -5.5238    1.0000 </r>
       <r>   -3.9411    1.0000 </r>
       <r>   -3.0196    1.0000 </r>
       <r>   -0.7036    0.0000 </r>
       <r>   -0.3774    0.0000 </r>
       <r>    0.4620    0.0000 </r>
       <r>    1.2286    0.0000 </r>
       <r>    2.6581    0.0000 </r>
       <r>    3.1886    0.0000 </r>
      </set>
      <set comment="kpoint 52">
       <r>  -16.5503    1.0000 </r>
       <r>  -14.2901    1.0000 </r>
       <r>  -11.7463    1.0000 </r>
       <r>   -8.5041    1.0000 </r>
       <r>   -7.6305    1.0000 </r>
       <r>   -7.1894    1.0000 </r>
       <r>   -5.7564    1.0000 </r>
       <r>   -5.5496    1.0000 </r>
       <r>   -3.7681    1.0000 </r>
       <r>   -2.9128    1.0000 </r>
       <r>   -0.5749    0.0000 </r>
       <r>   -0.5131    0.0000 </r>
       <r>    0.9930    0.0000 </r>
       <r>    1.8249    0.0000 </r>
       <r>    2.7385    0.0000 </r>
       <r>    3.0829    0.0000 </r>
      </set>
      <set comment="kpoint 53">
       <r>  -16.7706    1.0000 </r>
       <r>  -14.5135    1.0000 </r>
       <r>  -11.5925    1.0000 </r>
       <r>   -8.3663    1.0000 </r>
       <r>   -7.2639    1.0000 </r>
       <r>   -6.9663    1.0000 </r>
       <r>   -5.8880    1.0000 </r>
       <r>   -5.4446    1.0000 </r>
       <r>   -3.6523    1.0000 </r>
       <r>   -2.8588    1.0000 </r>
       <r>   -0.6284    0.0000 </r>
       <r>   -0.2938    0.0000 </r>
       <r>    1.5422    0.0000 </r>
       <r>    2.1990    0.0000 </r>
       <r>    2.3128    0.0000 </r>
       <r>    2.6668    0.0000 </r>
      </set>
      <set comment="kpoint 54">
       <r>  -16.9431    1.0000 </r>
       <r>  -14.6895    1.0000 </r>
       <r>  -11.5113    1.0000 </r>
       <r>   -8.3705    1.0000 </r>
       <r>   -6.8399    1.0000 </r>
       <r>   -6.7798    1.0000 </r>
       <r>   -5.9514    1.0000 </r>
       <r>   -5.1207    1.0000 </r>
       <r>   -3.5975    1.0000 </r>
       <r>   -2.8443    1.0000 </r>
       <r>   -0.7174    0.0000 </r>
       <r>    0.0974    0.0000 </r>
       <r>    1.2032    0.0000 </r>
       <r>    1.8631    0.0000 </r>
       <r>    2.2423    0.0000 </r>
       <r>    2.5535    0.0000 </r>
[...]
       <r>    3.3936    0.0000 </r>
       <r>    3.3947    0.0000 </r>
      </set>
      <set comment="kpoint 161">
       <r>  -15.4345    1.0000 </r>
       <r>  -15.1850    1.0000 </r>
       <r>  -10.8374    1.0000 </r>
       <r>  -10.5124    1.0000 </r>
       <r>   -7.8683    1.0000 </r>
       <r>   -7.7096    1.0000 </r>
       <r>   -5.1982    1.0000 </r>
       <r>   -4.9586    1.0000 </r>
       <r>   -3.8189    1.0000 </r>
       <r>   -3.7612    1.0000 </r>
       <r>    0.2937    0.0000 </r>
       <r>    0.6670    0.0000 </r>
       <r>    1.1697    0.0000 </r>
       <r>    1.4821    0.0000 </r>
       <r>    3.3346    0.0000 </r>
       <r>    3.3887    0.0000 </r>
      </set>
      <set comment="kpoint 162">
       <r>  -15.6870    1.0000 </r>
       <r>  -15.4337    1.0000 </r>
       <r>  -10.7308    1.0000 </r>
       <r>  -10.4026    1.0000 </r>
       <r>   -7.4921    1.0000 </r>
       <r>   -7.3265    1.0000 </r>
       <r>   -5.1323    1.0000 </r>
       <r>   -4.8396    1.0000 </r>
       <r>   -3.7179    1.0000 </r>
       <r>   -3.6555    1.0000 </r>
       <r>    0.3365    0.0000 </r>
       <r>    0.6157    0.0000 </r>
       <r>    1.2409    0.0000 </r>
       <r>    1.5883    0.0000 </r>
       <r>    3.0202    0.0000 </r>
       <r>    3.2876    0.0000 </r>
      </set>
      <set comment="kpoint 163">
       <r>  -15.8981    1.0000 </r>
       <r>  -15.6426    1.0000 </r>
       <r>  -10.7179    1.0000 </r>
       <r>  -10.3939    1.0000 </r>
       <r>   -6.9514    1.0000 </r>
       <r>   -6.7735    1.0000 </r>
       <r>   -5.1719    1.0000 </r>
       <r>   -4.8467    1.0000 </r>
       <r>   -3.6214    1.0000 </r>
       <r>   -3.4386    1.0000 </r>
       <r>    0.4715    0.0000 </r>
       <r>    0.6356    0.0000 </r>
       <r>    1.2249    0.0000 </r>
       <r>    1.5948    0.0000 </r>
       <r>    2.4199    0.0000 </r>
       <r>    2.6576    0.0000 </r>
      </set>
      <set comment="kpoint 164">
       <r>  -16.0646    1.0000 </r>
       <r>  -15.8080    1.0000 </r>
       <r>  -10.7498    1.0000 </r>
       <r>  -10.4313    1.0000 </r>
       <r>   -6.3164    1.0000 </r>
       <r>   -6.1277    1.0000 </r>
       <r>   -5.2431    1.0000 </r>
       <r>   -4.9040    1.0000 </r>
       <r>   -3.5582    1.0000 </r>
       <r>   -3.2666    1.0000 </r>
       <r>    0.6341    0.0000 </r>
       <r>    0.6825    0.0000 </r>
       <r>    1.1394    0.0000 </r>
       <r>    1.4655    0.0000 </r>
       <r>    1.8198    0.0000 </r>
       <r>    1.9376    0.0000 </r>
      </set>
      <set comment="kpoint 165">
       <r>  -16.1847    1.0000 </r>
       <r>  -15.9273    1.0000 </r>
       <r>  -10.7914    1.0000 </r>
       <r>  -10.4771    1.0000 </r>
       <r>   -5.6605    1.0000 </r>
       <r>   -5.4778    1.0000 </r>
       <r>   -5.2979    1.0000 </r>
       <r>   -4.9641    1.0000 </r>
       <r>   -3.5794    1.0000 </r>
       <r>   -3.1951    1.0000 </r>
       <r>    0.4912    0.0000 </r>
       <r>    0.4942    0.0000 </r>
       <r>    1.1302    0.0000 </r>
       <r>    1.2432    0.0000 </r>
       <r>    1.5577    0.0000 </r>
       <r>    1.6241    0.0000 </r>
      </set>
      <set comment="kpoint 166">
       <r>  -16.2572    1.0000 </r>
       <r>  -15.9995    1.0000 </r>
       <r>  -10.8226    1.0000 </r>
       <r>  -10.5108    1.0000 </r>
       <r>   -5.3629    1.0000 </r>
       <r>   -5.0852    1.0000 </r>
       <r>   -5.0056    1.0000 </r>
       <r>   -4.8921    1.0000 </r>
       <r>   -3.6960    1.0000 </r>
       <r>   -3.2354    1.0000 </r>
       <r>    0.0758    0.0000 </r>
       <r>    0.1020    0.0000 </r>
       <r>    1.1928    0.0000 </r>
       <r>    1.3030    0.0000 </r>
       <r>    1.5465    0.0000 </r>
       <r>    1.5574    0.0000 </r>
      </set>
     </set>
    </set>
   </array>
  </eigenvalues>
  <separator name="orbital magnetization" >
   <v name="MAGDIPOLOUT">      0.00000000      0.00000000      0.00000000</v>
  </separator>
  <dos>
   <i name="efermi">     -2.18790720 </i>
   <total>
    <array>
     <dimension dim="1">gridpoints</dimension>
     <dimension dim="2">spin</dimension>
     <field>energy</field>
     <field>total</field>
     <field>integrated</field>
     <set>
      <set comment="spin 1">
       <r>   -18.2910     0.0000     0.0000 </r>
       <r>   -18.2148     0.0000     0.0000 </r>
       <r>   -18.1386     0.0000     0.0000 </r>
       <r>   -18.0624     0.0000     0.0000 </r>
       <r>   -17.9861     0.0000     0.0000 </r>
       <r>   -17.9099     0.0000     0.0000 </r>
       <r>   -17.8337     0.0000     0.0000 </r>
       <r>   -17.7574     0.0000     0.0000 </r>
       <r>   -17.6812     0.0000     0.0000 </r>
       <r>   -17.6050     0.0000     0.0000 </r>
       <r>   -17.5288     0.0000     0.0000 </r>
       <r>   -17.4525     0.0000     0.0000 </r>
       <r>   -17.3763     0.0000     0.0000 </r>
       <r>   -17.3001     0.0000     0.0000 </r>
       <r>   -17.2239     0.3061     0.0233 </r>
       <r>   -17.1476     0.7923     0.0837 </r>
       <r>   -17.0714     0.7281     0.1392 </r>
       <r>   -16.9952     1.0487     0.2192 </r>
       <r>   -16.9189     0.7624     0.2773 </r>
       <r>   -16.8427     0.7608     0.3353 </r>
       <r>   -16.7665     0.9667     0.4090 </r>
       <r>   -16.6903     0.7868     0.4689 </r>
       <r>   -16.6140     1.0395     0.5482 </r>
       <r>   -16.5378     0.5497     0.5901 </r>
       <r>   -16.4616     1.1346     0.6766 </r>
       <r>   -16.3853     0.5983     0.7222 </r>
       <r>   -16.3091     1.0340     0.8010 </r>
       <r>   -16.2329     1.1657     0.8899 </r>
       <r>   -16.1567     0.6600     0.9402 </r>
       <r>   -16.0804     0.6725     0.9914 </r>
       <r>   -16.0042     1.3231     1.0923 </r>
       <r>   -15.9280     0.7994     1.1532 </r>
       <r>   -15.8518     1.2769     1.2506 </r>
       <r>   -15.7755     0.3868     1.2800 </r>
       <r>   -15.6993     0.9150     1.3498 </r>
       <r>   -15.6231     1.6982     1.4792 </r>
       <r>   -15.5468     0.6738     1.5306 </r>
       <r>   -15.4706     0.8748     1.5973 </r>
       <r>   -15.3944     1.1897     1.6880 </r>
       <r>   -15.3182     0.8486     1.7527 </r>
       <r>   -15.2419     1.1757     1.8423 </r>
       <r>   -15.1657     1.4040     1.9493 </r>
       <r>   -15.0895     1.2220     2.0425 </r>
       <r>   -15.0132     1.2850     2.1404 </r>
       <r>   -14.9370     0.5472     2.1821 </r>
       <r>   -14.8608     2.0411     2.3377 </r>
       <r>   -14.7846     2.1850     2.5043 </r>
       <r>   -14.7083     0.8973     2.5727 </r>
       <r>   -14.6321     2.0616     2.7298 </r>
       <r>   -14.5559     1.0355     2.8088 </r>
       <r>   -14.4797     0.9645     2.8823 </r>
       <r>   -14.4034     1.1173     2.9675 </r>
       <r>   -14.3272     1.8262     3.1067 </r>
       <r>   -14.2510     0.9287     3.1775 </r>
       <r>   -14.1747     1.2139     3.2700 </r>
       <r>   -14.0985     1.7145     3.4007 </r>
       <r>   -14.0223     0.8890     3.4684 </r>
       <r>   -13.9461     0.5864     3.5131 </r>
       <r>   -13.8698     2.9245     3.7361 </r>
       <r>   -13.7936     0.1348     3.7463 </r>
       <r>   -13.7174     0.5483     3.7881 </r>
       <r>   -13.6411     0.4500     3.8224 </r>
       <r>   -13.5649     0.5641     3.8654 </r>
       <r>   -13.4887     0.5066     3.9041 </r>
       <r>   -13.4125     0.7528     3.9614 </r>
       <r>   -13.3362     0.0288     3.9636 </r>
       <r>   -13.2600     0.2613     3.9836 </r>
       <r>   -13.1838     0.0584     3.9880 </r>
       <r>   -13.1075     0.1572     4.0000 </r>
       <r>   -13.0313     0.0002     4.0000 </r>
       <r>   -12.9551     0.0368     4.0028 </r>
       <r>   -12.8789     0.1222     4.0121 </r>
       <r>   -12.8026     0.2903     4.0343 </r>
       <r>   -12.7264     0.0842     4.0407 </r>
       <r>   -12.6502     0.4387     4.0741 </r>
       <r>   -12.5740     0.6175     4.1212 </r>
       <r>   -12.4977     0.2942     4.1436 </r>
       <r>   -12.4215     0.5734     4.1873 </r>
       <r>   -12.3453     0.4803     4.2239 </r>
       <r>   -12.2690     0.5111     4.2629 </r>
       <r>   -12.1928     1.7057     4.3929 </r>
       <r>   -12.1166     1.1938     4.4839 </r>
       <r>   -12.0404     1.0395     4.5632 </r>
       <r>   -11.9641     1.2156     4.6558 </r>
       <r>   -11.8879     1.0726     4.7376 </r>
       <r>   -11.8117     1.2165     4.8303 </r>
       <r>   -11.7354     1.3715     4.9349 </r>
       <r>   -11.6592     1.0092     5.0118 </r>
       <r>   -11.5830     1.6693     5.1390 </r>
       <r>   -11.5068     1.5303     5.2557 </r>
       <r>   -11.4305     3.6603     5.5347 </r>
       <r>   -11.3543     2.5841     5.7317 </r>
       <r>   -11.2781     0.9690     5.8056 </r>
       <r>   -11.2019     1.7914     5.9421 </r>
       <r>   -11.1256     0.9584     6.0152 </r>
       <r>   -11.0494     1.4560     6.1262 </r>
       <r>   -10.9732     1.1097     6.2107 </r>
       <r>   -10.8969     0.2652     6.2310 </r>
       <r>   -10.8207     0.9804     6.3057 </r>
       <r>   -10.7445     1.3234     6.4066 </r>
       <r>   -10.6683     0.8028     6.4678 </r>
       <r>   -10.5920     0.5753     6.5116 </r>
       <r>   -10.5158     0.8776     6.5785 </r>
       <r>   -10.4396     1.1029     6.6626 </r>
       <r>   -10.3633     1.1369     6.7493 </r>
       <r>   -10.2871     0.1091     6.7576 </r>
       <r>   -10.2109     0.0050     6.7580 </r>
       <r>   -10.1347     1.3387     6.8600 </r>
       <r>   -10.0584     0.7207     6.9149 </r>
       <r>    -9.9822     0.9624     6.9883 </r>
       <r>    -9.9060     0.4552     7.0230 </r>
       <r>    -9.8298     0.4108     7.0543 </r>
       <r>    -9.7535     0.4418     7.0880 </r>
       <r>    -9.6773     0.7099     7.1421 </r>
       <r>    -9.6011     1.1342     7.2286 </r>
       <r>    -9.5248     0.0228     7.2303 </r>
       <r>    -9.4486     0.3563     7.2575 </r>
       <r>    -9.3724     0.2798     7.2788 </r>
       <r>    -9.2962     0.7945     7.3394 </r>
       <r>    -9.2199     1.2155     7.4320 </r>
       <r>    -9.1437     0.4759     7.4683 </r>
       <r>    -9.0675     0.0581     7.4727 </r>
       <r>    -8.9912     0.0000     7.4727 </r>
       <r>    -8.9150     0.0089     7.4734 </r>
       <r>    -8.8388     1.2702     7.5702 </r>
       <r>    -8.7626     0.7767     7.6294 </r>
       <r>    -8.6863     0.2342     7.6473 </r>
       <r>    -8.6101     0.2255     7.6645 </r>
       <r>    -8.5339     0.0343     7.6671 </r>
       <r>    -8.4576     0.4616     7.7023 </r>
       <r>    -8.3814     0.7561     7.7599 </r>
       <r>    -8.3052     0.5259     7.8000 </r>
       <r>    -8.2290     0.0010     7.8001 </r>
       <r>    -8.1527     1.1102     7.8847 </r>
       <r>    -8.0765     1.7580     8.0187 </r>
       <r>    -8.0003     2.1165     8.1801 </r>
       <r>    -7.9241     2.6321     8.3807 </r>
       <r>    -7.8478     1.8890     8.5247 </r>
       <r>    -7.7716     1.3751     8.6295 </r>
       <r>    -7.6954     2.6749     8.8334 </r>
       <r>    -7.6191     2.5484     9.0277 </r>
       <r>    -7.5429     0.9615     9.1010 </r>
       <r>    -7.4667     2.0509     9.2573 </r>
       <r>    -7.3905     1.7274     9.3890 </r>
       <r>    -7.3142     2.9358     9.6128 </r>
       <r>    -7.2380     2.8832     9.8325 </r>
       <r>    -7.1618     3.7689    10.1198 </r>
       <r>    -7.0855     2.9079    10.3415 </r>
       <r>    -7.0093     3.0042    10.5705 </r>
       <r>    -6.9331     1.4330    10.6797 </r>
       <r>    -6.8569     0.7571    10.7375 </r>
       <r>    -6.7806     1.2950    10.8362 </r>
       <r>    -6.7044     1.7642    10.9707 </r>
       <r>    -6.6282     2.2409    11.1415 </r>
       <r>    -6.5520     1.2020    11.2331 </r>
       <r>    -6.4757     2.0951    11.3928 </r>
       <r>    -6.3995     1.4621    11.5043 </r>
       <r>    -6.3233     0.9634    11.5777 </r>
       <r>    -6.2470     1.8062    11.7154 </r>
       <r>    -6.1708     1.9808    11.8664 </r>
       <r>    -6.0946     1.1319    11.9527 </r>
       <r>    -6.0184     1.7391    12.0852 </r>
       <r>    -5.9421     2.4880    12.2749 </r>
       <r>    -5.8659     1.4535    12.3857 </r>
       <r>    -5.7897     1.8039    12.5232 </r>
       <r>    -5.7134     1.4931    12.6370 </r>
       <r>    -5.6372     4.2797    12.9632 </r>
       <r>    -5.5610     3.3349    13.2174 </r>
       <r>    -5.4848     2.9716    13.4440 </r>
       <r>    -5.4085     5.2910    13.8473 </r>
       <r>    -5.3323     2.4735    14.0358 </r>
       <r>    -5.2561     3.3706    14.2928 </r>
       <r>    -5.1799     3.0165    14.5227 </r>
       <r>    -5.1036     3.4136    14.7829 </r>
       <r>    -5.0274     1.6947    14.9121 </r>
       <r>    -4.9512     2.4362    15.0978 </r>
       <r>    -4.8749     2.1751    15.2636 </r>
       <r>    -4.7987     1.2862    15.3617 </r>
       <r>    -4.7225     1.0047    15.4382 </r>
       <r>    -4.6463     0.8238    15.5010 </r>
       <r>    -4.5700     1.5365    15.6182 </r>
       <r>    -4.4938     2.1077    15.7788 </r>
       <r>    -4.4176     0.6155    15.8257 </r>
       <r>    -4.3413     0.7013    15.8792 </r>
       <r>    -4.2651     0.7543    15.9367 </r>
       <r>    -4.1889     2.3408    16.1151 </r>
       <r>    -4.1127     2.6177    16.3147 </r>
       <r>    -4.0364     2.6293    16.5151 </r>
       <r>    -3.9602     2.2780    16.6887 </r>
       <r>    -3.8840     3.3154    16.9415 </r>
       <r>    -3.8077     3.9474    17.2424 </r>
       <r>    -3.7315     3.1869    17.4853 </r>
       <r>    -3.6553     4.1000    17.7978 </r>
       <r>    -3.5791     3.6767    18.0781 </r>
       <r>    -3.5028     2.9450    18.3026 </r>
       <r>    -3.4266     2.2868    18.4769 </r>
       <r>    -3.3504     4.0401    18.7849 </r>
       <r>    -3.2742     4.0089    19.0905 </r>
       <r>    -3.1979     2.5854    19.2875 </r>
       <r>    -3.1217     0.8006    19.3486 </r>
       <r>    -3.0455     1.0506    19.4286 </r>
       <r>    -2.9692     0.7885    19.4888 </r>
       <r>    -2.8930     1.6739    19.6163 </r>
       <r>    -2.8168     1.9671    19.7663 </r>
       <r>    -2.7406     0.4415    19.8000 </r>
       <r>    -2.6643     0.1883    19.8143 </r>
       <r>    -2.5881     0.1499    19.8257 </r>
       <r>    -2.5119     0.4820    19.8625 </r>
       <r>    -2.4356     1.1124    19.9473 </r>
       <r>    -2.3594     0.1379    19.9578 </r>
       <r>    -2.2832     0.2662    19.9781 </r>
       <r>    -2.2070     0.2876    20.0000 </r>
       <r>    -2.1307     0.0000    20.0000 </r>
       <r>    -2.0545     0.0000    20.0000 </r>
       <r>    -1.9783     0.0000    20.0000 </r>
       <r>    -1.9021     0.0000    20.0000 </r>
       <r>    -1.8258     0.0000    20.0000 </r>
       <r>    -1.7496     0.0000    20.0000 </r>
       <r>    -1.6734     0.0000    20.0000 </r>
       <r>    -1.5971     0.0000    20.0000 </r>
       <r>    -1.5209     0.0000    20.0000 </r>
       <r>    -1.4447     0.0000    20.0000 </r>
       <r>    -1.3685     0.1376    20.0105 </r>
       <r>    -1.2922     0.1930    20.0252 </r>
       <r>    -1.2160     0.0846    20.0316 </r>
       <r>    -1.1398     0.7970    20.0924 </r>
       <r>    -1.0635     1.1420    20.1795 </r>
       <r>    -0.9873     2.1197    20.3410 </r>
       <r>    -0.9111     1.5224    20.4571 </r>
       <r>    -0.8349     1.5075    20.5720 </r>
       <r>    -0.7586     2.1540    20.7362 </r>
       <r>    -0.6824     2.1823    20.9025 </r>
       <r>    -0.6062     1.0181    20.9801 </r>
       <r>    -0.5300     1.9542    21.1291 </r>
       <r>    -0.4537     2.4561    21.3163 </r>
       <r>    -0.3775     2.2560    21.4883 </r>
       <r>    -0.3013     2.5408    21.6820 </r>
       <r>    -0.2250     2.1947    21.8493 </r>
       <r>    -0.1488     2.6719    22.0530 </r>
       <r>    -0.0726     3.0254    22.2836 </r>
       <r>     0.0036     2.4066    22.4670 </r>
       <r>     0.0799     2.7698    22.6782 </r>
       <r>     0.1561     4.3047    23.0063 </r>
       <r>     0.2323     2.8558    23.2240 </r>
       <r>     0.3086     2.9550    23.4492 </r>
       <r>     0.3848     4.1963    23.7691 </r>
       <r>     0.4610     4.5422    24.1154 </r>
       <r>     0.5372     4.6980    24.4735 </r>
       <r>     0.6135     3.1945    24.7170 </r>
       <r>     0.6897     5.4660    25.1337 </r>
       <r>     0.7659     2.5764    25.3300 </r>
       <r>     0.8422     3.3748    25.5873 </r>
       <r>     0.9184     3.1358    25.8263 </r>
       <r>     0.9946     3.8001    26.1160 </r>
       <r>     1.0708     2.8441    26.3328 </r>
       <r>     1.1471     2.9930    26.5609 </r>
       <r>     1.2233     3.5165    26.8290 </r>
       <r>     1.2995     2.7741    27.0405 </r>
       <r>     1.3757     1.7445    27.1734 </r>
       <r>     1.4520     1.6043    27.2957 </r>
       <r>     1.5282     2.8606    27.5138 </r>
       <r>     1.6044     3.7264    27.7978 </r>
       <r>     1.6807     1.4704    27.9099 </r>
       <r>     1.7569     1.2977    28.0089 </r>
       <r>     1.8331     2.2402    28.1796 </r>
       <r>     1.9093     3.5336    28.4490 </r>
       <r>     1.9856     2.0762    28.6072 </r>
       <r>     2.0618     1.8120    28.7454 </r>
       <r>     2.1380     1.9798    28.8963 </r>
       <r>     2.2143     2.3604    29.0762 </r>
       <r>     2.2905     3.1394    29.3155 </r>
       <r>     2.3667     2.9861    29.5431 </r>
       <r>     2.4429     3.6749    29.8233 </r>
       <r>     2.5192     2.0854    29.9822 </r>
       <r>     2.5954     2.4068    30.1657 </r>
       <r>     2.6716     3.3254    30.4192 </r>
       <r>     2.7478     3.5091    30.6867 </r>
       <r>     2.8241     2.7444    30.8959 </r>
       <r>     2.9003     1.6737    31.0235 </r>
       <r>     2.9765     1.2480    31.1186 </r>
       <r>     3.0528     2.3855    31.3004 </r>
       <r>     3.1290     2.0634    31.4577 </r>
       <r>     3.2052     1.6708    31.5851 </r>
       <r>     3.2814     1.1889    31.6757 </r>
       <r>     3.3577     1.9622    31.8253 </r>
       <r>     3.4339     1.0203    31.9031 </r>
       <r>     3.5101     0.6951    31.9560 </r>
       <r>     3.5864     0.5766    32.0000 </r>
       <r>     3.6626     0.0001    32.0000 </r>
       <r>     3.7388     0.0000    32.0000 </r>
       <r>     3.8150     0.0000    32.0000 </r>
       <r>     3.8913     0.0000    32.0000 </r>
       <r>     3.9675     0.0000    32.0000 </r>
       <r>     4.0437     0.0000    32.0000 </r>
       <r>     4.1199     0.0000    32.0000 </r>
       <r>     4.1962     0.0000    32.0000 </r>
       <r>     4.2724     0.0000    32.0000 </r>
       <r>     4.3486     0.0000    32.0000 </r>
       <r>     4.4249     0.0000    32.0000 </r>
       <r>     4.5011     0.0000    32.0000 </r>
       <r>     4.5773     0.0000    32.0000 </r>
      </set>
     </set>
    </array>
   </total>
  </dos>
 </calculation>
 <structure name="finalpos" >
  <crystal>
   <varray name="basis" >
    <v>       3.28067700       0.00000000       0.00000000 </v>
    <v>       0.00000000       4.62335100      -0.00005300 </v>
    <v>       0.00000000       0.00000000      20.02439000 </v>
   </varray>
   <i name="volume">    303.72436649 </i>
   <varray name="rec_basis" >
    <v>       0.30481513       0.00000000       0.00000000 </v>
    <v>       0.00000000       0.21629333       0.00000000 </v>
    <v>       0.00000000       0.00000057       0.04993910 </v>
   </varray>
  </crystal>
  <varray name="positions" >
   <v>       0.50000000       0.91105279       0.55252882 </v>
   <v>       0.50000000       0.08894721       0.44747118 </v>
   <v>      -0.00000000       0.41104846       0.44747118 </v>
   <v>       0.00000000       0.58895154       0.55252882 </v>
  </varray>
 </structure>
</modeling>
