<?xml version="1.0" encoding="ISO-8859-1"?>
<modeling>
 <generator>
  <i name="program" type="string">vasp </i>
  <i name="version" type="string">5.4.1  </i>
  <i name="subversion" type="string">24Jun15 (build Nov 20 2020 10:29:34) complex                          parallel </i>
  <i name="platform" type="string">IFC91_ompi </i>
  <i name="date" type="string">2021 09 09 </i>
  <i name="time" type="string">14:56:22 </i>
 </generator>
 <incar>
  <i type="string" name="PREC">a</i>
  <i type="string" name="ALGO"> Normal</i>
  <i type="int" name="ISPIN">     1</i>
  <i type="int" name="ICHARG">     2</i>
  <i type="int" name="NELM">   250</i>
  <i type="int" name="NELMDL">    -5</i>
  <i type="int" name="NELMIN">     6</i>
  <i type="int" name="IBRION">     2</i>
  <i name="EDIFF">      0.00001000</i>
  <i name="EDIFFG">     -0.01000000</i>
  <i type="int" name="NSW">   200</i>
  <i type="int" name="ISIF">     2</i>
  <i name="ENCUT">    520.00000000</i>
  <i name="POTIM">      0.30000000</i>
  <i type="logical" name="LREAL"> F  </i>
  <i type="int" name="ISMEAR">     0</i>
  <i name="SIGMA">      0.02000000</i>
  <i type="logical" name="LWAVE"> F  </i>
  <i type="logical" name="LCHARG"> F  </i>
  <i type="logical" name="LAECHG"> F  </i>
  <v type="int" name="KPOINT_BSE">    -1     0     0     0</v>
  <i type="int" name="NELM">   250</i>
 </incar>
 <kpoints>
  <generation param="Gamma">
   <v type="int" name="divisions">      15       13        1 </v>
   <v name="usershift">      0.00000000       0.00000000       0.00000000 </v>
   <v name="genvec1">      0.06666667       0.00000000       0.00000000 </v>
   <v name="genvec2">      0.00000000       0.07692308       0.00000000 </v>
   <v name="genvec3">      0.00000000       0.00000000       1.00000000 </v>
   <v name="shift">      0.00000000       0.00000000       0.00000000 </v>
  </generation>
  <varray name="kpointlist" >
   <v>       0.00000000       0.00000000       0.00000000 </v>
   <v>       0.06666667       0.00000000       0.00000000 </v>
   <v>       0.13333333       0.00000000       0.00000000 </v>
   <v>       0.20000000       0.00000000       0.00000000 </v>
   <v>       0.26666667       0.00000000       0.00000000 </v>
   <v>       0.33333333       0.00000000       0.00000000 </v>
   <v>       0.40000000       0.00000000       0.00000000 </v>
   <v>       0.46666667       0.00000000       0.00000000 </v>
   <v>       0.00000000       0.07692308       0.00000000 </v>
   <v>       0.06666667       0.07692308       0.00000000 </v>
   <v>       0.13333333       0.07692308       0.00000000 </v>
   <v>       0.20000000       0.07692308       0.00000000 </v>
   <v>       0.26666667       0.07692308       0.00000000 </v>
   <v>       0.33333333       0.07692308       0.00000000 </v>
   <v>       0.40000000       0.07692308       0.00000000 </v>
   <v>       0.46666667       0.07692308       0.00000000 </v>
   <v>       0.00000000       0.15384615       0.00000000 </v>
   <v>       0.06666667       0.15384615       0.00000000 </v>
   <v>       0.13333333       0.15384615       0.00000000 </v>
   <v>       0.20000000       0.15384615       0.00000000 </v>
   <v>       0.26666667       0.15384615       0.00000000 </v>
   <v>       0.33333333       0.15384615       0.00000000 </v>
   <v>       0.40000000       0.15384615       0.00000000 </v>
   <v>       0.46666667       0.15384615       0.00000000 </v>
   <v>       0.00000000       0.23076923       0.00000000 </v>
   <v>       0.06666667       0.23076923       0.00000000 </v>
   <v>       0.13333333       0.23076923       0.00000000 </v>
   <v>       0.20000000       0.23076923       0.00000000 </v>
   <v>       0.26666667       0.23076923       0.00000000 </v>
   <v>       0.33333333       0.23076923       0.00000000 </v>
   <v>       0.40000000       0.23076923       0.00000000 </v>
   <v>       0.46666667       0.23076923       0.00000000 </v>
   <v>       0.00000000       0.30769231       0.00000000 </v>
   <v>       0.06666667       0.30769231       0.00000000 </v>
   <v>       0.13333333       0.30769231       0.00000000 </v>
   <v>       0.20000000       0.30769231       0.00000000 </v>
   <v>       0.26666667       0.30769231       0.00000000 </v>
   <v>       0.33333333       0.30769231       0.00000000 </v>
   <v>       0.40000000       0.30769231       0.00000000 </v>
   <v>       0.46666667       0.30769231       0.00000000 </v>
   <v>       0.00000000       0.38461538       0.00000000 </v>
   <v>       0.06666667       0.38461538       0.00000000 </v>
   <v>       0.13333333       0.38461538       0.00000000 </v>
   <v>       0.20000000       0.38461538       0.00000000 </v>
   <v>       0.26666667       0.38461538       0.00000000 </v>
   <v>       0.33333333       0.38461538       0.00000000 </v>
   <v>       0.40000000       0.38461538       0.00000000 </v>
   <v>       0.46666667       0.38461538       0.00000000 </v>
   <v>       0.00000000       0.46153846       0.00000000 </v>
   <v>       0.06666667       0.46153846       0.00000000 </v>
   <v>       0.13333333       0.46153846       0.00000000 </v>
   <v>       0.20000000       0.46153846       0.00000000 </v>
   <v>       0.26666667       0.46153846       0.00000000 </v>
   <v>       0.33333333       0.46153846       0.00000000 </v>
   <v>       0.40000000       0.46153846       0.00000000 </v>
   <v>       0.46666667       0.46153846       0.00000000 </v>
  </varray>
  <varray name="weights" >
   <v>       0.00512821 </v>
   <v>       0.01025641 </v>
   <v>       0.01025641 </v>
   <v>       0.01025641 </v>
   <v>       0.01025641 </v>
   <v>       0.01025641 </v>
   <v>       0.01025641 </v>
   <v>       0.01025641 </v>
   <v>       0.01025641 </v>
   <v>       0.02051282 </v>
   <v>       0.02051282 </v>
   <v>       0.02051282 </v>
   <v>       0.02051282 </v>
   <v>       0.02051282 </v>
   <v>       0.02051282 </v>
   <v>       0.02051282 </v>
   <v>       0.01025641 </v>
   <v>       0.02051282 </v>
   <v>       0.02051282 </v>
   <v>       0.02051282 </v>
   <v>       0.02051282 </v>
   <v>       0.02051282 </v>
   <v>       0.02051282 </v>
   <v>       0.02051282 </v>
   <v>       0.01025641 </v>
   <v>       0.02051282 </v>
   <v>       0.02051282 </v>
   <v>       0.02051282 </v>
   <v>       0.02051282 </v>
   <v>       0.02051282 </v>
   <v>       0.02051282 </v>
   <v>       0.02051282 </v>
   <v>       0.01025641 </v>
   <v>       0.02051282 </v>
   <v>       0.02051282 </v>
   <v>       0.02051282 </v>
   <v>       0.02051282 </v>
   <v>       0.02051282 </v>
   <v>       0.02051282 </v>
   <v>       0.02051282 </v>
   <v>       0.01025641 </v>
   <v>       0.02051282 </v>
   <v>       0.02051282 </v>
   <v>       0.02051282 </v>
   <v>       0.02051282 </v>
   <v>       0.02051282 </v>
   <v>       0.02051282 </v>
   <v>       0.02051282 </v>
   <v>       0.01025641 </v>
   <v>       0.02051282 </v>
   <v>       0.02051282 </v>
   <v>       0.02051282 </v>
   <v>       0.02051282 </v>
   <v>       0.02051282 </v>
   <v>       0.02051282 </v>
   <v>       0.02051282 </v>
  </varray>
 </kpoints>
 <parameters>
  <separator name="general" >
   <i type="string" name="SYSTEM">unknown system</i>
   <i type="logical" name="LCOMPAT"> F  </i>
  </separator>
  <separator name="electronic" >
   <i type="string" name="PREC">a</i>
   <i name="ENMAX">    520.00000000</i>
   <i name="ENAUG">    531.35600000</i>
   <i name="EDIFF">      0.00001000</i>
   <i type="int" name="IALGO">    38</i>
   <i type="int" name="IWAVPR">    11</i>
   <i type="int" name="NBANDS">    32</i>
   <i name="NELECT">     52.00000000</i>
   <i type="int" name="TURBO">     0</i>
   <i type="int" name="IRESTART">     0</i>
   <i type="int" name="NREBOOT">     0</i>
   <i type="int" name="NMIN">     0</i>
   <i name="EREF">      0.00000000</i>
   <separator name="electronic smearing" >
    <i type="int" name="ISMEAR">     0</i>
    <i name="SIGMA">      0.02000000</i>
    <i name="KSPACING">      0.50000000</i>
    <i type="logical" name="KGAMMA"> T  </i>
   </separator>
   <separator name="electronic projectors" >
    <i type="logical" name="LREAL"> F  </i>
    <v name="ROPT">      0.00000000      0.00000000</v>
    <i type="int" name="LMAXPAW">  -100</i>
    <i type="int" name="LMAXMIX">     2</i>
    <i type="logical" name="NLSPLINE"> F  </i>
   </separator>
   <separator name="electronic startup" >
    <i type="int" name="ISTART">     0</i>
    <i type="int" name="ICHARG">     2</i>
    <i type="int" name="INIWAV">     1</i>
   </separator>
   <separator name="electronic spin" >
    <i type="int" name="ISPIN">     1</i>
    <i type="logical" name="LNONCOLLINEAR"> F  </i>
    <v name="MAGMOM">      1.00000000      1.00000000      1.00000000      1.00000000      1.00000000      1.00000000</v>
    <i name="NUPDOWN">     -1.00000000</i>
    <i type="logical" name="LSORBIT"> F  </i>
    <v name="SAXIS">      0.00000000      0.00000000      1.00000000</v>
    <i type="logical" name="LSPIRAL"> F  </i>
    <v name="QSPIRAL">      0.00000000      0.00000000      0.00000000</v>
    <i type="logical" name="LZEROZ"> F  </i>
   </separator>
   <separator name="electronic exchange-correlation" >
    <i type="logical" name="LASPH"> F  </i>
    <i type="logical" name="LMETAGGA"> F  </i>
   </separator>
   <separator name="electronic convergence" >
    <i type="int" name="NELM">   250</i>
    <i type="int" name="NELMDL">    -5</i>
    <i type="int" name="NELMIN">     6</i>
    <i name="ENINI">    520.00000000</i>
    <separator name="electronic convergence detail" >
     <i type="logical" name="LDIAG"> T  </i>
     <i type="logical" name="LSUBROT"> F  </i>
     <i name="WEIMIN">      0.00100000</i>
     <i name="EBREAK">      0.00000008</i>
     <i name="DEPER">      0.30000000</i>
     <i type="int" name="NRMM">     4</i>
     <i name="TIME">      0.40000000</i>
    </separator>
   </separator>
   <separator name="electronic mixer" >
    <i name="AMIX">      0.40000000</i>
    <i name="BMIX">      1.00000000</i>
    <i name="AMIN">      0.10000000</i>
    <i name="AMIX_MAG">      1.60000000</i>
    <i name="BMIX_MAG">      1.00000000</i>
    <separator name="electronic mixer details" >
     <i type="int" name="IMIX">     4</i>
     <i type="logical" name="MIXFIRST"> F  </i>
     <i type="int" name="MAXMIX">   -45</i>
     <i name="WC">    100.00000000</i>
     <i type="int" name="INIMIX">     1</i>
     <i type="int" name="MIXPRE">     1</i>
     <i type="int" name="MREMOVE">     5</i>
    </separator>
   </separator>
   <separator name="electronic dipolcorrection" >
    <i type="logical" name="LDIPOL"> F  </i>
    <i type="logical" name="LMONO"> F  </i>
    <i type="int" name="IDIPOL">     0</i>
    <i name="EPSILON">      1.00000000</i>
    <v name="DIPOL">   -100.00000000   -100.00000000   -100.00000000</v>
    <i name="EFIELD">      0.00000000</i>
   </separator>
  </separator>
  <separator name="grids" >
   <i type="int" name="NGX">    36</i>
   <i type="int" name="NGY">    42</i>
   <i type="int" name="NGZ">   140</i>
   <i type="int" name="NGXF">    72</i>
   <i type="int" name="NGYF">    84</i>
   <i type="int" name="NGZF">   280</i>
   <i type="logical" name="ADDGRID"> F  </i>
  </separator>
  <separator name="ionic" >
   <i type="int" name="NSW">   200</i>
   <i type="int" name="IBRION">     2</i>
   <i type="int" name="ISIF">     2</i>
   <i name="PSTRESS">      0.00000000</i>
   <i name="EDIFFG">     -0.01000000</i>
   <i type="int" name="NFREE">     1</i>
   <i name="POTIM">      0.30000000</i>
   <i name="SMASS">     -3.00000000</i>
   <i name="SCALEE">      1.00000000</i>
  </separator>
  <separator name="ionic md" >
   <i name="TEBEG">      0.00010000</i>
   <i name="TEEND">      0.00010000</i>
   <i type="int" name="NBLOCK">     1</i>
   <i type="int" name="KBLOCK">   200</i>
   <i type="int" name="NPACO">   256</i>
   <i name="APACO">     16.00000000</i>
  </separator>
  <separator name="symmetry" >
   <i type="int" name="ISYM">     2</i>
   <i name="SYMPREC">      0.00001000</i>
  </separator>
  <separator name="dos" >
   <i type="logical" name="LORBIT"> F  </i>
   <v name="RWIGS">     -1.00000000     -1.00000000</v>
   <i type="int" name="NEDOS">   301</i>
   <i name="EMIN">     10.00000000</i>
   <i name="EMAX">    -10.00000000</i>
   <i name="EFERMI">      0.00000000</i>
  </separator>
  <separator name="writing" >
   <i type="int" name="NWRITE">     2</i>
   <i type="logical" name="LWAVE"> F  </i>
   <i type="logical" name="LCHARG"> F  </i>
   <i type="logical" name="LPARD"> F  </i>
   <i type="logical" name="LVTOT"> F  </i>
   <i type="logical" name="LVHAR"> F  </i>
   <i type="logical" name="LELF"> F  </i>
   <i type="logical" name="LOPTICS"> F  </i>
   <v name="STM">      0.00000000      0.00000000      0.00000000      0.00000000      0.00000000      0.00000000      0.00000000</v>
  </separator>
  <separator name="performance" >
   <i type="int" name="NPAR">     4</i>
   <i type="int" name="NSIM">     4</i>
   <i type="int" name="NBLK">    -1</i>
   <i type="logical" name="LPLANE"> T  </i>
   <i type="logical" name="LSCALAPACK"> T  </i>
   <i type="logical" name="LSCAAWARE"> F  </i>
   <i type="logical" name="LSCALU"> F  </i>
   <i type="logical" name="LASYNC"> F  </i>
   <i type="logical" name="LORBITALREAL"> F  </i>
  </separator>
  <separator name="miscellaneous" >
   <i type="int" name="IDIOT">     3</i>
   <i type="logical" name="LMUSIC"> F  </i>
   <v name="POMASS">     72.61000000     78.96000000</v>
   <v name="DARWINR">      0.00000000      0.00000000</v>
   <v name="DARWINV">      1.00000000      1.00000000</v>
   <i type="logical" name="LCORR"> T  </i>
  </separator>
  <i type="logical" name="GGA_COMPAT"> T  </i>
  <i type="logical" name="LBERRY"> F  </i>
  <i type="int" name="ICORELEVEL">     0</i>
  <i type="logical" name="LDAU"> F  </i>
  <i type="int" name="I_CONSTRAINED_M">     0</i>
  <separator name="electronic exchange-correlation" >
   <i type="string" name="GGA">--</i>
   <i type="int" name="VOSKOWN">     0</i>
   <i type="logical" name="LHFCALC"> F  </i>
   <i type="string" name="PRECFOCK"></i>
   <i type="logical" name="LSYMGRAD"> F  </i>
   <i type="logical" name="LHFONE"> F  </i>
   <i type="logical" name="LRHFCALC"> F  </i>
   <i type="logical" name="LTHOMAS"> F  </i>
   <i type="logical" name="LMODELHF"> F  </i>
   <i name="ENCUT4O">     -1.00000000</i>
   <i type="int" name="EXXOEP">     0</i>
   <i type="int" name="FOURORBIT">     0</i>
   <i name="AEXX">      0.00000000</i>
   <i name="HFALPHA">      0.00000000</i>
   <i name="MCALPHA">      0.00000000</i>
   <i name="ALDAX">      1.00000000</i>
   <i name="AGGAX">      1.00000000</i>
   <i name="ALDAC">      1.00000000</i>
   <i name="AGGAC">      1.00000000</i>
   <i type="int" name="NKREDX">     1</i>
   <i type="int" name="NKREDY">     1</i>
   <i type="int" name="NKREDZ">     1</i>
   <i type="logical" name="SHIFTRED"> F  </i>
   <i type="logical" name="ODDONLY"> F  </i>
   <i type="logical" name="EVENONLY"> F  </i>
   <i type="int" name="LMAXFOCK">     0</i>
   <i type="int" name="NMAXFOCKAE">     0</i>
   <i type="logical" name="LFOCKAEDFT"> F  </i>
   <i name="HFSCREEN">      0.00000000</i>
   <i name="HFSCREENC">      0.00000000</i>
   <i type="int" name="NBANDSGWLOW">     0</i>
  </separator>
  <separator name="vdW DFT" >
   <i type="logical" name="LUSE_VDW"> F  </i>
   <i name="Zab_VDW">     -0.84910000</i>
   <i name="PARAM1">      0.12340000</i>
   <i name="PARAM2">      1.00000000</i>
   <i name="PARAM3">      0.00000000</i>
  </separator>
  <separator name="model GW" >
   <i type="int" name="MODEL_GW">     0</i>
   <i name="MODEL_EPS0">     47.93319541</i>
   <i name="MODEL_ALPHA">      1.00000000</i>
  </separator>
  <separator name="linear response parameters" >
   <i type="logical" name="LEPSILON"> F  </i>
   <i type="logical" name="LRPA"> F  </i>
   <i type="logical" name="LNABLA"> F  </i>
   <i type="logical" name="LVEL"> F  </i>
   <i type="int" name="KINTER">     0</i>
   <i name="CSHIFT">      0.10000000</i>
   <i name="OMEGAMAX">     -1.00000000</i>
   <i name="DEG_THRESHOLD">      0.00200000</i>
  </separator>
  <separator name="orbital magnetization" >
   <i type="logical" name="NUCIND"> F  </i>
   <v name="MAGPOS">      0.00000000      0.00000000      0.00000000</v>
   <i type="logical" name="LNICSALL"> T  </i>
   <i type="logical" name="ORBITALMAG"> F  </i>
   <i type="logical" name="LMAGBLOCH"> F  </i>
   <i type="logical" name="LCHIMAG"> F  </i>
   <i type="logical" name="LGAUGE"> T  </i>
   <i type="int" name="MAGATOM">     0</i>
   <v name="MAGDIPOL">      0.00000000      0.00000000      0.00000000</v>
   <v name="AVECCONST">      0.00000000      0.00000000      0.00000000</v>
  </separator>
  <separator name="response functions" >
   <i type="logical" name="LADDER"> F  </i>
   <i type="logical" name="LFXC"> F  </i>
   <i type="logical" name="LHARTREE"> T  </i>
   <i type="int" name="IBSE">     0</i>
   <v type="int" name="KPOINT">    -1     0     0     0</v>
   <i type="logical" name="LTCTE"> F  </i>
   <i type="logical" name="LTETE"> F  </i>
   <i type="logical" name="LTRIPLET"> F  </i>
   <i type="logical" name="LFXCEPS"> F  </i>
   <i type="logical" name="LFXHEG"> F  </i>
   <i type="int" name="NATURALO">     0</i>
   <i type="logical" name="L2ORDER"> F  </i>
   <i type="logical" name="LUSEW"> F  </i>
   <i name="ENCUTGW">     -2.00000000</i>
   <i name="ENCUTGWSOFT">     -2.00000000</i>
   <i name="ENCUTLF">     -1.00000000</i>
   <i type="int" name="LMAXMP2">    -1</i>
   <i name="SCISSOR">      0.00000000</i>
   <i type="int" name="NOMEGA">     0</i>
   <i type="int" name="NOMEGAR">     0</i>
   <i type="int" name="NBANDSGW">    -1</i>
   <i type="int" name="NBANDSO">    -1</i>
   <i type="int" name="NBANDSV">    -1</i>
   <i type="int" name="NELM">   250</i>
   <i type="int" name="NELMHF">     1</i>
   <i type="int" name="DIM">     3</i>
   <i type="int" name="ANTIRES">     0</i>
   <i name="OMEGAMAX">    -30.00000000</i>
   <i name="OMEGAMIN">    -30.00000000</i>
   <i name="OMEGATL">   -200.00000000</i>
   <i type="int" name="OMEGAGRID">     0</i>
   <i name="CSHIFT">     -0.10000000</i>
   <i type="logical" name="SELFENERGY"> F  </i>
   <i type="logical" name="LSPECTRAL"> F  </i>
   <i type="logical" name="LSPECTRALGW"> F  </i>
   <i type="logical" name="LSINGLES"> F  </i>
   <i type="logical" name="LFERMIGW"> F  </i>
   <i type="logical" name="ODDONLYGW"> F  </i>
   <i type="logical" name="EVENONLYGW"> F  </i>
   <i type="int" name="NKREDLFX">     1</i>
   <i type="int" name="NKREDLFY">     1</i>
   <i type="int" name="NKREDLFZ">     1</i>
   <i type="int" name="MAXMEM">  1800</i>
   <i type="int" name="TELESCOPE">     0</i>
   <i type="int" name="TAUPAR">     1</i>
   <i type="int" name="OMEGAPAR">    -1</i>
   <i name="LAMBDA">      1.00000000</i>
  </separator>
  <separator name="External order field" >
   <i name="OFIELD_KAPPA">      0.00000000</i>
   <v name="OFIELD_K">      0.00000000      0.00000000      0.00000000</v>
   <i name="OFIELD_Q6_NEAR">      0.00000000</i>
   <i name="OFIELD_Q6_FAR">      0.00000000</i>
   <i name="OFIELD_A">      0.00000000</i>
  </separator>
 </parameters>
 <atominfo>
  <atoms>       6 </atoms>
  <types>       2 </types>
  <array name="atoms" >
   <dimension dim="1">ion</dimension>
   <field type="string">element</field>
   <field type="int">atomtype</field>
   <set>
    <rc><c>Ge</c><c>   1</c></rc>
    <rc><c>Ge</c><c>   1</c></rc>
    <rc><c>Se</c><c>   2</c></rc>
    <rc><c>Se</c><c>   2</c></rc>
    <rc><c>Se</c><c>   2</c></rc>
    <rc><c>Se</c><c>   2</c></rc>
   </set>
  </array>
  <array name="atomtypes" >
   <dimension dim="1">type</dimension>
   <field type="int">atomspertype</field>
   <field type="string">element</field>
   <field>mass</field>
   <field>valence</field>
   <field type="string">pseudopotential</field>
   <set>
    <rc><c>   2</c><c>Ge</c><c>     72.61000000</c><c>     14.00000000</c><c>  PAW_PBE Ge_d 03Jul2007                </c></rc>
    <rc><c>   4</c><c>Se</c><c>     78.96000000</c><c>      6.00000000</c><c>  PAW_PBE Se 06Sep2000                  </c></rc>
   </set>
  </array>
 </atominfo>
 <structure name="initialpos" >
  <crystal>
   <varray name="basis" >
    <v>       4.83192500       0.00000000       0.00000000 </v>
    <v>       0.00000000       5.48699800       0.00000000 </v>
    <v>       0.00000000       0.00000000      18.07929100 </v>
   </varray>
   <i name="volume">    479.33195408 </i>
   <varray name="rec_basis" >
    <v>       0.20695685       0.00000000       0.00000000 </v>
    <v>       0.00000000       0.18224902       0.00000000 </v>
    <v>       0.00000000       0.00000000       0.05531190 </v>
   </varray>
  </crystal>
  <varray name="positions" >
   <v>       0.50000000       0.50000000       0.50000000 </v>
   <v>       0.00000000       0.00000000       0.50000000 </v>
   <v>       0.25000000       0.25000000       0.41502600 </v>
   <v>       0.75000000       0.75000000       0.41502600 </v>
   <v>       0.75000000       0.25000000       0.58497400 </v>
   <v>       0.25000000       0.75000000       0.58497400 </v>
  </varray>
 </structure>
 <calculation>
  <scstep>
   <time name="dav">    1.60    1.60</time>
   <time name="total">    1.64    1.64</time>
   <energy>
    <i name="alphaZ">     47.92302546 </i>
    <i name="ewald">   5205.41411697 </i>
    <i name="hartreedc">  -9995.27291307 </i>
    <i name="XCdc">    142.79599412 </i>
    <i name="pawpsdc">   4514.43351212 </i>
    <i name="pawaedc">  -5329.26418529 </i>
    <i name="eentropy">     -0.00040189 </i>
    <i name="bandstr">   -362.42615157 </i>
    <i name="atom">   6220.98622430 </i>
    <i name="e_fr_energy">    444.58922115 </i>
    <i name="e_wo_entrp">    444.58962303 </i>
    <i name="e_0_energy">    444.58942209 </i>
   </energy>
  </scstep>
  <scstep>
   <time name="dav">    1.70    1.70</time>
   <time name="total">    1.70    1.70</time>
   <energy>
    <i name="e_fr_energy">     45.82217908 </i>
    <i name="e_wo_entrp">     45.82255645 </i>
    <i name="e_0_energy">     45.82236777 </i>
   </energy>
  </scstep>
  <scstep>
   <time name="dav">    1.81    1.81</time>
   <time name="total">    1.81    1.82</time>
   <energy>
    <i name="e_fr_energy">    -21.57274619 </i>
    <i name="e_wo_entrp">    -21.57274619 </i>
    <i name="e_0_energy">    -21.57274619 </i>
   </energy>
  </scstep>
  <scstep>
   <time name="dav">    1.63    1.63</time>
   <time name="total">    1.63    1.63</time>
   <energy>
    <i name="e_fr_energy">    -24.72111715 </i>
    <i name="e_wo_entrp">    -24.72111715 </i>
    <i name="e_0_energy">    -24.72111715 </i>
   </energy>
  </scstep>
  <scstep>
   <time name="dav">    1.94    1.94</time>
   <time name="total">    2.04    2.04</time>
   <energy>
    <i name="e_fr_energy">    -24.83085432 </i>
    <i name="e_wo_entrp">    -24.83085432 </i>
    <i name="e_0_energy">    -24.83085432 </i>
   </energy>
  </scstep>
  <scstep>
   <time name="dav">    1.88    1.88</time>
   <time name="total">    2.00    2.00</time>
   <energy>
    <i name="e_fr_energy">    -24.34118416 </i>
    <i name="e_wo_entrp">    -24.34118416 </i>
    <i name="e_0_energy">    -24.34118416 </i>
   </energy>
  </scstep>
  <scstep>
   <time name="dav">    1.70    1.70</time>
   <time name="total">    1.82    1.82</time>
   <energy>
    <i name="e_fr_energy">    -24.24043808 </i>
    <i name="e_wo_entrp">    -24.24043808 </i>
    <i name="e_0_energy">    -24.24043808 </i>
   </energy>
  </scstep>
  <scstep>
   <time name="dav">    1.79    1.79</time>
   <time name="total">    1.91    1.91</time>
   <energy>
    <i name="e_fr_energy">    -24.23434906 </i>
    <i name="e_wo_entrp">    -24.23434906 </i>
    <i name="e_0_energy">    -24.23434906 </i>
   </energy>
  </scstep>
  <scstep>
   <time name="dav">    1.83    1.83</time>
   <time name="total">    1.95    1.95</time>
   <energy>
    <i name="e_fr_energy">    -24.23361130 </i>
    <i name="e_wo_entrp">    -24.23361130 </i>
    <i name="e_0_energy">    -24.23361130 </i>
   </energy>
  </scstep>
  <scstep>
   <time name="dav">    1.91    1.91</time>
   <time name="total">    2.02    2.03</time>
   <energy>
    <i name="e_fr_energy">    -24.23332696 </i>
    <i name="e_wo_entrp">    -24.23332696 </i>
    <i name="e_0_energy">    -24.23332696 </i>
   </energy>
  </scstep>
  <scstep>
   <time name="dav">    1.55    1.55</time>
   <time name="total">    1.67    1.67</time>
   <energy>
    <i name="e_fr_energy">    -24.23305960 </i>
    <i name="e_wo_entrp">    -24.23305960 </i>
    <i name="e_0_energy">    -24.23305960 </i>
   </energy>
  </scstep>
  <scstep>
   <time name="dav">    1.50    1.50</time>
   <time name="total">    1.62    1.62</time>
   <energy>
    <i name="e_fr_energy">    -24.23319567 </i>
    <i name="e_wo_entrp">    -24.23319567 </i>
    <i name="e_0_energy">    -24.23319567 </i>
   </energy>
  </scstep>
  <scstep>
   <time name="dav">    1.49    1.49</time>
   <time name="total">    1.61    1.61</time>
   <energy>
    <i name="e_fr_energy">    -24.23347277 </i>
    <i name="e_wo_entrp">    -24.23347277 </i>
    <i name="e_0_energy">    -24.23347277 </i>
   </energy>
  </scstep>
  <scstep>
   <time name="dav">    1.41    1.41</time>
   <time name="total">    1.53    1.53</time>
   <energy>
    <i name="e_fr_energy">    -24.23357672 </i>
    <i name="e_wo_entrp">    -24.23357672 </i>
    <i name="e_0_energy">    -24.23357672 </i>
   </energy>
  </scstep>
  <scstep>
   <time name="dav">    1.40    1.40</time>
   <time name="total">    1.52    1.52</time>
   <energy>
    <i name="e_fr_energy">    -24.23363515 </i>
    <i name="e_wo_entrp">    -24.23363515 </i>
    <i name="e_0_energy">    -24.23363515 </i>
   </energy>
  </scstep>
  <scstep>
   <time name="dav">    1.33    1.33</time>
   <time name="total">    1.45    1.45</time>
   <energy>
    <i name="e_fr_energy">    -24.23370750 </i>
    <i name="e_wo_entrp">    -24.23370750 </i>
    <i name="e_0_energy">    -24.23370750 </i>
   </energy>
  </scstep>
  <scstep>
   <time name="dav">    1.25    1.25</time>
   <time name="total">    1.37    1.37</time>
   <energy>
    <i name="e_fr_energy">    -24.23375764 </i>
    <i name="e_wo_entrp">    -24.23375764 </i>
    <i name="e_0_energy">    -24.23375764 </i>
   </energy>
  </scstep>
  <scstep>
   <time name="dav">    1.30    1.30</time>
   <time name="total">    1.42    1.42</time>
   <energy>
    <i name="e_fr_energy">    -24.23378687 </i>
    <i name="e_wo_entrp">    -24.23378687 </i>
    <i name="e_0_energy">    -24.23378687 </i>
   </energy>
  </scstep>
  <scstep>
   <time name="dav">    1.32    1.32</time>
   <time name="total">    1.35    1.35</time>
   <energy>
    <i name="alphaZ">     47.92302546 </i>
    <i name="ewald">   5205.41411697 </i>
    <i name="hartreedc"> -10002.05161669 </i>
    <i name="XCdc">    143.34741967 </i>
    <i name="pawpsdc">   5850.98308973 </i>
    <i name="pawaedc">  -6671.69186199 </i>
    <i name="eentropy">     -0.00000000 </i>
    <i name="bandstr">   -819.14418937 </i>
    <i name="atom">   6220.98622430 </i>
    <i name="e_fr_energy">    -24.23379192 </i>
    <i name="e_wo_entrp">    -24.23379192 </i>
    <i name="e_0_energy">    -24.23379192 </i>
   </energy>
  </scstep>
  <structure>
   <crystal>
    <varray name="basis" >
     <v>       4.83192500       0.00000000       0.00000000 </v>
     <v>       0.00000000       5.48699800       0.00000000 </v>
     <v>       0.00000000       0.00000000      18.07929100 </v>
    </varray>
    <i name="volume">    479.33195408 </i>
    <varray name="rec_basis" >
     <v>       0.20695685       0.00000000       0.00000000 </v>
     <v>       0.00000000       0.18224902       0.00000000 </v>
     <v>       0.00000000       0.00000000       0.05531190 </v>
    </varray>
   </crystal>
   <varray name="positions" >
    <v>       0.50000000       0.50000000       0.50000000 </v>
    <v>       0.00000000       0.00000000       0.50000000 </v>
    <v>       0.25000000       0.25000000       0.41502600 </v>
    <v>       0.75000000       0.75000000       0.41502600 </v>
    <v>       0.75000000       0.25000000       0.58497400 </v>
    <v>       0.25000000       0.75000000       0.58497400 </v>
   </varray>
  </structure>
  <varray name="forces" >
   <v>       0.00000000       0.00000000      -0.00000000 </v>
   <v>      -0.00000000       0.00000000       0.00000000 </v>
   <v>      -0.00000000       0.00000000      -0.16420940 </v>
   <v>       0.00000000      -0.00000000      -0.16420940 </v>
   <v>      -0.00000000       0.00000000       0.16420940 </v>
   <v>      -0.00000000      -0.00000000       0.16420940 </v>
  </varray>
  <varray name="stress" >
   <v>       5.69243698       0.00000000       0.00000000 </v>
   <v>       0.00000000       7.20061820       0.00000000 </v>
   <v>       0.00000000       0.00000000       3.33182126 </v>
  </varray>
  <energy>
   <i name="e_fr_energy">    -24.23379192 </i>
   <i name="e_wo_entrp">    -24.23379192 </i>
   <i name="e_0_energy">     -0.00000000 </i>
  </energy>
  <time name="totalsc">   33.20   33.25</time>
 </calculation>
 <calculation>
  <scstep>
   <time name="dav">    1.43    1.43</time>
   <time name="total">    1.55    1.55</time>
   <energy>
    <i name="alphaZ">     47.92302546 </i>
    <i name="ewald">   5194.19073405 </i>
    <i name="hartreedc">  -9991.19895628 </i>
    <i name="XCdc">    143.30226902 </i>
    <i name="pawpsdc">   5850.96523653 </i>
    <i name="pawaedc">  -6671.67418131 </i>
    <i name="eentropy">     -0.00000000 </i>
    <i name="bandstr">   -818.73031300 </i>
    <i name="atom">   6220.98622430 </i>
    <i name="e_fr_energy">    -24.23596123 </i>
    <i name="e_wo_entrp">    -24.23596123 </i>
    <i name="e_0_energy">    -24.23596123 </i>
   </energy>
  </scstep>
  <scstep>
   <time name="dav">    1.65    1.65</time>
   <time name="total">    1.76    1.77</time>
   <energy>
    <i name="e_fr_energy">    -24.23636357 </i>
    <i name="e_wo_entrp">    -24.23636357 </i>
    <i name="e_0_energy">    -24.23636357 </i>
   </energy>
  </scstep>
  <scstep>
   <time name="dav">    1.48    1.48</time>
   <time name="total">    1.60    1.60</time>
   <energy>
    <i name="e_fr_energy">    -24.23634868 </i>
    <i name="e_wo_entrp">    -24.23634868 </i>
    <i name="e_0_energy">    -24.23634868 </i>
   </energy>
  </scstep>
  <scstep>
   <time name="dav">    1.33    1.33</time>
   <time name="total">    1.45    1.45</time>
   <energy>
    <i name="e_fr_energy">    -24.23634332 </i>
    <i name="e_wo_entrp">    -24.23634332 </i>
    <i name="e_0_energy">    -24.23634332 </i>
   </energy>
  </scstep>
  <scstep>
   <time name="dav">    1.24    1.24</time>
   <time name="total">    1.35    1.36</time>
   <energy>
    <i name="e_fr_energy">    -24.23634136 </i>
    <i name="e_wo_entrp">    -24.23634136 </i>
    <i name="e_0_energy">    -24.23634136 </i>
   </energy>
  </scstep>
  <scstep>
   <time name="dav">    1.13    1.13</time>
   <time name="total">    1.16    1.16</time>
   <energy>
    <i name="alphaZ">     47.92302546 </i>
    <i name="ewald">   5194.19073405 </i>
    <i name="hartreedc">  -9991.20344451 </i>
    <i name="XCdc">    143.30804940 </i>
    <i name="pawpsdc">   5838.81235740 </i>
    <i name="pawaedc">  -6659.44071748 </i>
    <i name="eentropy">     -0.00000000 </i>
    <i name="bandstr">   -818.81256985 </i>
    <i name="atom">   6220.98622430 </i>
    <i name="e_fr_energy">    -24.23634122 </i>
    <i name="e_wo_entrp">    -24.23634122 </i>
    <i name="e_0_energy">    -24.23634122 </i>
   </energy>
  </scstep>
  <structure>
   <crystal>
    <varray name="basis" >
     <v>       4.83192500       0.00000000       0.00000000 </v>
     <v>       0.00000000       5.48699800       0.00000000 </v>
     <v>       0.00000000       0.00000000      18.07929100 </v>
    </varray>
    <i name="volume">    479.33195408 </i>
    <varray name="rec_basis" >
     <v>       0.20695685       0.00000000       0.00000000 </v>
     <v>       0.00000000       0.18224902       0.00000000 </v>
     <v>       0.00000000       0.00000000       0.05531190 </v>
    </varray>
   </crystal>
   <varray name="positions" >
    <v>       0.50000000       0.50000000       0.50000000 </v>
    <v>      -0.00000000       0.00000000       0.50000000 </v>
    <v>       0.25000000       0.25000000       0.41476309 </v>
    <v>       0.75000000       0.75000000       0.41476309 </v>
    <v>       0.75000000       0.25000000       0.58523691 </v>
    <v>       0.25000000       0.75000000       0.58523691 </v>
   </varray>
  </structure>
  <varray name="forces" >
   <v>       0.00000000       0.00000000      -0.00000000 </v>
   <v>      -0.00000000       0.00000000      -0.00000000 </v>
   <v>       0.00000000       0.00000000      -0.10596289 </v>
   <v>       0.00000000      -0.00000000      -0.10596289 </v>
   <v>      -0.00000000       0.00000000       0.10596289 </v>
   <v>      -0.00000000      -0.00000000       0.10596289 </v>
  </varray>
  <varray name="stress" >
   <v>       5.37587534       0.00000000       0.00000000 </v>
   <v>       0.00000000       6.83440471       0.00000000 </v>
   <v>       0.00000000       0.00000000       2.17440303 </v>
  </varray>
  <energy>
   <i name="e_fr_energy">    -24.23634122 </i>
   <i name="e_wo_entrp">    -24.23634122 </i>
   <i name="e_0_energy">     -0.00000000 </i>
  </energy>
  <time name="totalsc">   10.02   10.04</time>
 </calculation>
 <calculation>
  <scstep>
   <time name="dav">    1.44    1.44</time>
   <time name="total">    1.56    1.56</time>
   <energy>
    <i name="alphaZ">     47.92302546 </i>
    <i name="ewald">   5173.77590716 </i>
    <i name="hartreedc">  -9971.47843142 </i>
    <i name="XCdc">    143.22627434 </i>
    <i name="pawpsdc">   5838.73698836 </i>
    <i name="pawaedc">  -6659.36570638 </i>
    <i name="eentropy">     -0.00000000 </i>
    <i name="bandstr">   -818.04116833 </i>
    <i name="atom">   6220.98622430 </i>
    <i name="e_fr_energy">    -24.23688651 </i>
    <i name="e_wo_entrp">    -24.23688651 </i>
    <i name="e_0_energy">    -24.23688651 </i>
   </energy>
  </scstep>
  <scstep>
   <time name="dav">    1.65    1.65</time>
   <time name="total">    1.77    1.77</time>
   <energy>
    <i name="e_fr_energy">    -24.23822677 </i>
    <i name="e_wo_entrp">    -24.23822677 </i>
    <i name="e_0_energy">    -24.23822677 </i>
   </energy>
  </scstep>
  <scstep>
   <time name="dav">    1.58    1.58</time>
   <time name="total">    1.70    1.71</time>
   <energy>
    <i name="e_fr_energy">    -24.23818163 </i>
    <i name="e_wo_entrp">    -24.23818163 </i>
    <i name="e_0_energy">    -24.23818163 </i>
   </energy>
  </scstep>
  <scstep>
   <time name="dav">    1.55    1.55</time>
   <time name="total">    1.67    1.67</time>
   <energy>
    <i name="e_fr_energy">    -24.23816855 </i>
    <i name="e_wo_entrp">    -24.23816855 </i>
    <i name="e_0_energy">    -24.23816855 </i>
   </energy>
  </scstep>
  <scstep>
   <time name="dav">    1.27    1.27</time>
   <time name="total">    1.39    1.39</time>
   <energy>
    <i name="e_fr_energy">    -24.23816469 </i>
    <i name="e_wo_entrp">    -24.23816469 </i>
    <i name="e_0_energy">    -24.23816469 </i>
   </energy>
  </scstep>
  <scstep>
   <time name="dav">    1.15    1.15</time>
   <time name="total">    1.18    1.18</time>
   <energy>
    <i name="alphaZ">     47.92302546 </i>
    <i name="ewald">   5173.77590716 </i>
    <i name="hartreedc">  -9971.49635810 </i>
    <i name="XCdc">    143.23690058 </i>
    <i name="pawpsdc">   5816.81412498 </i>
    <i name="pawaedc">  -6637.29787226 </i>
    <i name="eentropy">     -0.00000000 </i>
    <i name="bandstr">   -818.18011670 </i>
    <i name="atom">   6220.98622430 </i>
    <i name="e_fr_energy">    -24.23816459 </i>
    <i name="e_wo_entrp">    -24.23816459 </i>
    <i name="e_0_energy">    -24.23816459 </i>
   </energy>
  </scstep>
  <structure>
   <crystal>
    <varray name="basis" >
     <v>       4.83192500       0.00000000       0.00000000 </v>
     <v>       0.00000000       5.48699800       0.00000000 </v>
     <v>       0.00000000       0.00000000      18.07929100 </v>
    </varray>
    <i name="volume">    479.33195408 </i>
    <varray name="rec_basis" >
     <v>       0.20695685       0.00000000       0.00000000 </v>
     <v>       0.00000000       0.18224902       0.00000000 </v>
     <v>       0.00000000       0.00000000       0.05531190 </v>
    </varray>
   </crystal>
   <varray name="positions" >
    <v>       0.50000000       0.50000000       0.50000000 </v>
    <v>      -0.00000000       0.00000000       0.50000000 </v>
    <v>       0.25000000       0.25000000       0.41428481 </v>
    <v>       0.75000000       0.75000000       0.41428481 </v>
    <v>       0.75000000       0.25000000       0.58571519 </v>
    <v>       0.25000000       0.75000000       0.58571519 </v>
   </varray>
  </structure>
  <varray name="forces" >
   <v>      -0.00000000       0.00000000       0.00000000 </v>
   <v>       0.00000000      -0.00000000       0.00000000 </v>
   <v>       0.00000000      -0.00000000      -0.00091987 </v>
   <v>       0.00000000       0.00000000      -0.00091987 </v>
   <v>       0.00000000      -0.00000000       0.00091987 </v>
   <v>       0.00000000      -0.00000000       0.00091987 </v>
  </varray>
  <varray name="stress" >
   <v>       4.82154532       0.00000000       0.00000000 </v>
   <v>       0.00000000       6.19793966       0.00000000 </v>
   <v>       0.00000000       0.00000000       0.06735296 </v>
  </varray>
  <energy>
   <i name="e_fr_energy">    -24.23816459 </i>
   <i name="e_wo_entrp">    -24.23816459 </i>
   <i name="e_0_energy">     -0.00000000 </i>
  </energy>
  <time name="totalsc">   10.35   10.37</time>
  <eigenvalues>
   <array>
    <dimension dim="1">band</dimension>
    <dimension dim="2">kpoint</dimension>
    <dimension dim="3">spin</dimension>
    <field>eigene</field>
    <field>occ</field>
    <set>
     <set comment="spin 1">
      <set comment="kpoint 1">
       <r>  -27.6746    1.0000 </r>
       <r>  -27.6725    1.0000 </r>
       <r>  -27.6693    1.0000 </r>
       <r>  -27.6605    1.0000 </r>
       <r>  -27.6587    1.0000 </r>
       <r>  -27.6446    1.0000 </r>
       <r>  -27.6418    1.0000 </r>
       <r>  -27.6397    1.0000 </r>
       <r>  -27.6297    1.0000 </r>
       <r>  -27.6239    1.0000 </r>
       <r>  -16.9182    1.0000 </r>
       <r>  -15.3801    1.0000 </r>
       <r>  -14.8655    1.0000 </r>
       <r>  -14.6503    1.0000 </r>
       <r>  -11.6884    1.0000 </r>
       <r>   -9.1819    1.0000 </r>
       <r>   -7.4406    1.0000 </r>
       <r>   -5.8490    1.0000 </r>
       <r>   -5.4389    1.0000 </r>
       <r>   -5.2389    1.0000 </r>
       <r>   -5.0984    1.0000 </r>
       <r>   -5.0159    1.0000 </r>
       <r>   -4.6554    1.0000 </r>
       <r>   -4.1356    1.0000 </r>
       <r>   -2.6830    1.0000 </r>
       <r>   -2.6160    1.0000 </r>
       <r>   -1.5787    0.0000 </r>
       <r>   -1.3209    0.0000 </r>
       <r>   -0.6637    0.0000 </r>
       <r>    0.1804    0.0000 </r>
       <r>    0.7165    0.0000 </r>
       <r>    2.0268    0.0000 </r>
      </set>
      <set comment="kpoint 2">
       <r>  -27.6744    1.0000 </r>
       <r>  -27.6723    1.0000 </r>
       <r>  -27.6692    1.0000 </r>
       <r>  -27.6606    1.0000 </r>
       <r>  -27.6587    1.0000 </r>
       <r>  -27.6445    1.0000 </r>
       <r>  -27.6421    1.0000 </r>
       <r>  -27.6398    1.0000 </r>
       <r>  -27.6297    1.0000 </r>
       <r>  -27.6240    1.0000 </r>
       <r>  -16.9007    1.0000 </r>
       <r>  -15.3727    1.0000 </r>
       <r>  -14.8687    1.0000 </r>
       <r>  -14.6920    1.0000 </r>
       <r>  -11.6440    1.0000 </r>
       <r>   -9.1942    1.0000 </r>
       <r>   -7.4383    1.0000 </r>
       <r>   -5.8440    1.0000 </r>
       <r>   -5.5409    1.0000 </r>
       <r>   -5.3264    1.0000 </r>
       <r>   -5.0848    1.0000 </r>
       <r>   -4.9888    1.0000 </r>
       <r>   -4.6481    1.0000 </r>
       <r>   -4.1199    1.0000 </r>
       <r>   -2.7486    1.0000 </r>
       <r>   -2.6513    1.0000 </r>
       <r>   -1.4739    0.0000 </r>
       <r>   -1.3163    0.0000 </r>
       <r>   -0.5443    0.0000 </r>
       <r>    0.2336    0.0000 </r>
       <r>    0.7665    0.0000 </r>
       <r>    2.0608    0.0000 </r>
      </set>
      <set comment="kpoint 3">
       <r>  -27.6740    1.0000 </r>
       <r>  -27.6716    1.0000 </r>
       <r>  -27.6690    1.0000 </r>
       <r>  -27.6611    1.0000 </r>
       <r>  -27.6588    1.0000 </r>
       <r>  -27.6443    1.0000 </r>
       <r>  -27.6430    1.0000 </r>
       <r>  -27.6398    1.0000 </r>
       <r>  -27.6295    1.0000 </r>
       <r>  -27.6242    1.0000 </r>
       <r>  -16.8483    1.0000 </r>
       <r>  -15.3511    1.0000 </r>
       <r>  -14.8786    1.0000 </r>
       <r>  -14.8096    1.0000 </r>
       <r>  -11.5183    1.0000 </r>
       <r>   -9.2331    1.0000 </r>
       <r>   -7.4305    1.0000 </r>
       <r>   -5.8258    1.0000 </r>
       <r>   -5.7067    1.0000 </r>
       <r>   -5.5470    1.0000 </r>
       <r>   -5.2631    1.0000 </r>
       <r>   -4.8045    1.0000 </r>
       <r>   -4.6485    1.0000 </r>
       <r>   -4.0747    1.0000 </r>
       <r>   -2.9175    1.0000 </r>
       <r>   -2.7479    1.0000 </r>
       <r>   -1.2898    0.0000 </r>
       <r>   -1.2058    0.0000 </r>
       <r>   -0.2102    0.0000 </r>
       <r>    0.3822    0.0000 </r>
       <r>    0.9043    0.0000 </r>
       <r>    2.1242    0.0000 </r>
      </set>
      <set comment="kpoint 4">
       <r>  -27.6732    1.0000 </r>
       <r>  -27.6706    1.0000 </r>
       <r>  -27.6688    1.0000 </r>
       <r>  -27.6618    1.0000 </r>
       <r>  -27.6589    1.0000 </r>
       <r>  -27.6444    1.0000 </r>
       <r>  -27.6440    1.0000 </r>
       <r>  -27.6399    1.0000 </r>
       <r>  -27.6293    1.0000 </r>
       <r>  -27.6245    1.0000 </r>
       <r>  -16.7620    1.0000 </r>
       <r>  -15.3166    1.0000 </r>
       <r>  -14.9846    1.0000 </r>
       <r>  -14.8958    1.0000 </r>
       <r>  -11.3284    1.0000 </r>
       <r>   -9.3044    1.0000 </r>
       <r>   -7.4135    1.0000 </r>
       <r>   -5.8575    1.0000 </r>
       <r>   -5.8345    1.0000 </r>
       <r>   -5.7860    1.0000 </r>
       <r>   -5.4909    1.0000 </r>
       <r>   -4.6808    1.0000 </r>
       <r>   -4.6335    1.0000 </r>
       <r>   -4.0047    1.0000 </r>
       <r>   -3.1444    1.0000 </r>
       <r>   -2.8844    1.0000 </r>
       <r>   -1.2150    0.0000 </r>
       <r>   -0.8600    0.0000 </r>
       <r>    0.2863    0.0000 </r>
       <r>    0.6000    0.0000 </r>
       <r>    1.0924    0.0000 </r>
       <r>    1.9511    0.0000 </r>
      </set>
      <set comment="kpoint 5">
       <r>  -27.6723    1.0000 </r>
       <r>  -27.6694    1.0000 </r>
       <r>  -27.6684    1.0000 </r>
       <r>  -27.6628    1.0000 </r>
       <r>  -27.6588    1.0000 </r>
       <r>  -27.6463    1.0000 </r>
       <r>  -27.6435    1.0000 </r>
       <r>  -27.6401    1.0000 </r>
       <r>  -27.6290    1.0000 </r>
       <r>  -27.6249    1.0000 </r>
       <r>  -16.6432    1.0000 </r>
       <r>  -15.2714    1.0000 </r>
       <r>  -15.1966    1.0000 </r>
       <r>  -14.9212    1.0000 </r>
       <r>  -11.0934    1.0000 </r>
       <r>   -9.4152    1.0000 </r>
       <r>   -7.3810    1.0000 </r>
       <r>   -6.1410    1.0000 </r>
       <r>   -5.9781    1.0000 </r>
       <r>   -5.7171    1.0000 </r>
       <r>   -5.7148    1.0000 </r>
       <r>   -4.7524    1.0000 </r>
       <r>   -4.4955    1.0000 </r>
       <r>   -3.9158    1.0000 </r>
       <r>   -3.3925    1.0000 </r>
       <r>   -3.0375    1.0000 </r>
       <r>   -1.0746    0.0000 </r>
       <r>   -0.5173    0.0000 </r>
       <r>    0.8556    0.0000 </r>
       <r>    0.8939    0.0000 </r>
       <r>    1.2719    0.0000 </r>
       <r>    1.7762    0.0000 </r>
      </set>
      <set comment="kpoint 6">
       <r>  -27.6711    1.0000 </r>
       <r>  -27.6683    1.0000 </r>
       <r>  -27.6680    1.0000 </r>
       <r>  -27.6640    1.0000 </r>
       <r>  -27.6583    1.0000 </r>
       <r>  -27.6485    1.0000 </r>
       <r>  -27.6429    1.0000 </r>
       <r>  -27.6403    1.0000 </r>
       <r>  -27.6285    1.0000 </r>
       <r>  -27.6255    1.0000 </r>
       <r>  -16.4939    1.0000 </r>
       <r>  -15.4279    1.0000 </r>
       <r>  -15.2184    1.0000 </r>
       <r>  -14.9551    1.0000 </r>
       <r>  -10.8301    1.0000 </r>
       <r>   -9.5710    1.0000 </r>
       <r>   -7.3243    1.0000 </r>
       <r>   -6.4362    1.0000 </r>
       <r>   -6.0650    1.0000 </r>
       <r>   -5.9003    1.0000 </r>
       <r>   -5.6157    1.0000 </r>
       <r>   -4.8626    1.0000 </r>
       <r>   -4.3862    1.0000 </r>
       <r>   -3.8135    1.0000 </r>
       <r>   -3.6344    1.0000 </r>
       <r>   -3.1894    1.0000 </r>
       <r>   -0.8721    0.0000 </r>
       <r>   -0.2559    0.0000 </r>
       <r>    1.1123    0.0000 </r>
       <r>    1.3876    0.0000 </r>
       <r>    1.5666    0.0000 </r>
       <r>    1.6328    0.0000 </r>
      </set>
      <set comment="kpoint 7">
       <r>  -27.6697    1.0000 </r>
       <r>  -27.6676    1.0000 </r>
       <r>  -27.6675    1.0000 </r>
       <r>  -27.6654    1.0000 </r>
       <r>  -27.6572    1.0000 </r>
       <r>  -27.6509    1.0000 </r>
       <r>  -27.6424    1.0000 </r>
       <r>  -27.6407    1.0000 </r>
       <r>  -27.6280    1.0000 </r>
       <r>  -27.6261    1.0000 </r>
       <r>  -16.3172    1.0000 </r>
       <r>  -15.6649    1.0000 </r>
       <r>  -15.1611    1.0000 </r>
       <r>  -14.9976    1.0000 </r>
       <r>  -10.5527    1.0000 </r>
       <r>   -9.7714    1.0000 </r>
       <r>   -7.2339    1.0000 </r>
       <r>   -6.7009    1.0000 </r>
       <r>   -6.1174    1.0000 </r>
       <r>   -6.0317    1.0000 </r>
       <r>   -5.4842    1.0000 </r>
       <r>   -5.0045    1.0000 </r>
       <r>   -4.2866    1.0000 </r>
       <r>   -3.8509    1.0000 </r>
       <r>   -3.7023    1.0000 </r>
       <r>   -3.3311    1.0000 </r>
       <r>   -0.6314    0.0000 </r>
       <r>   -0.1455    0.0000 </r>
       <r>    1.3302    0.0000 </r>
       <r>    1.4314    0.0000 </r>
       <r>    1.5207    0.0000 </r>
       <r>    1.6358    0.0000 </r>
      </set>
      <set comment="kpoint 8">
       <r>  -27.6683    1.0000 </r>
       <r>  -27.6673    1.0000 </r>
       <r>  -27.6672    1.0000 </r>
       <r>  -27.6668    1.0000 </r>
       <r>  -27.6555    1.0000 </r>
       <r>  -27.6533    1.0000 </r>
       <r>  -27.6418    1.0000 </r>
       <r>  -27.6412    1.0000 </r>
       <r>  -27.6274    1.0000 </r>
       <r>  -27.6267    1.0000 </r>
       <r>  -16.1166    1.0000 </r>
       <r>  -15.8971    1.0000 </r>
       <r>  -15.1030    1.0000 </r>
       <r>  -15.0475    1.0000 </r>
       <r>  -10.2749    1.0000 </r>
       <r>  -10.0099    1.0000 </r>
       <r>   -7.1021    1.0000 </r>
       <r>   -6.9246    1.0000 </r>
       <r>   -6.1333    1.0000 </r>
       <r>   -6.1073    1.0000 </r>
       <r>   -5.3303    1.0000 </r>
       <r>   -5.1656    1.0000 </r>
       <r>   -4.1740    1.0000 </r>
       <r>   -4.0315    1.0000 </r>
       <r>   -3.5850    1.0000 </r>
       <r>   -3.4620    1.0000 </r>
       <r>   -0.3916    0.0000 </r>
       <r>   -0.2069    0.0000 </r>
       <r>    1.4417    0.0000 </r>
       <r>    1.4624    0.0000 </r>
       <r>    1.4791    0.0000 </r>
       <r>    1.5636    0.0000 </r>
      </set>
      <set comment="kpoint 9">
       <r>  -27.6744    1.0000 </r>
       <r>  -27.6723    1.0000 </r>
       <r>  -27.6691    1.0000 </r>
       <r>  -27.6605    1.0000 </r>
       <r>  -27.6588    1.0000 </r>
       <r>  -27.6445    1.0000 </r>
       <r>  -27.6422    1.0000 </r>
       <r>  -27.6398    1.0000 </r>
       <r>  -27.6297    1.0000 </r>
       <r>  -27.6240    1.0000 </r>
       <r>  -16.8985    1.0000 </r>
       <r>  -15.3700    1.0000 </r>
       <r>  -14.9200    1.0000 </r>
       <r>  -14.6613    1.0000 </r>
       <r>  -11.6221    1.0000 </r>
       <r>   -9.1960    1.0000 </r>
       <r>   -7.4253    1.0000 </r>
       <r>   -5.8745    1.0000 </r>
       <r>   -5.4316    1.0000 </r>
       <r>   -5.3067    1.0000 </r>
       <r>   -5.1107    1.0000 </r>
       <r>   -5.0620    1.0000 </r>
       <r>   -4.6463    1.0000 </r>
       <r>   -4.1026    1.0000 </r>
       <r>   -2.7164    1.0000 </r>
       <r>   -2.6923    1.0000 </r>
       <r>   -1.4566    0.0000 </r>
       <r>   -1.2951    0.0000 </r>
       <r>   -0.5257    0.0000 </r>
       <r>    0.1988    0.0000 </r>
       <r>    0.7541    0.0000 </r>
       <r>    2.0582    0.0000 </r>
      </set>
      <set comment="kpoint 10">
       <r>  -27.6743    1.0000 </r>
       <r>  -27.6720    1.0000 </r>
       <r>  -27.6690    1.0000 </r>
       <r>  -27.6607    1.0000 </r>
       <r>  -27.6588    1.0000 </r>
       <r>  -27.6445    1.0000 </r>
       <r>  -27.6425    1.0000 </r>
       <r>  -27.6398    1.0000 </r>
       <r>  -27.6296    1.0000 </r>
       <r>  -27.6241    1.0000 </r>
       <r>  -16.8811    1.0000 </r>
       <r>  -15.3629    1.0000 </r>
       <r>  -14.9270    1.0000 </r>
       <r>  -14.6960    1.0000 </r>
       <r>  -11.5824    1.0000 </r>
       <r>   -9.2098    1.0000 </r>
       <r>   -7.4197    1.0000 </r>
       <r>   -5.8830    1.0000 </r>
       <r>   -5.5145    1.0000 </r>
       <r>   -5.4631    1.0000 </r>
       <r>   -5.0743    1.0000 </r>
       <r>   -4.9592    1.0000 </r>
       <r>   -4.6502    1.0000 </r>
       <r>   -4.0881    1.0000 </r>
       <r>   -2.8599    1.0000 </r>
       <r>   -2.6308    1.0000 </r>
       <r>   -1.4139    0.0000 </r>
       <r>   -1.2891    0.0000 </r>
       <r>   -0.3834    0.0000 </r>
       <r>    0.2502    0.0000 </r>
       <r>    0.8027    0.0000 </r>
       <r>    2.0530    0.0000 </r>
      </set>
      <set comment="kpoint 11">
       <r>  -27.6739    1.0000 </r>
       <r>  -27.6714    1.0000 </r>
       <r>  -27.6688    1.0000 </r>
       <r>  -27.6612    1.0000 </r>
       <r>  -27.6589    1.0000 </r>
       <r>  -27.6442    1.0000 </r>
       <r>  -27.6434    1.0000 </r>
       <r>  -27.6398    1.0000 </r>
       <r>  -27.6295    1.0000 </r>
       <r>  -27.6243    1.0000 </r>
       <r>  -16.8294    1.0000 </r>
       <r>  -15.3419    1.0000 </r>
       <r>  -14.9565    1.0000 </r>
       <r>  -14.7853    1.0000 </r>
       <r>  -11.4691    1.0000 </r>
       <r>   -9.2534    1.0000 </r>
       <r>   -7.4023    1.0000 </r>
       <r>   -5.9199    1.0000 </r>
       <r>   -5.7387    1.0000 </r>
       <r>   -5.6248    1.0000 </r>
       <r>   -5.1320    1.0000 </r>
       <r>   -4.7799    1.0000 </r>
       <r>   -4.6632    1.0000 </r>
       <r>   -4.0447    1.0000 </r>
       <r>   -3.0674    1.0000 </r>
       <r>   -2.6521    1.0000 </r>
       <r>   -1.2597    0.0000 </r>
       <r>   -1.2571    0.0000 </r>
       <r>   -0.0181    0.0000 </r>
       <r>    0.3929    0.0000 </r>
       <r>    0.9377    0.0000 </r>
       <r>    1.9455    0.0000 </r>
      </set>
      <set comment="kpoint 12">
       <r>  -27.6733    1.0000 </r>
       <r>  -27.6705    1.0000 </r>
       <r>  -27.6685    1.0000 </r>
       <r>  -27.6619    1.0000 </r>
       <r>  -27.6589    1.0000 </r>
       <r>  -27.6448    1.0000 </r>
       <r>  -27.6439    1.0000 </r>
       <r>  -27.6398    1.0000 </r>
       <r>  -27.6292    1.0000 </r>
       <r>  -27.6246    1.0000 </r>
       <r>  -16.7441    1.0000 </r>
       <r>  -15.3084    1.0000 </r>
       <r>  -15.0507    1.0000 </r>
       <r>  -14.8718    1.0000 </r>
       <r>  -11.2966    1.0000 </r>
       <r>   -9.3319    1.0000 </r>
       <r>   -7.3716    1.0000 </r>
       <r>   -6.0301    1.0000 </r>
       <r>   -5.9966    1.0000 </r>
       <r>   -5.6636    1.0000 </r>
       <r>   -5.2997    1.0000 </r>
       <r>   -4.7044    1.0000 </r>
       <r>   -4.6136    1.0000 </r>
       <r>   -3.9737    1.0000 </r>
       <r>   -3.2967    1.0000 </r>
       <r>   -2.7495    1.0000 </r>
       <r>   -1.1833    0.0000 </r>
       <r>   -0.9875    0.0000 </r>
       <r>    0.4756    0.0000 </r>
       <r>    0.6000    0.0000 </r>
       <r>    1.1253    0.0000 </r>
       <r>    1.7795    0.0000 </r>
      </set>
      <set comment="kpoint 13">
       <r>  -27.6724    1.0000 </r>
       <r>  -27.6694    1.0000 </r>
       <r>  -27.6680    1.0000 </r>
       <r>  -27.6628    1.0000 </r>
       <r>  -27.6588    1.0000 </r>
       <r>  -27.6467    1.0000 </r>
       <r>  -27.6434    1.0000 </r>
       <r>  -27.6400    1.0000 </r>
       <r>  -27.6289    1.0000 </r>
       <r>  -27.6250    1.0000 </r>
       <r>  -16.6267    1.0000 </r>
       <r>  -15.2646    1.0000 </r>
       <r>  -15.2281    1.0000 </r>
       <r>  -14.9196    1.0000 </r>
       <r>  -11.0810    1.0000 </r>
       <r>   -9.4514    1.0000 </r>
       <r>   -7.3247    1.0000 </r>
       <r>   -6.3009    1.0000 </r>
       <r>   -6.0797    1.0000 </r>
       <r>   -5.6384    1.0000 </r>
       <r>   -5.5180    1.0000 </r>
       <r>   -4.7875    1.0000 </r>
       <r>   -4.4817    1.0000 </r>
       <r>   -3.8788    1.0000 </r>
       <r>   -3.5216    1.0000 </r>
       <r>   -2.8922    1.0000 </r>
       <r>   -1.0453    0.0000 </r>
       <r>   -0.6710    0.0000 </r>
       <r>    0.8386    0.0000 </r>
       <r>    1.0310    0.0000 </r>
       <r>    1.3113    0.0000 </r>
       <r>    1.6323    0.0000 </r>
      </set>
      <set comment="kpoint 14">
       <r>  -27.6714    1.0000 </r>
       <r>  -27.6685    1.0000 </r>
       <r>  -27.6675    1.0000 </r>
       <r>  -27.6638    1.0000 </r>
       <r>  -27.6583    1.0000 </r>
       <r>  -27.6488    1.0000 </r>
       <r>  -27.6428    1.0000 </r>
       <r>  -27.6403    1.0000 </r>
       <r>  -27.6284    1.0000 </r>
       <r>  -27.6255    1.0000 </r>
       <r>  -16.4796    1.0000 </r>
       <r>  -15.4430    1.0000 </r>
       <r>  -15.2135    1.0000 </r>
       <r>  -14.9586    1.0000 </r>
       <r>  -10.8370    1.0000 </r>
       <r>   -9.6149    1.0000 </r>
       <r>   -7.2578    1.0000 </r>
       <r>   -6.5365    1.0000 </r>
       <r>   -6.1364    1.0000 </r>
       <r>   -5.7361    1.0000 </r>
       <r>   -5.5725    1.0000 </r>
       <r>   -4.9094    1.0000 </r>
       <r>   -4.3780    1.0000 </r>
       <r>   -3.7666    1.0000 </r>
       <r>   -3.7257    1.0000 </r>
       <r>   -3.0532    1.0000 </r>
       <r>   -0.8518    0.0000 </r>
       <r>   -0.3984    0.0000 </r>
       <r>    1.0727    0.0000 </r>
       <r>    1.4425    0.0000 </r>
       <r>    1.4543    0.0000 </r>
       <r>    1.6843    0.0000 </r>
      </set>
      <set comment="kpoint 15">
       <r>  -27.6703    1.0000 </r>
       <r>  -27.6681    1.0000 </r>
       <r>  -27.6669    1.0000 </r>
       <r>  -27.6648    1.0000 </r>
       <r>  -27.6573    1.0000 </r>
       <r>  -27.6512    1.0000 </r>
       <r>  -27.6423    1.0000 </r>
       <r>  -27.6406    1.0000 </r>
       <r>  -27.6279    1.0000 </r>
       <r>  -27.6261    1.0000 </r>
       <r>  -16.3057    1.0000 </r>
       <r>  -15.6698    1.0000 </r>
       <r>  -15.1583    1.0000 </r>
       <r>  -15.0011    1.0000 </r>
       <r>  -10.5771    1.0000 </r>
       <r>   -9.8194    1.0000 </r>
       <r>   -7.1670    1.0000 </r>
       <r>   -6.7365    1.0000 </r>
       <r>   -6.1542    1.0000 </r>
       <r>   -5.9198    1.0000 </r>
       <r>   -5.4753    1.0000 </r>
       <r>   -5.0557    1.0000 </r>
       <r>   -4.2836    1.0000 </r>
       <r>   -3.9034    1.0000 </r>
       <r>   -3.6426    1.0000 </r>
       <r>   -3.2143    1.0000 </r>
       <r>   -0.6293    0.0000 </r>
       <r>   -0.2550    0.0000 </r>
       <r>    1.2676    0.0000 </r>
       <r>    1.4673    0.0000 </r>
       <r>    1.5050    0.0000 </r>
       <r>    1.6782    0.0000 </r>
      </set>
      <set comment="kpoint 16">
       <r>  -27.6693    1.0000 </r>
       <r>  -27.6684    1.0000 </r>
       <r>  -27.6663    1.0000 </r>
       <r>  -27.6656    1.0000 </r>
       <r>  -27.6557    1.0000 </r>
       <r>  -27.6535    1.0000 </r>
       <r>  -27.6417    1.0000 </r>
       <r>  -27.6411    1.0000 </r>
       <r>  -27.6273    1.0000 </r>
       <r>  -27.6267    1.0000 </r>
       <r>  -16.1090    1.0000 </r>
       <r>  -15.8948    1.0000 </r>
       <r>  -15.1026    1.0000 </r>
       <r>  -15.0494    1.0000 </r>
       <r>  -10.3128    1.0000 </r>
       <r>  -10.0560    1.0000 </r>
       <r>   -7.0499    1.0000 </r>
       <r>   -6.9065    1.0000 </r>
       <r>   -6.1278    1.0000 </r>
       <r>   -6.0514    1.0000 </r>
       <r>   -5.3519    1.0000 </r>
       <r>   -5.2085    1.0000 </r>
       <r>   -4.1795    1.0000 </r>
       <r>   -4.0543    1.0000 </r>
       <r>   -3.5094    1.0000 </r>
       <r>   -3.3669    1.0000 </r>
       <r>   -0.4189    0.0000 </r>
       <r>   -0.2740    0.0000 </r>
       <r>    1.4115    0.0000 </r>
       <r>    1.4949    0.0000 </r>
       <r>    1.5181    0.0000 </r>
       <r>    1.5364    0.0000 </r>
      </set>
      <set comment="kpoint 17">
       <r>  -27.6740    1.0000 </r>
       <r>  -27.6715    1.0000 </r>
       <r>  -27.6687    1.0000 </r>
       <r>  -27.6605    1.0000 </r>
       <r>  -27.6593    1.0000 </r>
       <r>  -27.6443    1.0000 </r>
       <r>  -27.6433    1.0000 </r>
       <r>  -27.6399    1.0000 </r>
       <r>  -27.6295    1.0000 </r>
       <r>  -27.6243    1.0000 </r>
       <r>  -16.8397    1.0000 </r>
       <r>  -15.3404    1.0000 </r>
       <r>  -15.0690    1.0000 </r>
       <r>  -14.6939    1.0000 </r>
       <r>  -11.4384    1.0000 </r>
       <r>   -9.2413    1.0000 </r>
       <r>   -7.3784    1.0000 </r>
       <r>   -5.9391    1.0000 </r>
       <r>   -5.4811    1.0000 </r>
       <r>   -5.4073    1.0000 </r>
       <r>   -5.3423    1.0000 </r>
       <r>   -4.9633    1.0000 </r>
       <r>   -4.6492    1.0000 </r>
       <r>   -4.0107    1.0000 </r>
       <r>   -2.8799    1.0000 </r>
       <r>   -2.8021    1.0000 </r>
       <r>   -1.2147    0.0000 </r>
       <r>   -1.1534    0.0000 </r>
       <r>   -0.1451    0.0000 </r>
       <r>    0.2526    0.0000 </r>
       <r>    0.8581    0.0000 </r>
       <r>    2.0201    0.0000 </r>
      </set>
      <set comment="kpoint 18">
       <r>  -27.6740    1.0000 </r>
       <r>  -27.6714    1.0000 </r>
       <r>  -27.6686    1.0000 </r>
       <r>  -27.6608    1.0000 </r>
       <r>  -27.6592    1.0000 </r>
       <r>  -27.6442    1.0000 </r>
       <r>  -27.6436    1.0000 </r>
       <r>  -27.6399    1.0000 </r>
       <r>  -27.6294    1.0000 </r>
       <r>  -27.6244    1.0000 </r>
       <r>  -16.8229    1.0000 </r>
       <r>  -15.3338    1.0000 </r>
       <r>  -15.0782    1.0000 </r>
       <r>  -14.7180    1.0000 </r>
       <r>  -11.4107    1.0000 </r>
       <r>   -9.2597    1.0000 </r>
       <r>   -7.3635    1.0000 </r>
       <r>   -5.9660    1.0000 </r>
       <r>   -5.7212    1.0000 </r>
       <r>   -5.4624    1.0000 </r>
       <r>   -5.1599    1.0000 </r>
       <r>   -4.8746    1.0000 </r>
       <r>   -4.6638    1.0000 </r>
       <r>   -3.9976    1.0000 </r>
       <r>   -3.0595    1.0000 </r>
       <r>   -2.6741    1.0000 </r>
       <r>   -1.2106    0.0000 </r>
       <r>   -1.2055    0.0000 </r>
       <r>    0.0243    0.0000 </r>
       <r>    0.2981    0.0000 </r>
       <r>    0.9035    0.0000 </r>
       <r>    1.8934    0.0000 </r>
      </set>
      <set comment="kpoint 19">
       <r>  -27.6737    1.0000 </r>
       <r>  -27.6709    1.0000 </r>
       <r>  -27.6683    1.0000 </r>
       <r>  -27.6613    1.0000 </r>
       <r>  -27.6591    1.0000 </r>
       <r>  -27.6446    1.0000 </r>
       <r>  -27.6439    1.0000 </r>
       <r>  -27.6398    1.0000 </r>
       <r>  -27.6293    1.0000 </r>
       <r>  -27.6245    1.0000 </r>
       <r>  -16.7729    1.0000 </r>
       <r>  -15.3147    1.0000 </r>
       <r>  -15.1114    1.0000 </r>
       <r>  -14.7814    1.0000 </r>
       <r>  -11.3305    1.0000 </r>
       <r>   -9.3164    1.0000 </r>
       <r>   -7.3197    1.0000 </r>
       <r>   -6.0470    1.0000 </r>
       <r>   -6.0229    1.0000 </r>
       <r>   -5.5300    1.0000 </r>
       <r>   -5.0398    1.0000 </r>
       <r>   -4.7103    1.0000 </r>
       <r>   -4.7048    1.0000 </r>
       <r>   -3.9545    1.0000 </r>
       <r>   -3.2920    1.0000 </r>
       <r>   -2.5904    1.0000 </r>
       <r>   -1.2557    0.0000 </r>
       <r>   -1.1698    0.0000 </r>
       <r>    0.4054    0.0000 </r>
       <r>    0.4233    0.0000 </r>
       <r>    1.0320    0.0000 </r>
       <r>    1.7223    0.0000 </r>
      </set>
      <set comment="kpoint 20">
       <r>  -27.6733    1.0000 </r>
       <r>  -27.6702    1.0000 </r>
       <r>  -27.6678    1.0000 </r>
       <r>  -27.6620    1.0000 </r>
       <r>  -27.6590    1.0000 </r>
       <r>  -27.6460    1.0000 </r>
       <r>  -27.6436    1.0000 </r>
       <r>  -27.6398    1.0000 </r>
       <r>  -27.6290    1.0000 </r>
       <r>  -27.6248    1.0000 </r>
       <r>  -16.6906    1.0000 </r>
       <r>  -15.2843    1.0000 </r>
       <r>  -15.1854    1.0000 </r>
       <r>  -14.8577    1.0000 </r>
       <r>  -11.2048    1.0000 </r>
       <r>   -9.4148    1.0000 </r>
       <r>   -7.2500    1.0000 </r>
       <r>   -6.2958    1.0000 </r>
       <r>   -6.1570    1.0000 </r>
       <r>   -5.5493    1.0000 </r>
       <r>   -5.0676    1.0000 </r>
       <r>   -4.7743    1.0000 </r>
       <r>   -4.5619    1.0000 </r>
       <r>   -3.8745    1.0000 </r>
       <r>   -3.5150    1.0000 </r>
       <r>   -2.5942    1.0000 </r>
       <r>   -1.1695    0.0000 </r>
       <r>   -1.0914    0.0000 </r>
       <r>    0.6013    0.0000 </r>
       <r>    0.8459    0.0000 </r>
       <r>    1.2180    0.0000 </r>
       <r>    1.5770    0.0000 </r>
      </set>
      <set comment="kpoint 21">
       <r>  -27.6727    1.0000 </r>
       <r>  -27.6695    1.0000 </r>
       <r>  -27.6671    1.0000 </r>
       <r>  -27.6627    1.0000 </r>
       <r>  -27.6588    1.0000 </r>
       <r>  -27.6478    1.0000 </r>
       <r>  -27.6431    1.0000 </r>
       <r>  -27.6399    1.0000 </r>
       <r>  -27.6287    1.0000 </r>
       <r>  -27.6251    1.0000 </r>
       <r>  -16.5778    1.0000 </r>
       <r>  -15.3145    1.0000 </r>
       <r>  -15.2449    1.0000 </r>
       <r>  -14.9206    1.0000 </r>
       <r>  -11.0422    1.0000 </r>
       <r>   -9.5565    1.0000 </r>
       <r>   -7.1619    1.0000 </r>
       <r>   -6.5173    1.0000 </r>
       <r>   -6.2491    1.0000 </r>
       <r>   -5.5331    1.0000 </r>
       <r>   -5.2112    1.0000 </r>
       <r>   -4.8873    1.0000 </r>
       <r>   -4.4527    1.0000 </r>
       <r>   -3.7587    1.0000 </r>
       <r>   -3.7065    1.0000 </r>
       <r>   -2.6745    1.0000 </r>
       <r>   -0.9636    0.0000 </r>
       <r>   -0.9620    0.0000 </r>
       <r>    0.8026    0.0000 </r>
       <r>    1.1834    0.0000 </r>
       <r>    1.4132    0.0000 </r>
       <r>    1.5877    0.0000 </r>
      </set>
      <set comment="kpoint 22">
       <r>  -27.6721    1.0000 </r>
       <r>  -27.6691    1.0000 </r>
       <r>  -27.6664    1.0000 </r>
       <r>  -27.6632    1.0000 </r>
       <r>  -27.6584    1.0000 </r>
       <r>  -27.6498    1.0000 </r>
       <r>  -27.6425    1.0000 </r>
       <r>  -27.6401    1.0000 </r>
       <r>  -27.6282    1.0000 </r>
       <r>  -27.6256    1.0000 </r>
       <r>  -16.4371    1.0000 </r>
       <r>  -15.4884    1.0000 </r>
       <r>  -15.1992    1.0000 </r>
       <r>  -14.9683    1.0000 </r>
       <r>  -10.8508    1.0000 </r>
       <r>   -9.7378    1.0000 </r>
       <r>   -7.0696    1.0000 </r>
       <r>   -6.6814    1.0000 </r>
       <r>   -6.2842    1.0000 </r>
       <r>   -5.4973    1.0000 </r>
       <r>   -5.4218    1.0000 </r>
       <r>   -5.0309    1.0000 </r>
       <r>   -4.3703    1.0000 </r>
       <r>   -3.8632    1.0000 </r>
       <r>   -3.6188    1.0000 </r>
       <r>   -2.8062    1.0000 </r>
       <r>   -0.7995    0.0000 </r>
       <r>   -0.7160    0.0000 </r>
       <r>    1.0034    0.0000 </r>
       <r>    1.2523    0.0000 </r>
       <r>    1.5583    0.0000 </r>
       <r>    1.9103    0.0000 </r>
      </set>
      <set comment="kpoint 23">
       <r>  -27.6713    1.0000 </r>
       <r>  -27.6692    1.0000 </r>
       <r>  -27.6656    1.0000 </r>
       <r>  -27.6637    1.0000 </r>
       <r>  -27.6576    1.0000 </r>
       <r>  -27.6520    1.0000 </r>
       <r>  -27.6420    1.0000 </r>
       <r>  -27.6404    1.0000 </r>
       <r>  -27.6277    1.0000 </r>
       <r>  -27.6261    1.0000 </r>
       <r>  -16.2720    1.0000 </r>
       <r>  -15.6854    1.0000 </r>
       <r>  -15.1503    1.0000 </r>
       <r>  -15.0109    1.0000 </r>
       <r>  -10.6378    1.0000 </r>
       <r>   -9.9490    1.0000 </r>
       <r>   -6.9907    1.0000 </r>
       <r>   -6.7947    1.0000 </r>
       <r>   -6.2358    1.0000 </r>
       <r>   -5.6621    1.0000 </r>
       <r>   -5.4475    1.0000 </r>
       <r>   -5.1725    1.0000 </r>
       <r>   -4.2933    1.0000 </r>
       <r>   -3.9943    1.0000 </r>
       <r>   -3.4654    1.0000 </r>
       <r>   -2.9653    1.0000 </r>
       <r>   -0.6315    0.0000 </r>
       <r>   -0.5273    0.0000 </r>
       <r>    1.1899    0.0000 </r>
       <r>    1.3097    0.0000 </r>
       <r>    1.6169    0.0000 </r>
       <r>    1.8193    0.0000 </r>
      </set>
      <set comment="kpoint 24">
       <r>  -27.6704    1.0000 </r>
       <r>  -27.6697    1.0000 </r>
       <r>  -27.6648    1.0000 </r>
       <r>  -27.6642    1.0000 </r>
       <r>  -27.6561    1.0000 </r>
       <r>  -27.6542    1.0000 </r>
       <r>  -27.6414    1.0000 </r>
       <r>  -27.6409    1.0000 </r>
       <r>  -27.6272    1.0000 </r>
       <r>  -27.6266    1.0000 </r>
       <r>  -16.0872    1.0000 </r>
       <r>  -15.8889    1.0000 </r>
       <r>  -15.1014    1.0000 </r>
       <r>  -15.0546    1.0000 </r>
       <r>  -10.4106    1.0000 </r>
       <r>  -10.1775    1.0000 </r>
       <r>   -6.9297    1.0000 </r>
       <r>   -6.8714    1.0000 </r>
       <r>   -6.1000    1.0000 </r>
       <r>   -5.8986    1.0000 </r>
       <r>   -5.3811    1.0000 </r>
       <r>   -5.2910    1.0000 </r>
       <r>   -4.2076    1.0000 </r>
       <r>   -4.1081    1.0000 </r>
       <r>   -3.3029    1.0000 </r>
       <r>   -3.1344    1.0000 </r>
       <r>   -0.5024    0.0000 </r>
       <r>   -0.4560    0.0000 </r>
       <r>    1.3551    0.0000 </r>
       <r>    1.4017    0.0000 </r>
       <r>    1.5973    0.0000 </r>
       <r>    1.6351    0.0000 </r>
      </set>
      <set comment="kpoint 25">
       <r>  -27.6734    1.0000 </r>
       <r>  -27.6706    1.0000 </r>
       <r>  -27.6680    1.0000 </r>
       <r>  -27.6604    1.0000 </r>
       <r>  -27.6600    1.0000 </r>
       <r>  -27.6451    1.0000 </r>
       <r>  -27.6438    1.0000 </r>
       <r>  -27.6401    1.0000 </r>
       <r>  -27.6292    1.0000 </r>
       <r>  -27.6248    1.0000 </r>
       <r>  -16.7426    1.0000 </r>
       <r>  -15.2925    1.0000 </r>
       <r>  -15.2806    1.0000 </r>
       <r>  -14.7458    1.0000 </r>
       <r>  -11.1715    1.0000 </r>
       <r>   -9.3260    1.0000 </r>
       <r>   -7.2967    1.0000 </r>
       <r>   -6.0206    1.0000 </r>
       <r>   -5.7007    1.0000 </r>
       <r>   -5.6412    1.0000 </r>
       <r>   -5.3611    1.0000 </r>
       <r>   -4.8202    1.0000 </r>
       <r>   -4.6852    1.0000 </r>
       <r>   -3.8774    1.0000 </r>
       <r>   -3.1260    1.0000 </r>
       <r>   -2.9146    1.0000 </r>
       <r>   -1.0742    0.0000 </r>
       <r>   -0.7722    0.0000 </r>
       <r>    0.3383    0.0000 </r>
       <r>    0.4131    0.0000 </r>
       <r>    1.0043    0.0000 </r>
       <r>    1.7604    0.0000 </r>
      </set>
      <set comment="kpoint 26">
       <r>  -27.6734    1.0000 </r>
       <r>  -27.6705    1.0000 </r>
       <r>  -27.6678    1.0000 </r>
       <r>  -27.6608    1.0000 </r>
       <r>  -27.6597    1.0000 </r>
       <r>  -27.6454    1.0000 </r>
       <r>  -27.6437    1.0000 </r>
       <r>  -27.6400    1.0000 </r>
       <r>  -27.6291    1.0000 </r>
       <r>  -27.6248    1.0000 </r>
       <r>  -16.7268    1.0000 </r>
       <r>  -15.2873    1.0000 </r>
       <r>  -15.2871    1.0000 </r>
       <r>  -14.7623    1.0000 </r>
       <r>  -11.1598    1.0000 </r>
       <r>   -9.3513    1.0000 </r>
       <r>   -7.2695    1.0000 </r>
       <r>   -6.0542    1.0000 </r>
       <r>   -5.9911    1.0000 </r>
       <r>   -5.4039    1.0000 </r>
       <r>   -5.3569    1.0000 </r>
       <r>   -4.7462    1.0000 </r>
       <r>   -4.7077    1.0000 </r>
       <r>   -3.8619    1.0000 </r>
       <r>   -3.2873    1.0000 </r>
       <r>   -2.7763    1.0000 </r>
       <r>   -1.0624    0.0000 </r>
       <r>   -0.8877    0.0000 </r>
       <r>    0.3740    0.0000 </r>
       <r>    0.5706    0.0000 </r>
       <r>    1.0466    0.0000 </r>
       <r>    1.6543    0.0000 </r>
      </set>
      <set comment="kpoint 27">
       <r>  -27.6733    1.0000 </r>
       <r>  -27.6703    1.0000 </r>
       <r>  -27.6674    1.0000 </r>
       <r>  -27.6614    1.0000 </r>
       <r>  -27.6594    1.0000 </r>
       <r>  -27.6463    1.0000 </r>
       <r>  -27.6435    1.0000 </r>
       <r>  -27.6399    1.0000 </r>
       <r>  -27.6289    1.0000 </r>
       <r>  -27.6249    1.0000 </r>
       <r>  -16.6798    1.0000 </r>
       <r>  -15.3103    1.0000 </r>
       <r>  -15.2710    1.0000 </r>
       <r>  -14.8076    1.0000 </r>
       <r>  -11.1240    1.0000 </r>
       <r>   -9.4272    1.0000 </r>
       <r>   -7.1898    1.0000 </r>
       <r>   -6.2772    1.0000 </r>
       <r>   -6.1515    1.0000 </r>
       <r>   -5.4605    1.0000 </r>
       <r>   -5.1032    1.0000 </r>
       <r>   -4.7751    1.0000 </r>
       <r>   -4.6071    1.0000 </r>
       <r>   -3.8080    1.0000 </r>
       <r>   -3.5113    1.0000 </r>
       <r>   -2.6187    1.0000 </r>
       <r>   -1.0859    0.0000 </r>
       <r>   -1.0231    0.0000 </r>
       <r>    0.4715    0.0000 </r>
       <r>    0.8871    0.0000 </r>
       <r>    1.1691    0.0000 </r>
       <r>    1.5202    0.0000 </r>
      </set>
      <set comment="kpoint 28">
       <r>  -27.6732    1.0000 </r>
       <r>  -27.6700    1.0000 </r>
       <r>  -27.6667    1.0000 </r>
       <r>  -27.6619    1.0000 </r>
       <r>  -27.6591    1.0000 </r>
       <r>  -27.6477    1.0000 </r>
       <r>  -27.6431    1.0000 </r>
       <r>  -27.6398    1.0000 </r>
       <r>  -27.6287    1.0000 </r>
       <r>  -27.6251    1.0000 </r>
       <r>  -16.6028    1.0000 </r>
       <r>  -15.3581    1.0000 </r>
       <r>  -15.2458    1.0000 </r>
       <r>  -14.8694    1.0000 </r>
       <r>  -11.0623    1.0000 </r>
       <r>   -9.5520    1.0000 </r>
       <r>   -7.0643    1.0000 </r>
       <r>   -6.5083    1.0000 </r>
       <r>   -6.2855    1.0000 </r>
       <r>   -5.4773    1.0000 </r>
       <r>   -4.9649    1.0000 </r>
       <r>   -4.8854    1.0000 </r>
       <r>   -4.4926    1.0000 </r>
       <r>   -3.7065    1.0000 </r>
       <r>   -3.7036    1.0000 </r>
       <r>   -2.5284    1.0000 </r>
       <r>   -1.2022    0.0000 </r>
       <r>   -0.9508    0.0000 </r>
       <r>    0.6106    0.0000 </r>
       <r>    1.1074    0.0000 </r>
       <r>    1.3513    0.0000 </r>
       <r>    1.5377    0.0000 </r>
      </set>
      <set comment="kpoint 29">
       <r>  -27.6730    1.0000 </r>
       <r>  -27.6698    1.0000 </r>
       <r>  -27.6659    1.0000 </r>
       <r>  -27.6623    1.0000 </r>
       <r>  -27.6589    1.0000 </r>
       <r>  -27.6494    1.0000 </r>
       <r>  -27.6426    1.0000 </r>
       <r>  -27.6398    1.0000 </r>
       <r>  -27.6283    1.0000 </r>
       <r>  -27.6254    1.0000 </r>
       <r>  -16.4979    1.0000 </r>
       <r>  -15.4410    1.0000 </r>
       <r>  -15.2136    1.0000 </r>
       <r>  -14.9314    1.0000 </r>
       <r>  -10.9730    1.0000 </r>
       <r>   -9.7192    1.0000 </r>
       <r>   -6.9111    1.0000 </r>
       <r>   -6.6752    1.0000 </r>
       <r>   -6.4065    1.0000 </r>
       <r>   -5.4631    1.0000 </r>
       <r>   -5.0329    1.0000 </r>
       <r>   -4.9702    1.0000 </r>
       <r>   -4.4222    1.0000 </r>
       <r>   -3.8586    1.0000 </r>
       <r>   -3.5545    1.0000 </r>
       <r>   -2.5179    1.0000 </r>
       <r>   -1.1780    0.0000 </r>
       <r>   -0.8498    0.0000 </r>
       <r>    0.7744    0.0000 </r>
       <r>    1.1073    0.0000 </r>
       <r>    1.5466    0.0000 </r>
       <r>    1.7982    0.0000 </r>
      </set>
      <set comment="kpoint 30">
       <r>  -27.6726    1.0000 </r>
       <r>  -27.6699    1.0000 </r>
       <r>  -27.6651    1.0000 </r>
       <r>  -27.6624    1.0000 </r>
       <r>  -27.6586    1.0000 </r>
       <r>  -27.6513    1.0000 </r>
       <r>  -27.6421    1.0000 </r>
       <r>  -27.6400    1.0000 </r>
       <r>  -27.6279    1.0000 </r>
       <r>  -27.6257    1.0000 </r>
       <r>  -16.3683    1.0000 </r>
       <r>  -15.5626    1.0000 </r>
       <r>  -15.1768    1.0000 </r>
       <r>  -14.9832    1.0000 </r>
       <r>  -10.8546    1.0000 </r>
       <r>   -9.9162    1.0000 </r>
       <r>   -6.7936    1.0000 </r>
       <r>   -6.7808    1.0000 </r>
       <r>   -6.4316    1.0000 </r>
       <r>   -5.4343    1.0000 </r>
       <r>   -5.2195    1.0000 </r>
       <r>   -5.0768    1.0000 </r>
       <r>   -4.3742    1.0000 </r>
       <r>   -3.9786    1.0000 </r>
       <r>   -3.3818    1.0000 </r>
       <r>   -2.5808    1.0000 </r>
       <r>   -1.0380    0.0000 </r>
       <r>   -0.7422    0.0000 </r>
       <r>    0.9539    0.0000 </r>
       <r>    1.0989    0.0000 </r>
       <r>    1.6900    0.0000 </r>
       <r>    2.0658    0.0000 </r>
      </set>
      <set comment="kpoint 31">
       <r>  -27.6721    1.0000 </r>
       <r>  -27.6702    1.0000 </r>
       <r>  -27.6642    1.0000 </r>
       <r>  -27.6625    1.0000 </r>
       <r>  -27.6580    1.0000 </r>
       <r>  -27.6532    1.0000 </r>
       <r>  -27.6415    1.0000 </r>
       <r>  -27.6402    1.0000 </r>
       <r>  -27.6274    1.0000 </r>
       <r>  -27.6261    1.0000 </r>
       <r>  -16.2183    1.0000 </r>
       <r>  -15.7144    1.0000 </r>
       <r>  -15.1382    1.0000 </r>
       <r>  -15.0251    1.0000 </r>
       <r>  -10.7072    1.0000 </r>
       <r>  -10.1272    1.0000 </r>
       <r>   -6.8350    1.0000 </r>
       <r>   -6.7933    1.0000 </r>
       <r>   -6.2743    1.0000 </r>
       <r>   -5.4599    1.0000 </r>
       <r>   -5.3989    1.0000 </r>
       <r>   -5.1978    1.0000 </r>
       <r>   -4.3239    1.0000 </r>
       <r>   -4.0827    1.0000 </r>
       <r>   -3.2018    1.0000 </r>
       <r>   -2.6988    1.0000 </r>
       <r>   -0.8576    0.0000 </r>
       <r>   -0.6631    0.0000 </r>
       <r>    1.1394    0.0000 </r>
       <r>    1.1602    0.0000 </r>
       <r>    1.7333    0.0000 </r>
       <r>    1.9411    0.0000 </r>
      </set>
      <set comment="kpoint 32">
       <r>  -27.6715    1.0000 </r>
       <r>  -27.6708    1.0000 </r>
       <r>  -27.6635    1.0000 </r>
       <r>  -27.6629    1.0000 </r>
       <r>  -27.6567    1.0000 </r>
       <r>  -27.6551    1.0000 </r>
       <r>  -27.6410    1.0000 </r>
       <r>  -27.6406    1.0000 </r>
       <r>  -27.6270    1.0000 </r>
       <r>  -27.6265    1.0000 </r>
       <r>  -16.0538    1.0000 </r>
       <r>  -15.8824    1.0000 </r>
       <r>  -15.0999    1.0000 </r>
       <r>  -15.0626    1.0000 </r>
       <r>  -10.5331    1.0000 </r>
       <r>  -10.3369    1.0000 </r>
       <r>   -6.8484    1.0000 </r>
       <r>   -6.8298    1.0000 </r>
       <r>   -6.0206    1.0000 </r>
       <r>   -5.7379    1.0000 </r>
       <r>   -5.3543    1.0000 </r>
       <r>   -5.2906    1.0000 </r>
       <r>   -4.2586    1.0000 </r>
       <r>   -4.1768    1.0000 </r>
       <r>   -3.0227    1.0000 </r>
       <r>   -2.8514    1.0000 </r>
       <r>   -0.7132    0.0000 </r>
       <r>   -0.6467    0.0000 </r>
       <r>    1.2728    0.0000 </r>
       <r>    1.2887    0.0000 </r>
       <r>    1.6985    0.0000 </r>
       <r>    1.7622    0.0000 </r>
      </set>
      <set comment="kpoint 33">
       <r>  -27.6726    1.0000 </r>
       <r>  -27.6698    1.0000 </r>
       <r>  -27.6670    1.0000 </r>
       <r>  -27.6610    1.0000 </r>
       <r>  -27.6597    1.0000 </r>
       <r>  -27.6475    1.0000 </r>
       <r>  -27.6433    1.0000 </r>
       <r>  -27.6404    1.0000 </r>
       <r>  -27.6288    1.0000 </r>
       <r>  -27.6254    1.0000 </r>
       <r>  -16.6089    1.0000 </r>
       <r>  -15.5236    1.0000 </r>
       <r>  -15.2289    1.0000 </r>
       <r>  -14.8139    1.0000 </r>
       <r>  -10.8569    1.0000 </r>
       <r>   -9.4609    1.0000 </r>
       <r>   -7.1762    1.0000 </r>
       <r>   -6.0999    1.0000 </r>
       <r>   -5.9615    1.0000 </r>
       <r>   -5.9082    1.0000 </r>
       <r>   -5.2900    1.0000 </r>
       <r>   -4.7544    1.0000 </r>
       <r>   -4.6436    1.0000 </r>
       <r>   -3.7235    1.0000 </r>
       <r>   -3.3997    1.0000 </r>
       <r>   -3.0362    1.0000 </r>
       <r>   -0.8729    0.0000 </r>
       <r>   -0.4096    0.0000 </r>
       <r>    0.4524    0.0000 </r>
       <r>    1.0930    0.0000 </r>
       <r>    1.1570    0.0000 </r>
       <r>    1.4837    0.0000 </r>
      </set>
      <set comment="kpoint 34">
       <r>  -27.6727    1.0000 </r>
       <r>  -27.6699    1.0000 </r>
       <r>  -27.6668    1.0000 </r>
       <r>  -27.6611    1.0000 </r>
       <r>  -27.6596    1.0000 </r>
       <r>  -27.6478    1.0000 </r>
       <r>  -27.6432    1.0000 </r>
       <r>  -27.6403    1.0000 </r>
       <r>  -27.6287    1.0000 </r>
       <r>  -27.6254    1.0000 </r>
       <r>  -16.5945    1.0000 </r>
       <r>  -15.5258    1.0000 </r>
       <r>  -15.2249    1.0000 </r>
       <r>  -14.8249    1.0000 </r>
       <r>  -10.8621    1.0000 </r>
       <r>   -9.4937    1.0000 </r>
       <r>   -7.1384    1.0000 </r>
       <r>   -6.2311    1.0000 </r>
       <r>   -6.1275    1.0000 </r>
       <r>   -5.6094    1.0000 </r>
       <r>   -5.3341    1.0000 </r>
       <r>   -4.7873    1.0000 </r>
       <r>   -4.5858    1.0000 </r>
       <r>   -3.6996    1.0000 </r>
       <r>   -3.5226    1.0000 </r>
       <r>   -2.9076    1.0000 </r>
       <r>   -0.8624    0.0000 </r>
       <r>   -0.5360    0.0000 </r>
       <r>    0.4759    0.0000 </r>
       <r>    1.1752    0.0000 </r>
       <r>    1.1974    0.0000 </r>
       <r>    1.4412    0.0000 </r>
      </set>
      <set comment="kpoint 35">
       <r>  -27.6728    1.0000 </r>
       <r>  -27.6699    1.0000 </r>
       <r>  -27.6663    1.0000 </r>
       <r>  -27.6614    1.0000 </r>
       <r>  -27.6594    1.0000 </r>
       <r>  -27.6486    1.0000 </r>
       <r>  -27.6429    1.0000 </r>
       <r>  -27.6402    1.0000 </r>
       <r>  -27.6285    1.0000 </r>
       <r>  -27.6254    1.0000 </r>
       <r>  -16.5519    1.0000 </r>
       <r>  -15.5342    1.0000 </r>
       <r>  -15.2133    1.0000 </r>
       <r>  -14.8562    1.0000 </r>
       <r>  -10.8733    1.0000 </r>
       <r>   -9.5890    1.0000 </r>
       <r>   -7.0290    1.0000 </r>
       <r>   -6.4723    1.0000 </r>
       <r>   -6.2114    1.0000 </r>
       <r>   -5.4034    1.0000 </r>
       <r>   -5.2939    1.0000 </r>
       <r>   -4.8827    1.0000 </r>
       <r>   -4.4823    1.0000 </r>
       <r>   -3.7081    1.0000 </r>
       <r>   -3.6202    1.0000 </r>
       <r>   -2.7099    1.0000 </r>
       <r>   -0.8318    0.0000 </r>
       <r>   -0.8035    0.0000 </r>
       <r>    0.5426    0.0000 </r>
       <r>    1.1851    0.0000 </r>
       <r>    1.3143    0.0000 </r>
       <r>    1.5556    0.0000 </r>
[...]
       <r>    1.4588    0.0000 </r>
       <r>    1.5229    0.0000 </r>
      </set>
      <set comment="kpoint 54">
       <r>  -27.6727    1.0000 </r>
       <r>  -27.6722    1.0000 </r>
       <r>  -27.6615    1.0000 </r>
       <r>  -27.6607    1.0000 </r>
       <r>  -27.6580    1.0000 </r>
       <r>  -27.6565    1.0000 </r>
       <r>  -27.6406    1.0000 </r>
       <r>  -27.6402    1.0000 </r>
       <r>  -27.6268    1.0000 </r>
       <r>  -27.6264    1.0000 </r>
       <r>  -16.0402    1.0000 </r>
       <r>  -15.9094    1.0000 </r>
       <r>  -15.0843    1.0000 </r>
       <r>  -15.0534    1.0000 </r>
       <r>  -10.6611    1.0000 </r>
       <r>  -10.5111    1.0000 </r>
       <r>   -6.8253    1.0000 </r>
       <r>   -6.7814    1.0000 </r>
       <r>   -5.7944    1.0000 </r>
       <r>   -5.6290    1.0000 </r>
       <r>   -5.1791    1.0000 </r>
       <r>   -4.9766    1.0000 </r>
       <r>   -4.3033    1.0000 </r>
       <r>   -4.2355    1.0000 </r>
       <r>   -2.5942    1.0000 </r>
       <r>   -2.4529    1.0000 </r>
       <r>   -1.1258    0.0000 </r>
       <r>   -0.9413    0.0000 </r>
       <r>    1.1986    0.0000 </r>
       <r>    1.2338    0.0000 </r>
       <r>    1.5179    0.0000 </r>
       <r>    1.5294    0.0000 </r>
      </set>
      <set comment="kpoint 55">
       <r>  -27.6729    1.0000 </r>
       <r>  -27.6726    1.0000 </r>
       <r>  -27.6608    1.0000 </r>
       <r>  -27.6601    1.0000 </r>
       <r>  -27.6586    1.0000 </r>
       <r>  -27.6574    1.0000 </r>
       <r>  -27.6403    1.0000 </r>
       <r>  -27.6401    1.0000 </r>
       <r>  -27.6266    1.0000 </r>
       <r>  -27.6264    1.0000 </r>
       <r>  -15.9803    1.0000 </r>
       <r>  -15.8960    1.0000 </r>
       <r>  -15.0907    1.0000 </r>
       <r>  -15.0744    1.0000 </r>
       <r>  -10.7275    1.0000 </r>
       <r>  -10.6347    1.0000 </r>
       <r>   -6.8503    1.0000 </r>
       <r>   -6.8216    1.0000 </r>
       <r>   -5.7732    1.0000 </r>
       <r>   -5.6898    1.0000 </r>
       <r>   -5.0001    1.0000 </r>
       <r>   -4.8379    1.0000 </r>
       <r>   -4.3305    1.0000 </r>
       <r>   -4.2787    1.0000 </r>
       <r>   -2.4554    1.0000 </r>
       <r>   -2.3725    1.0000 </r>
       <r>   -1.2680    0.0000 </r>
       <r>   -1.1214    0.0000 </r>
       <r>    1.2284    0.0000 </r>
       <r>    1.3510    0.0000 </r>
       <r>    1.4804    0.0000 </r>
       <r>    1.5585    0.0000 </r>
      </set>
      <set comment="kpoint 56">
       <r>  -27.6729    1.0000 </r>
       <r>  -27.6728    1.0000 </r>
       <r>  -27.6601    1.0000 </r>
       <r>  -27.6597    1.0000 </r>
       <r>  -27.6589    1.0000 </r>
       <r>  -27.6583    1.0000 </r>
       <r>  -27.6401    1.0000 </r>
       <r>  -27.6400    1.0000 </r>
       <r>  -27.6265    1.0000 </r>
       <r>  -27.6264    1.0000 </r>
       <r>  -15.9318    1.0000 </r>
       <r>  -15.9025    1.0000 </r>
       <r>  -15.0933    1.0000 </r>
       <r>  -15.0884    1.0000 </r>
       <r>  -10.7471    1.0000 </r>
       <r>  -10.7157    1.0000 </r>
       <r>   -6.8611    1.0000 </r>
       <r>   -6.8514    1.0000 </r>
       <r>   -5.7518    1.0000 </r>
       <r>   -5.7267    1.0000 </r>
       <r>   -4.8616    1.0000 </r>
       <r>   -4.8018    1.0000 </r>
       <r>   -4.3292    1.0000 </r>
       <r>   -4.3076    1.0000 </r>
       <r>   -2.3751    1.0000 </r>
       <r>   -2.3495    1.0000 </r>
       <r>   -1.3101    0.0000 </r>
       <r>   -1.2551    0.0000 </r>
       <r>    1.2878    0.0000 </r>
       <r>    1.3596    0.0000 </r>
       <r>    1.4872    0.0000 </r>
       <r>    1.5380    0.0000 </r>
      </set>
     </set>
    </set>
   </array>
  </eigenvalues>
  <separator name="orbital magnetization" >
   <v name="MAGDIPOLOUT">      0.00000000      0.00000000      0.00000000</v>
  </separator>
  <dos>
   <i name="efermi">     -2.25868416 </i>
   <total>
    <array>
     <dimension dim="1">gridpoints</dimension>
     <dimension dim="2">spin</dimension>
     <field>energy</field>
     <field>total</field>
     <field>integrated</field>
     <set>
      <set comment="spin 1">
       <r>   -29.1645     0.0000     0.0000 </r>
       <r>   -29.0552     0.0000     0.0000 </r>
       <r>   -28.9460     0.0000     0.0000 </r>
       <r>   -28.8367     0.0000     0.0000 </r>
       <r>   -28.7275     0.0000     0.0000 </r>
       <r>   -28.6182     0.0000     0.0000 </r>
       <r>   -28.5089     0.0000     0.0000 </r>
       <r>   -28.3997     0.0000     0.0000 </r>
       <r>   -28.2904     0.0000     0.0000 </r>
       <r>   -28.1812     0.0000     0.0000 </r>
       <r>   -28.0719     0.0000     0.0000 </r>
       <r>   -27.9626     0.0000     0.0000 </r>
       <r>   -27.8534     0.0000     0.0000 </r>
       <r>   -27.7441     0.0000     0.0000 </r>
       <r>   -27.6348   140.4849    15.3497 </r>
       <r>   -27.5256    42.5609    20.0000 </r>
       <r>   -27.4163     0.0000    20.0000 </r>
       <r>   -27.3071     0.0000    20.0000 </r>
       <r>   -27.1978     0.0000    20.0000 </r>
       <r>   -27.0885     0.0000    20.0000 </r>
       <r>   -26.9793     0.0000    20.0000 </r>
       <r>   -26.8700     0.0000    20.0000 </r>
       <r>   -26.7607     0.0000    20.0000 </r>
       <r>   -26.6515     0.0000    20.0000 </r>
       <r>   -26.5422     0.0000    20.0000 </r>
       <r>   -26.4330     0.0000    20.0000 </r>
       <r>   -26.3237     0.0000    20.0000 </r>
       <r>   -26.2144     0.0000    20.0000 </r>
       <r>   -26.1052     0.0000    20.0000 </r>
       <r>   -25.9959     0.0000    20.0000 </r>
       <r>   -25.8866     0.0000    20.0000 </r>
       <r>   -25.7774     0.0000    20.0000 </r>
       <r>   -25.6681     0.0000    20.0000 </r>
       <r>   -25.5589     0.0000    20.0000 </r>
       <r>   -25.4496     0.0000    20.0000 </r>
       <r>   -25.3403     0.0000    20.0000 </r>
       <r>   -25.2311     0.0000    20.0000 </r>
       <r>   -25.1218     0.0000    20.0000 </r>
       <r>   -25.0125     0.0000    20.0000 </r>
       <r>   -24.9033     0.0000    20.0000 </r>
       <r>   -24.7940     0.0000    20.0000 </r>
       <r>   -24.6848     0.0000    20.0000 </r>
       <r>   -24.5755     0.0000    20.0000 </r>
       <r>   -24.4662     0.0000    20.0000 </r>
       <r>   -24.3570     0.0000    20.0000 </r>
       <r>   -24.2477     0.0000    20.0000 </r>
       <r>   -24.1384     0.0000    20.0000 </r>
       <r>   -24.0292     0.0000    20.0000 </r>
       <r>   -23.9199     0.0000    20.0000 </r>
       <r>   -23.8107     0.0000    20.0000 </r>
       <r>   -23.7014     0.0000    20.0000 </r>
       <r>   -23.5921     0.0000    20.0000 </r>
       <r>   -23.4829     0.0000    20.0000 </r>
       <r>   -23.3736     0.0000    20.0000 </r>
       <r>   -23.2643     0.0000    20.0000 </r>
       <r>   -23.1551     0.0000    20.0000 </r>
       <r>   -23.0458     0.0000    20.0000 </r>
       <r>   -22.9366     0.0000    20.0000 </r>
       <r>   -22.8273     0.0000    20.0000 </r>
       <r>   -22.7180     0.0000    20.0000 </r>
       <r>   -22.6088     0.0000    20.0000 </r>
       <r>   -22.4995     0.0000    20.0000 </r>
       <r>   -22.3903     0.0000    20.0000 </r>
       <r>   -22.2810     0.0000    20.0000 </r>
       <r>   -22.1717     0.0000    20.0000 </r>
       <r>   -22.0625     0.0000    20.0000 </r>
       <r>   -21.9532     0.0000    20.0000 </r>
       <r>   -21.8439     0.0000    20.0000 </r>
       <r>   -21.7347     0.0000    20.0000 </r>
       <r>   -21.6254     0.0000    20.0000 </r>
       <r>   -21.5162     0.0000    20.0000 </r>
       <r>   -21.4069     0.0000    20.0000 </r>
       <r>   -21.2976     0.0000    20.0000 </r>
       <r>   -21.1884     0.0000    20.0000 </r>
       <r>   -21.0791     0.0000    20.0000 </r>
       <r>   -20.9698     0.0000    20.0000 </r>
       <r>   -20.8606     0.0000    20.0000 </r>
       <r>   -20.7513     0.0000    20.0000 </r>
       <r>   -20.6421     0.0000    20.0000 </r>
       <r>   -20.5328     0.0000    20.0000 </r>
       <r>   -20.4235     0.0000    20.0000 </r>
       <r>   -20.3143     0.0000    20.0000 </r>
       <r>   -20.2050     0.0000    20.0000 </r>
       <r>   -20.0957     0.0000    20.0000 </r>
       <r>   -19.9865     0.0000    20.0000 </r>
       <r>   -19.8772     0.0000    20.0000 </r>
       <r>   -19.7680     0.0000    20.0000 </r>
       <r>   -19.6587     0.0000    20.0000 </r>
       <r>   -19.5494     0.0000    20.0000 </r>
       <r>   -19.4402     0.0000    20.0000 </r>
       <r>   -19.3309     0.0000    20.0000 </r>
       <r>   -19.2216     0.0000    20.0000 </r>
       <r>   -19.1124     0.0000    20.0000 </r>
       <r>   -19.0031     0.0000    20.0000 </r>
       <r>   -18.8939     0.0000    20.0000 </r>
       <r>   -18.7846     0.0000    20.0000 </r>
       <r>   -18.6753     0.0000    20.0000 </r>
       <r>   -18.5661     0.0000    20.0000 </r>
       <r>   -18.4568     0.0000    20.0000 </r>
       <r>   -18.3475     0.0000    20.0000 </r>
       <r>   -18.2383     0.0000    20.0000 </r>
       <r>   -18.1290     0.0000    20.0000 </r>
       <r>   -18.0198     0.0000    20.0000 </r>
       <r>   -17.9105     0.0000    20.0000 </r>
       <r>   -17.8012     0.0000    20.0000 </r>
       <r>   -17.6920     0.0000    20.0000 </r>
       <r>   -17.5827     0.0000    20.0000 </r>
       <r>   -17.4735     0.0000    20.0000 </r>
       <r>   -17.3642     0.0000    20.0000 </r>
       <r>   -17.2549     0.0000    20.0000 </r>
       <r>   -17.1457     0.0000    20.0000 </r>
       <r>   -17.0364     0.0000    20.0000 </r>
       <r>   -16.9271     0.0348    20.0038 </r>
       <r>   -16.8179     1.7083    20.1904 </r>
       <r>   -16.7086     1.7349    20.3800 </r>
       <r>   -16.5994     1.8253    20.5794 </r>
       <r>   -16.4901     1.7534    20.7710 </r>
       <r>   -16.3808     2.3124    21.0237 </r>
       <r>   -16.2716     1.9060    21.2319 </r>
       <r>   -16.1623     2.3889    21.4930 </r>
       <r>   -16.0530     2.5891    21.7758 </r>
       <r>   -15.9438     3.1376    22.1187 </r>
       <r>   -15.8345     3.8551    22.5399 </r>
       <r>   -15.7253     2.8324    22.8494 </r>
       <r>   -15.6160     1.6370    23.0282 </r>
       <r>   -15.5067     2.0129    23.2482 </r>
       <r>   -15.3975     1.3656    23.3974 </r>
       <r>   -15.2882     4.6905    23.9099 </r>
       <r>   -15.1789     6.2291    24.5905 </r>
       <r>   -15.0697    11.3100    25.8262 </r>
       <r>   -14.9604     9.4319    26.8568 </r>
       <r>   -14.8512     6.2667    27.5415 </r>
       <r>   -14.7419     2.7031    27.8369 </r>
       <r>   -14.6326     1.4791    27.9985 </r>
       <r>   -14.5234     0.0139    28.0000 </r>
       <r>   -14.4141     0.0000    28.0000 </r>
       <r>   -14.3048     0.0000    28.0000 </r>
       <r>   -14.1956     0.0000    28.0000 </r>
       <r>   -14.0863     0.0000    28.0000 </r>
       <r>   -13.9771     0.0000    28.0000 </r>
       <r>   -13.8678     0.0000    28.0000 </r>
       <r>   -13.7585     0.0000    28.0000 </r>
       <r>   -13.6493     0.0000    28.0000 </r>
       <r>   -13.5400     0.0000    28.0000 </r>
       <r>   -13.4307     0.0000    28.0000 </r>
       <r>   -13.3215     0.0000    28.0000 </r>
       <r>   -13.2122     0.0000    28.0000 </r>
       <r>   -13.1030     0.0000    28.0000 </r>
       <r>   -12.9937     0.0000    28.0000 </r>
       <r>   -12.8844     0.0000    28.0000 </r>
       <r>   -12.7752     0.0000    28.0000 </r>
       <r>   -12.6659     0.0000    28.0000 </r>
       <r>   -12.5567     0.0000    28.0000 </r>
       <r>   -12.4474     0.0000    28.0000 </r>
       <r>   -12.3381     0.0000    28.0000 </r>
       <r>   -12.2289     0.0000    28.0000 </r>
       <r>   -12.1196     0.0000    28.0000 </r>
       <r>   -12.0103     0.0000    28.0000 </r>
       <r>   -11.9011     0.0000    28.0000 </r>
       <r>   -11.7918     0.0000    28.0000 </r>
       <r>   -11.6826     0.0625    28.0068 </r>
       <r>   -11.5733     0.6844    28.0816 </r>
       <r>   -11.4640     0.5327    28.1398 </r>
       <r>   -11.3548     0.7138    28.2178 </r>
       <r>   -11.2455     0.9173    28.3180 </r>
       <r>   -11.1362     0.9914    28.4263 </r>
       <r>   -11.0270     1.5809    28.5991 </r>
       <r>   -10.9177     0.4327    28.6464 </r>
       <r>   -10.8085     3.3378    29.0111 </r>
       <r>   -10.6992     3.2383    29.3649 </r>
       <r>   -10.5899     2.7843    29.6691 </r>
       <r>   -10.4807     2.9117    29.9872 </r>
       <r>   -10.3714     0.9352    30.0894 </r>
       <r>   -10.2621     2.3441    30.3456 </r>
       <r>   -10.1529     1.4175    30.5004 </r>
       <r>   -10.0436     1.5774    30.6728 </r>
       <r>    -9.9344     1.4506    30.8313 </r>
       <r>    -9.8251     1.1686    30.9590 </r>
       <r>    -9.7158     1.7393    31.1490 </r>
       <r>    -9.6066     1.0607    31.2649 </r>
       <r>    -9.4973     1.5279    31.4319 </r>
       <r>    -9.3880     1.7113    31.6188 </r>
       <r>    -9.2788     1.5566    31.7889 </r>
       <r>    -9.1695     1.8997    31.9965 </r>
       <r>    -9.0603     0.0321    32.0000 </r>
       <r>    -8.9510     0.0000    32.0000 </r>
       <r>    -8.8417     0.0000    32.0000 </r>
       <r>    -8.7325     0.0000    32.0000 </r>
       <r>    -8.6232     0.0000    32.0000 </r>
       <r>    -8.5139     0.0000    32.0000 </r>
       <r>    -8.4047     0.0000    32.0000 </r>
       <r>    -8.2954     0.0000    32.0000 </r>
       <r>    -8.1862     0.0000    32.0000 </r>
       <r>    -8.0769     0.0000    32.0000 </r>
       <r>    -7.9676     0.0000    32.0000 </r>
       <r>    -7.8584     0.0000    32.0000 </r>
       <r>    -7.7491     0.0000    32.0000 </r>
       <r>    -7.6398     0.0000    32.0000 </r>
       <r>    -7.5306     0.0000    32.0000 </r>
       <r>    -7.4213     0.7647    32.0836 </r>
       <r>    -7.3121     2.7062    32.3792 </r>
       <r>    -7.2028     1.7645    32.5720 </r>
       <r>    -7.0935     1.7780    32.7663 </r>
       <r>    -6.9843     2.0625    32.9917 </r>
       <r>    -6.8750     2.3054    33.2436 </r>
       <r>    -6.7658    10.3293    34.3722 </r>
       <r>    -6.6565     5.3915    34.9613 </r>
       <r>    -6.5472     1.9566    35.1750 </r>
       <r>    -6.4380     2.1502    35.4100 </r>
       <r>    -6.3287     1.6753    35.5930 </r>
       <r>    -6.2194     3.8512    36.0138 </r>
       <r>    -6.1102     5.8334    36.6512 </r>
       <r>    -6.0009     5.3786    37.2389 </r>
       <r>    -5.8917     3.9741    37.6731 </r>
       <r>    -5.7824     3.5846    38.0648 </r>
       <r>    -5.6731     4.6851    38.5767 </r>
       <r>    -5.5639     3.8016    38.9921 </r>
       <r>    -5.4546     6.7311    39.7275 </r>
       <r>    -5.3453     7.6051    40.5585 </r>
       <r>    -5.2361     6.3473    41.2520 </r>
       <r>    -5.1268     5.7724    41.8827 </r>
       <r>    -5.0176     5.6466    42.4997 </r>
       <r>    -4.9083     4.5402    42.9957 </r>
       <r>    -4.7990     5.5230    43.5992 </r>
       <r>    -4.6898     4.2012    44.0582 </r>
       <r>    -4.5805     3.7661    44.4697 </r>
       <r>    -4.4712     1.6398    44.6489 </r>
       <r>    -4.3620     4.0349    45.0898 </r>
       <r>    -4.2527     7.1186    45.8676 </r>
       <r>    -4.1435     4.9136    46.4044 </r>
       <r>    -4.0342     3.9713    46.8384 </r>
       <r>    -3.9249     3.9345    47.2683 </r>
       <r>    -3.8157     3.6961    47.6721 </r>
       <r>    -3.7064     2.9466    47.9941 </r>
       <r>    -3.5971     2.6792    48.2868 </r>
       <r>    -3.4879     3.0765    48.6229 </r>
       <r>    -3.3786     2.1039    48.8528 </r>
       <r>    -3.2694     2.9779    49.1782 </r>
       <r>    -3.1601     2.2952    49.4290 </r>
       <r>    -3.0508     2.2900    49.6792 </r>
       <r>    -2.9416     2.6579    49.9696 </r>
       <r>    -2.8323     2.9842    50.2956 </r>
       <r>    -2.7230     3.2596    50.6518 </r>
       <r>    -2.6138     3.9934    51.0881 </r>
       <r>    -2.5045     3.6804    51.4902 </r>
       <r>    -2.3953     3.1575    51.8352 </r>
       <r>    -2.2860     1.5080    52.0000 </r>
       <r>    -2.1767     0.0000    52.0000 </r>
       <r>    -2.0675     0.0000    52.0000 </r>
       <r>    -1.9582     0.0000    52.0000 </r>
       <r>    -1.8490     0.0000    52.0000 </r>
       <r>    -1.7397     0.0000    52.0000 </r>
       <r>    -1.6304     0.0000    52.0000 </r>
       <r>    -1.5212     0.0939    52.0103 </r>
       <r>    -1.4119     0.5844    52.0741 </r>
       <r>    -1.3026     0.8864    52.1710 </r>
       <r>    -1.1934     5.9913    52.8256 </r>
       <r>    -1.0841     3.9544    53.2577 </r>
       <r>    -0.9749     3.5676    53.6475 </r>
       <r>    -0.8656     3.3014    54.0082 </r>
       <r>    -0.7563     4.5701    54.5075 </r>
       <r>    -0.6471     4.0778    54.9531 </r>
       <r>    -0.5378     3.3311    55.3170 </r>
       <r>    -0.4285     2.3539    55.5742 </r>
       <r>    -0.3193     2.3024    55.8258 </r>
       <r>    -0.2100     1.8512    56.0281 </r>
       <r>    -0.1008     0.9631    56.1333 </r>
       <r>     0.0085     0.4141    56.1785 </r>
       <r>     0.1178     0.3372    56.2154 </r>
       <r>     0.2270     0.3631    56.2551 </r>
       <r>     0.3363     1.3164    56.3989 </r>
       <r>     0.4456     2.0404    56.6218 </r>
       <r>     0.5548     1.6084    56.7976 </r>
       <r>     0.6641     2.8777    57.1120 </r>
       <r>     0.7733     1.3698    57.2617 </r>
       <r>     0.8826     3.5511    57.6496 </r>
       <r>     0.9919     3.0054    57.9780 </r>
       <r>     1.1011     6.5584    58.6946 </r>
       <r>     1.2104     8.0661    59.5759 </r>
       <r>     1.3197     5.8905    60.2195 </r>
       <r>     1.4289     6.0146    60.8767 </r>
       <r>     1.5382     8.2533    61.7785 </r>
       <r>     1.6474     5.7513    62.4069 </r>
       <r>     1.7567     5.0511    62.9588 </r>
       <r>     1.8660     5.0518    63.5108 </r>
       <r>     1.9752     2.5113    63.7852 </r>
       <r>     2.0845     1.7243    63.9736 </r>
       <r>     2.1938     0.2419    64.0000 </r>
       <r>     2.3030     0.0000    64.0000 </r>
       <r>     2.4123     0.0000    64.0000 </r>
       <r>     2.5215     0.0000    64.0000 </r>
       <r>     2.6308     0.0000    64.0000 </r>
       <r>     2.7401     0.0000    64.0000 </r>
       <r>     2.8493     0.0000    64.0000 </r>
       <r>     2.9586     0.0000    64.0000 </r>
       <r>     3.0678     0.0000    64.0000 </r>
       <r>     3.1771     0.0000    64.0000 </r>
       <r>     3.2864     0.0000    64.0000 </r>
       <r>     3.3956     0.0000    64.0000 </r>
       <r>     3.5049     0.0000    64.0000 </r>
       <r>     3.6142     0.0000    64.0000 </r>
      </set>
     </set>
    </array>
   </total>
  </dos>
 </calculation>
 <structure name="finalpos" >
  <crystal>
   <varray name="basis" >
    <v>       4.83192500       0.00000000       0.00000000 </v>
    <v>       0.00000000       5.48699800       0.00000000 </v>
    <v>       0.00000000       0.00000000      18.07929100 </v>
   </varray>
   <i name="volume">    479.33195408 </i>
   <varray name="rec_basis" >
    <v>       0.20695685       0.00000000       0.00000000 </v>
    <v>       0.00000000       0.18224902       0.00000000 </v>
    <v>       0.00000000       0.00000000       0.05531190 </v>
   </varray>
  </crystal>
  <varray name="positions" >
   <v>       0.50000000       0.50000000       0.50000000 </v>
   <v>      -0.00000000       0.00000000       0.50000000 </v>
   <v>       0.25000000       0.25000000       0.41428481 </v>
   <v>       0.75000000       0.75000000       0.41428481 </v>
   <v>       0.75000000       0.25000000       0.58571519 </v>
   <v>       0.25000000       0.75000000       0.58571519 </v>
  </varray>
 </structure>
</modeling>
