<?xml version="1.0" encoding="ISO-8859-1"?>
<modeling>
 <generator>
  <i name="program" type="string">vasp </i>
  <i name="version" type="string">5.4.1  </i>
  <i name="subversion" type="string">24Jun15 (build Nov 20 2020 10:29:34) complex                          parallel </i>
  <i name="platform" type="string">IFC91_ompi </i>
  <i name="date" type="string">2021 09 13 </i>
  <i name="time" type="string">23:33:44 </i>
 </generator>
 <incar>
  <i type="int" name="ISTART">     1</i>
  <i type="string" name="PREC">a</i>
  <i type="string" name="ALGO"> Normal</i>
  <i type="int" name="ISPIN">     1</i>
  <i type="int" name="ICHARG">     2</i>
  <i type="int" name="NELM">   250</i>
  <i type="int" name="NELMDL">    -5</i>
  <i type="int" name="NELMIN">     6</i>
  <i type="int" name="IBRION">     2</i>
  <i name="EDIFF">      0.00001000</i>
  <i name="EDIFFG">     -0.00500000</i>
  <i type="int" name="NSW">     0</i>
  <i type="int" name="ISIF">     2</i>
  <i name="ENCUT">    520.00000000</i>
  <i name="POTIM">      0.25000000</i>
  <v name="MAGMOM">      0.60000000      0.60000000</v>
  <i type="string" name="LREAL"> Auto</i>
  <i type="int" name="ISMEAR">     0</i>
  <i name="SIGMA">      0.02000000</i>
  <i type="logical" name="LWAVE"> F  </i>
  <i type="logical" name="LCHARG"> F  </i>
  <i type="logical" name="LVHAR"> F  </i>
  <v type="int" name="KPOINT_BSE">    -1     0     0     0</v>
  <i type="int" name="NELM">   250</i>
 </incar>
 <kpoints>
  <generation param="Gamma">
   <v type="int" name="divisions">      24       25        1 </v>
   <v name="usershift">      0.00000000       0.00000000       0.00000000 </v>
   <v name="genvec1">      0.04166667       0.00000000       0.00000000 </v>
   <v name="genvec2">      0.00000000       0.04000000       0.00000000 </v>
   <v name="genvec3">      0.00000000       0.00000000       1.00000000 </v>
   <v name="shift">      0.00000000       0.00000000       0.00000000 </v>
  </generation>
  <varray name="kpointlist" >
   <v>       0.00000000       0.00000000       0.00000000 </v>
   <v>       0.04166667       0.00000000       0.00000000 </v>
   <v>       0.08333333       0.00000000       0.00000000 </v>
   <v>       0.12500000       0.00000000       0.00000000 </v>
   <v>       0.16666667      -0.00000000       0.00000000 </v>
   <v>       0.20833333       0.00000000       0.00000000 </v>
   <v>       0.25000000       0.00000000       0.00000000 </v>
   <v>       0.29166667       0.00000000       0.00000000 </v>
   <v>       0.33333333       0.00000000       0.00000000 </v>
   <v>       0.37500000       0.00000000       0.00000000 </v>
   <v>       0.41666667       0.00000000       0.00000000 </v>
   <v>       0.45833333       0.00000000       0.00000000 </v>
   <v>       0.50000000       0.00000000       0.00000000 </v>
   <v>      -0.00000000       0.04000000       0.00000000 </v>
   <v>       0.04166667       0.04000000       0.00000000 </v>
   <v>       0.08333333       0.04000000       0.00000000 </v>
   <v>       0.12500000       0.04000000       0.00000000 </v>
   <v>       0.16666667       0.04000000       0.00000000 </v>
   <v>       0.20833333       0.04000000       0.00000000 </v>
   <v>       0.25000000       0.04000000       0.00000000 </v>
   <v>       0.29166667       0.04000000       0.00000000 </v>
   <v>       0.33333333       0.04000000       0.00000000 </v>
   <v>       0.37500000       0.04000000       0.00000000 </v>
   <v>       0.41666667       0.04000000       0.00000000 </v>
   <v>       0.45833333       0.04000000       0.00000000 </v>
   <v>       0.50000000       0.04000000       0.00000000 </v>
   <v>      -0.45833333       0.04000000       0.00000000 </v>
   <v>      -0.41666667       0.04000000       0.00000000 </v>
   <v>      -0.37500000       0.04000000       0.00000000 </v>
   <v>      -0.33333333       0.04000000       0.00000000 </v>
   <v>      -0.29166667       0.04000000       0.00000000 </v>
   <v>      -0.25000000       0.04000000       0.00000000 </v>
   <v>      -0.20833333       0.04000000       0.00000000 </v>
   <v>      -0.16666667       0.04000000       0.00000000 </v>
   <v>      -0.12500000       0.04000000       0.00000000 </v>
   <v>      -0.08333333       0.04000000       0.00000000 </v>
   <v>      -0.04166667       0.04000000       0.00000000 </v>
   <v>      -0.00000000       0.08000000       0.00000000 </v>
   <v>       0.04166667       0.08000000       0.00000000 </v>
   <v>       0.08333333       0.08000000       0.00000000 </v>
   <v>       0.12500000       0.08000000       0.00000000 </v>
   <v>       0.16666667       0.08000000       0.00000000 </v>
   <v>       0.20833333       0.08000000       0.00000000 </v>
   <v>       0.25000000       0.08000000       0.00000000 </v>
   <v>       0.29166667       0.08000000       0.00000000 </v>
   <v>       0.33333333       0.08000000       0.00000000 </v>
   <v>       0.37500000       0.08000000       0.00000000 </v>
   <v>       0.41666667       0.08000000       0.00000000 </v>
   <v>       0.45833333       0.08000000       0.00000000 </v>
   <v>       0.50000000       0.08000000       0.00000000 </v>
   <v>      -0.45833333       0.08000000       0.00000000 </v>
   <v>      -0.41666667       0.08000000       0.00000000 </v>
   <v>      -0.37500000       0.08000000       0.00000000 </v>
   <v>      -0.33333333       0.08000000       0.00000000 </v>
   <v>      -0.29166667       0.08000000       0.00000000 </v>
   <v>      -0.25000000       0.08000000       0.00000000 </v>
   <v>      -0.20833333       0.08000000       0.00000000 </v>
   <v>      -0.16666667       0.08000000       0.00000000 </v>
   <v>      -0.12500000       0.08000000       0.00000000 </v>
   <v>      -0.08333333       0.08000000       0.00000000 </v>
   <v>      -0.04166667       0.08000000       0.00000000 </v>
   <v>       0.00000000       0.12000000       0.00000000 </v>
   <v>       0.04166667       0.12000000       0.00000000 </v>
   <v>       0.08333333       0.12000000       0.00000000 </v>
   <v>       0.12500000       0.12000000       0.00000000 </v>
   <v>       0.16666667       0.12000000       0.00000000 </v>
   <v>       0.20833333       0.12000000       0.00000000 </v>
   <v>       0.25000000       0.12000000       0.00000000 </v>
   <v>       0.29166667       0.12000000       0.00000000 </v>
   <v>       0.33333333       0.12000000       0.00000000 </v>
   <v>       0.37500000       0.12000000       0.00000000 </v>
   <v>       0.41666667       0.12000000       0.00000000 </v>
   <v>       0.45833333       0.12000000       0.00000000 </v>
   <v>       0.50000000       0.12000000       0.00000000 </v>
   <v>      -0.45833333       0.12000000       0.00000000 </v>
   <v>      -0.41666667       0.12000000       0.00000000 </v>
   <v>      -0.37500000       0.12000000       0.00000000 </v>
   <v>      -0.33333333       0.12000000       0.00000000 </v>
   <v>      -0.29166667       0.12000000       0.00000000 </v>
   <v>      -0.25000000       0.12000000       0.00000000 </v>
   <v>      -0.20833333       0.12000000       0.00000000 </v>
   <v>      -0.16666667       0.12000000       0.00000000 </v>
   <v>      -0.12500000       0.12000000       0.00000000 </v>
   <v>      -0.08333333       0.12000000       0.00000000 </v>
   <v>      -0.04166667       0.12000000       0.00000000 </v>
   <v>      -0.00000000       0.16000000       0.00000000 </v>
   <v>       0.04166667       0.16000000       0.00000000 </v>
   <v>       0.08333333       0.16000000       0.00000000 </v>
   <v>       0.12500000       0.16000000       0.00000000 </v>
   <v>       0.16666667       0.16000000       0.00000000 </v>
   <v>       0.20833333       0.16000000       0.00000000 </v>
   <v>       0.25000000       0.16000000       0.00000000 </v>
   <v>       0.29166667       0.16000000       0.00000000 </v>
   <v>       0.33333333       0.16000000       0.00000000 </v>
   <v>       0.37500000       0.16000000       0.00000000 </v>
   <v>       0.41666667       0.16000000       0.00000000 </v>
   <v>       0.45833333       0.16000000       0.00000000 </v>
   <v>       0.50000000       0.16000000       0.00000000 </v>
   <v>      -0.45833333       0.16000000       0.00000000 </v>
   <v>      -0.41666667       0.16000000       0.00000000 </v>
   <v>      -0.37500000       0.16000000       0.00000000 </v>
   <v>      -0.33333333       0.16000000       0.00000000 </v>
   <v>      -0.29166667       0.16000000       0.00000000 </v>
   <v>      -0.25000000       0.16000000       0.00000000 </v>
   <v>      -0.20833333       0.16000000       0.00000000 </v>
   <v>      -0.16666667       0.16000000       0.00000000 </v>
   <v>      -0.12500000       0.16000000       0.00000000 </v>
   <v>      -0.08333333       0.16000000       0.00000000 </v>
   <v>      -0.04166667       0.16000000       0.00000000 </v>
   <v>       0.00000000       0.20000000       0.00000000 </v>
   <v>       0.04166667       0.20000000       0.00000000 </v>
   <v>       0.08333333       0.20000000       0.00000000 </v>
   <v>       0.12500000       0.20000000       0.00000000 </v>
   <v>       0.16666667       0.20000000       0.00000000 </v>
   <v>       0.20833333       0.20000000       0.00000000 </v>
   <v>       0.25000000       0.20000000       0.00000000 </v>
   <v>       0.29166667       0.20000000       0.00000000 </v>
   <v>       0.33333333       0.20000000       0.00000000 </v>
   <v>       0.37500000       0.20000000       0.00000000 </v>
   <v>       0.41666667       0.20000000       0.00000000 </v>
   <v>       0.45833333       0.20000000       0.00000000 </v>
   <v>       0.50000000       0.20000000       0.00000000 </v>
   <v>      -0.45833333       0.20000000       0.00000000 </v>
   <v>      -0.41666667       0.20000000       0.00000000 </v>
   <v>      -0.37500000       0.20000000       0.00000000 </v>
   <v>      -0.33333333       0.20000000       0.00000000 </v>
   <v>      -0.29166667       0.20000000       0.00000000 </v>
   <v>      -0.25000000       0.20000000       0.00000000 </v>
   <v>      -0.20833333       0.20000000       0.00000000 </v>
   <v>      -0.16666667       0.20000000       0.00000000 </v>
   <v>      -0.12500000       0.20000000       0.00000000 </v>
   <v>      -0.08333333       0.20000000       0.00000000 </v>
   <v>      -0.04166667       0.20000000       0.00000000 </v>
   <v>       0.00000000       0.24000000       0.00000000 </v>
   <v>       0.04166667       0.24000000       0.00000000 </v>
   <v>       0.08333333       0.24000000       0.00000000 </v>
   <v>       0.12500000       0.24000000       0.00000000 </v>
   <v>       0.16666667       0.24000000       0.00000000 </v>
   <v>       0.20833333       0.24000000       0.00000000 </v>
   <v>       0.25000000       0.24000000       0.00000000 </v>
   <v>       0.29166667       0.24000000       0.00000000 </v>
   <v>       0.33333333       0.24000000       0.00000000 </v>
   <v>       0.37500000       0.24000000       0.00000000 </v>
   <v>       0.41666667       0.24000000       0.00000000 </v>
   <v>       0.45833333       0.24000000       0.00000000 </v>
   <v>       0.50000000       0.24000000       0.00000000 </v>
   <v>      -0.45833333       0.24000000       0.00000000 </v>
   <v>      -0.41666667       0.24000000       0.00000000 </v>
   <v>      -0.37500000       0.24000000       0.00000000 </v>
   <v>      -0.33333333       0.24000000       0.00000000 </v>
   <v>      -0.29166667       0.24000000       0.00000000 </v>
   <v>      -0.25000000       0.24000000       0.00000000 </v>
   <v>      -0.20833333       0.24000000       0.00000000 </v>
   <v>      -0.16666667       0.24000000       0.00000000 </v>
   <v>      -0.12500000       0.24000000       0.00000000 </v>
   <v>      -0.08333333       0.24000000       0.00000000 </v>
   <v>      -0.04166667       0.24000000       0.00000000 </v>
   <v>       0.00000000       0.28000000       0.00000000 </v>
   <v>       0.04166667       0.28000000       0.00000000 </v>
   <v>       0.08333333       0.28000000       0.00000000 </v>
   <v>       0.12500000       0.28000000       0.00000000 </v>
   <v>       0.16666667       0.28000000       0.00000000 </v>
   <v>       0.20833333       0.28000000       0.00000000 </v>
   <v>       0.25000000       0.28000000       0.00000000 </v>
   <v>       0.29166667       0.28000000       0.00000000 </v>
   <v>       0.33333333       0.28000000       0.00000000 </v>
   <v>       0.37500000       0.28000000       0.00000000 </v>
   <v>       0.41666667       0.28000000       0.00000000 </v>
   <v>       0.45833333       0.28000000       0.00000000 </v>
   <v>       0.50000000       0.28000000       0.00000000 </v>
   <v>      -0.45833333       0.28000000       0.00000000 </v>
   <v>      -0.41666667       0.28000000       0.00000000 </v>
   <v>      -0.37500000       0.28000000       0.00000000 </v>
   <v>      -0.33333333       0.28000000       0.00000000 </v>
   <v>      -0.29166667       0.28000000       0.00000000 </v>
   <v>      -0.25000000       0.28000000       0.00000000 </v>
   <v>      -0.20833333       0.28000000       0.00000000 </v>
   <v>      -0.16666667       0.28000000       0.00000000 </v>
   <v>      -0.12500000       0.28000000       0.00000000 </v>
   <v>      -0.08333333       0.28000000       0.00000000 </v>
   <v>      -0.04166667       0.28000000       0.00000000 </v>
   <v>      -0.00000000       0.32000000       0.00000000 </v>
   <v>       0.04166667       0.32000000       0.00000000 </v>
   <v>       0.08333333       0.32000000       0.00000000 </v>
   <v>       0.12500000       0.32000000       0.00000000 </v>
   <v>       0.16666667       0.32000000       0.00000000 </v>
   <v>       0.20833333       0.32000000       0.00000000 </v>
   <v>       0.25000000       0.32000000       0.00000000 </v>
   <v>       0.29166667       0.32000000       0.00000000 </v>
   <v>       0.33333333       0.32000000       0.00000000 </v>
   <v>       0.37500000       0.32000000       0.00000000 </v>
   <v>       0.41666667       0.32000000       0.00000000 </v>
   <v>       0.45833333       0.32000000       0.00000000 </v>
   <v>       0.50000000       0.32000000       0.00000000 </v>
   <v>      -0.45833333       0.32000000       0.00000000 </v>
   <v>      -0.41666667       0.32000000       0.00000000 </v>
   <v>      -0.37500000       0.32000000       0.00000000 </v>
   <v>      -0.33333333       0.32000000       0.00000000 </v>
   <v>      -0.29166667       0.32000000       0.00000000 </v>
   <v>      -0.25000000       0.32000000       0.00000000 </v>
   <v>      -0.20833333       0.32000000       0.00000000 </v>
   <v>      -0.16666667       0.32000000       0.00000000 </v>
   <v>      -0.12500000       0.32000000       0.00000000 </v>
   <v>      -0.08333333       0.32000000       0.00000000 </v>
   <v>      -0.04166667       0.32000000       0.00000000 </v>
   <v>       0.00000000       0.36000000       0.00000000 </v>
   <v>       0.04166667       0.36000000       0.00000000 </v>
   <v>       0.08333333       0.36000000       0.00000000 </v>
   <v>       0.12500000       0.36000000       0.00000000 </v>
   <v>       0.16666667       0.36000000       0.00000000 </v>
   <v>       0.20833333       0.36000000       0.00000000 </v>
   <v>       0.25000000       0.36000000       0.00000000 </v>
   <v>       0.29166667       0.36000000       0.00000000 </v>
   <v>       0.33333333       0.36000000       0.00000000 </v>
   <v>       0.37500000       0.36000000       0.00000000 </v>
   <v>       0.41666667       0.36000000       0.00000000 </v>
   <v>       0.45833333       0.36000000       0.00000000 </v>
   <v>       0.50000000       0.36000000       0.00000000 </v>
   <v>      -0.45833333       0.36000000       0.00000000 </v>
   <v>      -0.41666667       0.36000000       0.00000000 </v>
   <v>      -0.37500000       0.36000000       0.00000000 </v>
   <v>      -0.33333333       0.36000000       0.00000000 </v>
   <v>      -0.29166667       0.36000000       0.00000000 </v>
   <v>      -0.25000000       0.36000000       0.00000000 </v>
   <v>      -0.20833333       0.36000000       0.00000000 </v>
   <v>      -0.16666667       0.36000000       0.00000000 </v>
   <v>      -0.12500000       0.36000000       0.00000000 </v>
   <v>      -0.08333333       0.36000000       0.00000000 </v>
   <v>      -0.04166667       0.36000000       0.00000000 </v>
   <v>       0.00000000       0.40000000       0.00000000 </v>
   <v>       0.04166667       0.40000000       0.00000000 </v>
   <v>       0.08333333       0.40000000       0.00000000 </v>
   <v>       0.12500000       0.40000000       0.00000000 </v>
   <v>       0.16666667       0.40000000       0.00000000 </v>
   <v>       0.20833333       0.40000000       0.00000000 </v>
   <v>       0.25000000       0.40000000       0.00000000 </v>
   <v>       0.29166667       0.40000000       0.00000000 </v>
   <v>       0.33333333       0.40000000       0.00000000 </v>
   <v>       0.37500000       0.40000000       0.00000000 </v>
   <v>       0.41666667       0.40000000       0.00000000 </v>
   <v>       0.45833333       0.40000000       0.00000000 </v>
   <v>       0.50000000       0.40000000       0.00000000 </v>
   <v>      -0.45833333       0.40000000       0.00000000 </v>
   <v>      -0.41666667       0.40000000       0.00000000 </v>
   <v>      -0.37500000       0.40000000       0.00000000 </v>
   <v>      -0.33333333       0.40000000       0.00000000 </v>
   <v>      -0.29166667       0.40000000       0.00000000 </v>
   <v>      -0.25000000       0.40000000       0.00000000 </v>
   <v>      -0.20833333       0.40000000       0.00000000 </v>
   <v>      -0.16666667       0.40000000       0.00000000 </v>
   <v>      -0.12500000       0.40000000       0.00000000 </v>
   <v>      -0.08333333       0.40000000       0.00000000 </v>
   <v>      -0.04166667       0.40000000       0.00000000 </v>
   <v>       0.00000000       0.44000000       0.00000000 </v>
   <v>       0.04166667       0.44000000       0.00000000 </v>
   <v>       0.08333333       0.44000000       0.00000000 </v>
   <v>       0.12500000       0.44000000       0.00000000 </v>
   <v>       0.16666667       0.44000000       0.00000000 </v>
   <v>       0.20833333       0.44000000       0.00000000 </v>
   <v>       0.25000000       0.44000000       0.00000000 </v>
   <v>       0.29166667       0.44000000       0.00000000 </v>
   <v>       0.33333333       0.44000000       0.00000000 </v>
   <v>       0.37500000       0.44000000       0.00000000 </v>
   <v>       0.41666667       0.44000000       0.00000000 </v>
   <v>       0.45833333       0.44000000       0.00000000 </v>
   <v>       0.50000000       0.44000000       0.00000000 </v>
   <v>      -0.45833333       0.44000000       0.00000000 </v>
   <v>      -0.41666667       0.44000000       0.00000000 </v>
   <v>      -0.37500000       0.44000000       0.00000000 </v>
   <v>      -0.33333333       0.44000000       0.00000000 </v>
   <v>      -0.29166667       0.44000000       0.00000000 </v>
   <v>      -0.25000000       0.44000000       0.00000000 </v>
   <v>      -0.20833333       0.44000000       0.00000000 </v>
   <v>      -0.16666667       0.44000000       0.00000000 </v>
   <v>      -0.12500000       0.44000000       0.00000000 </v>
   <v>      -0.08333333       0.44000000       0.00000000 </v>
   <v>      -0.04166667       0.44000000       0.00000000 </v>
   <v>       0.00000000       0.48000000       0.00000000 </v>
   <v>       0.04166667       0.48000000       0.00000000 </v>
   <v>       0.08333333       0.48000000       0.00000000 </v>
   <v>       0.12500000       0.48000000       0.00000000 </v>
   <v>       0.16666667       0.48000000       0.00000000 </v>
   <v>       0.20833333       0.48000000       0.00000000 </v>
   <v>       0.25000000       0.48000000       0.00000000 </v>
   <v>       0.29166667       0.48000000       0.00000000 </v>
   <v>       0.33333333       0.48000000       0.00000000 </v>
   <v>       0.37500000       0.48000000       0.00000000 </v>
   <v>       0.41666667       0.48000000       0.00000000 </v>
   <v>       0.45833333       0.48000000       0.00000000 </v>
   <v>       0.50000000       0.48000000       0.00000000 </v>
   <v>      -0.45833333       0.48000000       0.00000000 </v>
   <v>      -0.41666667       0.48000000       0.00000000 </v>
   <v>      -0.37500000       0.48000000       0.00000000 </v>
   <v>      -0.33333333       0.48000000       0.00000000 </v>
   <v>      -0.29166667       0.48000000       0.00000000 </v>
   <v>      -0.25000000       0.48000000       0.00000000 </v>
   <v>      -0.20833333       0.48000000       0.00000000 </v>
   <v>      -0.16666667       0.48000000       0.00000000 </v>
   <v>      -0.12500000       0.48000000       0.00000000 </v>
   <v>      -0.08333333       0.48000000       0.00000000 </v>
   <v>      -0.04166667       0.48000000       0.00000000 </v>
  </varray>
  <varray name="weights" >
   <v>       0.00166667 </v>
   <v>       0.00333333 </v>
   <v>       0.00333333 </v>
   <v>       0.00333333 </v>
   <v>       0.00333333 </v>
   <v>       0.00333333 </v>
   <v>       0.00333333 </v>
   <v>       0.00333333 </v>
   <v>       0.00333333 </v>
   <v>       0.00333333 </v>
   <v>       0.00333333 </v>
   <v>       0.00333333 </v>
   <v>       0.00166667 </v>
   <v>       0.00333333 </v>
   <v>       0.00333333 </v>
   <v>       0.00333333 </v>
   <v>       0.00333333 </v>
   <v>       0.00333333 </v>
   <v>       0.00333333 </v>
   <v>       0.00333333 </v>
   <v>       0.00333333 </v>
   <v>       0.00333333 </v>
   <v>       0.00333333 </v>
   <v>       0.00333333 </v>
   <v>       0.00333333 </v>
   <v>       0.00333333 </v>
   <v>       0.00333333 </v>
   <v>       0.00333333 </v>
   <v>       0.00333333 </v>
   <v>       0.00333333 </v>
   <v>       0.00333333 </v>
   <v>       0.00333333 </v>
   <v>       0.00333333 </v>
   <v>       0.00333333 </v>
   <v>       0.00333333 </v>
   <v>       0.00333333 </v>
   <v>       0.00333333 </v>
   <v>       0.00333333 </v>
   <v>       0.00333333 </v>
   <v>       0.00333333 </v>
   <v>       0.00333333 </v>
   <v>       0.00333333 </v>
   <v>       0.00333333 </v>
   <v>       0.00333333 </v>
   <v>       0.00333333 </v>
   <v>       0.00333333 </v>
   <v>       0.00333333 </v>
   <v>       0.00333333 </v>
   <v>       0.00333333 </v>
   <v>       0.00333333 </v>
   <v>       0.00333333 </v>
   <v>       0.00333333 </v>
   <v>       0.00333333 </v>
   <v>       0.00333333 </v>
   <v>       0.00333333 </v>
   <v>       0.00333333 </v>
   <v>       0.00333333 </v>
   <v>       0.00333333 </v>
   <v>       0.00333333 </v>
   <v>       0.00333333 </v>
   <v>       0.00333333 </v>
   <v>       0.00333333 </v>
   <v>       0.00333333 </v>
   <v>       0.00333333 </v>
   <v>       0.00333333 </v>
   <v>       0.00333333 </v>
   <v>       0.00333333 </v>
   <v>       0.00333333 </v>
   <v>       0.00333333 </v>
   <v>       0.00333333 </v>
   <v>       0.00333333 </v>
   <v>       0.00333333 </v>
   <v>       0.00333333 </v>
   <v>       0.00333333 </v>
   <v>       0.00333333 </v>
   <v>       0.00333333 </v>
   <v>       0.00333333 </v>
   <v>       0.00333333 </v>
   <v>       0.00333333 </v>
   <v>       0.00333333 </v>
   <v>       0.00333333 </v>
   <v>       0.00333333 </v>
   <v>       0.00333333 </v>
   <v>       0.00333333 </v>
   <v>       0.00333333 </v>
   <v>       0.00333333 </v>
   <v>       0.00333333 </v>
   <v>       0.00333333 </v>
   <v>       0.00333333 </v>
   <v>       0.00333333 </v>
   <v>       0.00333333 </v>
   <v>       0.00333333 </v>
   <v>       0.00333333 </v>
   <v>       0.00333333 </v>
   <v>       0.00333333 </v>
   <v>       0.00333333 </v>
   <v>       0.00333333 </v>
   <v>       0.00333333 </v>
   <v>       0.00333333 </v>
   <v>       0.00333333 </v>
   <v>       0.00333333 </v>
   <v>       0.00333333 </v>
   <v>       0.00333333 </v>
   <v>       0.00333333 </v>
   <v>       0.00333333 </v>
   <v>       0.00333333 </v>
   <v>       0.00333333 </v>
   <v>       0.00333333 </v>
   <v>       0.00333333 </v>
   <v>       0.00333333 </v>
   <v>       0.00333333 </v>
   <v>       0.00333333 </v>
   <v>       0.00333333 </v>
   <v>       0.00333333 </v>
   <v>       0.00333333 </v>
   <v>       0.00333333 </v>
   <v>       0.00333333 </v>
   <v>       0.00333333 </v>
   <v>       0.00333333 </v>
   <v>       0.00333333 </v>
   <v>       0.00333333 </v>
   <v>       0.00333333 </v>
   <v>       0.00333333 </v>
   <v>       0.00333333 </v>
   <v>       0.00333333 </v>
   <v>       0.00333333 </v>
   <v>       0.00333333 </v>
   <v>       0.00333333 </v>
   <v>       0.00333333 </v>
   <v>       0.00333333 </v>
   <v>       0.00333333 </v>
   <v>       0.00333333 </v>
   <v>       0.00333333 </v>
   <v>       0.00333333 </v>
   <v>       0.00333333 </v>
   <v>       0.00333333 </v>
   <v>       0.00333333 </v>
   <v>       0.00333333 </v>
   <v>       0.00333333 </v>
   <v>       0.00333333 </v>
   <v>       0.00333333 </v>
   <v>       0.00333333 </v>
   <v>       0.00333333 </v>
   <v>       0.00333333 </v>
   <v>       0.00333333 </v>
   <v>       0.00333333 </v>
   <v>       0.00333333 </v>
   <v>       0.00333333 </v>
   <v>       0.00333333 </v>
   <v>       0.00333333 </v>
   <v>       0.00333333 </v>
   <v>       0.00333333 </v>
   <v>       0.00333333 </v>
   <v>       0.00333333 </v>
   <v>       0.00333333 </v>
   <v>       0.00333333 </v>
   <v>       0.00333333 </v>
   <v>       0.00333333 </v>
   <v>       0.00333333 </v>
   <v>       0.00333333 </v>
   <v>       0.00333333 </v>
   <v>       0.00333333 </v>
   <v>       0.00333333 </v>
   <v>       0.00333333 </v>
   <v>       0.00333333 </v>
   <v>       0.00333333 </v>
   <v>       0.00333333 </v>
   <v>       0.00333333 </v>
   <v>       0.00333333 </v>
   <v>       0.00333333 </v>
   <v>       0.00333333 </v>
   <v>       0.00333333 </v>
   <v>       0.00333333 </v>
   <v>       0.00333333 </v>
   <v>       0.00333333 </v>
   <v>       0.00333333 </v>
   <v>       0.00333333 </v>
   <v>       0.00333333 </v>
   <v>       0.00333333 </v>
   <v>       0.00333333 </v>
   <v>       0.00333333 </v>
   <v>       0.00333333 </v>
   <v>       0.00333333 </v>
   <v>       0.00333333 </v>
   <v>       0.00333333 </v>
   <v>       0.00333333 </v>
   <v>       0.00333333 </v>
   <v>       0.00333333 </v>
   <v>       0.00333333 </v>
   <v>       0.00333333 </v>
   <v>       0.00333333 </v>
   <v>       0.00333333 </v>
   <v>       0.00333333 </v>
   <v>       0.00333333 </v>
   <v>       0.00333333 </v>
   <v>       0.00333333 </v>
   <v>       0.00333333 </v>
   <v>       0.00333333 </v>
   <v>       0.00333333 </v>
   <v>       0.00333333 </v>
   <v>       0.00333333 </v>
   <v>       0.00333333 </v>
   <v>       0.00333333 </v>
   <v>       0.00333333 </v>
   <v>       0.00333333 </v>
   <v>       0.00333333 </v>
   <v>       0.00333333 </v>
   <v>       0.00333333 </v>
   <v>       0.00333333 </v>
   <v>       0.00333333 </v>
   <v>       0.00333333 </v>
   <v>       0.00333333 </v>
   <v>       0.00333333 </v>
   <v>       0.00333333 </v>
   <v>       0.00333333 </v>
   <v>       0.00333333 </v>
   <v>       0.00333333 </v>
   <v>       0.00333333 </v>
   <v>       0.00333333 </v>
   <v>       0.00333333 </v>
   <v>       0.00333333 </v>
   <v>       0.00333333 </v>
   <v>       0.00333333 </v>
   <v>       0.00333333 </v>
   <v>       0.00333333 </v>
   <v>       0.00333333 </v>
   <v>       0.00333333 </v>
   <v>       0.00333333 </v>
   <v>       0.00333333 </v>
   <v>       0.00333333 </v>
   <v>       0.00333333 </v>
   <v>       0.00333333 </v>
   <v>       0.00333333 </v>
   <v>       0.00333333 </v>
   <v>       0.00333333 </v>
   <v>       0.00333333 </v>
   <v>       0.00333333 </v>
   <v>       0.00333333 </v>
   <v>       0.00333333 </v>
   <v>       0.00333333 </v>
   <v>       0.00333333 </v>
   <v>       0.00333333 </v>
   <v>       0.00333333 </v>
   <v>       0.00333333 </v>
   <v>       0.00333333 </v>
   <v>       0.00333333 </v>
   <v>       0.00333333 </v>
   <v>       0.00333333 </v>
   <v>       0.00333333 </v>
   <v>       0.00333333 </v>
   <v>       0.00333333 </v>
   <v>       0.00333333 </v>
   <v>       0.00333333 </v>
   <v>       0.00333333 </v>
   <v>       0.00333333 </v>
   <v>       0.00333333 </v>
   <v>       0.00333333 </v>
   <v>       0.00333333 </v>
   <v>       0.00333333 </v>
   <v>       0.00333333 </v>
   <v>       0.00333333 </v>
   <v>       0.00333333 </v>
   <v>       0.00333333 </v>
   <v>       0.00333333 </v>
   <v>       0.00333333 </v>
   <v>       0.00333333 </v>
   <v>       0.00333333 </v>
   <v>       0.00333333 </v>
   <v>       0.00333333 </v>
   <v>       0.00333333 </v>
   <v>       0.00333333 </v>
   <v>       0.00333333 </v>
   <v>       0.00333333 </v>
   <v>       0.00333333 </v>
   <v>       0.00333333 </v>
   <v>       0.00333333 </v>
   <v>       0.00333333 </v>
   <v>       0.00333333 </v>
   <v>       0.00333333 </v>
   <v>       0.00333333 </v>
   <v>       0.00333333 </v>
   <v>       0.00333333 </v>
   <v>       0.00333333 </v>
   <v>       0.00333333 </v>
   <v>       0.00333333 </v>
   <v>       0.00333333 </v>
   <v>       0.00333333 </v>
   <v>       0.00333333 </v>
   <v>       0.00333333 </v>
   <v>       0.00333333 </v>
   <v>       0.00333333 </v>
   <v>       0.00333333 </v>
   <v>       0.00333333 </v>
   <v>       0.00333333 </v>
   <v>       0.00333333 </v>
   <v>       0.00333333 </v>
   <v>       0.00333333 </v>
   <v>       0.00333333 </v>
   <v>       0.00333333 </v>
   <v>       0.00333333 </v>
   <v>       0.00333333 </v>
  </varray>
 </kpoints>
 <parameters>
  <separator name="general" >
   <i type="string" name="SYSTEM">unknown system</i>
   <i type="logical" name="LCOMPAT"> F  </i>
  </separator>
  <separator name="electronic" >
   <i type="string" name="PREC">a</i>
   <i name="ENMAX">    520.00000000</i>
   <i name="ENAUG">    644.87300000</i>
   <i name="EDIFF">      0.00001000</i>
   <i type="int" name="IALGO">    38</i>
   <i type="int" name="IWAVPR">    10</i>
   <i type="int" name="NBANDS">    12</i>
   <i name="NELECT">      8.00000000</i>
   <i type="int" name="TURBO">     0</i>
   <i type="int" name="IRESTART">     0</i>
   <i type="int" name="NREBOOT">     0</i>
   <i type="int" name="NMIN">     0</i>
   <i name="EREF">      0.00000000</i>
   <separator name="electronic smearing" >
    <i type="int" name="ISMEAR">     0</i>
    <i name="SIGMA">      0.02000000</i>
    <i name="KSPACING">      0.50000000</i>
    <i type="logical" name="KGAMMA"> T  </i>
   </separator>
   <separator name="electronic projectors" >
    <i type="logical" name="LREAL"> T  </i>
    <v name="ROPT">     -0.00025000</v>
    <i type="int" name="LMAXPAW">  -100</i>
    <i type="int" name="LMAXMIX">     2</i>
    <i type="logical" name="NLSPLINE"> F  </i>
   </separator>
   <separator name="electronic startup" >
    <i type="int" name="ISTART">     0</i>
    <i type="int" name="ICHARG">     2</i>
    <i type="int" name="INIWAV">     1</i>
   </separator>
   <separator name="electronic spin" >
    <i type="int" name="ISPIN">     1</i>
    <i type="logical" name="LNONCOLLINEAR"> F  </i>
    <v name="MAGMOM">      0.60000000      0.60000000</v>
    <i name="NUPDOWN">     -1.00000000</i>
    <i type="logical" name="LSORBIT"> F  </i>
    <v name="SAXIS">      0.00000000      0.00000000      1.00000000</v>
    <i type="logical" name="LSPIRAL"> F  </i>
    <v name="QSPIRAL">      0.00000000      0.00000000      0.00000000</v>
    <i type="logical" name="LZEROZ"> F  </i>
   </separator>
   <separator name="electronic exchange-correlation" >
    <i type="logical" name="LASPH"> F  </i>
    <i type="logical" name="LMETAGGA"> F  </i>
   </separator>
   <separator name="electronic convergence" >
    <i type="int" name="NELM">   250</i>
    <i type="int" name="NELMDL">    -5</i>
    <i type="int" name="NELMIN">     6</i>
    <i name="ENINI">    520.00000000</i>
    <separator name="electronic convergence detail" >
     <i type="logical" name="LDIAG"> T  </i>
     <i type="logical" name="LSUBROT"> F  </i>
     <i name="WEIMIN">      0.00000000</i>
     <i name="EBREAK">      0.00000021</i>
     <i name="DEPER">      0.30000000</i>
     <i type="int" name="NRMM">     4</i>
     <i name="TIME">      0.40000000</i>
    </separator>
   </separator>
   <separator name="electronic mixer" >
    <i name="AMIX">      0.40000000</i>
    <i name="BMIX">      1.00000000</i>
    <i name="AMIN">      0.10000000</i>
    <i name="AMIX_MAG">      1.60000000</i>
    <i name="BMIX_MAG">      1.00000000</i>
    <separator name="electronic mixer details" >
     <i type="int" name="IMIX">     4</i>
     <i type="logical" name="MIXFIRST"> F  </i>
     <i type="int" name="MAXMIX">   -45</i>
     <i name="WC">    100.00000000</i>
     <i type="int" name="INIMIX">     1</i>
     <i type="int" name="MIXPRE">     1</i>
     <i type="int" name="MREMOVE">     5</i>
    </separator>
   </separator>
   <separator name="electronic dipolcorrection" >
    <i type="logical" name="LDIPOL"> F  </i>
    <i type="logical" name="LMONO"> F  </i>
    <i type="int" name="IDIPOL">     0</i>
    <i name="EPSILON">      1.00000000</i>
    <v name="DIPOL">   -100.00000000   -100.00000000   -100.00000000</v>
    <i name="EFIELD">      0.00000000</i>
   </separator>
  </separator>
  <separator name="grids" >
   <i type="int" name="NGX">    20</i>
   <i type="int" name="NGY">    18</i>
   <i type="int" name="NGZ">   112</i>
   <i type="int" name="NGXF">    40</i>
   <i type="int" name="NGYF">    36</i>
   <i type="int" name="NGZF">   224</i>
   <i type="logical" name="ADDGRID"> F  </i>
  </separator>
  <separator name="ionic" >
   <i type="int" name="NSW">     0</i>
   <i type="int" name="IBRION">    -1</i>
   <i type="int" name="ISIF">     2</i>
   <i name="PSTRESS">      0.00000000</i>
   <i name="EDIFFG">     -0.00500000</i>
   <i type="int" name="NFREE">     1</i>
   <i name="POTIM">      0.25000000</i>
   <i name="SMASS">     -3.00000000</i>
   <i name="SCALEE">      1.00000000</i>
  </separator>
  <separator name="ionic md" >
   <i name="TEBEG">      0.00010000</i>
   <i name="TEEND">      0.00010000</i>
   <i type="int" name="NBLOCK">     1</i>
   <i type="int" name="KBLOCK">     1</i>
   <i type="int" name="NPACO">   256</i>
   <i name="APACO">     16.00000000</i>
  </separator>
  <separator name="symmetry" >
   <i type="int" name="ISYM">     2</i>
   <i name="SYMPREC">      0.00001000</i>
  </separator>
  <separator name="dos" >
   <i type="logical" name="LORBIT"> F  </i>
   <v name="RWIGS">     -1.00000000</v>
   <i type="int" name="NEDOS">   301</i>
   <i name="EMIN">     10.00000000</i>
   <i name="EMAX">    -10.00000000</i>
   <i name="EFERMI">      0.00000000</i>
  </separator>
  <separator name="writing" >
   <i type="int" name="NWRITE">     2</i>
   <i type="logical" name="LWAVE"> F  </i>
   <i type="logical" name="LCHARG"> F  </i>
   <i type="logical" name="LPARD"> F  </i>
   <i type="logical" name="LVTOT"> F  </i>
   <i type="logical" name="LVHAR"> F  </i>
   <i type="logical" name="LELF"> F  </i>
   <i type="logical" name="LOPTICS"> F  </i>
   <v name="STM">      0.00000000      0.00000000      0.00000000      0.00000000      0.00000000      0.00000000      0.00000000</v>
  </separator>
  <separator name="performance" >
   <i type="int" name="NPAR">     6</i>
   <i type="int" name="NSIM">     4</i>
   <i type="int" name="NBLK">    -1</i>
   <i type="logical" name="LPLANE"> T  </i>
   <i type="logical" name="LSCALAPACK"> T  </i>
   <i type="logical" name="LSCAAWARE"> F  </i>
   <i type="logical" name="LSCALU"> F  </i>
   <i type="logical" name="LASYNC"> F  </i>
   <i type="logical" name="LORBITALREAL"> F  </i>
  </separator>
  <separator name="miscellaneous" >
   <i type="int" name="IDIOT">     3</i>
   <i type="logical" name="LMUSIC"> F  </i>
   <v name="POMASS">     12.01100000</v>
   <v name="DARWINR">      0.00000000</v>
   <v name="DARWINV">      1.00000000</v>
   <i type="logical" name="LCORR"> T  </i>
  </separator>
  <i type="logical" name="GGA_COMPAT"> T  </i>
  <i type="logical" name="LBERRY"> F  </i>
  <i type="int" name="ICORELEVEL">     0</i>
  <i type="logical" name="LDAU"> F  </i>
  <i type="int" name="I_CONSTRAINED_M">     0</i>
  <separator name="electronic exchange-correlation" >
   <i type="string" name="GGA">--</i>
   <i type="int" name="VOSKOWN">     0</i>
   <i type="logical" name="LHFCALC"> F  </i>
   <i type="string" name="PRECFOCK"></i>
   <i type="logical" name="LSYMGRAD"> F  </i>
   <i type="logical" name="LHFONE"> F  </i>
   <i type="logical" name="LRHFCALC"> F  </i>
   <i type="logical" name="LTHOMAS"> F  </i>
   <i type="logical" name="LMODELHF"> F  </i>
   <i name="ENCUT4O">     -1.00000000</i>
   <i type="int" name="EXXOEP">     0</i>
   <i type="int" name="FOURORBIT">     0</i>
   <i name="AEXX">      0.00000000</i>
   <i name="HFALPHA">      0.00000000</i>
   <i name="MCALPHA">      0.00000000</i>
   <i name="ALDAX">      1.00000000</i>
   <i name="AGGAX">      1.00000000</i>
   <i name="ALDAC">      1.00000000</i>
   <i name="AGGAC">      1.00000000</i>
   <i type="int" name="NKREDX">     1</i>
   <i type="int" name="NKREDY">     1</i>
   <i type="int" name="NKREDZ">     1</i>
   <i type="logical" name="SHIFTRED"> F  </i>
   <i type="logical" name="ODDONLY"> F  </i>
   <i type="logical" name="EVENONLY"> F  </i>
   <i type="int" name="LMAXFOCK">     0</i>
   <i type="int" name="NMAXFOCKAE">     0</i>
   <i type="logical" name="LFOCKAEDFT"> F  </i>
   <i name="HFSCREEN">      0.00000000</i>
   <i name="HFSCREENC">      0.00000000</i>
   <i type="int" name="NBANDSGWLOW">     0</i>
  </separator>
  <separator name="vdW DFT" >
   <i type="logical" name="LUSE_VDW"> F  </i>
   <i name="Zab_VDW">     -0.84910000</i>
   <i name="PARAM1">      0.12340000</i>
   <i name="PARAM2">      1.00000000</i>
   <i name="PARAM3">      0.00000000</i>
  </separator>
  <separator name="model GW" >
   <i type="int" name="MODEL_GW">     0</i>
   <i name="MODEL_EPS0">     24.08054689</i>
   <i name="MODEL_ALPHA">      1.00000000</i>
  </separator>
  <separator name="linear response parameters" >
   <i type="logical" name="LEPSILON"> F  </i>
   <i type="logical" name="LRPA"> F  </i>
   <i type="logical" name="LNABLA"> F  </i>
   <i type="logical" name="LVEL"> F  </i>
   <i type="int" name="KINTER">     0</i>
   <i name="CSHIFT">      0.10000000</i>
   <i name="OMEGAMAX">     -1.00000000</i>
   <i name="DEG_THRESHOLD">      0.00200000</i>
  </separator>
  <separator name="orbital magnetization" >
   <i type="logical" name="NUCIND"> F  </i>
   <v name="MAGPOS">      0.00000000      0.00000000      0.00000000</v>
   <i type="logical" name="LNICSALL"> T  </i>
   <i type="logical" name="ORBITALMAG"> F  </i>
   <i type="logical" name="LMAGBLOCH"> F  </i>
   <i type="logical" name="LCHIMAG"> F  </i>
   <i type="logical" name="LGAUGE"> T  </i>
   <i type="int" name="MAGATOM">     0</i>
   <v name="MAGDIPOL">      0.00000000      0.00000000      0.00000000</v>
   <v name="AVECCONST">      0.00000000      0.00000000      0.00000000</v>
  </separator>
  <separator name="response functions" >
   <i type="logical" name="LADDER"> F  </i>
   <i type="logical" name="LFXC"> F  </i>
   <i type="logical" name="LHARTREE"> T  </i>
   <i type="int" name="IBSE">     0</i>
   <v type="int" name="KPOINT">    -1     0     0     0</v>
   <i type="logical" name="LTCTE"> F  </i>
   <i type="logical" name="LTETE"> F  </i>
   <i type="logical" name="LTRIPLET"> F  </i>
   <i type="logical" name="LFXCEPS"> F  </i>
   <i type="logical" name="LFXHEG"> F  </i>
   <i type="int" name="NATURALO">     0</i>
   <i type="logical" name="L2ORDER"> F  </i>
   <i type="logical" name="LUSEW"> F  </i>
   <i name="ENCUTGW">     -2.00000000</i>
   <i name="ENCUTGWSOFT">     -2.00000000</i>
   <i name="ENCUTLF">     -1.00000000</i>
   <i type="int" name="LMAXMP2">    -1</i>
   <i name="SCISSOR">      0.00000000</i>
   <i type="int" name="NOMEGA">     0</i>
   <i type="int" name="NOMEGAR">     0</i>
   <i type="int" name="NBANDSGW">    -1</i>
   <i type="int" name="NBANDSO">    -1</i>
   <i type="int" name="NBANDSV">    -1</i>
   <i type="int" name="NELM">   250</i>
   <i type="int" name="NELMHF">     1</i>
   <i type="int" name="DIM">     3</i>
   <i type="int" name="ANTIRES">     0</i>
   <i name="OMEGAMAX">    -30.00000000</i>
   <i name="OMEGAMIN">    -30.00000000</i>
   <i name="OMEGATL">   -200.00000000</i>
   <i type="int" name="OMEGAGRID">     0</i>
   <i name="CSHIFT">     -0.10000000</i>
   <i type="logical" name="SELFENERGY"> F  </i>
   <i type="logical" name="LSPECTRAL"> F  </i>
   <i type="logical" name="LSPECTRALGW"> F  </i>
   <i type="logical" name="LSINGLES"> F  </i>
   <i type="logical" name="LFERMIGW"> F  </i>
   <i type="logical" name="ODDONLYGW"> F  </i>
   <i type="logical" name="EVENONLYGW"> F  </i>
   <i type="int" name="NKREDLFX">     1</i>
   <i type="int" name="NKREDLFY">     1</i>
   <i type="int" name="NKREDLFZ">     1</i>
   <i type="int" name="MAXMEM">  1800</i>
   <i type="int" name="TELESCOPE">     0</i>
   <i type="int" name="TAUPAR">     1</i>
   <i type="int" name="OMEGAPAR">    -1</i>
   <i name="LAMBDA">      1.00000000</i>
  </separator>
  <separator name="External order field" >
   <i name="OFIELD_KAPPA">      0.00000000</i>
   <v name="OFIELD_K">      0.00000000      0.00000000      0.00000000</v>
   <i name="OFIELD_Q6_NEAR">      0.00000000</i>
   <i name="OFIELD_Q6_FAR">      0.00000000</i>
   <i name="OFIELD_A">      0.00000000</i>
  </separator>
 </parameters>
 <atominfo>
  <atoms>       2 </atoms>
  <types>       1 </types>
  <array name="atoms" >
   <dimension dim="1">ion</dimension>
   <field type="string">element</field>
   <field type="int">atomtype</field>
   <set>
    <rc><c>C </c><c>   1</c></rc>
    <rc><c>C </c><c>   1</c></rc>
   </set>
  </array>
  <array name="atomtypes" >
   <dimension dim="1">type</dimension>
   <field type="int">atomspertype</field>
   <field type="string">element</field>
   <field>mass</field>
   <field>valence</field>
   <field type="string">pseudopotential</field>
   <set>
    <rc><c>   2</c><c>C </c><c>     12.01100000</c><c>      4.00000000</c><c>  PAW_PBE C 08Apr2002                   </c></rc>
   </set>
  </array>
 </atominfo>
 <structure name="initialpos" >
  <crystal>
   <varray name="basis" >
    <v>       2.50448900       0.03675100       0.00000000 </v>
    <v>      -1.22041800       2.11874800       0.00000000 </v>
    <v>       0.00000000       0.00000000      15.00000000 </v>
   </varray>
   <i name="volume">     80.26848963 </i>
   <varray name="rec_basis" >
    <v>       0.39593644       0.22806297       0.00000000 </v>
    <v>      -0.00686776       0.46802095       0.00000000 </v>
    <v>       0.00000000       0.00000000       0.06666667 </v>
   </varray>
  </crystal>
  <varray name="positions" >
   <v>       0.99926590       0.99970174       0.50000000 </v>
   <v>       0.33406710       0.66696526       0.50000000 </v>
  </varray>
 </structure>
 <calculation>
  <scstep>
   <time name="dav">    0.88    0.88</time>
   <time name="total">    0.89    0.89</time>
   <energy>
    <i name="alphaZ">      4.09359720 </i>
    <i name="ewald">    819.15452970 </i>
    <i name="hartreedc">  -1039.17335014 </i>
    <i name="XCdc">     26.25282708 </i>
    <i name="pawpsdc">    217.04409276 </i>
    <i name="pawaedc">   -218.18290438 </i>
    <i name="eentropy">     -0.00010296 </i>
    <i name="bandstr">    -68.50141957 </i>
    <i name="atom">    294.29778662 </i>
    <i name="e_fr_energy">     34.98505631 </i>
    <i name="e_wo_entrp">     34.98515927 </i>
    <i name="e_0_energy">     34.98510779 </i>
   </energy>
  </scstep>
  <scstep>
   <time name="dav">    1.13    1.13</time>
   <time name="total">    1.14    1.14</time>
   <energy>
    <i name="e_fr_energy">    -17.98158062 </i>
    <i name="e_wo_entrp">    -17.98158062 </i>
    <i name="e_0_energy">    -17.98158062 </i>
   </energy>
  </scstep>
  <scstep>
   <time name="dav">    1.31    1.31</time>
   <time name="total">    1.31    1.31</time>
   <energy>
    <i name="e_fr_energy">    -19.59820686 </i>
    <i name="e_wo_entrp">    -19.59820686 </i>
    <i name="e_0_energy">    -19.59820686 </i>
   </energy>
  </scstep>
  <scstep>
   <time name="dav">    1.25    1.25</time>
   <time name="total">    1.25    1.25</time>
   <energy>
    <i name="e_fr_energy">    -19.60507016 </i>
    <i name="e_wo_entrp">    -19.60507016 </i>
    <i name="e_0_energy">    -19.60507016 </i>
   </energy>
  </scstep>
  <scstep>
   <time name="dav">    1.27    1.27</time>
   <time name="total">    1.30    1.31</time>
   <energy>
    <i name="e_fr_energy">    -19.60507897 </i>
    <i name="e_wo_entrp">    -19.60507897 </i>
    <i name="e_0_energy">    -19.60507897 </i>
   </energy>
  </scstep>
  <scstep>
   <time name="dav">    1.13    1.14</time>
   <time name="total">    1.17    1.18</time>
   <energy>
    <i name="e_fr_energy">    -18.75428209 </i>
    <i name="e_wo_entrp">    -18.75428209 </i>
    <i name="e_0_energy">    -18.75428209 </i>
   </energy>
  </scstep>
  <scstep>
   <time name="dav">    1.21    1.21</time>
   <time name="total">    1.24    1.24</time>
   <energy>
    <i name="e_fr_energy">    -18.42615367 </i>
    <i name="e_wo_entrp">    -18.42615367 </i>
    <i name="e_0_energy">    -18.42615367 </i>
   </energy>
  </scstep>
  <scstep>
   <time name="dav">    1.19    1.19</time>
   <time name="total">    1.22    1.23</time>
   <energy>
    <i name="e_fr_energy">    -18.41908214 </i>
    <i name="e_wo_entrp">    -18.41908214 </i>
    <i name="e_0_energy">    -18.41908214 </i>
   </energy>
  </scstep>
  <scstep>
   <time name="dav">    1.13    1.13</time>
   <time name="total">    1.17    1.17</time>
   <energy>
    <i name="e_fr_energy">    -18.41719708 </i>
    <i name="e_wo_entrp">    -18.41719708 </i>
    <i name="e_0_energy">    -18.41719708 </i>
   </energy>
  </scstep>
  <scstep>
   <time name="dav">    0.98    0.98</time>
   <time name="total">    1.01    1.01</time>
   <energy>
    <i name="e_fr_energy">    -18.41595046 </i>
    <i name="e_wo_entrp">    -18.41595046 </i>
    <i name="e_0_energy">    -18.41595046 </i>
   </energy>
  </scstep>
  <scstep>
   <time name="dav">    0.91    0.91</time>
   <time name="total">    0.95    0.95</time>
   <energy>
    <i name="e_fr_energy">    -18.41607619 </i>
    <i name="e_wo_entrp">    -18.41607619 </i>
    <i name="e_0_energy">    -18.41607619 </i>
   </energy>
  </scstep>
  <scstep>
   <time name="dav">    0.98    0.98</time>
   <time name="total">    1.01    1.01</time>
   <energy>
    <i name="e_fr_energy">    -18.41634123 </i>
    <i name="e_wo_entrp">    -18.41634123 </i>
    <i name="e_0_energy">    -18.41634123 </i>
   </energy>
  </scstep>
  <scstep>
   <time name="dav">    0.96    0.96</time>
   <time name="total">    0.99    1.00</time>
   <energy>
    <i name="e_fr_energy">    -18.41703972 </i>
    <i name="e_wo_entrp">    -18.41703972 </i>
    <i name="e_0_energy">    -18.41703972 </i>
   </energy>
  </scstep>
  <scstep>
   <time name="dav">    1.12    1.12</time>
   <time name="total">    1.15    1.16</time>
   <energy>
    <i name="e_fr_energy">    -18.41709854 </i>
    <i name="e_wo_entrp">    -18.41709854 </i>
    <i name="e_0_energy">    -18.41709854 </i>
   </energy>
  </scstep>
  <scstep>
   <time name="dav">    0.93    0.93</time>
   <time name="total">    0.96    0.96</time>
   <energy>
    <i name="e_fr_energy">    -18.41719722 </i>
    <i name="e_wo_entrp">    -18.41719722 </i>
    <i name="e_0_energy">    -18.41719722 </i>
   </energy>
  </scstep>
  <scstep>
   <time name="dav">    0.94    0.94</time>
   <time name="total">    0.98    0.98</time>
   <energy>
    <i name="e_fr_energy">    -18.41720955 </i>
    <i name="e_wo_entrp">    -18.41720955 </i>
    <i name="e_0_energy">    -18.41720955 </i>
   </energy>
  </scstep>
  <scstep>
   <time name="dav">    0.92    0.92</time>
   <time name="total">    0.93    0.93</time>
   <energy>
    <i name="alphaZ">      4.09359720 </i>
    <i name="ewald">    819.15452970 </i>
    <i name="hartreedc">  -1071.00702200 </i>
    <i name="XCdc">     27.39981314 </i>
    <i name="pawpsdc">    805.40522904 </i>
    <i name="pawaedc">   -806.76157199 </i>
    <i name="eentropy">     -0.00000000 </i>
    <i name="bandstr">    -90.99957336 </i>
    <i name="atom">    294.29778662 </i>
    <i name="e_fr_energy">    -18.41721166 </i>
    <i name="e_wo_entrp">    -18.41721166 </i>
    <i name="e_0_energy">    -18.41721166 </i>
   </energy>
  </scstep>
  <structure>
   <crystal>
    <varray name="basis" >
     <v>       2.50448900       0.03675100       0.00000000 </v>
     <v>      -1.22041800       2.11874800       0.00000000 </v>
     <v>       0.00000000       0.00000000      15.00000000 </v>
    </varray>
    <i name="volume">     80.26848963 </i>
    <varray name="rec_basis" >
     <v>       0.39593644       0.22806297       0.00000000 </v>
     <v>      -0.00686776       0.46802095       0.00000000 </v>
     <v>       0.00000000       0.00000000       0.06666667 </v>
    </varray>
   </crystal>
   <varray name="positions" >
    <v>       0.99926590       0.99970174       0.50000000 </v>
    <v>       0.33406710       0.66696526       0.50000000 </v>
   </varray>
  </structure>
  <varray name="forces" >
   <v>      -0.12598896      -0.05698374       0.00000000 </v>
   <v>       0.12598896       0.05698374       0.00000000 </v>
  </varray>
  <varray name="stress" >
   <v>     -32.48752643     -28.44914031       0.00000000 </v>
   <v>     -28.44914031      -4.02795182       0.00000000 </v>
   <v>       0.00000000       0.00000000      -0.16514633 </v>
  </varray>
  <energy>
   <i name="e_fr_energy">    -18.41721166 </i>
   <i name="e_wo_entrp">    -18.41721166 </i>
   <i name="e_0_energy">     -0.00000000 </i>
  </energy>
  <time name="totalsc">   19.39   19.44</time>
  <eigenvalues>
   <array>
    <dimension dim="1">band</dimension>
    <dimension dim="2">kpoint</dimension>
    <dimension dim="3">spin</dimension>
    <field>eigene</field>
    <field>occ</field>
    <set>
     <set comment="spin 1">
      <set comment="kpoint 1">
       <r>  -21.6563    1.0000 </r>
       <r>   -9.7883    1.0000 </r>
       <r>   -5.4995    1.0000 </r>
       <r>   -5.2360    1.0000 </r>
       <r>    0.9978    0.0000 </r>
       <r>    1.9027    0.0000 </r>
       <r>    2.4008    0.0000 </r>
       <r>    4.3301    0.0000 </r>
       <r>    5.0763    0.0000 </r>
       <r>    5.4249    0.0000 </r>
       <r>    6.1430    0.0000 </r>
       <r>    8.2102    0.0000 </r>
      </set>
      <set comment="kpoint 2">
       <r>  -21.6172    1.0000 </r>
       <r>   -9.7419    1.0000 </r>
       <r>   -5.6772    1.0000 </r>
       <r>   -5.3143    1.0000 </r>
       <r>    1.0506    0.0000 </r>
       <r>    1.9561    0.0000 </r>
       <r>    2.4548    0.0000 </r>
       <r>    4.3831    0.0000 </r>
       <r>    5.1248    0.0000 </r>
       <r>    5.5152    0.0000 </r>
       <r>    6.3053    0.0000 </r>
       <r>    8.2606    0.0000 </r>
      </set>
      <set comment="kpoint 3">
       <r>  -21.5001    1.0000 </r>
       <r>   -9.6031    1.0000 </r>
       <r>   -6.1785    1.0000 </r>
       <r>   -5.5341    1.0000 </r>
       <r>    1.2093    0.0000 </r>
       <r>    2.1163    0.0000 </r>
       <r>    2.6167    0.0000 </r>
       <r>    4.5421    0.0000 </r>
       <r>    5.2739    0.0000 </r>
       <r>    5.7351    0.0000 </r>
       <r>    6.7758    0.0000 </r>
       <r>    8.2134    0.0000 </r>
      </set>
      <set comment="kpoint 4">
       <r>  -21.3053    1.0000 </r>
       <r>   -9.3730    1.0000 </r>
       <r>   -6.9286    1.0000 </r>
       <r>   -5.8578    1.0000 </r>
       <r>    1.4741    0.0000 </r>
       <r>    2.3828    0.0000 </r>
       <r>    2.8867    0.0000 </r>
       <r>    4.8062    0.0000 </r>
       <r>    5.5236    0.0000 </r>
       <r>    5.9771    0.0000 </r>
       <r>    7.5135    0.0000 </r>
       <r>    7.5647    0.0000 </r>
      </set>
      <set comment="kpoint 5">
       <r>  -21.0334    1.0000 </r>
       <r>   -9.0532    1.0000 </r>
       <r>   -7.8456    1.0000 </r>
       <r>   -6.2413    1.0000 </r>
       <r>    1.8449    0.0000 </r>
       <r>    2.7548    0.0000 </r>
       <r>    3.2648    0.0000 </r>
       <r>    5.1718    0.0000 </r>
       <r>    5.8476    0.0000 </r>
       <r>    6.1724    0.0000 </r>
       <r>    6.7254    0.0000 </r>
       <r>    8.4672    0.0000 </r>
      </set>
      <set comment="kpoint 6">
       <r>  -20.6854    1.0000 </r>
       <r>   -8.8619    1.0000 </r>
       <r>   -8.6467    1.0000 </r>
       <r>   -6.6449    1.0000 </r>
       <r>    2.3214    0.0000 </r>
       <r>    3.2289    0.0000 </r>
       <r>    3.7509    0.0000 </r>
       <r>    5.5400    0.0000 </r>
       <r>    5.8525    0.0000 </r>
       <r>    6.0611    0.0000 </r>
       <r>    6.4757    0.0000 </r>
       <r>    9.4936    0.0000 </r>
      </set>
      <set comment="kpoint 7">
       <r>  -20.2625    1.0000 </r>
       <r>   -9.9277    1.0000 </r>
       <r>   -8.1581    1.0000 </r>
       <r>   -7.0378    1.0000 </r>
       <r>    2.9031    0.0000 </r>
       <r>    3.7783    0.0000 </r>
       <r>    4.3445    0.0000 </r>
       <r>    4.6700    0.0000 </r>
       <r>    6.0572    0.0000 </r>
       <r>    6.2621    0.0000 </r>
       <r>    7.0176    0.0000 </r>
       <r>   10.0477    0.0000 </r>
      </set>
      <set comment="kpoint 8">
       <r>  -19.7671    1.0000 </r>
       <r>  -11.0070    1.0000 </r>
       <r>   -7.5950    1.0000 </r>
       <r>   -7.3974    1.0000 </r>
       <r>    3.4496    0.0000 </r>
       <r>    3.5888    0.0000 </r>
       <r>    4.5737    0.0000 </r>
       <r>    5.0441    0.0000 </r>
       <r>    5.9801    0.0000 </r>
       <r>    6.9408    0.0000 </r>
       <r>    7.6931    0.0000 </r>
       <r>   10.6918    0.0000 </r>
      </set>
      <set comment="kpoint 9">
       <r>  -19.2023    1.0000 </r>
       <r>  -12.0733    1.0000 </r>
       <r>   -7.7082    1.0000 </r>
       <r>   -6.9704    1.0000 </r>
       <r>    2.3553    0.0000 </r>
       <r>    4.3760    0.0000 </r>
       <r>    5.3425    0.0000 </r>
       <r>    5.7894    0.0000 </r>
       <r>    5.9455    0.0000 </r>
       <r>    7.7265    0.0000 </r>
       <r>    8.4786    0.0000 </r>
       <r>   11.4124    0.0000 </r>
      </set>
      <set comment="kpoint 10">
       <r>  -18.5746    1.0000 </r>
       <r>  -13.1044    1.0000 </r>
       <r>   -7.9590    1.0000 </r>
       <r>   -6.3082    1.0000 </r>
       <r>    1.2873    0.0000 </r>
       <r>    5.2492    0.0000 </r>
       <r>    5.7889    0.0000 </r>
       <r>    6.2359    0.0000 </r>
       <r>    6.7845    0.0000 </r>
       <r>    8.6122    0.0000 </r>
       <r>    9.3680    0.0000 </r>
       <r>   12.1574    0.0000 </r>
      </set>
      <set comment="kpoint 11">
       <r>  -17.8990    1.0000 </r>
       <r>  -14.0749    1.0000 </r>
       <r>   -8.1428    1.0000 </r>
       <r>   -5.6580    1.0000 </r>
       <r>    0.3326    0.0000 </r>
       <r>    5.6556    0.0000 </r>
       <r>    6.2989    0.0000 </r>
       <r>    7.2329    0.0000 </r>
       <r>    7.8057    0.0000 </r>
       <r>    9.5904    0.0000 </r>
       <r>   10.3522    0.0000 </r>
       <r>   11.0724    0.0000 </r>
      </set>
      <set comment="kpoint 12">
       <r>  -17.2281    1.0000 </r>
       <r>  -14.9251    1.0000 </r>
       <r>   -8.2547    1.0000 </r>
       <r>   -5.1269    1.0000 </r>
       <r>   -0.3866    0.0000 </r>
       <r>    5.6214    0.0000 </r>
       <r>    7.3700    0.0000 </r>
       <r>    8.3260    0.0000 </r>
       <r>    8.9337    0.0000 </r>
       <r>    9.7981    0.0000 </r>
       <r>   10.5713    0.0000 </r>
       <r>   10.8661    0.0000 </r>
      </set>
      <set comment="kpoint 13">
       <r>  -16.8440    1.0000 </r>
       <r>  -15.3693    1.0000 </r>
       <r>   -8.2923    1.0000 </r>
       <r>   -4.9065    1.0000 </r>
       <r>   -0.6705    0.0000 </r>
       <r>    5.6063    0.0000 </r>
       <r>    8.4471    0.0000 </r>
       <r>    8.6470    0.0000 </r>
       <r>    9.4349    0.0000 </r>
       <r>    9.5822    0.0000 </r>
       <r>   10.1531    0.0000 </r>
       <r>   10.1883    0.0000 </r>
      </set>
      <set comment="kpoint 14">
       <r>  -21.6184    1.0000 </r>
       <r>   -9.7432    1.0000 </r>
       <r>   -5.5976    1.0000 </r>
       <r>   -5.3727    1.0000 </r>
       <r>    1.0491    0.0000 </r>
       <r>    1.9544    0.0000 </r>
       <r>    2.4531    0.0000 </r>
       <r>    4.3815    0.0000 </r>
       <r>    5.1260    0.0000 </r>
       <r>    5.5396    0.0000 </r>
       <r>    6.1898    0.0000 </r>
       <r>    8.2600    0.0000 </r>
      </set>
      <set comment="kpoint 15">
       <r>  -21.5420    1.0000 </r>
       <r>   -9.6527    1.0000 </r>
       <r>   -5.9382    1.0000 </r>
       <r>   -5.5141    1.0000 </r>
       <r>    1.1526    0.0000 </r>
       <r>    2.0589    0.0000 </r>
       <r>    2.5587    0.0000 </r>
       <r>    4.4852    0.0000 </r>
       <r>    5.2217    0.0000 </r>
       <r>    5.6682    0.0000 </r>
       <r>    6.5375    0.0000 </r>
       <r>    8.3438    0.0000 </r>
      </set>
      <set comment="kpoint 16">
       <r>  -21.3877    1.0000 </r>
       <r>   -9.4701    1.0000 </r>
       <r>   -6.5557    1.0000 </r>
       <r>   -5.7906    1.0000 </r>
       <r>    1.3620    0.0000 </r>
       <r>    2.2700    0.0000 </r>
       <r>    2.7723    0.0000 </r>
       <r>    4.6947    0.0000 </r>
       <r>    5.4202    0.0000 </r>
       <r>    5.9082    0.0000 </r>
       <r>    7.1342    0.0000 </r>
       <r>    7.8511    0.0000 </r>
      </set>
      <set comment="kpoint 17">
       <r>  -21.1560    1.0000 </r>
       <r>   -9.1970    1.0000 </r>
       <r>   -7.3780    1.0000 </r>
       <r>   -6.1540    1.0000 </r>
       <r>    1.6775    0.0000 </r>
       <r>    2.5871    0.0000 </r>
       <r>    3.0940    0.0000 </r>
       <r>    5.0082    0.0000 </r>
       <r>    5.7170    0.0000 </r>
       <r>    6.1600    0.0000 </r>
       <r>    7.1114    0.0000 </r>
       <r>    7.9153    0.0000 </r>
      </set>
      <set comment="kpoint 18">
       <r>  -20.8477    1.0000 </r>
       <r>   -8.8355    1.0000 </r>
       <r>   -8.3349    1.0000 </r>
       <r>   -6.5571    1.0000 </r>
       <r>    2.0989    0.0000 </r>
       <r>    3.0087    0.0000 </r>
       <r>    3.5239    0.0000 </r>
       <r>    5.4147    0.0000 </r>
       <r>    6.0636    0.0000 </r>
       <r>    6.2208    0.0000 </r>
       <r>    6.3713    0.0000 </r>
       <r>    8.8537    0.0000 </r>
      </set>
      <set comment="kpoint 19">
       <r>  -20.4639    1.0000 </r>
       <r>   -9.3686    1.0000 </r>
       <r>   -8.3894    1.0000 </r>
       <r>   -6.9631    1.0000 </r>
       <r>    2.6258    0.0000 </r>
       <r>    3.5274    0.0000 </r>
       <r>    4.0615    0.0000 </r>
       <r>    5.1571    0.0000 </r>
       <r>    5.9923    0.0000 </r>
       <r>    6.2199    0.0000 </r>
       <r>    6.7633    0.0000 </r>
       <r>    9.7792    0.0000 </r>
      </set>
      <set comment="kpoint 20">
       <r>  -20.0062    1.0000 </r>
       <r>  -10.4363    1.0000 </r>
       <r>   -7.8643    1.0000 </r>
       <r>   -7.3452    1.0000 </r>
       <r>    3.2575    0.0000 </r>
       <r>    3.9006    0.0000 </r>
       <r>    4.3418    0.0000 </r>
       <r>    4.7065    0.0000 </r>
       <r>    6.1901    0.0000 </r>
       <r>    6.6074    0.0000 </r>
       <r>    7.3676    0.0000 </r>
       <r>   10.3738    0.0000 </r>
      </set>
      <set comment="kpoint 21">
       <r>  -19.4774    1.0000 </r>
       <r>  -11.5063    1.0000 </r>
       <r>   -7.6847    1.0000 </r>
       <r>   -7.2699    1.0000 </r>
       <r>    2.9111    0.0000 </r>
       <r>    3.9925    0.0000 </r>
       <r>    4.9560    0.0000 </r>
       <r>    5.4553    0.0000 </r>
       <r>    6.1083    0.0000 </r>
       <r>    7.3382    0.0000 </r>
       <r>    8.0950    0.0000 </r>
       <r>   11.0502    0.0000 </r>
      </set>
      <set comment="kpoint 22">
       <r>  -18.8819    1.0000 </r>
       <r>  -12.5543    1.0000 </r>
       <r>   -7.9686    1.0000 </r>
       <r>   -6.6234    1.0000 </r>
       <r>    1.8227    0.0000 </r>
       <r>    4.8267    0.0000 </r>
       <r>    5.7910    0.0000 </r>
       <r>    5.9862    0.0000 </r>
       <r>    6.3435    0.0000 </r>
       <r>    8.1708    0.0000 </r>
       <r>    8.9299    0.0000 </r>
       <r>   11.7802    0.0000 </r>
      </set>
      <set comment="kpoint 23">
       <r>  -18.2289    1.0000 </r>
       <r>  -13.5573    1.0000 </r>
       <r>   -8.1882    1.0000 </r>
       <r>   -5.9582    1.0000 </r>
       <r>    0.8027    0.0000 </r>
       <r>    5.7020    0.0000 </r>
       <r>    5.9743    0.0000 </r>
       <r>    6.7339    0.0000 </r>
       <r>    7.2991    0.0000 </r>
       <r>    9.0987    0.0000 </r>
       <r>    9.8657    0.0000 </r>
       <r>   11.6867    0.0000 </r>
      </set>
      <set comment="kpoint 24">
       <r>  -17.5443    1.0000 </r>
       <r>  -14.4807    1.0000 </r>
       <r>   -8.3378    1.0000 </r>
       <r>   -5.3455    1.0000 </r>
       <r>   -0.0567    0.0000 </r>
       <r>    5.8144    0.0000 </r>
       <r>    6.8348    0.0000 </r>
       <r>    7.7754    0.0000 </r>
       <r>    8.3719    0.0000 </r>
       <r>   10.1056    0.0000 </r>
       <r>   10.4751    0.0000 </r>
       <r>   10.9146    0.0000 </r>
      </set>
      <set comment="kpoint 25">
       <r>  -16.9432    1.0000 </r>
       <r>  -15.2037    1.0000 </r>
       <r>   -8.4139    1.0000 </r>
       <r>   -4.9347    1.0000 </r>
       <r>   -0.5947    0.0000 </r>
       <r>    5.7864    0.0000 </r>
       <r>    7.9527    0.0000 </r>
       <r>    8.9041    0.0000 </r>
       <r>    9.2266    0.0000 </r>
       <r>    9.5573    0.0000 </r>
       <r>   10.1687    0.0000 </r>
       <r>   10.8922    0.0000 </r>
      </set>
      <set comment="kpoint 26">
       <r>  -16.9246    1.0000 </r>
       <r>  -15.2250    1.0000 </r>
       <r>   -8.4148    1.0000 </r>
       <r>   -4.9248    1.0000 </r>
       <r>   -0.6073    0.0000 </r>
       <r>    5.7853    0.0000 </r>
       <r>    8.0033    0.0000 </r>
       <r>    8.9547    0.0000 </r>
       <r>    9.1737    0.0000 </r>
       <r>    9.6097    0.0000 </r>
       <r>   10.1172    0.0000 </r>
       <r>   10.8341    0.0000 </r>
      </set>
      <set comment="kpoint 27">
       <r>  -17.5146    1.0000 </r>
       <r>  -14.5185    1.0000 </r>
       <r>   -8.3406    1.0000 </r>
       <r>   -5.3220    1.0000 </r>
       <r>   -0.0879    0.0000 </r>
       <r>    5.8118    0.0000 </r>
       <r>    6.8814    0.0000 </r>
       <r>    7.8229    0.0000 </r>
       <r>    8.4209    0.0000 </r>
       <r>   10.1504    0.0000 </r>
       <r>   10.4204    0.0000 </r>
       <r>   10.9595    0.0000 </r>
      </set>
      <set comment="kpoint 28">
       <r>  -18.1993    1.0000 </r>
       <r>  -13.6003    1.0000 </r>
       <r>   -8.1928    1.0000 </r>
       <r>   -5.9297    1.0000 </r>
       <r>    0.7617    0.0000 </r>
       <r>    5.7300    0.0000 </r>
       <r>    5.9841    0.0000 </r>
       <r>    6.7773    0.0000 </r>
       <r>    7.3434    0.0000 </r>
       <r>    9.1413    0.0000 </r>
       <r>    9.9088    0.0000 </r>
       <r>   11.6305    0.0000 </r>
      </set>
      <set comment="kpoint 29">
       <r>  -18.8545    1.0000 </r>
       <r>  -12.5999    1.0000 </r>
       <r>   -7.9748    1.0000 </r>
       <r>   -6.5945    1.0000 </r>
       <r>    1.7773    0.0000 </r>
       <r>    4.8653    0.0000 </r>
       <r>    5.8300    0.0000 </r>
       <r>    5.9816    0.0000 </r>
       <r>    6.3812    0.0000 </r>
       <r>    8.2094    0.0000 </r>
       <r>    8.9686    0.0000 </r>
       <r>   11.8131    0.0000 </r>
      </set>
      <set comment="kpoint 30">
       <r>  -19.4528    1.0000 </r>
       <r>  -11.5536    1.0000 </r>
       <r>   -7.6924    1.0000 </r>
       <r>   -7.2427    1.0000 </r>
       <r>    2.8646    0.0000 </r>
       <r>    4.0269    0.0000 </r>
       <r>    4.9899    0.0000 </r>
       <r>    5.4900    0.0000 </r>
       <r>    6.1012    0.0000 </r>
       <r>    7.3725    0.0000 </r>
       <r>    8.1291    0.0000 </r>
       <r>   11.0819    0.0000 </r>
      </set>
      <set comment="kpoint 31">
       <r>  -19.9846    1.0000 </r>
       <r>  -10.4842    1.0000 </r>
       <r>   -7.8398    1.0000 </r>
       <r>   -7.3543    1.0000 </r>
       <r>    3.2874    0.0000 </r>
       <r>    3.8767    0.0000 </r>
       <r>    4.3493    0.0000 </r>
       <r>    4.7369    0.0000 </r>
       <r>    6.1838    0.0000 </r>
       <r>    6.6372    0.0000 </r>
       <r>    7.3966    0.0000 </r>
       <r>   10.4022    0.0000 </r>
      </set>
      <set comment="kpoint 32">
       <r>  -20.4455    1.0000 </r>
       <r>   -9.4158    1.0000 </r>
       <r>   -8.3681    1.0000 </r>
       <r>   -6.9732    1.0000 </r>
       <r>    2.6512    0.0000 </r>
       <r>    3.5516    0.0000 </r>
       <r>    4.0874    0.0000 </r>
       <r>    5.1158    0.0000 </r>
       <r>    6.0161    0.0000 </r>
       <r>    6.2186    0.0000 </r>
       <r>    6.7855    0.0000 </r>
       <r>    9.8036    0.0000 </r>
      </set>
      <set comment="kpoint 33">
       <r>  -20.8326    1.0000 </r>
       <r>   -8.8178    1.0000 </r>
       <r>   -8.3796    1.0000 </r>
       <r>   -6.5679    1.0000 </r>
       <r>    2.1197    0.0000 </r>
       <r>    3.0293    0.0000 </r>
       <r>    3.5450    0.0000 </r>
       <r>    5.4332    0.0000 </r>
       <r>    6.0770    0.0000 </r>
       <r>    6.1837    0.0000 </r>
       <r>    6.3802    0.0000 </r>
       <r>    8.8409    0.0000 </r>
      </set>
      <set comment="kpoint 34">
       <r>  -21.1442    1.0000 </r>
       <r>   -9.1831    1.0000 </r>
       <r>   -7.4176    1.0000 </r>
       <r>   -6.1652    1.0000 </r>
       <r>    1.6937    0.0000 </r>
       <r>    2.6033    0.0000 </r>
       <r>    3.1105    0.0000 </r>
       <r>    5.0241    0.0000 </r>
       <r>    5.7325    0.0000 </r>
       <r>    6.1697    0.0000 </r>
       <r>    7.0783    0.0000 </r>
       <r>    7.9087    0.0000 </r>
      </set>
      <set comment="kpoint 35">
       <r>  -21.3792    1.0000 </r>
       <r>   -9.4601    1.0000 </r>
       <r>   -6.5865    1.0000 </r>
       <r>   -5.8018    1.0000 </r>
       <r>    1.3735    0.0000 </r>
       <r>    2.2816    0.0000 </r>
       <r>    2.7841    0.0000 </r>
       <r>    4.7061    0.0000 </r>
       <r>    5.4317    0.0000 </r>
       <r>    5.9222    0.0000 </r>
       <r>    7.1322    0.0000 </r>
       <r>    7.8257    0.0000 </r>
      </set>
      <set comment="kpoint 36">
       <r>  -21.5369    1.0000 </r>
       <r>   -9.6466    1.0000 </r>
       <r>   -5.9565    1.0000 </r>
       <r>   -5.5241    1.0000 </r>
       <r>    1.1595    0.0000 </r>
       <r>    2.0659    0.0000 </r>
       <r>    2.5657    0.0000 </r>
       <r>    4.4922    0.0000 </r>
       <r>    5.2286    0.0000 </r>
       <r>    5.6811    0.0000 </r>
       <r>    6.5376    0.0000 </r>
       <r>    8.3391    0.0000 </r>
      </set>
      <set comment="kpoint 37">
       <r>  -21.6167    1.0000 </r>
       <r>   -9.7412    1.0000 </r>
       <r>   -5.6026    1.0000 </r>
       <r>   -5.3778    1.0000 </r>
       <r>    1.0514    0.0000 </r>
       <r>    1.9568    0.0000 </r>
       <r>    2.4554    0.0000 </r>
       <r>    4.3838    0.0000 </r>
       <r>    5.1282    0.0000 </r>
       <r>    5.5451    0.0000 </r>
       <r>    6.1899    0.0000 </r>
       <r>    8.2621    0.0000 </r>
      </set>
      <set comment="kpoint 38">
       <r>  -21.5048    1.0000 </r>
       <r>   -9.6084    1.0000 </r>
       <r>   -5.9329    1.0000 </r>
       <r>   -5.7053    1.0000 </r>
       <r>    1.2032    0.0000 </r>
       <r>    2.1095    0.0000 </r>
       <r>    2.6099    0.0000 </r>
       <r>    4.5356    0.0000 </r>
       <r>    5.2742    0.0000 </r>
       <r>    5.7450    0.0000 </r>
       <r>    6.4352    0.0000 </r>
       <r>    8.4088    0.0000 </r>
      </set>
      <set comment="kpoint 39">
       <r>  -21.3913    1.0000 </r>
       <r>   -9.4740    1.0000 </r>
       <r>   -6.3882    1.0000 </r>
       <r>   -5.9106    1.0000 </r>
       <r>    1.3573    0.0000 </r>
       <r>    2.2650    0.0000 </r>
       <r>    2.7672    0.0000 </r>
       <r>    4.6899    0.0000 </r>
       <r>    5.4160    0.0000 </r>
       <r>    5.8409    0.0000 </r>
       <r>    6.9927    0.0000 </r>
       <r>    7.9040    0.0000 </r>
      </set>
      <set comment="kpoint 40">
       <r>  -21.2001    1.0000 </r>
       <r>   -9.2484    1.0000 </r>
       <r>   -7.0571    1.0000 </r>
       <r>   -6.2536    1.0000 </r>
       <r>    1.6174    0.0000 </r>
       <r>    2.5268    0.0000 </r>
       <r>    3.0325    0.0000 </r>
       <r>    4.9495    0.0000 </r>
       <r>    5.6646    0.0000 </r>
       <r>    6.1268    0.0000 </r>
       <r>    7.2921    0.0000 </r>
       <r>    7.6056    0.0000 </r>
      </set>
      <set comment="kpoint 41">
       <r>  -20.9320    1.0000 </r>
       <r>   -8.9333    1.0000 </r>
       <r>   -7.8958    1.0000 </r>
       <r>   -6.6647    1.0000 </r>
       <r>    1.9836    0.0000 </r>
       <r>    2.8942    0.0000 </r>
       <r>    3.4060    0.0000 </r>
       <r>    5.3113    0.0000 </r>
       <r>    6.0149    0.0000 </r>
       <r>    6.4719    0.0000 </r>
       <r>    6.5009    0.0000 </r>
       <r>    8.2310    0.0000 </r>
      </set>
      <set comment="kpoint 42">
       <r>  -20.5878    1.0000 </r>
       <r>   -8.8507    1.0000 </r>
       <r>   -8.5316    1.0000 </r>
       <r>   -7.0927    1.0000 </r>
       <r>    2.4556    0.0000 </r>
       <r>    3.3643    0.0000 </r>
       <r>    3.8876    0.0000 </r>
       <r>    5.5193    0.0000 </r>
       <r>    5.8338    0.0000 </r>
       <r>    6.4220    0.0000 </r>
       <r>    6.7559    0.0000 </r>
       <r>    8.9592    0.0000 </r>
      </set>
      <set comment="kpoint 43">
       <r>  -20.1690    1.0000 </r>
       <r>   -9.8722    1.0000 </r>
       <r>   -8.0478    1.0000 </r>
       <r>   -7.5040    1.0000 </r>
       <r>    3.0328    0.0000 </r>
       <r>    3.9083    0.0000 </r>
       <r>    4.4769    0.0000 </r>
       <r>    4.5622    0.0000 </r>
       <r>    6.3742    0.0000 </r>
       <r>    6.6398    0.0000 </r>
       <r>    7.1749    0.0000 </r>
       <r>   10.1456    0.0000 </r>
      </set>
      <set comment="kpoint 44">
       <r>  -19.6777    1.0000 </r>
       <r>  -10.9210    1.0000 </r>
       <r>   -7.8768    1.0000 </r>
       <r>   -7.4890    1.0000 </r>
       <r>    3.4074    0.0000 </r>
       <r>    3.7143    0.0000 </r>
       <r>    4.6714    0.0000 </r>
       <r>    5.1734    0.0000 </r>
       <r>    6.6293    0.0000 </r>
       <r>    7.0490    0.0000 </r>
       <r>    7.8236    0.0000 </r>
       <r>   10.7649    0.0000 </r>
      </set>
      <set comment="kpoint 45">
       <r>  -19.1173    1.0000 </r>
       <r>  -11.9668    1.0000 </r>
       <r>   -8.1965    1.0000 </r>
       <r>   -6.8677    1.0000 </r>
       <r>    2.3339    0.0000 </r>
       <r>    4.4982    0.0000 </r>
       <r>    5.4457    0.0000 </r>
       <r>    5.9730    0.0000 </r>
       <r>    6.5569    0.0000 </r>
       <r>    7.8253    0.0000 </r>
       <r>    8.5987    0.0000 </r>
       <r>   11.4378    0.0000 </r>
      </set>
      <set comment="kpoint 46">
       <r>  -18.4941    1.0000 </r>
       <r>  -12.9847    1.0000 </r>
       <r>   -8.4538    1.0000 </r>
       <r>   -6.2066    1.0000 </r>
       <r>    1.2869    0.0000 </r>
       <r>    5.3798    0.0000 </r>
       <r>    6.3320    0.0000 </r>
       <r>    6.4488    0.0000 </r>
       <r>    6.9077    0.0000 </r>
       <r>    8.6962    0.0000 </r>
       <r>    9.4798    0.0000 </r>
       <r>   12.0630    0.0000 </r>
      </set>
      <set comment="kpoint 47">
       <r>  -17.8225    1.0000 </r>
       <r>  -13.9475    1.0000 </r>
       <r>   -8.6420    1.0000 </r>
       <r>   -5.5526    1.0000 </r>
       <r>    0.3415    0.0000 </r>
       <r>    6.2547    0.0000 </r>
       <r>    6.4902    0.0000 </r>
       <r>    7.3167    0.0000 </r>
       <r>    7.9180    0.0000 </r>
       <r>    9.6476    0.0000 </r>
       <r>   10.4533    0.0000 </r>
       <r>   11.1698    0.0000 </r>
      </set>
      <set comment="kpoint 48">
       <r>  -17.1522    1.0000 </r>
       <r>  -14.7977    1.0000 </r>
       <r>   -8.7572    1.0000 </r>
       <r>   -5.0086    1.0000 </r>
       <r>   -0.3849    0.0000 </r>
       <r>    6.3014    0.0000 </r>
       <r>    7.4707    0.0000 </r>
       <r>    8.3888    0.0000 </r>
       <r>    9.0397    0.0000 </r>
       <r>    9.9696    0.0000 </r>
       <r>   10.5409    0.0000 </r>
       <r>   11.0336    0.0000 </r>
      </set>
      <set comment="kpoint 49">
       <r>  -16.7447    1.0000 </r>
       <r>  -15.2690    1.0000 </r>
       <r>   -8.7972    1.0000 </r>
       <r>   -4.7671    1.0000 </r>
       <r>   -0.6914    0.0000 </r>
       <r>    6.2863    0.0000 </r>
       <r>    8.5677    0.0000 </r>
       <r>    8.8045    0.0000 </r>
       <r>    9.4402    0.0000 </r>
       <r>    9.7492    0.0000 </r>
       <r>   10.2667    0.0000 </r>
       <r>   10.3846    0.0000 </r>
      </set>
      <set comment="kpoint 50">
       <r>  -17.0982    1.0000 </r>
       <r>  -14.8622    1.0000 </r>
       <r>   -8.7612    1.0000 </r>
       <r>   -4.9723    1.0000 </r>
       <r>   -0.4311    0.0000 </r>
       <r>    6.2980    0.0000 </r>
       <r>    7.5680    0.0000 </r>
       <r>    8.4855    0.0000 </r>
       <r>    9.1417    0.0000 </r>
       <r>    9.8604    0.0000 </r>
       <r>   10.5533    0.0000 </r>
       <r>   11.0091    0.0000 </r>
      </set>
      <set comment="kpoint 51">
       <r>  -17.7624    1.0000 </r>
       <r>  -14.0287    1.0000 </r>
       <r>   -8.6498    1.0000 </r>
       <r>   -5.4988    1.0000 </r>
       <r>    0.2683    0.0000 </r>
       <r>    6.2844    0.0000 </r>
       <r>    6.5425    0.0000 </r>
       <r>    7.4069    0.0000 </r>
       <r>    8.0113    0.0000 </r>
       <r>    9.7335    0.0000 </r>
       <r>   10.5399    0.0000 </r>
       <r>   11.0664    0.0000 </r>
      </set>
      <set comment="kpoint 52">
       <r>  -18.4369    1.0000 </r>
       <r>  -13.0728    1.0000 </r>
       <r>   -8.4652    1.0000 </r>
       <r>   -6.1484    1.0000 </r>
       <r>    1.2010    0.0000 </r>
       <r>    5.4612    0.0000 </r>
       <r>    6.4140    0.0000 </r>
       <r>    6.4399    0.0000 </r>
       <r>    6.9897    0.0000 </r>
       <r>    8.7765    0.0000 </r>
       <r>    9.5613    0.0000 </r>
       <r>   11.8640    0.0000 </r>
      </set>
      <set comment="kpoint 53">
       <r>  -19.0652    1.0000 </r>
       <r>  -12.0589    1.0000 </r>
       <r>   -8.2115    1.0000 </r>
       <r>   -6.8112    1.0000 </r>
       <r>    2.2429    0.0000 </r>
       <r>    4.5715    0.0000 </r>
       <r>    5.5189    0.0000 </r>
       <r>    6.0466    0.0000 </r>
       <r>    6.5450    0.0000 </r>
       <r>    7.8978    0.0000 </r>
       <r>    8.6711    0.0000 </r>
       <r>   11.4990    0.0000 </r>
      </set>
      <set comment="kpoint 54">
       <r>  -19.6314    1.0000 </r>
       <r>  -11.0149    1.0000 </r>
       <r>   -7.8950    1.0000 </r>
       <r>   -7.4371    1.0000 </r>
       <r>    3.3181    0.0000 </r>
       <r>    3.7786    0.0000 </r>
       <r>    4.7337    0.0000 </r>
       <r>    5.2390    0.0000 </r>
       <r>    6.6181    0.0000 </r>
       <r>    7.1130    0.0000 </r>
       <r>    7.8860    0.0000 </r>
       <r>   10.8232    0.0000 </r>
      </set>
      <set comment="kpoint 55">
       <r>  -20.1290    1.0000 </r>
       <r>   -9.9653    1.0000 </r>
       <r>   -8.0019    1.0000 </r>
       <r>   -7.5251    1.0000 </r>
       <r>    3.0881    0.0000 </r>
       <r>    3.9488    0.0000 </r>
       <r>    4.4894    0.0000 </r>
       <r>    4.5333    0.0000 </r>
       <r>    6.4290    0.0000 </r>
       <r>    6.6395    0.0000 </r>
       <r>    7.2232    0.0000 </r>
       <r>    9.8286    0.0000 </r>
      </set>
      <set comment="kpoint 56">
       <r>  -20.5542    1.0000 </r>
       <r>   -8.9395    1.0000 </r>
       <r>   -8.4926    1.0000 </r>
       <r>   -7.1164    1.0000 </r>
       <r>    2.5018    0.0000 </r>
       <r>    3.4096    0.0000 </r>
       <r>    3.9346    0.0000 </r>
       <r>    5.4506    0.0000 </r>
       <r>    5.8687    0.0000 </r>
       <r>    6.4534    0.0000 </r>
       <r>    6.7754    0.0000 </r>
       <r>    8.9423    0.0000 </r>
      </set>
      <set comment="kpoint 57">
       <r>  -20.9050    1.0000 </r>
       <r>   -8.9017    1.0000 </r>
       <r>   -7.9754    1.0000 </r>
       <r>   -6.6908    1.0000 </r>
       <r>    2.0206    0.0000 </r>
       <r>    2.9310    0.0000 </r>
       <r>    3.4436    0.0000 </r>
       <r>    5.3470    0.0000 </r>
       <r>    6.0499    0.0000 </r>
       <r>    6.4321    0.0000 </r>
       <r>    6.4923    0.0000 </r>
       <r>    8.2142    0.0000 </r>
      </set>
      <set comment="kpoint 58">
       <r>  -21.1798    1.0000 </r>
       <r>   -9.2245    1.0000 </r>
       <r>   -7.1209    1.0000 </r>
       <r>   -6.2815    1.0000 </r>
       <r>    1.6452    0.0000 </r>
       <r>    2.5546    0.0000 </r>
       <r>    3.0607    0.0000 </r>
       <r>    4.9769    0.0000 </r>
       <r>    5.6918    0.0000 </r>
       <r>    6.1491    0.0000 </r>
       <r>    7.2359    0.0000 </r>
       <r>    7.6041    0.0000 </r>
      </set>
      <set comment="kpoint 59">
       <r>  -21.3777    1.0000 </r>
       <r>   -9.4579    1.0000 </r>
       <r>   -6.4293    1.0000 </r>
       <r>   -5.9384    1.0000 </r>
       <r>    1.3757    0.0000 </r>
       <r>    2.2835    0.0000 </r>
       <r>    2.7860    0.0000 </r>
       <r>    4.7083    0.0000 </r>
       <r>    5.4339    0.0000 </r>
       <r>    5.8548    0.0000 </r>
       <r>    7.0098    0.0000 </r>
       <r>    7.8642    0.0000 </r>
      </set>
      <set comment="kpoint 60">
       <r>  -21.4980    1.0000 </r>
       <r>   -9.6003    1.0000 </r>
       <r>   -5.9480    1.0000 </r>
       <r>   -5.7275    1.0000 </r>
       <r>    1.2124    0.0000 </r>
       <r>    2.1188    0.0000 </r>
       <r>    2.6193    0.0000 </r>
       <r>    4.5448    0.0000 </r>
       <r>    5.2829    0.0000 </r>
       <r>    5.7453    0.0000 </r>
       <r>    6.4572    0.0000 </r>
       <r>    8.2688    0.0000 </r>
      </set>
      <set comment="kpoint 61">
       <r>  -21.5405    1.0000 </r>
       <r>   -9.6506    1.0000 </r>
       <r>   -5.7150    1.0000 </r>
       <r>   -5.7044    1.0000 </r>
       <r>    1.1549    0.0000 </r>
       <r>    2.0608    0.0000 </r>
       <r>    2.5607    0.0000 </r>
       <r>    4.4872    0.0000 </r>
       <r>    5.2310    0.0000 </r>
       <r>    5.8030    0.0000 </r>
       <r>    6.1459    0.0000 </r>
       <r>    8.3625    0.0000 </r>
      </set>
      <set comment="kpoint 62">
       <r>  -21.3159    1.0000 </r>
       <r>   -9.3845    1.0000 </r>
       <r>   -6.5622    1.0000 </r>
       <r>   -6.0853    1.0000 </r>
       <r>    1.4599    0.0000 </r>
       <r>    2.3678    0.0000 </r>
       <r>    2.8713    0.0000 </r>
       <r>    4.7921    0.0000 </r>
       <r>    5.5085    0.0000 </r>
       <r>    5.8005    0.0000 </r>
       <r>    7.0609    0.0000 </r>
       <r>    7.7095    0.0000 </r>
      </set>
      <set comment="kpoint 63">
       <r>  -21.1654    1.0000 </r>
[...]
       <r>   10.2281    0.0000 </r>
       <r>   11.1550    0.0000 </r>
       <r>   11.2722    0.0000 </r>
      </set>
      <set comment="kpoint 294">
       <r>  -17.4201    1.0000 </r>
       <r>  -13.5263    1.0000 </r>
       <r>   -9.9832    1.0000 </r>
       <r>   -5.0595    1.0000 </r>
       <r>    0.3703    0.0000 </r>
       <r>    6.4388    0.0000 </r>
       <r>    6.8886    0.0000 </r>
       <r>    7.6938    0.0000 </r>
       <r>    8.4227    0.0000 </r>
       <r>    9.8763    0.0000 </r>
       <r>   10.9488    0.0000 </r>
       <r>   11.3295    0.0000 </r>
      </set>
      <set comment="kpoint 295">
       <r>  -17.5466    1.0000 </r>
       <r>  -13.0066    1.0000 </r>
       <r>  -10.4933    1.0000 </r>
       <r>   -5.1487    1.0000 </r>
       <r>    0.6072    0.0000 </r>
       <r>    6.6911    0.0000 </r>
       <r>    7.4730    0.0000 </r>
       <r>    7.5647    0.0000 </r>
       <r>    8.2340    0.0000 </r>
       <r>    9.6254    0.0000 </r>
       <r>   10.5653    0.0000 </r>
       <r>   10.8098    0.0000 </r>
      </set>
      <set comment="kpoint 296">
       <r>  -17.6019    1.0000 </r>
       <r>  -12.6891    1.0000 </r>
       <r>  -10.8103    1.0000 </r>
       <r>   -5.1896    1.0000 </r>
       <r>    0.7198    0.0000 </r>
       <r>    6.6137    0.0000 </r>
       <r>    7.3740    0.0000 </r>
       <r>    8.1469    0.0000 </r>
       <r>    8.7724    0.0000 </r>
       <r>    9.4542    0.0000 </r>
       <r>    9.5105    0.0000 </r>
       <r>   10.7063    0.0000 </r>
      </set>
      <set comment="kpoint 297">
       <r>  -17.5850    1.0000 </r>
       <r>  -12.8247    1.0000 </r>
       <r>  -10.6704    1.0000 </r>
       <r>   -5.1786    1.0000 </r>
       <r>    0.6768    0.0000 </r>
       <r>    6.6383    0.0000 </r>
       <r>    7.4076    0.0000 </r>
       <r>    8.1543    0.0000 </r>
       <r>    8.2442    0.0000 </r>
       <r>    9.5514    0.0000 </r>
       <r>    9.9809    0.0000 </r>
       <r>   10.7342    0.0000 </r>
      </set>
      <set comment="kpoint 298">
       <r>  -17.4963    1.0000 </r>
       <r>  -13.2857    1.0000 </r>
       <r>  -10.2060    1.0000 </r>
       <r>   -5.1169    1.0000 </r>
       <r>    0.4909    0.0000 </r>
       <r>    6.7572    0.0000 </r>
       <r>    7.0626    0.0000 </r>
       <r>    7.5692    0.0000 </r>
       <r>    8.3106    0.0000 </r>
       <r>    9.7397    0.0000 </r>
       <r>   10.8170    0.0000 </r>
       <r>   11.0211    0.0000 </r>
      </set>
      <set comment="kpoint 299">
       <r>  -17.3377    1.0000 </r>
       <r>  -13.8333    1.0000 </r>
       <r>   -9.6775    1.0000 </r>
       <r>   -5.0110    1.0000 </r>
       <r>    0.2106    0.0000 </r>
       <r>    6.0118    0.0000 </r>
       <r>    7.0087    0.0000 </r>
       <r>    7.8430    0.0000 </r>
       <r>    8.5517    0.0000 </r>
       <r>   10.0452    0.0000 </r>
       <r>   11.0702    0.0000 </r>
       <r>   11.3062    0.0000 </r>
      </set>
      <set comment="kpoint 300">
       <r>  -17.1138    1.0000 </r>
       <r>  -14.3719    1.0000 </r>
       <r>   -9.2174    1.0000 </r>
       <r>   -4.8734    1.0000 </r>
       <r>   -0.1012    0.0000 </r>
       <r>    5.1934    0.0000 </r>
       <r>    7.3436    0.0000 </r>
       <r>    8.2150    0.0000 </r>
       <r>    8.9006    0.0000 </r>
       <r>   10.4296    0.0000 </r>
       <r>   10.8403    0.0000 </r>
       <r>   11.4251    0.0000 </r>
      </set>
      <set comment="kpoint 301">
       <r>  -16.8358    1.0000 </r>
       <r>  -14.8579    1.0000 </r>
       <r>   -8.9104    1.0000 </r>
       <r>   -4.7234    1.0000 </r>
       <r>   -0.3845    0.0000 </r>
       <r>    4.6592    0.0000 </r>
       <r>    7.7810    0.0000 </r>
       <r>    8.6750    0.0000 </r>
       <r>    9.3565    0.0000 </r>
       <r>   10.1866    0.0000 </r>
       <r>   10.7663    0.0000 </r>
       <r>   11.2829    0.0000 </r>
      </set>
     </set>
    </set>
   </array>
  </eigenvalues>
  <separator name="orbital magnetization" >
   <v name="MAGDIPOLOUT">      0.00000000      0.00000000      0.00000000</v>
  </separator>
  <dos>
   <i name="efermi">     -2.45347938 </i>
   <total>
    <array>
     <dimension dim="1">gridpoints</dimension>
     <dimension dim="2">spin</dimension>
     <field>energy</field>
     <field>total</field>
     <field>integrated</field>
     <set>
      <set comment="spin 1">
       <r>   -23.3963     0.0000     0.0000 </r>
       <r>   -23.2687     0.0000     0.0000 </r>
       <r>   -23.1411     0.0000     0.0000 </r>
       <r>   -23.0135     0.0000     0.0000 </r>
       <r>   -22.8859     0.0000     0.0000 </r>
       <r>   -22.7583     0.0000     0.0000 </r>
       <r>   -22.6307     0.0000     0.0000 </r>
       <r>   -22.5031     0.0000     0.0000 </r>
       <r>   -22.3755     0.0000     0.0000 </r>
       <r>   -22.2479     0.0000     0.0000 </r>
       <r>   -22.1203     0.0000     0.0000 </r>
       <r>   -21.9927     0.0000     0.0000 </r>
       <r>   -21.8651     0.0000     0.0000 </r>
       <r>   -21.7375     0.0000     0.0000 </r>
       <r>   -21.6099     0.1362     0.0174 </r>
       <r>   -21.4823     0.3448     0.0614 </r>
       <r>   -21.3547     0.3218     0.1024 </r>
       <r>   -21.2271     0.1645     0.1236 </r>
       <r>   -21.0995     0.4681     0.1833 </r>
       <r>   -20.9719     0.1573     0.2034 </r>
       <r>   -20.8443     0.4658     0.2628 </r>
       <r>   -20.7167     0.1833     0.2862 </r>
       <r>   -20.5891     0.3622     0.3324 </r>
       <r>   -20.4615     0.3863     0.3817 </r>
       <r>   -20.3339     0.1699     0.4034 </r>
       <r>   -20.2063     0.4004     0.4545 </r>
       <r>   -20.0787     0.3823     0.5034 </r>
       <r>   -19.9511     0.3021     0.5419 </r>
       <r>   -19.8235     0.1277     0.5583 </r>
       <r>   -19.6959     0.5841     0.6328 </r>
       <r>   -19.5683     0.2390     0.6633 </r>
       <r>   -19.4406     0.2269     0.6923 </r>
       <r>   -19.3130     0.2985     0.7304 </r>
       <r>   -19.1854     0.4899     0.7929 </r>
       <r>   -19.0578     0.3168     0.8334 </r>
       <r>   -18.9302     0.1459     0.8520 </r>
       <r>   -18.8026     0.4125     0.9046 </r>
       <r>   -18.6750     0.4410     0.9609 </r>
       <r>   -18.5474     0.3026     0.9996 </r>
       <r>   -18.4198     0.2655     1.0335 </r>
       <r>   -18.2922     0.1370     1.0509 </r>
       <r>   -18.1646     0.5099     1.1160 </r>
       <r>   -18.0370     0.4840     1.1778 </r>
       <r>   -17.9094     0.2280     1.2069 </r>
       <r>   -17.7818     0.2871     1.2436 </r>
       <r>   -17.6542     0.2424     1.2745 </r>
       <r>   -17.5266     0.4844     1.3363 </r>
       <r>   -17.3990     0.4317     1.3914 </r>
       <r>   -17.2714     0.2830     1.4275 </r>
       <r>   -17.1438     0.2926     1.4649 </r>
       <r>   -17.0162     0.2933     1.5023 </r>
       <r>   -16.8886     0.4592     1.5609 </r>
       <r>   -16.7610     0.5873     1.6359 </r>
       <r>   -16.6334     0.3900     1.6857 </r>
       <r>   -16.5058     0.1692     1.7073 </r>
       <r>   -16.3782     0.3984     1.7582 </r>
       <r>   -16.2506     0.3751     1.8060 </r>
       <r>   -16.1230     0.4568     1.8644 </r>
       <r>   -15.9954     0.2255     1.8931 </r>
       <r>   -15.8678     0.1060     1.9067 </r>
       <r>   -15.7402     0.0794     1.9168 </r>
       <r>   -15.6126     0.2036     1.9428 </r>
       <r>   -15.4850     0.2392     1.9733 </r>
       <r>   -15.3573     0.1605     1.9938 </r>
       <r>   -15.2297     0.2510     2.0259 </r>
       <r>   -15.1021     0.3938     2.0762 </r>
       <r>   -14.9745     0.2421     2.1071 </r>
       <r>   -14.8469     0.4601     2.1658 </r>
       <r>   -14.7193     0.3113     2.2055 </r>
       <r>   -14.5917     0.4838     2.2672 </r>
       <r>   -14.4641     0.4075     2.3193 </r>
       <r>   -14.3365     0.5076     2.3840 </r>
       <r>   -14.2089     0.3198     2.4249 </r>
       <r>   -14.0813     0.3907     2.4748 </r>
       <r>   -13.9537     0.3347     2.5175 </r>
       <r>   -13.8261     0.4663     2.5770 </r>
       <r>   -13.6985     0.1548     2.5968 </r>
       <r>   -13.5709     0.3599     2.6427 </r>
       <r>   -13.4433     0.3946     2.6931 </r>
       <r>   -13.3157     0.2426     2.7241 </r>
       <r>   -13.1881     0.2642     2.7578 </r>
       <r>   -13.0605     0.3661     2.8045 </r>
       <r>   -12.9329     0.2559     2.8372 </r>
       <r>   -12.8053     0.2247     2.8659 </r>
       <r>   -12.6777     0.2380     2.8962 </r>
       <r>   -12.5501     0.4644     2.9555 </r>
       <r>   -12.4225     0.3539     3.0007 </r>
       <r>   -12.2949     0.3298     3.0428 </r>
       <r>   -12.1673     0.2652     3.0766 </r>
       <r>   -12.0397     0.5609     3.1482 </r>
       <r>   -11.9121     0.5166     3.2142 </r>
       <r>   -11.7845     0.2034     3.2402 </r>
       <r>   -11.6569     0.1307     3.2569 </r>
       <r>   -11.5293     0.4571     3.3152 </r>
       <r>   -11.4016     0.5871     3.3902 </r>
       <r>   -11.2740     0.5119     3.4555 </r>
       <r>   -11.1464     0.1641     3.4764 </r>
       <r>   -11.0188     0.2748     3.5115 </r>
       <r>   -10.8912     0.5752     3.5849 </r>
       <r>   -10.7636     0.4076     3.6369 </r>
       <r>   -10.6360     0.4087     3.6891 </r>
       <r>   -10.5084     0.4469     3.7462 </r>
       <r>   -10.3808     0.5497     3.8164 </r>
       <r>   -10.2532     0.2040     3.8424 </r>
       <r>   -10.1256     0.4079     3.8945 </r>
       <r>    -9.9980     0.4615     3.9534 </r>
       <r>    -9.8704     0.8365     4.0602 </r>
       <r>    -9.7428     0.4531     4.1180 </r>
       <r>    -9.6152     0.5512     4.1883 </r>
       <r>    -9.4876     0.5411     4.2575 </r>
       <r>    -9.3600     1.1370     4.4025 </r>
       <r>    -9.2324     0.7366     4.4966 </r>
       <r>    -9.1048     0.9988     4.6241 </r>
       <r>    -8.9772     0.5970     4.7004 </r>
       <r>    -8.8496     1.2597     4.8612 </r>
       <r>    -8.7220     0.9722     4.9852 </r>
       <r>    -8.5944     0.7531     5.0814 </r>
       <r>    -8.4668     1.1578     5.2292 </r>
       <r>    -8.3392     1.0424     5.3623 </r>
       <r>    -8.2116     0.6152     5.4408 </r>
       <r>    -8.0840     0.8596     5.5506 </r>
       <r>    -7.9564     0.8891     5.6640 </r>
       <r>    -7.8288     0.8035     5.7666 </r>
       <r>    -7.7012     0.5182     5.8327 </r>
       <r>    -7.5736     0.8962     5.9471 </r>
       <r>    -7.4460     0.5948     6.0230 </r>
       <r>    -7.3183     0.7395     6.1174 </r>
       <r>    -7.1907     0.5838     6.1920 </r>
       <r>    -7.0631     0.4929     6.2549 </r>
       <r>    -6.9355     0.9391     6.3747 </r>
       <r>    -6.8079     0.6027     6.4517 </r>
       <r>    -6.6803     0.3541     6.4969 </r>
       <r>    -6.5527     0.6423     6.5789 </r>
       <r>    -6.4251     0.6036     6.6560 </r>
       <r>    -6.2975     0.7673     6.7539 </r>
       <r>    -6.1699     0.6111     6.8319 </r>
       <r>    -6.0423     0.3431     6.8757 </r>
       <r>    -5.9147     0.6427     6.9578 </r>
       <r>    -5.7871     0.5903     7.0332 </r>
       <r>    -5.6595     0.7407     7.1277 </r>
       <r>    -5.5319     0.4423     7.1842 </r>
       <r>    -5.4043     0.3618     7.2304 </r>
       <r>    -5.2767     0.4378     7.2862 </r>
       <r>    -5.1491     0.4427     7.3428 </r>
       <r>    -5.0215     0.6494     7.4257 </r>
       <r>    -4.8939     0.4455     7.4825 </r>
       <r>    -4.7663     0.2606     7.5158 </r>
       <r>    -4.6387     0.2879     7.5526 </r>
       <r>    -4.5111     0.5322     7.6205 </r>
       <r>    -4.3835     0.8457     7.7285 </r>
       <r>    -4.2559     0.2703     7.7630 </r>
       <r>    -4.1283     0.1153     7.7777 </r>
       <r>    -4.0007     0.2268     7.8066 </r>
       <r>    -3.8731     0.3212     7.8476 </r>
       <r>    -3.7455     0.2582     7.8806 </r>
       <r>    -3.6179     0.2411     7.9113 </r>
       <r>    -3.4903     0.0172     7.9135 </r>
       <r>    -3.3627     0.0756     7.9232 </r>
       <r>    -3.2350     0.2143     7.9505 </r>
       <r>    -3.1074     0.1573     7.9706 </r>
       <r>    -2.9798     0.0736     7.9800 </r>
       <r>    -2.8522     0.0000     7.9800 </r>
       <r>    -2.7246     0.0735     7.9894 </r>
       <r>    -2.5970     0.0414     7.9947 </r>
       <r>    -2.4694     0.0419     8.0000 </r>
       <r>    -2.3418     0.0000     8.0000 </r>
       <r>    -2.2142     0.0000     8.0000 </r>
       <r>    -2.0866     0.0024     8.0003 </r>
       <r>    -1.9590     0.0660     8.0087 </r>
       <r>    -1.8314     0.0883     8.0200 </r>
       <r>    -1.7038     0.0000     8.0200 </r>
       <r>    -1.5762     0.0617     8.0279 </r>
       <r>    -1.4486     0.1826     8.0512 </r>
       <r>    -1.3210     0.2254     8.0799 </r>
       <r>    -1.1934     0.0634     8.0881 </r>
       <r>    -1.0658     0.0936     8.1000 </r>
       <r>    -0.9382     0.2574     8.1329 </r>
       <r>    -0.8106     0.5965     8.2090 </r>
       <r>    -0.6830     0.3847     8.2582 </r>
       <r>    -0.5554     0.6592     8.3424 </r>
       <r>    -0.4278     0.3961     8.3930 </r>
       <r>    -0.3002     0.4982     8.4566 </r>
       <r>    -0.1726     0.3531     8.5016 </r>
       <r>    -0.0450     0.6004     8.5783 </r>
       <r>     0.0826     0.1463     8.5970 </r>
       <r>     0.2102     0.1949     8.6219 </r>
       <r>     0.3378     0.3478     8.6663 </r>
       <r>     0.4654     0.2772     8.7017 </r>
       <r>     0.5930     0.2744     8.7367 </r>
       <r>     0.7206     0.3431     8.7806 </r>
       <r>     0.8483     0.3347     8.8233 </r>
       <r>     0.9759     0.1202     8.8387 </r>
       <r>     1.1035     0.2886     8.8755 </r>
       <r>     1.2311     0.6509     8.9586 </r>
       <r>     1.3587     0.4280     9.0132 </r>
       <r>     1.4863     0.5309     9.0809 </r>
       <r>     1.6139     0.3204     9.1218 </r>
       <r>     1.7415     0.6208     9.2010 </r>
       <r>     1.8691     0.3508     9.2458 </r>
       <r>     1.9967     0.4983     9.3094 </r>
       <r>     2.1243     0.9309     9.4282 </r>
       <r>     2.2519     0.2900     9.4653 </r>
       <r>     2.3795     0.9591     9.5876 </r>
       <r>     2.5071     0.7323     9.6811 </r>
       <r>     2.6347     1.0622     9.8166 </r>
       <r>     2.7623     0.5130     9.8822 </r>
       <r>     2.8899     0.7703     9.9805 </r>
       <r>     3.0175     1.1649    10.1292 </r>
       <r>     3.1451     1.0236    10.2598 </r>
       <r>     3.2727     0.6450    10.3422 </r>
       <r>     3.4003     0.8229    10.4473 </r>
       <r>     3.5279     0.9578    10.5696 </r>
       <r>     3.6555     0.8295    10.6755 </r>
       <r>     3.7831     0.6095    10.7533 </r>
       <r>     3.9107     1.2574    10.9138 </r>
       <r>     4.0383     0.8770    11.0258 </r>
       <r>     4.1659     0.6929    11.1142 </r>
       <r>     4.2935     0.4796    11.1755 </r>
       <r>     4.4211     1.1259    11.3192 </r>
       <r>     4.5487     1.6935    11.5354 </r>
       <r>     4.6763     1.0767    11.6728 </r>
       <r>     4.8039     1.4138    11.8533 </r>
       <r>     4.9316     1.1691    12.0026 </r>
       <r>     5.0592     1.8606    12.2400 </r>
       <r>     5.1868     1.7136    12.4588 </r>
       <r>     5.3144     1.5711    12.6593 </r>
       <r>     5.4420     1.8040    12.8896 </r>
       <r>     5.5696     1.6405    13.0991 </r>
       <r>     5.6972     1.7455    13.3220 </r>
       <r>     5.8248     2.5486    13.6474 </r>
       <r>     5.9524     2.1729    13.9249 </r>
       <r>     6.0800     2.3179    14.2207 </r>
       <r>     6.2076     1.6306    14.4289 </r>
       <r>     6.3352     2.0715    14.6933 </r>
       <r>     6.4628     2.1411    14.9666 </r>
       <r>     6.5904     1.9039    15.2097 </r>
       <r>     6.7180     1.8578    15.4469 </r>
       <r>     6.8456     1.8735    15.6860 </r>
       <r>     6.9732     1.4743    15.8741 </r>
       <r>     7.1008     1.5497    16.0720 </r>
       <r>     7.2284     1.5620    16.2715 </r>
       <r>     7.3560     2.1281    16.5430 </r>
       <r>     7.4836     1.8083    16.7738 </r>
       <r>     7.6112     1.6705    16.9870 </r>
       <r>     7.7388     1.3972    17.1654 </r>
       <r>     7.8664     1.9472    17.4140 </r>
       <r>     7.9940     1.0627    17.5497 </r>
       <r>     8.1216     1.8307    17.7833 </r>
       <r>     8.2492     2.0215    18.0413 </r>
       <r>     8.3768     2.3393    18.3401 </r>
       <r>     8.5044     2.4702    18.6556 </r>
       <r>     8.6320     1.5394    18.8521 </r>
       <r>     8.7596     1.4070    19.0318 </r>
       <r>     8.8872     1.3051    19.1984 </r>
       <r>     9.0149     1.7639    19.4236 </r>
       <r>     9.1425     1.7426    19.6462 </r>
       <r>     9.2701     1.7633    19.8712 </r>
       <r>     9.3977     1.5819    20.0731 </r>
       <r>     9.5253     1.3420    20.2444 </r>
       <r>     9.6529     1.7425    20.4668 </r>
       <r>     9.7805     1.2152    20.6219 </r>
       <r>     9.9081     1.5618    20.8212 </r>
       <r>    10.0357     1.7397    21.0432 </r>
       <r>    10.1633     1.7354    21.2647 </r>
       <r>    10.2909     1.9600    21.5150 </r>
       <r>    10.4185     2.0061    21.7710 </r>
       <r>    10.5461     1.9548    22.0206 </r>
       <r>    10.6737     1.6724    22.2342 </r>
       <r>    10.8013     1.4092    22.4140 </r>
       <r>    10.9289     1.1377    22.5594 </r>
       <r>    11.0565     1.3610    22.7331 </r>
       <r>    11.1841     1.2690    22.8951 </r>
       <r>    11.3117     1.1307    23.0394 </r>
       <r>    11.4393     1.4644    23.2264 </r>
       <r>    11.5669     1.0526    23.3608 </r>
       <r>    11.6945     1.0932    23.5003 </r>
       <r>    11.8221     1.1602    23.6484 </r>
       <r>    11.9497     0.5033    23.7127 </r>
       <r>    12.0773     0.3623    23.7590 </r>
       <r>    12.2049     0.2723    23.7937 </r>
       <r>    12.3325     0.5680    23.8662 </r>
       <r>    12.4601     0.3655    23.9129 </r>
       <r>    12.5877     0.3054    23.9519 </r>
       <r>    12.7153     0.1678    23.9733 </r>
       <r>    12.8429     0.0522    23.9800 </r>
       <r>    12.9706     0.0033    23.9804 </r>
       <r>    13.0982     0.0491    23.9867 </r>
       <r>    13.2258     0.1044    24.0000 </r>
       <r>    13.3534     0.0000    24.0000 </r>
       <r>    13.4810     0.0000    24.0000 </r>
       <r>    13.6086     0.0000    24.0000 </r>
       <r>    13.7362     0.0000    24.0000 </r>
       <r>    13.8638     0.0000    24.0000 </r>
       <r>    13.9914     0.0000    24.0000 </r>
       <r>    14.1190     0.0000    24.0000 </r>
       <r>    14.2466     0.0000    24.0000 </r>
       <r>    14.3742     0.0000    24.0000 </r>
       <r>    14.5018     0.0000    24.0000 </r>
       <r>    14.6294     0.0000    24.0000 </r>
       <r>    14.7570     0.0000    24.0000 </r>
       <r>    14.8846     0.0000    24.0000 </r>
      </set>
     </set>
    </array>
   </total>
  </dos>
 </calculation>
 <structure name="finalpos" >
  <crystal>
   <varray name="basis" >
    <v>       2.50448900       0.03675100       0.00000000 </v>
    <v>      -1.22041800       2.11874800       0.00000000 </v>
    <v>       0.00000000       0.00000000      15.00000000 </v>
   </varray>
   <i name="volume">     80.26848963 </i>
   <varray name="rec_basis" >
    <v>       0.39593644       0.22806297       0.00000000 </v>
    <v>      -0.00686776       0.46802095       0.00000000 </v>
    <v>       0.00000000       0.00000000       0.06666667 </v>
   </varray>
  </crystal>
  <varray name="positions" >
   <v>       0.99926590       0.99970174       0.50000000 </v>
   <v>       0.33406710       0.66696526       0.50000000 </v>
  </varray>
 </structure>
</modeling>
