<?xml version="1.0" encoding="ISO-8859-1"?>
<modeling>
 <generator>
  <i name="program" type="string">vasp </i>
  <i name="version" type="string">5.4.1  </i>
  <i name="subversion" type="string">24Jun15 (build Nov 20 2020 10:29:34) complex                          parallel </i>
  <i name="platform" type="string">IFC91_ompi </i>
  <i name="date" type="string">2021 09 09 </i>
  <i name="time" type="string">14:53:11 </i>
 </generator>
 <incar>
  <i type="string" name="PREC">a</i>
  <i type="string" name="ALGO"> Normal</i>
  <i type="int" name="ISPIN">     1</i>
  <i type="int" name="ICHARG">     2</i>
  <i type="int" name="NELM">   250</i>
  <i type="int" name="NELMDL">    -5</i>
  <i type="int" name="NELMIN">     6</i>
  <i type="int" name="IBRION">     2</i>
  <i name="EDIFF">      0.00001000</i>
  <i name="EDIFFG">     -0.01000000</i>
  <i type="int" name="NSW">   200</i>
  <i type="int" name="ISIF">     2</i>
  <i name="ENCUT">    520.00000000</i>
  <i name="POTIM">      0.30000000</i>
  <i type="logical" name="LREAL"> F  </i>
  <i type="int" name="ISMEAR">     0</i>
  <i name="SIGMA">      0.02000000</i>
  <i type="logical" name="LWAVE"> F  </i>
  <i type="logical" name="LCHARG"> F  </i>
  <i type="logical" name="LAECHG"> F  </i>
  <v type="int" name="KPOINT_BSE">    -1     0     0     0</v>
  <i type="int" name="NELM">   250</i>
 </incar>
 <kpoints>
  <generation param="Gamma">
   <v type="int" name="divisions">      21       15        1 </v>
   <v name="usershift">      0.00000000       0.00000000       0.00000000 </v>
   <v name="genvec1">      0.04761905       0.00000000       0.00000000 </v>
   <v name="genvec2">      0.00000000       0.06666667       0.00000000 </v>
   <v name="genvec3">      0.00000000       0.00000000       1.00000000 </v>
   <v name="shift">      0.00000000       0.00000000       0.00000000 </v>
  </generation>
  <varray name="kpointlist" >
   <v>       0.00000000       0.00000000       0.00000000 </v>
   <v>       0.04761905       0.00000000       0.00000000 </v>
   <v>       0.09523810       0.00000000       0.00000000 </v>
   <v>       0.14285714       0.00000000       0.00000000 </v>
   <v>       0.19047619       0.00000000       0.00000000 </v>
   <v>       0.23809524       0.00000000       0.00000000 </v>
   <v>       0.28571429       0.00000000       0.00000000 </v>
   <v>       0.33333333       0.00000000       0.00000000 </v>
   <v>       0.38095238       0.00000000       0.00000000 </v>
   <v>       0.42857143       0.00000000       0.00000000 </v>
   <v>       0.47619048       0.00000000       0.00000000 </v>
   <v>       0.00000000       0.06666667       0.00000000 </v>
   <v>       0.04761905       0.06666667       0.00000000 </v>
   <v>       0.09523810       0.06666667       0.00000000 </v>
   <v>       0.14285714       0.06666667       0.00000000 </v>
   <v>       0.19047619       0.06666667       0.00000000 </v>
   <v>       0.23809524       0.06666667       0.00000000 </v>
   <v>       0.28571429       0.06666667       0.00000000 </v>
   <v>       0.33333333       0.06666667       0.00000000 </v>
   <v>       0.38095238       0.06666667       0.00000000 </v>
   <v>       0.42857143       0.06666667       0.00000000 </v>
   <v>       0.47619048       0.06666667       0.00000000 </v>
   <v>      -0.47619048       0.06666667       0.00000000 </v>
   <v>      -0.42857143       0.06666667       0.00000000 </v>
   <v>      -0.38095238       0.06666667       0.00000000 </v>
   <v>      -0.33333333       0.06666667       0.00000000 </v>
   <v>      -0.28571429       0.06666667       0.00000000 </v>
   <v>      -0.23809524       0.06666667       0.00000000 </v>
   <v>      -0.19047619       0.06666667       0.00000000 </v>
   <v>      -0.14285714       0.06666667       0.00000000 </v>
   <v>      -0.09523810       0.06666667       0.00000000 </v>
   <v>      -0.04761905       0.06666667       0.00000000 </v>
   <v>       0.00000000       0.13333333       0.00000000 </v>
   <v>       0.04761905       0.13333333       0.00000000 </v>
   <v>       0.09523810       0.13333333       0.00000000 </v>
   <v>       0.14285714       0.13333333       0.00000000 </v>
   <v>       0.19047619       0.13333333       0.00000000 </v>
   <v>       0.23809524       0.13333333       0.00000000 </v>
   <v>       0.28571429       0.13333333       0.00000000 </v>
   <v>       0.33333333       0.13333333       0.00000000 </v>
   <v>       0.38095238       0.13333333       0.00000000 </v>
   <v>       0.42857143       0.13333333       0.00000000 </v>
   <v>       0.47619048       0.13333333       0.00000000 </v>
   <v>      -0.47619048       0.13333333       0.00000000 </v>
   <v>      -0.42857143       0.13333333       0.00000000 </v>
   <v>      -0.38095238       0.13333333       0.00000000 </v>
   <v>      -0.33333333       0.13333333       0.00000000 </v>
   <v>      -0.28571429       0.13333333       0.00000000 </v>
   <v>      -0.23809524       0.13333333       0.00000000 </v>
   <v>      -0.19047619       0.13333333       0.00000000 </v>
   <v>      -0.14285714       0.13333333       0.00000000 </v>
   <v>      -0.09523810       0.13333333       0.00000000 </v>
   <v>      -0.04761905       0.13333333       0.00000000 </v>
   <v>       0.00000000       0.20000000       0.00000000 </v>
   <v>       0.04761905       0.20000000       0.00000000 </v>
   <v>       0.09523810       0.20000000       0.00000000 </v>
   <v>       0.14285714       0.20000000       0.00000000 </v>
   <v>       0.19047619       0.20000000       0.00000000 </v>
   <v>       0.23809524       0.20000000       0.00000000 </v>
   <v>       0.28571429       0.20000000       0.00000000 </v>
   <v>       0.33333333       0.20000000       0.00000000 </v>
   <v>       0.38095238       0.20000000       0.00000000 </v>
   <v>       0.42857143       0.20000000       0.00000000 </v>
   <v>       0.47619048       0.20000000       0.00000000 </v>
   <v>      -0.47619048       0.20000000       0.00000000 </v>
   <v>      -0.42857143       0.20000000       0.00000000 </v>
   <v>      -0.38095238       0.20000000       0.00000000 </v>
   <v>      -0.33333333       0.20000000       0.00000000 </v>
   <v>      -0.28571429       0.20000000       0.00000000 </v>
   <v>      -0.23809524       0.20000000       0.00000000 </v>
   <v>      -0.19047619       0.20000000       0.00000000 </v>
   <v>      -0.14285714       0.20000000       0.00000000 </v>
   <v>      -0.09523810       0.20000000       0.00000000 </v>
   <v>      -0.04761905       0.20000000       0.00000000 </v>
   <v>       0.00000000       0.26666667       0.00000000 </v>
   <v>       0.04761905       0.26666667       0.00000000 </v>
   <v>       0.09523810       0.26666667       0.00000000 </v>
   <v>       0.14285714       0.26666667       0.00000000 </v>
   <v>       0.19047619       0.26666667       0.00000000 </v>
   <v>       0.23809524       0.26666667       0.00000000 </v>
   <v>       0.28571429       0.26666667       0.00000000 </v>
   <v>       0.33333333       0.26666667       0.00000000 </v>
   <v>       0.38095238       0.26666667       0.00000000 </v>
   <v>       0.42857143       0.26666667       0.00000000 </v>
   <v>       0.47619048       0.26666667       0.00000000 </v>
   <v>      -0.47619048       0.26666667       0.00000000 </v>
   <v>      -0.42857143       0.26666667       0.00000000 </v>
   <v>      -0.38095238       0.26666667       0.00000000 </v>
   <v>      -0.33333333       0.26666667       0.00000000 </v>
   <v>      -0.28571429       0.26666667       0.00000000 </v>
   <v>      -0.23809524       0.26666667       0.00000000 </v>
   <v>      -0.19047619       0.26666667       0.00000000 </v>
   <v>      -0.14285714       0.26666667       0.00000000 </v>
   <v>      -0.09523810       0.26666667       0.00000000 </v>
   <v>      -0.04761905       0.26666667       0.00000000 </v>
   <v>       0.00000000       0.33333333       0.00000000 </v>
   <v>       0.04761905       0.33333333       0.00000000 </v>
   <v>       0.09523810       0.33333333       0.00000000 </v>
   <v>       0.14285714       0.33333333       0.00000000 </v>
   <v>       0.19047619       0.33333333       0.00000000 </v>
   <v>       0.23809524       0.33333333       0.00000000 </v>
   <v>       0.28571429       0.33333333       0.00000000 </v>
   <v>       0.33333333       0.33333333       0.00000000 </v>
   <v>       0.38095238       0.33333333       0.00000000 </v>
   <v>       0.42857143       0.33333333       0.00000000 </v>
   <v>       0.47619048       0.33333333       0.00000000 </v>
   <v>      -0.47619048       0.33333333       0.00000000 </v>
   <v>      -0.42857143       0.33333333       0.00000000 </v>
   <v>      -0.38095238       0.33333333       0.00000000 </v>
   <v>      -0.33333333       0.33333333       0.00000000 </v>
   <v>      -0.28571429       0.33333333       0.00000000 </v>
   <v>      -0.23809524       0.33333333       0.00000000 </v>
   <v>      -0.19047619       0.33333333       0.00000000 </v>
   <v>      -0.14285714       0.33333333       0.00000000 </v>
   <v>      -0.09523810       0.33333333       0.00000000 </v>
   <v>      -0.04761905       0.33333333       0.00000000 </v>
   <v>       0.00000000       0.40000000       0.00000000 </v>
   <v>       0.04761905       0.40000000       0.00000000 </v>
   <v>       0.09523810       0.40000000       0.00000000 </v>
   <v>       0.14285714       0.40000000       0.00000000 </v>
   <v>       0.19047619       0.40000000       0.00000000 </v>
   <v>       0.23809524       0.40000000       0.00000000 </v>
   <v>       0.28571429       0.40000000       0.00000000 </v>
   <v>       0.33333333       0.40000000       0.00000000 </v>
   <v>       0.38095238       0.40000000       0.00000000 </v>
   <v>       0.42857143       0.40000000       0.00000000 </v>
   <v>       0.47619048       0.40000000       0.00000000 </v>
   <v>      -0.47619048       0.40000000       0.00000000 </v>
   <v>      -0.42857143       0.40000000       0.00000000 </v>
   <v>      -0.38095238       0.40000000       0.00000000 </v>
   <v>      -0.33333333       0.40000000       0.00000000 </v>
   <v>      -0.28571429       0.40000000       0.00000000 </v>
   <v>      -0.23809524       0.40000000       0.00000000 </v>
   <v>      -0.19047619       0.40000000       0.00000000 </v>
   <v>      -0.14285714       0.40000000       0.00000000 </v>
   <v>      -0.09523810       0.40000000       0.00000000 </v>
   <v>      -0.04761905       0.40000000       0.00000000 </v>
   <v>       0.00000000       0.46666667       0.00000000 </v>
   <v>       0.04761905       0.46666667       0.00000000 </v>
   <v>       0.09523810       0.46666667       0.00000000 </v>
   <v>       0.14285714       0.46666667       0.00000000 </v>
   <v>       0.19047619       0.46666667       0.00000000 </v>
   <v>       0.23809524       0.46666667       0.00000000 </v>
   <v>       0.28571429       0.46666667       0.00000000 </v>
   <v>       0.33333333       0.46666667       0.00000000 </v>
   <v>       0.38095238       0.46666667       0.00000000 </v>
   <v>       0.42857143       0.46666667       0.00000000 </v>
   <v>       0.47619048       0.46666667       0.00000000 </v>
   <v>      -0.47619048       0.46666667       0.00000000 </v>
   <v>      -0.42857143       0.46666667       0.00000000 </v>
   <v>      -0.38095238       0.46666667       0.00000000 </v>
   <v>      -0.33333333       0.46666667       0.00000000 </v>
   <v>      -0.28571429       0.46666667       0.00000000 </v>
   <v>      -0.23809524       0.46666667       0.00000000 </v>
   <v>      -0.19047619       0.46666667       0.00000000 </v>
   <v>      -0.14285714       0.46666667       0.00000000 </v>
   <v>      -0.09523810       0.46666667       0.00000000 </v>
   <v>      -0.04761905       0.46666667       0.00000000 </v>
  </varray>
  <varray name="weights" >
   <v>       0.00317460 </v>
   <v>       0.00634921 </v>
   <v>       0.00634921 </v>
   <v>       0.00634921 </v>
   <v>       0.00634921 </v>
   <v>       0.00634921 </v>
   <v>       0.00634921 </v>
   <v>       0.00634921 </v>
   <v>       0.00634921 </v>
   <v>       0.00634921 </v>
   <v>       0.00634921 </v>
   <v>       0.00634921 </v>
   <v>       0.00634921 </v>
   <v>       0.00634921 </v>
   <v>       0.00634921 </v>
   <v>       0.00634921 </v>
   <v>       0.00634921 </v>
   <v>       0.00634921 </v>
   <v>       0.00634921 </v>
   <v>       0.00634921 </v>
   <v>       0.00634921 </v>
   <v>       0.00634921 </v>
   <v>       0.00634921 </v>
   <v>       0.00634921 </v>
   <v>       0.00634921 </v>
   <v>       0.00634921 </v>
   <v>       0.00634921 </v>
   <v>       0.00634921 </v>
   <v>       0.00634921 </v>
   <v>       0.00634921 </v>
   <v>       0.00634921 </v>
   <v>       0.00634921 </v>
   <v>       0.00634921 </v>
   <v>       0.00634921 </v>
   <v>       0.00634921 </v>
   <v>       0.00634921 </v>
   <v>       0.00634921 </v>
   <v>       0.00634921 </v>
   <v>       0.00634921 </v>
   <v>       0.00634921 </v>
   <v>       0.00634921 </v>
   <v>       0.00634921 </v>
   <v>       0.00634921 </v>
   <v>       0.00634921 </v>
   <v>       0.00634921 </v>
   <v>       0.00634921 </v>
   <v>       0.00634921 </v>
   <v>       0.00634921 </v>
   <v>       0.00634921 </v>
   <v>       0.00634921 </v>
   <v>       0.00634921 </v>
   <v>       0.00634921 </v>
   <v>       0.00634921 </v>
   <v>       0.00634921 </v>
   <v>       0.00634921 </v>
   <v>       0.00634921 </v>
   <v>       0.00634921 </v>
   <v>       0.00634921 </v>
   <v>       0.00634921 </v>
   <v>       0.00634921 </v>
   <v>       0.00634921 </v>
   <v>       0.00634921 </v>
   <v>       0.00634921 </v>
   <v>       0.00634921 </v>
   <v>       0.00634921 </v>
   <v>       0.00634921 </v>
   <v>       0.00634921 </v>
   <v>       0.00634921 </v>
   <v>       0.00634921 </v>
   <v>       0.00634921 </v>
   <v>       0.00634921 </v>
   <v>       0.00634921 </v>
   <v>       0.00634921 </v>
   <v>       0.00634921 </v>
   <v>       0.00634921 </v>
   <v>       0.00634921 </v>
   <v>       0.00634921 </v>
   <v>       0.00634921 </v>
   <v>       0.00634921 </v>
   <v>       0.00634921 </v>
   <v>       0.00634921 </v>
   <v>       0.00634921 </v>
   <v>       0.00634921 </v>
   <v>       0.00634921 </v>
   <v>       0.00634921 </v>
   <v>       0.00634921 </v>
   <v>       0.00634921 </v>
   <v>       0.00634921 </v>
   <v>       0.00634921 </v>
   <v>       0.00634921 </v>
   <v>       0.00634921 </v>
   <v>       0.00634921 </v>
   <v>       0.00634921 </v>
   <v>       0.00634921 </v>
   <v>       0.00634921 </v>
   <v>       0.00634921 </v>
   <v>       0.00634921 </v>
   <v>       0.00634921 </v>
   <v>       0.00634921 </v>
   <v>       0.00634921 </v>
   <v>       0.00634921 </v>
   <v>       0.00634921 </v>
   <v>       0.00634921 </v>
   <v>       0.00634921 </v>
   <v>       0.00634921 </v>
   <v>       0.00634921 </v>
   <v>       0.00634921 </v>
   <v>       0.00634921 </v>
   <v>       0.00634921 </v>
   <v>       0.00634921 </v>
   <v>       0.00634921 </v>
   <v>       0.00634921 </v>
   <v>       0.00634921 </v>
   <v>       0.00634921 </v>
   <v>       0.00634921 </v>
   <v>       0.00634921 </v>
   <v>       0.00634921 </v>
   <v>       0.00634921 </v>
   <v>       0.00634921 </v>
   <v>       0.00634921 </v>
   <v>       0.00634921 </v>
   <v>       0.00634921 </v>
   <v>       0.00634921 </v>
   <v>       0.00634921 </v>
   <v>       0.00634921 </v>
   <v>       0.00634921 </v>
   <v>       0.00634921 </v>
   <v>       0.00634921 </v>
   <v>       0.00634921 </v>
   <v>       0.00634921 </v>
   <v>       0.00634921 </v>
   <v>       0.00634921 </v>
   <v>       0.00634921 </v>
   <v>       0.00634921 </v>
   <v>       0.00634921 </v>
   <v>       0.00634921 </v>
   <v>       0.00634921 </v>
   <v>       0.00634921 </v>
   <v>       0.00634921 </v>
   <v>       0.00634921 </v>
   <v>       0.00634921 </v>
   <v>       0.00634921 </v>
   <v>       0.00634921 </v>
   <v>       0.00634921 </v>
   <v>       0.00634921 </v>
   <v>       0.00634921 </v>
   <v>       0.00634921 </v>
   <v>       0.00634921 </v>
   <v>       0.00634921 </v>
   <v>       0.00634921 </v>
   <v>       0.00634921 </v>
   <v>       0.00634921 </v>
   <v>       0.00634921 </v>
   <v>       0.00634921 </v>
   <v>       0.00634921 </v>
   <v>       0.00634921 </v>
   <v>       0.00634921 </v>
   <v>       0.00634921 </v>
  </varray>
 </kpoints>
 <parameters>
  <separator name="general" >
   <i type="string" name="SYSTEM">unknown system</i>
   <i type="logical" name="LCOMPAT"> F  </i>
  </separator>
  <separator name="electronic" >
   <i type="string" name="PREC">a</i>
   <i name="ENMAX">    520.00000000</i>
   <i name="ENAUG">    342.92400000</i>
   <i name="EDIFF">      0.00001000</i>
   <i type="int" name="IALGO">    38</i>
   <i type="int" name="IWAVPR">    11</i>
   <i type="int" name="NBANDS">    16</i>
   <i name="NELECT">     20.00000000</i>
   <i type="int" name="TURBO">     0</i>
   <i type="int" name="IRESTART">     0</i>
   <i type="int" name="NREBOOT">     0</i>
   <i type="int" name="NMIN">     0</i>
   <i name="EREF">      0.00000000</i>
   <separator name="electronic smearing" >
    <i type="int" name="ISMEAR">     0</i>
    <i name="SIGMA">      0.02000000</i>
    <i name="KSPACING">      0.50000000</i>
    <i type="logical" name="KGAMMA"> T  </i>
   </separator>
   <separator name="electronic projectors" >
    <i type="logical" name="LREAL"> F  </i>
    <v name="ROPT">      0.00000000</v>
    <i type="int" name="LMAXPAW">  -100</i>
    <i type="int" name="LMAXMIX">     2</i>
    <i type="logical" name="NLSPLINE"> F  </i>
   </separator>
   <separator name="electronic startup" >
    <i type="int" name="ISTART">     0</i>
    <i type="int" name="ICHARG">     2</i>
    <i type="int" name="INIWAV">     1</i>
   </separator>
   <separator name="electronic spin" >
    <i type="int" name="ISPIN">     1</i>
    <i type="logical" name="LNONCOLLINEAR"> F  </i>
    <v name="MAGMOM">      1.00000000      1.00000000      1.00000000      1.00000000</v>
    <i name="NUPDOWN">     -1.00000000</i>
    <i type="logical" name="LSORBIT"> F  </i>
    <v name="SAXIS">      0.00000000      0.00000000      1.00000000</v>
    <i type="logical" name="LSPIRAL"> F  </i>
    <v name="QSPIRAL">      0.00000000      0.00000000      0.00000000</v>
    <i type="logical" name="LZEROZ"> F  </i>
   </separator>
   <separator name="electronic exchange-correlation" >
    <i type="logical" name="LASPH"> F  </i>
    <i type="logical" name="LMETAGGA"> F  </i>
   </separator>
   <separator name="electronic convergence" >
    <i type="int" name="NELM">   250</i>
    <i type="int" name="NELMDL">    -5</i>
    <i type="int" name="NELMIN">     6</i>
    <i name="ENINI">    520.00000000</i>
    <separator name="electronic convergence detail" >
     <i type="logical" name="LDIAG"> T  </i>
     <i type="logical" name="LSUBROT"> F  </i>
     <i name="WEIMIN">      0.00100000</i>
     <i name="EBREAK">      0.00000016</i>
     <i name="DEPER">      0.30000000</i>
     <i type="int" name="NRMM">     4</i>
     <i name="TIME">      0.40000000</i>
    </separator>
   </separator>
   <separator name="electronic mixer" >
    <i name="AMIX">      0.40000000</i>
    <i name="BMIX">      1.00000000</i>
    <i name="AMIN">      0.10000000</i>
    <i name="AMIX_MAG">      1.60000000</i>
    <i name="BMIX_MAG">      1.00000000</i>
    <separator name="electronic mixer details" >
     <i type="int" name="IMIX">     4</i>
     <i type="logical" name="MIXFIRST"> F  </i>
     <i type="int" name="MAXMIX">   -45</i>
     <i name="WC">    100.00000000</i>
     <i type="int" name="INIMIX">     1</i>
     <i type="int" name="MIXPRE">     1</i>
     <i type="int" name="MREMOVE">     5</i>
    </separator>
   </separator>
   <separator name="electronic dipolcorrection" >
    <i type="logical" name="LDIPOL"> F  </i>
    <i type="logical" name="LMONO"> F  </i>
    <i type="int" name="IDIPOL">     0</i>
    <i name="EPSILON">      1.00000000</i>
    <v name="DIPOL">   -100.00000000   -100.00000000   -100.00000000</v>
    <i name="EFIELD">      0.00000000</i>
   </separator>
  </separator>
  <separator name="grids" >
   <i type="int" name="NGX">    28</i>
   <i type="int" name="NGY">    36</i>
   <i type="int" name="NGZ">   150</i>
   <i type="int" name="NGXF">    56</i>
   <i type="int" name="NGYF">    72</i>
   <i type="int" name="NGZF">   300</i>
   <i type="logical" name="ADDGRID"> F  </i>
  </separator>
  <separator name="ionic" >
   <i type="int" name="NSW">   200</i>
   <i type="int" name="IBRION">     2</i>
   <i type="int" name="ISIF">     2</i>
   <i name="PSTRESS">      0.00000000</i>
   <i name="EDIFFG">     -0.01000000</i>
   <i type="int" name="NFREE">     1</i>
   <i name="POTIM">      0.30000000</i>
   <i name="SMASS">     -3.00000000</i>
   <i name="SCALEE">      1.00000000</i>
  </separator>
  <separator name="ionic md" >
   <i name="TEBEG">      0.00010000</i>
   <i name="TEEND">      0.00010000</i>
   <i type="int" name="NBLOCK">     1</i>
   <i type="int" name="KBLOCK">   200</i>
   <i type="int" name="NPACO">   256</i>
   <i name="APACO">     16.00000000</i>
  </separator>
  <separator name="symmetry" >
   <i type="int" name="ISYM">     2</i>
   <i name="SYMPREC">      0.00001000</i>
  </separator>
  <separator name="dos" >
   <i type="logical" name="LORBIT"> F  </i>
   <v name="RWIGS">     -1.00000000</v>
   <i type="int" name="NEDOS">   301</i>
   <i name="EMIN">     10.00000000</i>
   <i name="EMAX">    -10.00000000</i>
   <i name="EFERMI">      0.00000000</i>
  </separator>
  <separator name="writing" >
   <i type="int" name="NWRITE">     2</i>
   <i type="logical" name="LWAVE"> F  </i>
   <i type="logical" name="LCHARG"> F  </i>
   <i type="logical" name="LPARD"> F  </i>
   <i type="logical" name="LVTOT"> F  </i>
   <i type="logical" name="LVHAR"> F  </i>
   <i type="logical" name="LELF"> F  </i>
   <i type="logical" name="LOPTICS"> F  </i>
   <v name="STM">      0.00000000      0.00000000      0.00000000      0.00000000      0.00000000      0.00000000      0.00000000</v>
  </separator>
  <separator name="performance" >
   <i type="int" name="NPAR">     4</i>
   <i type="int" name="NSIM">     4</i>
   <i type="int" name="NBLK">    -1</i>
   <i type="logical" name="LPLANE"> T  </i>
   <i type="logical" name="LSCALAPACK"> T  </i>
   <i type="logical" name="LSCAAWARE"> F  </i>
   <i type="logical" name="LSCALU"> F  </i>
   <i type="logical" name="LASYNC"> F  </i>
   <i type="logical" name="LORBITALREAL"> F  </i>
  </separator>
  <separator name="miscellaneous" >
   <i type="int" name="IDIOT">     3</i>
   <i type="logical" name="LMUSIC"> F  </i>
   <v name="POMASS">     30.97400000</v>
   <v name="DARWINR">      0.00000000</v>
   <v name="DARWINV">      1.00000000</v>
   <i type="logical" name="LCORR"> T  </i>
  </separator>
  <i type="logical" name="GGA_COMPAT"> T  </i>
  <i type="logical" name="LBERRY"> F  </i>
  <i type="int" name="ICORELEVEL">     0</i>
  <i type="logical" name="LDAU"> F  </i>
  <i type="int" name="I_CONSTRAINED_M">     0</i>
  <separator name="electronic exchange-correlation" >
   <i type="string" name="GGA">--</i>
   <i type="int" name="VOSKOWN">     0</i>
   <i type="logical" name="LHFCALC"> F  </i>
   <i type="string" name="PRECFOCK"></i>
   <i type="logical" name="LSYMGRAD"> F  </i>
   <i type="logical" name="LHFONE"> F  </i>
   <i type="logical" name="LRHFCALC"> F  </i>
   <i type="logical" name="LTHOMAS"> F  </i>
   <i type="logical" name="LMODELHF"> F  </i>
   <i name="ENCUT4O">     -1.00000000</i>
   <i type="int" name="EXXOEP">     0</i>
   <i type="int" name="FOURORBIT">     0</i>
   <i name="AEXX">      0.00000000</i>
   <i name="HFALPHA">      0.00000000</i>
   <i name="MCALPHA">      0.00000000</i>
   <i name="ALDAX">      1.00000000</i>
   <i name="AGGAX">      1.00000000</i>
   <i name="ALDAC">      1.00000000</i>
   <i name="AGGAC">      1.00000000</i>
   <i type="int" name="NKREDX">     1</i>
   <i type="int" name="NKREDY">     1</i>
   <i type="int" name="NKREDZ">     1</i>
   <i type="logical" name="SHIFTRED"> F  </i>
   <i type="logical" name="ODDONLY"> F  </i>
   <i type="logical" name="EVENONLY"> F  </i>
   <i type="int" name="LMAXFOCK">     0</i>
   <i type="int" name="NMAXFOCKAE">     0</i>
   <i type="logical" name="LFOCKAEDFT"> F  </i>
   <i name="HFSCREEN">      0.00000000</i>
   <i name="HFSCREENC">      0.00000000</i>
   <i type="int" name="NBANDSGWLOW">     0</i>
  </separator>
  <separator name="vdW DFT" >
   <i type="logical" name="LUSE_VDW"> F  </i>
   <i name="Zab_VDW">     -0.84910000</i>
   <i name="PARAM1">      0.12340000</i>
   <i name="PARAM2">      1.00000000</i>
   <i name="PARAM3">      0.00000000</i>
  </separator>
  <separator name="model GW" >
   <i type="int" name="MODEL_GW">     0</i>
   <i name="MODEL_EPS0">     45.55864722</i>
   <i name="MODEL_ALPHA">      1.00000000</i>
  </separator>
  <separator name="linear response parameters" >
   <i type="logical" name="LEPSILON"> F  </i>
   <i type="logical" name="LRPA"> F  </i>
   <i type="logical" name="LNABLA"> F  </i>
   <i type="logical" name="LVEL"> F  </i>
   <i type="int" name="KINTER">     0</i>
   <i name="CSHIFT">      0.10000000</i>
   <i name="OMEGAMAX">     -1.00000000</i>
   <i name="DEG_THRESHOLD">      0.00200000</i>
  </separator>
  <separator name="orbital magnetization" >
   <i type="logical" name="NUCIND"> F  </i>
   <v name="MAGPOS">      0.00000000      0.00000000      0.00000000</v>
   <i type="logical" name="LNICSALL"> T  </i>
   <i type="logical" name="ORBITALMAG"> F  </i>
   <i type="logical" name="LMAGBLOCH"> F  </i>
   <i type="logical" name="LCHIMAG"> F  </i>
   <i type="logical" name="LGAUGE"> T  </i>
   <i type="int" name="MAGATOM">     0</i>
   <v name="MAGDIPOL">      0.00000000      0.00000000      0.00000000</v>
   <v name="AVECCONST">      0.00000000      0.00000000      0.00000000</v>
  </separator>
  <separator name="response functions" >
   <i type="logical" name="LADDER"> F  </i>
   <i type="logical" name="LFXC"> F  </i>
   <i type="logical" name="LHARTREE"> T  </i>
   <i type="int" name="IBSE">     0</i>
   <v type="int" name="KPOINT">    -1     0     0     0</v>
   <i type="logical" name="LTCTE"> F  </i>
   <i type="logical" name="LTETE"> F  </i>
   <i type="logical" name="LTRIPLET"> F  </i>
   <i type="logical" name="LFXCEPS"> F  </i>
   <i type="logical" name="LFXHEG"> F  </i>
   <i type="int" name="NATURALO">     0</i>
   <i type="logical" name="L2ORDER"> F  </i>
   <i type="logical" name="LUSEW"> F  </i>
   <i name="ENCUTGW">     -2.00000000</i>
   <i name="ENCUTGWSOFT">     -2.00000000</i>
   <i name="ENCUTLF">     -1.00000000</i>
   <i type="int" name="LMAXMP2">    -1</i>
   <i name="SCISSOR">      0.00000000</i>
   <i type="int" name="NOMEGA">     0</i>
   <i type="int" name="NOMEGAR">     0</i>
   <i type="int" name="NBANDSGW">    -1</i>
   <i type="int" name="NBANDSO">    -1</i>
   <i type="int" name="NBANDSV">    -1</i>
   <i type="int" name="NELM">   250</i>
   <i type="int" name="NELMHF">     1</i>
   <i type="int" name="DIM">     3</i>
   <i type="int" name="ANTIRES">     0</i>
   <i name="OMEGAMAX">    -30.00000000</i>
   <i name="OMEGAMIN">    -30.00000000</i>
   <i name="OMEGATL">   -200.00000000</i>
   <i type="int" name="OMEGAGRID">     0</i>
   <i name="CSHIFT">     -0.10000000</i>
   <i type="logical" name="SELFENERGY"> F  </i>
   <i type="logical" name="LSPECTRAL"> F  </i>
   <i type="logical" name="LSPECTRALGW"> F  </i>
   <i type="logical" name="LSINGLES"> F  </i>
   <i type="logical" name="LFERMIGW"> F  </i>
   <i type="logical" name="ODDONLYGW"> F  </i>
   <i type="logical" name="EVENONLYGW"> F  </i>
   <i type="int" name="NKREDLFX">     1</i>
   <i type="int" name="NKREDLFY">     1</i>
   <i type="int" name="NKREDLFZ">     1</i>
   <i type="int" name="MAXMEM">  1800</i>
   <i type="int" name="TELESCOPE">     0</i>
   <i type="int" name="TAUPAR">     1</i>
   <i type="int" name="OMEGAPAR">    -1</i>
   <i name="LAMBDA">      1.00000000</i>
  </separator>
  <separator name="External order field" >
   <i name="OFIELD_KAPPA">      0.00000000</i>
   <v name="OFIELD_K">      0.00000000      0.00000000      0.00000000</v>
   <i name="OFIELD_Q6_NEAR">      0.00000000</i>
   <i name="OFIELD_Q6_FAR">      0.00000000</i>
   <i name="OFIELD_A">      0.00000000</i>
  </separator>
 </parameters>
 <atominfo>
  <atoms>       4 </atoms>
  <types>       1 </types>
  <array name="atoms" >
   <dimension dim="1">ion</dimension>
   <field type="string">element</field>
   <field type="int">atomtype</field>
   <set>
    <rc><c>P </c><c>   1</c></rc>
    <rc><c>P </c><c>   1</c></rc>
    <rc><c>P </c><c>   1</c></rc>
    <rc><c>P </c><c>   1</c></rc>
   </set>
  </array>
  <array name="atomtypes" >
   <dimension dim="1">type</dimension>
   <field type="int">atomspertype</field>
   <field type="string">element</field>
   <field>mass</field>
   <field>valence</field>
   <field type="string">pseudopotential</field>
   <set>
    <rc><c>   4</c><c>P </c><c>     30.97400000</c><c>      5.00000000</c><c>  PAW_PBE P 06Sep2000                   </c></rc>
   </set>
  </array>
 </atominfo>
 <structure name="initialpos" >
  <crystal>
   <varray name="basis" >
    <v>       3.29720400       0.00000000       0.00000000 </v>
    <v>       0.00000000       4.60017600      -0.00005300 </v>
    <v>       0.00000000       0.00000000      20.02439000 </v>
   </varray>
   <i name="volume">    303.72431482 </i>
   <varray name="rec_basis" >
    <v>       0.30328727       0.00000000       0.00000000 </v>
    <v>       0.00000000       0.21738299       0.00000000 </v>
    <v>       0.00000000       0.00000058       0.04993910 </v>
   </varray>
  </crystal>
  <varray name="positions" >
   <v>       0.50000000       0.91077300       0.55252100 </v>
   <v>       0.50000000       0.08922700       0.44747900 </v>
   <v>       0.00000000       0.41076900       0.44747900 </v>
   <v>       0.00000000       0.58923100       0.55252100 </v>
  </varray>
 </structure>
 <calculation>
  <scstep>
   <time name="dav">    1.49    1.50</time>
   <time name="total">    1.52    1.53</time>
   <energy>
    <i name="alphaZ">      5.28163523 </i>
    <i name="ewald">   1874.78163158 </i>
    <i name="hartreedc">  -2468.46883785 </i>
    <i name="XCdc">     13.07258020 </i>
    <i name="pawpsdc">    559.04011960 </i>
    <i name="pawaedc">   -526.39432044 </i>
    <i name="eentropy">     -0.00045961 </i>
    <i name="bandstr">    -28.10665706 </i>
    <i name="atom">    704.16778566 </i>
    <i name="e_fr_energy">    133.37347730 </i>
    <i name="e_wo_entrp">    133.37393691 </i>
    <i name="e_0_energy">    133.37370711 </i>
   </energy>
  </scstep>
  <scstep>
   <time name="dav">    2.01    2.01</time>
   <time name="total">    2.01    2.01</time>
   <energy>
    <i name="e_fr_energy">     -6.41966521 </i>
    <i name="e_wo_entrp">     -6.41966521 </i>
    <i name="e_0_energy">     -6.41966521 </i>
   </energy>
  </scstep>
  <scstep>
   <time name="dav">    1.84    1.84</time>
   <time name="total">    1.84    1.84</time>
   <energy>
    <i name="e_fr_energy">    -21.35574629 </i>
    <i name="e_wo_entrp">    -21.35574629 </i>
    <i name="e_0_energy">    -21.35574629 </i>
   </energy>
  </scstep>
  <scstep>
   <time name="dav">    1.87    1.87</time>
   <time name="total">    1.87    1.87</time>
   <energy>
    <i name="e_fr_energy">    -21.66234912 </i>
    <i name="e_wo_entrp">    -21.66234912 </i>
    <i name="e_0_energy">    -21.66234912 </i>
   </energy>
  </scstep>
  <scstep>
   <time name="dav">    2.00    2.00</time>
   <time name="total">    2.10    2.10</time>
   <energy>
    <i name="e_fr_energy">    -21.67163928 </i>
    <i name="e_wo_entrp">    -21.67163928 </i>
    <i name="e_0_energy">    -21.67163928 </i>
   </energy>
  </scstep>
  <scstep>
   <time name="dav">    1.80    1.80</time>
   <time name="total">    1.91    1.92</time>
   <energy>
    <i name="e_fr_energy">    -21.52575311 </i>
    <i name="e_wo_entrp">    -21.52575311 </i>
    <i name="e_0_energy">    -21.52575311 </i>
   </energy>
  </scstep>
  <scstep>
   <time name="dav">    1.73    1.73</time>
   <time name="total">    1.84    1.85</time>
   <energy>
    <i name="e_fr_energy">    -21.45678755 </i>
    <i name="e_wo_entrp">    -21.45678755 </i>
    <i name="e_0_energy">    -21.45678755 </i>
   </energy>
  </scstep>
  <scstep>
   <time name="dav">    1.81    1.81</time>
   <time name="total">    1.92    1.92</time>
   <energy>
    <i name="e_fr_energy">    -21.45607941 </i>
    <i name="e_wo_entrp">    -21.45607941 </i>
    <i name="e_0_energy">    -21.45607941 </i>
   </energy>
  </scstep>
  <scstep>
   <time name="dav">    2.12    2.12</time>
   <time name="total">    2.23    2.23</time>
   <energy>
    <i name="e_fr_energy">    -21.45592791 </i>
    <i name="e_wo_entrp">    -21.45592791 </i>
    <i name="e_0_energy">    -21.45592791 </i>
   </energy>
  </scstep>
  <scstep>
   <time name="dav">    1.82    1.82</time>
   <time name="total">    1.93    1.93</time>
   <energy>
    <i name="e_fr_energy">    -21.45575206 </i>
    <i name="e_wo_entrp">    -21.45575206 </i>
    <i name="e_0_energy">    -21.45575206 </i>
   </energy>
  </scstep>
  <scstep>
   <time name="dav">    1.81    1.81</time>
   <time name="total">    1.92    1.92</time>
   <energy>
    <i name="e_fr_energy">    -21.45564900 </i>
    <i name="e_wo_entrp">    -21.45564900 </i>
    <i name="e_0_energy">    -21.45564900 </i>
   </energy>
  </scstep>
  <scstep>
   <time name="dav">    1.61    1.61</time>
   <time name="total">    1.72    1.73</time>
   <energy>
    <i name="e_fr_energy">    -21.45605418 </i>
    <i name="e_wo_entrp">    -21.45605418 </i>
    <i name="e_0_energy">    -21.45605418 </i>
   </energy>
  </scstep>
  <scstep>
   <time name="dav">    1.62    1.62</time>
   <time name="total">    1.73    1.73</time>
   <energy>
    <i name="e_fr_energy">    -21.45614470 </i>
    <i name="e_wo_entrp">    -21.45614470 </i>
    <i name="e_0_energy">    -21.45614470 </i>
   </energy>
  </scstep>
  <scstep>
   <time name="dav">    1.48    1.49</time>
   <time name="total">    1.60    1.60</time>
   <energy>
    <i name="e_fr_energy">    -21.45627577 </i>
    <i name="e_wo_entrp">    -21.45627577 </i>
    <i name="e_0_energy">    -21.45627577 </i>
   </energy>
  </scstep>
  <scstep>
   <time name="dav">    1.53    1.53</time>
   <time name="total">    1.64    1.64</time>
   <energy>
    <i name="e_fr_energy">    -21.45631763 </i>
    <i name="e_wo_entrp">    -21.45631763 </i>
    <i name="e_0_energy">    -21.45631763 </i>
   </energy>
  </scstep>
  <scstep>
   <time name="dav">    1.45    1.45</time>
   <time name="total">    1.56    1.57</time>
   <energy>
    <i name="e_fr_energy">    -21.45634875 </i>
    <i name="e_wo_entrp">    -21.45634875 </i>
    <i name="e_0_energy">    -21.45634875 </i>
   </energy>
  </scstep>
  <scstep>
   <time name="dav">    1.47    1.47</time>
   <time name="total">    1.49    1.50</time>
   <energy>
    <i name="alphaZ">      5.28163523 </i>
    <i name="ewald">   1874.78163158 </i>
    <i name="hartreedc">  -2484.02728609 </i>
    <i name="XCdc">     14.14680477 </i>
    <i name="pawpsdc">   2123.56226992 </i>
    <i name="pawaedc">  -2091.26263439 </i>
    <i name="eentropy">     -0.00000000 </i>
    <i name="bandstr">   -168.10655792 </i>
    <i name="atom">    704.16778566 </i>
    <i name="e_fr_energy">    -21.45635124 </i>
    <i name="e_wo_entrp">    -21.45635124 </i>
    <i name="e_0_energy">    -21.45635124 </i>
   </energy>
  </scstep>
  <structure>
   <crystal>
    <varray name="basis" >
     <v>       3.29720400       0.00000000       0.00000000 </v>
     <v>       0.00000000       4.60017600      -0.00005300 </v>
     <v>       0.00000000       0.00000000      20.02439000 </v>
    </varray>
    <i name="volume">    303.72431482 </i>
    <varray name="rec_basis" >
     <v>       0.30328727       0.00000000       0.00000000 </v>
     <v>       0.00000000       0.21738299       0.00000000 </v>
     <v>       0.00000000       0.00000058       0.04993910 </v>
    </varray>
   </crystal>
   <varray name="positions" >
    <v>       0.50000000       0.91077300       0.55252100 </v>
    <v>       0.50000000       0.08922700       0.44747900 </v>
    <v>       0.00000000       0.41076900       0.44747900 </v>
    <v>       0.00000000       0.58923100       0.55252100 </v>
   </varray>
  </structure>
  <varray name="forces" >
   <v>      -0.00000023       0.07781962       0.00958226 </v>
   <v>       0.00000023      -0.07781962      -0.00958226 </v>
   <v>       0.00000024       0.07778595      -0.00958126 </v>
   <v>      -0.00000024      -0.07778595       0.00958126 </v>
  </varray>
  <varray name="stress" >
   <v>       0.97703783       0.00000675      -0.00000168 </v>
   <v>       0.00000676       1.82957910       0.00034531 </v>
   <v>      -0.00000165       0.00034539       0.14714890 </v>
  </varray>
  <energy>
   <i name="e_fr_energy">    -21.45635124 </i>
   <i name="e_wo_entrp">    -21.45635124 </i>
   <i name="e_0_energy">     -0.00000000 </i>
  </energy>
  <time name="totalsc">   31.60   31.64</time>
 </calculation>
 <calculation>
  <scstep>
   <time name="dav">    1.61    1.61</time>
   <time name="total">    1.72    1.72</time>
   <energy>
    <i name="alphaZ">      5.28163523 </i>
    <i name="ewald">   1874.18515448 </i>
    <i name="hartreedc">  -2483.57182113 </i>
    <i name="XCdc">     14.13463930 </i>
    <i name="pawpsdc">   2123.23259636 </i>
    <i name="pawaedc">  -2090.93301236 </i>
    <i name="eentropy">     -0.00000000 </i>
    <i name="bandstr">   -167.95376311 </i>
    <i name="atom">    704.16778566 </i>
    <i name="e_fr_energy">    -21.45678557 </i>
    <i name="e_wo_entrp">    -21.45678557 </i>
    <i name="e_0_energy">    -21.45678557 </i>
   </energy>
  </scstep>
  <scstep>
   <time name="dav">    1.92    1.92</time>
   <time name="total">    2.03    2.04</time>
   <energy>
    <i name="e_fr_energy">    -21.45685437 </i>
    <i name="e_wo_entrp">    -21.45685437 </i>
    <i name="e_0_energy">    -21.45685437 </i>
   </energy>
  </scstep>
  <scstep>
   <time name="dav">    1.54    1.54</time>
   <time name="total">    1.65    1.65</time>
   <energy>
    <i name="e_fr_energy">    -21.45685378 </i>
    <i name="e_wo_entrp">    -21.45685378 </i>
    <i name="e_0_energy">    -21.45685378 </i>
   </energy>
  </scstep>
  <scstep>
   <time name="dav">    1.39    1.39</time>
   <time name="total">    1.50    1.51</time>
   <energy>
    <i name="e_fr_energy">    -21.45685544 </i>
    <i name="e_wo_entrp">    -21.45685544 </i>
    <i name="e_0_energy">    -21.45685544 </i>
   </energy>
  </scstep>
  <scstep>
   <time name="dav">    1.26    1.26</time>
   <time name="total">    1.37    1.38</time>
   <energy>
    <i name="e_fr_energy">    -21.45685591 </i>
    <i name="e_wo_entrp">    -21.45685591 </i>
    <i name="e_0_energy">    -21.45685591 </i>
   </energy>
  </scstep>
  <scstep>
   <time name="dav">    1.27    1.27</time>
   <time name="total">    1.29    1.29</time>
   <energy>
    <i name="alphaZ">      5.28163523 </i>
    <i name="ewald">   1874.18515448 </i>
    <i name="hartreedc">  -2483.57310962 </i>
    <i name="XCdc">     14.13311973 </i>
    <i name="pawpsdc">   2115.07805795 </i>
    <i name="pawaedc">  -2082.77535780 </i>
    <i name="eentropy">     -0.00000000 </i>
    <i name="bandstr">   -167.95414208 </i>
    <i name="atom">    704.16778566 </i>
    <i name="e_fr_energy">    -21.45685645 </i>
    <i name="e_wo_entrp">    -21.45685645 </i>
    <i name="e_0_energy">    -21.45685645 </i>
   </energy>
  </scstep>
  <structure>
   <crystal>
    <varray name="basis" >
     <v>       3.29720400       0.00000000       0.00000000 </v>
     <v>       0.00000000       4.60017600      -0.00005300 </v>
     <v>       0.00000000       0.00000000      20.02439000 </v>
    </varray>
    <i name="volume">    303.72431482 </i>
    <varray name="rec_basis" >
     <v>       0.30328727       0.00000000       0.00000000 </v>
     <v>       0.00000000       0.21738299       0.00000000 </v>
     <v>       0.00000000       0.00000058       0.04993910 </v>
    </varray>
   </crystal>
   <varray name="positions" >
    <v>       0.50000000       0.91126266       0.55253485 </v>
    <v>       0.50000000       0.08873734       0.44746515 </v>
    <v>       0.00000000       0.41125845       0.44746515 </v>
    <v>      -0.00000000       0.58874155       0.55253485 </v>
   </varray>
  </structure>
  <varray name="forces" >
   <v>       0.00000000       0.02837123       0.01275143 </v>
   <v>      -0.00000000      -0.02837123      -0.01275143 </v>
   <v>      -0.00000005       0.02834328      -0.01275129 </v>
   <v>       0.00000005      -0.02834328       0.01275129 </v>
  </varray>
  <varray name="stress" >
   <v>       0.74796185       0.00000048       0.00000062 </v>
   <v>       0.00000047       1.12565068       0.00029973 </v>
   <v>       0.00000058       0.00029972       0.22002791 </v>
  </varray>
  <energy>
   <i name="e_fr_energy">    -21.45685645 </i>
   <i name="e_wo_entrp">    -21.45685645 </i>
   <i name="e_0_energy">     -0.00000000 </i>
  </energy>
  <time name="totalsc">   10.34   10.39</time>
 </calculation>
 <calculation>
  <scstep>
   <time name="dav">    1.59    1.59</time>
   <time name="total">    1.70    1.70</time>
   <energy>
    <i name="alphaZ">      5.28163523 </i>
    <i name="ewald">   1873.82206442 </i>
    <i name="hartreedc">  -2483.29027023 </i>
    <i name="XCdc">     14.12569857 </i>
    <i name="pawpsdc">   2114.95915191 </i>
    <i name="pawaedc">  -2082.65645484 </i>
    <i name="eentropy">     -0.00000000 </i>
    <i name="bandstr">   -167.86652616 </i>
    <i name="atom">    704.16778566 </i>
    <i name="e_fr_energy">    -21.45691544 </i>
    <i name="e_wo_entrp">    -21.45691544 </i>
    <i name="e_0_energy">    -21.45691544 </i>
   </energy>
  </scstep>
  <scstep>
   <time name="dav">    1.90    1.90</time>
   <time name="total">    2.01    2.01</time>
   <energy>
    <i name="e_fr_energy">    -21.45694034 </i>
    <i name="e_wo_entrp">    -21.45694034 </i>
    <i name="e_0_energy">    -21.45694034 </i>
   </energy>
  </scstep>
  <scstep>
   <time name="dav">    1.35    1.35</time>
   <time name="total">    1.46    1.47</time>
   <energy>
    <i name="e_fr_energy">    -21.45693952 </i>
    <i name="e_wo_entrp">    -21.45693952 </i>
    <i name="e_0_energy">    -21.45693952 </i>
   </energy>
  </scstep>
  <scstep>
   <time name="dav">    1.23    1.23</time>
   <time name="total">    1.34    1.34</time>
   <energy>
    <i name="e_fr_energy">    -21.45693920 </i>
    <i name="e_wo_entrp">    -21.45693920 </i>
    <i name="e_0_energy">    -21.45693920 </i>
   </energy>
  </scstep>
  <scstep>
   <time name="dav">    1.17    1.17</time>
   <time name="total">    1.28    1.28</time>
   <energy>
    <i name="e_fr_energy">    -21.45693938 </i>
    <i name="e_wo_entrp">    -21.45693938 </i>
    <i name="e_0_energy">    -21.45693938 </i>
   </energy>
  </scstep>
  <scstep>
   <time name="dav">    1.13    1.13</time>
   <time name="total">    1.15    1.15</time>
   <energy>
    <i name="alphaZ">      5.28163523 </i>
    <i name="ewald">   1873.82206442 </i>
    <i name="hartreedc">  -2483.29399224 </i>
    <i name="XCdc">     14.12484245 </i>
    <i name="pawpsdc">   2109.93965831 </i>
    <i name="pawaedc">  -2077.63510599 </i>
    <i name="eentropy">     -0.00000000 </i>
    <i name="bandstr">   -167.86382726 </i>
    <i name="atom">    704.16778566 </i>
    <i name="e_fr_energy">    -21.45693942 </i>
    <i name="e_wo_entrp">    -21.45693942 </i>
    <i name="e_0_energy">    -21.45693942 </i>
   </energy>
  </scstep>
  <structure>
   <crystal>
    <varray name="basis" >
     <v>       3.29720400       0.00000000       0.00000000 </v>
     <v>       0.00000000       4.60017600      -0.00005300 </v>
     <v>       0.00000000       0.00000000      20.02439000 </v>
    </varray>
    <i name="volume">    303.72431482 </i>
    <varray name="rec_basis" >
     <v>       0.30328727       0.00000000       0.00000000 </v>
     <v>       0.00000000       0.21738299       0.00000000 </v>
     <v>       0.00000000       0.00000058       0.04993910 </v>
    </varray>
   </crystal>
   <varray name="positions" >
    <v>       0.50000000       0.91156140       0.55254330 </v>
    <v>       0.50000000       0.08843860       0.44745670 </v>
    <v>       0.00000000       0.41155706       0.44745670 </v>
    <v>      -0.00000000       0.58844294       0.55254330 </v>
   </varray>
  </structure>
  <varray name="forces" >
   <v>       0.00000005      -0.00147964       0.01458543 </v>
   <v>      -0.00000005       0.00147964      -0.01458543 </v>
   <v>      -0.00000006      -0.00150425      -0.01458574 </v>
   <v>       0.00000006       0.00150425       0.01458574 </v>
  </varray>
  <varray name="stress" >
   <v>       0.61506970      -0.00000107       0.00000122 </v>
   <v>      -0.00000108       0.69714114       0.00026789 </v>
   <v>       0.00000119       0.00026786       0.25704957 </v>
  </varray>
  <energy>
   <i name="e_fr_energy">    -21.45693942 </i>
   <i name="e_wo_entrp">    -21.45693942 </i>
   <i name="e_0_energy">     -0.00000000 </i>
  </energy>
  <time name="totalsc">    9.71    9.73</time>
 </calculation>
 <calculation>
  <scstep>
   <time name="dav">    1.48    1.48</time>
   <time name="total">    1.59    1.59</time>
   <energy>
    <i name="alphaZ">      5.28163523 </i>
    <i name="ewald">   1873.36911226 </i>
    <i name="hartreedc">  -2482.86866924 </i>
    <i name="XCdc">     14.12169369 </i>
    <i name="pawpsdc">   2109.81276166 </i>
    <i name="pawaedc">  -2077.50820720 </i>
    <i name="eentropy">     -0.00000000 </i>
    <i name="bandstr">   -167.83306886 </i>
    <i name="atom">    704.16778566 </i>
    <i name="e_fr_energy">    -21.45695681 </i>
    <i name="e_wo_entrp">    -21.45695681 </i>
    <i name="e_0_energy">    -21.45695681 </i>
   </energy>
  </scstep>
  <scstep>
   <time name="dav">    1.63    1.63</time>
   <time name="total">    1.74    1.75</time>
   <energy>
    <i name="e_fr_energy">    -21.45696053 </i>
    <i name="e_wo_entrp">    -21.45696053 </i>
    <i name="e_0_energy">    -21.45696053 </i>
   </energy>
  </scstep>
  <scstep>
   <time name="dav">    1.12    1.12</time>
   <time name="total">    1.23    1.23</time>
   <energy>
    <i name="e_fr_energy">    -21.45696027 </i>
    <i name="e_wo_entrp">    -21.45696027 </i>
    <i name="e_0_energy">    -21.45696027 </i>
   </energy>
  </scstep>
  <scstep>
   <time name="dav">    1.13    1.13</time>
   <time name="total">    1.24    1.24</time>
   <energy>
    <i name="e_fr_energy">    -21.45696018 </i>
    <i name="e_wo_entrp">    -21.45696018 </i>
    <i name="e_0_energy">    -21.45696018 </i>
   </energy>
  </scstep>
  <scstep>
   <time name="dav">    1.13    1.13</time>
   <time name="total">    1.24    1.24</time>
   <energy>
    <i name="e_fr_energy">    -21.45696023 </i>
    <i name="e_wo_entrp">    -21.45696023 </i>
    <i name="e_0_energy">    -21.45696023 </i>
   </energy>
  </scstep>
  <scstep>
   <time name="dav">    1.13    1.13</time>
   <time name="total">    1.15    1.15</time>
   <energy>
    <i name="alphaZ">      5.28163523 </i>
    <i name="ewald">   1873.36911226 </i>
    <i name="hartreedc">  -2482.87168813 </i>
    <i name="XCdc">     14.12148832 </i>
    <i name="pawpsdc">   2108.14892260 </i>
    <i name="pawaedc">  -2075.84383116 </i>
    <i name="eentropy">     -0.00000000 </i>
    <i name="bandstr">   -167.83038500 </i>
    <i name="atom">    704.16778566 </i>
    <i name="e_fr_energy">    -21.45696024 </i>
    <i name="e_wo_entrp">    -21.45696024 </i>
    <i name="e_0_energy">    -21.45696024 </i>
   </energy>
  </scstep>
  <structure>
   <crystal>
    <varray name="basis" >
     <v>       3.29720400       0.00000000       0.00000000 </v>
     <v>       0.00000000       4.60017600      -0.00005300 </v>
     <v>       0.00000000       0.00000000      20.02439000 </v>
    </varray>
    <i name="volume">    303.72431482 </i>
    <varray name="rec_basis" >
     <v>       0.30328727       0.00000000       0.00000000 </v>
     <v>       0.00000000       0.21738299       0.00000000 </v>
     <v>       0.00000000       0.00000058       0.04993910 </v>
    </varray>
   </crystal>
   <varray name="positions" >
    <v>       0.50000000       0.91156805       0.55256744 </v>
    <v>       0.50000000       0.08843195       0.44743256 </v>
    <v>       0.00000000       0.41156353       0.44743256 </v>
    <v>      -0.00000000       0.58843647       0.55256744 </v>
   </varray>
  </structure>
  <varray name="forces" >
   <v>       0.00000003      -0.00050811       0.00744664 </v>
   <v>      -0.00000003       0.00050811      -0.00744664 </v>
   <v>      -0.00000002      -0.00052772      -0.00744702 </v>
   <v>       0.00000002       0.00052772       0.00744702 </v>
  </varray>
  <varray name="stress" >
   <v>       0.60069989       0.00000012       0.00000077 </v>
   <v>       0.00000013       0.66363571       0.00021407 </v>
   <v>       0.00000075       0.00021404       0.09649898 </v>
  </varray>
  <energy>
   <i name="e_fr_energy">    -21.45696024 </i>
   <i name="e_wo_entrp">    -21.45696024 </i>
   <i name="e_0_energy">     -0.00000000 </i>
  </energy>
  <time name="totalsc">    8.89    8.91</time>
  <eigenvalues>
   <array>
    <dimension dim="1">band</dimension>
    <dimension dim="2">kpoint</dimension>
    <dimension dim="3">spin</dimension>
    <field>eigene</field>
    <field>occ</field>
    <set>
     <set comment="spin 1">
      <set comment="kpoint 1">
       <r>  -17.2326    1.0000 </r>
       <r>  -14.7546    1.0000 </r>
       <r>  -11.4076    1.0000 </r>
       <r>   -7.9289    1.0000 </r>
       <r>   -6.9379    1.0000 </r>
       <r>   -6.7689    1.0000 </r>
       <r>   -5.5833    1.0000 </r>
       <r>   -3.9923    1.0000 </r>
       <r>   -3.9298    1.0000 </r>
       <r>   -2.2562    1.0000 </r>
       <r>   -1.3688    0.0000 </r>
       <r>   -0.6107    0.0000 </r>
       <r>    0.4401    0.0000 </r>
       <r>    1.0805    0.0000 </r>
       <r>    2.1506    0.0000 </r>
       <r>    2.3008    0.0000 </r>
      </set>
      <set comment="kpoint 2">
       <r>  -17.2055    1.0000 </r>
       <r>  -14.7264    1.0000 </r>
       <r>  -11.4171    1.0000 </r>
       <r>   -7.9082    1.0000 </r>
       <r>   -6.9565    1.0000 </r>
       <r>   -6.7450    1.0000 </r>
       <r>   -5.7577    1.0000 </r>
       <r>   -4.1753    1.0000 </r>
       <r>   -3.9183    1.0000 </r>
       <r>   -2.2558    1.0000 </r>
       <r>   -1.3433    0.0000 </r>
       <r>   -0.3679    0.0000 </r>
       <r>    0.6812    0.0000 </r>
       <r>    0.9133    0.0000 </r>
       <r>    2.1788    0.0000 </r>
       <r>    2.3310    0.0000 </r>
      </set>
      <set comment="kpoint 3">
       <r>  -17.1245    1.0000 </r>
       <r>  -14.6417    1.0000 </r>
       <r>  -11.4513    1.0000 </r>
       <r>   -7.8469    1.0000 </r>
       <r>   -7.0325    1.0000 </r>
       <r>   -6.6736    1.0000 </r>
       <r>   -6.1831    1.0000 </r>
       <r>   -4.5967    1.0000 </r>
       <r>   -3.8873    1.0000 </r>
       <r>   -2.2748    1.0000 </r>
       <r>   -1.2673    0.0000 </r>
       <r>    0.2832    0.0000 </r>
       <r>    0.4983    0.0000 </r>
       <r>    1.2713    0.0000 </r>
       <r>    2.2596    0.0000 </r>
       <r>    2.4215    0.0000 </r>
      </set>
      <set comment="kpoint 4">
       <r>  -16.9898    1.0000 </r>
       <r>  -14.5009    1.0000 </r>
       <r>  -11.5268    1.0000 </r>
       <r>   -7.7473    1.0000 </r>
       <r>   -7.2285    1.0000 </r>
       <r>   -6.6889    1.0000 </r>
       <r>   -6.5562    1.0000 </r>
       <r>   -5.0243    1.0000 </r>
       <r>   -3.8481    1.0000 </r>
       <r>   -2.3351    1.0000 </r>
       <r>   -1.1418    0.0000 </r>
       <r>   -0.0146    0.0000 </r>
       <r>    1.1935    0.0000 </r>
       <r>    1.8900    0.0000 </r>
       <r>    2.3439    0.0000 </r>
       <r>    2.5714    0.0000 </r>
      </set>
      <set comment="kpoint 5">
       <r>  -16.8022    1.0000 </r>
       <r>  -14.3040    1.0000 </r>
       <r>  -11.6688    1.0000 </r>
       <r>   -7.6141    1.0000 </r>
       <r>   -7.6138    1.0000 </r>
       <r>   -7.1497    1.0000 </r>
       <r>   -6.3950    1.0000 </r>
       <r>   -5.2874    1.0000 </r>
       <r>   -3.8232    1.0000 </r>
       <r>   -2.4479    1.0000 </r>
       <r>   -0.9697    0.0000 </r>
       <r>   -0.5100    0.0000 </r>
       <r>    1.8763    0.0000 </r>
       <r>    1.9972    0.0000 </r>
       <r>    2.2128    0.0000 </r>
       <r>    2.7056    0.0000 </r>
      </set>
      <set comment="kpoint 6">
       <r>  -16.5625    1.0000 </r>
       <r>  -14.0517    1.0000 </r>
       <r>  -11.9032    1.0000 </r>
       <r>   -8.1732    1.0000 </r>
       <r>   -7.4894    1.0000 </r>
       <r>   -7.4554    1.0000 </r>
       <r>   -6.1944    1.0000 </r>
       <r>   -5.3558    1.0000 </r>
       <r>   -3.8466    1.0000 </r>
       <r>   -2.6219    1.0000 </r>
       <r>   -0.8994    0.0000 </r>
       <r>   -0.7573    0.0000 </r>
       <r>    1.2932    0.0000 </r>
       <r>    1.4177    0.0000 </r>
       <r>    2.6011    0.0000 </r>
       <r>    2.9547    0.0000 </r>
      </set>
      <set comment="kpoint 7">
       <r>  -16.2723    1.0000 </r>
       <r>  -13.7444    1.0000 </r>
       <r>  -12.2400    1.0000 </r>
       <r>   -8.8247    1.0000 </r>
       <r>   -7.6741    1.0000 </r>
       <r>   -7.2852    1.0000 </r>
       <r>   -5.9607    1.0000 </r>
       <r>   -5.2951    1.0000 </r>
       <r>   -3.9486    1.0000 </r>
       <r>   -2.8596    1.0000 </r>
       <r>   -1.1141    0.0000 </r>
       <r>   -0.5245    0.0000 </r>
       <r>    0.6426    0.0000 </r>
       <r>    0.8671    0.0000 </r>
       <r>    2.1402    0.0000 </r>
       <r>    3.2831    0.0000 </r>
      </set>
      <set comment="kpoint 8">
       <r>  -15.9333    1.0000 </r>
       <r>  -13.3830    1.0000 </r>
       <r>  -12.6650    1.0000 </r>
       <r>   -9.5032    1.0000 </r>
       <r>   -7.7088    1.0000 </r>
       <r>   -7.1274    1.0000 </r>
       <r>   -5.7047    1.0000 </r>
       <r>   -5.1722    1.0000 </r>
       <r>   -4.1177    1.0000 </r>
       <r>   -3.1521    1.0000 </r>
       <r>   -1.1291    0.0000 </r>
       <r>   -0.3612    0.0000 </r>
       <r>    0.0427    0.0000 </r>
       <r>    0.4754    0.0000 </r>
       <r>    1.6300    0.0000 </r>
       <r>    3.0438    0.0000 </r>
      </set>
      <set comment="kpoint 9">
       <r>  -15.5484    1.0000 </r>
       <r>  -13.1475    1.0000 </r>
       <r>  -12.9685    1.0000 </r>
       <r>  -10.1734    1.0000 </r>
       <r>   -7.6241    1.0000 </r>
       <r>   -7.0188    1.0000 </r>
       <r>   -5.4434    1.0000 </r>
       <r>   -5.0390    1.0000 </r>
       <r>   -4.2844    1.0000 </r>
       <r>   -3.4776    1.0000 </r>
       <r>   -0.9710    0.0000 </r>
       <r>   -0.4982    0.0000 </r>
       <r>   -0.4581    0.0000 </r>
       <r>    0.5015    0.0000 </r>
       <r>    1.1182    0.0000 </r>
       <r>    2.6250    0.0000 </r>
      </set>
      <set comment="kpoint 10">
       <r>  -15.1213    1.0000 </r>
       <r>  -13.6559    1.0000 </r>
       <r>  -12.5023    1.0000 </r>
       <r>  -10.8168    1.0000 </r>
       <r>   -7.4613    1.0000 </r>
       <r>   -7.0022    1.0000 </r>
       <r>   -5.2032    1.0000 </r>
       <r>   -4.9432    1.0000 </r>
       <r>   -4.3599    1.0000 </r>
       <r>   -3.8042    1.0000 </r>
       <r>   -0.8170    0.0000 </r>
       <r>   -0.7812    0.0000 </r>
       <r>   -0.6850    0.0000 </r>
       <r>    0.6134    0.0000 </r>
       <r>    0.8215    0.0000 </r>
       <r>    2.1614    0.0000 </r>
      </set>
      <set comment="kpoint 11">
       <r>  -14.6575    1.0000 </r>
       <r>  -14.1651    1.0000 </r>
       <r>  -11.9863    1.0000 </r>
       <r>  -11.4232    1.0000 </r>
       <r>   -7.2670    1.0000 </r>
       <r>   -7.0952    1.0000 </r>
       <r>   -5.0199    1.0000 </r>
       <r>   -4.9291    1.0000 </r>
       <r>   -4.2921    1.0000 </r>
       <r>   -4.0916    1.0000 </r>
       <r>   -0.9946    0.0000 </r>
       <r>   -0.9741    0.0000 </r>
       <r>   -0.3085    0.0000 </r>
       <r>    0.1315    0.0000 </r>
       <r>    1.2348    0.0000 </r>
       <r>    1.6896    0.0000 </r>
      </set>
      <set comment="kpoint 12">
       <r>  -17.2108    1.0000 </r>
       <r>  -14.7843    1.0000 </r>
       <r>  -11.4184    1.0000 </r>
       <r>   -8.0816    1.0000 </r>
       <r>   -6.8491    1.0000 </r>
       <r>   -6.6739    1.0000 </r>
       <r>   -5.5665    1.0000 </r>
       <r>   -4.0073    1.0000 </r>
       <r>   -3.8302    1.0000 </r>
       <r>   -2.4597    1.0000 </r>
       <r>   -1.1806    0.0000 </r>
       <r>   -0.5938    0.0000 </r>
       <r>    0.3940    0.0000 </r>
       <r>    1.0645    0.0000 </r>
       <r>    2.2098    0.0000 </r>
       <r>    2.3314    0.0000 </r>
      </set>
      <set comment="kpoint 13">
       <r>  -17.1838    1.0000 </r>
       <r>  -14.7563    1.0000 </r>
       <r>  -11.4265    1.0000 </r>
       <r>   -8.0647    1.0000 </r>
       <r>   -6.8615    1.0000 </r>
       <r>   -6.6592    1.0000 </r>
       <r>   -5.7324    1.0000 </r>
       <r>   -4.1988    1.0000 </r>
       <r>   -3.8166    1.0000 </r>
       <r>   -2.4553    1.0000 </r>
       <r>   -1.1594    0.0000 </r>
       <r>   -0.3513    0.0000 </r>
       <r>    0.6259    0.0000 </r>
       <r>    0.9111    0.0000 </r>
       <r>    2.2367    0.0000 </r>
       <r>    2.3616    0.0000 </r>
      </set>
      <set comment="kpoint 14">
       <r>  -17.1028    1.0000 </r>
       <r>  -14.6722    1.0000 </r>
       <r>  -11.4563    1.0000 </r>
       <r>   -8.0178    1.0000 </r>
       <r>   -6.9161    1.0000 </r>
       <r>   -6.6407    1.0000 </r>
       <r>   -6.1080    1.0000 </r>
       <r>   -4.6314    1.0000 </r>
       <r>   -3.7923    1.0000 </r>
       <r>   -2.4581    1.0000 </r>
       <r>   -1.0997    0.0000 </r>
       <r>    0.2989    0.0000 </r>
       <r>    0.4792    0.0000 </r>
       <r>    1.2488    0.0000 </r>
       <r>    2.3135    0.0000 </r>
       <r>    2.4518    0.0000 </r>
      </set>
      <set comment="kpoint 15">
       <r>  -16.9683    1.0000 </r>
       <r>  -14.5323    1.0000 </r>
       <r>  -11.5244    1.0000 </r>
       <r>   -7.9592    1.0000 </r>
       <r>   -7.0616    1.0000 </r>
       <r>   -6.8274    1.0000 </r>
       <r>   -6.3166    1.0000 </r>
       <r>   -5.0700    1.0000 </r>
       <r>   -3.7693    1.0000 </r>
       <r>   -2.4904    1.0000 </r>
       <r>   -1.0009    0.0000 </r>
       <r>   -0.0116    0.0000 </r>
       <r>    1.2038    0.0000 </r>
       <r>    1.8889    0.0000 </r>
       <r>    2.3614    0.0000 </r>
       <r>    2.5952    0.0000 </r>
      </set>
      <set comment="kpoint 16">
       <r>  -16.7808    1.0000 </r>
       <r>  -14.3373    1.0000 </r>
       <r>  -11.6564    1.0000 </r>
       <r>   -7.9737    1.0000 </r>
       <r>   -7.2948    1.0000 </r>
       <r>   -7.2304    1.0000 </r>
       <r>   -6.2241    1.0000 </r>
       <r>   -5.3377    1.0000 </r>
       <r>   -3.7707    1.0000 </r>
       <r>   -2.5692    1.0000 </r>
       <r>   -0.8601    0.0000 </r>
       <r>   -0.4774    0.0000 </r>
       <r>    1.7987    0.0000 </r>
       <r>    1.9498    0.0000 </r>
       <r>    2.2939    0.0000 </r>
       <r>    2.6678    0.0000 </r>
      </set>
      <set comment="kpoint 17">
       <r>  -16.5414    1.0000 </r>
       <r>  -14.0883    1.0000 </r>
       <r>  -11.8788    1.0000 </r>
       <r>   -8.2978    1.0000 </r>
       <r>   -7.5594    1.0000 </r>
       <r>   -7.3726    1.0000 </r>
       <r>   -6.0483    1.0000 </r>
       <r>   -5.4052    1.0000 </r>
       <r>   -3.8282    1.0000 </r>
       <r>   -2.7089    1.0000 </r>
       <r>   -0.8277    0.0000 </r>
       <r>   -0.6786    0.0000 </r>
       <r>    1.2289    0.0000 </r>
       <r>    1.3956    0.0000 </r>
       <r>    2.6582    0.0000 </r>
       <r>    3.0714    0.0000 </r>
      </set>
      <set comment="kpoint 18">
       <r>  -16.2516    1.0000 </r>
       <r>  -13.7879    1.0000 </r>
       <r>  -12.2015    1.0000 </r>
       <r>   -8.8821    1.0000 </r>
       <r>   -7.7407    1.0000 </r>
       <r>   -7.2697    1.0000 </r>
       <r>   -5.8351    1.0000 </r>
       <r>   -5.3490    1.0000 </r>
       <r>   -3.9593    1.0000 </r>
       <r>   -2.9152    1.0000 </r>
       <r>   -1.0028    0.0000 </r>
       <r>   -0.4736    0.0000 </r>
       <r>    0.6806    0.0000 </r>
       <r>    0.7500    0.0000 </r>
       <r>    2.3189    0.0000 </r>
       <r>    3.2783    0.0000 </r>
      </set>
      <set comment="kpoint 19">
       <r>  -15.9132    1.0000 </r>
       <r>  -13.4483    1.0000 </r>
       <r>  -12.6001    1.0000 </r>
       <r>   -9.5386    1.0000 </r>
       <r>   -7.7715    1.0000 </r>
       <r>   -7.1298    1.0000 </r>
       <r>   -5.6048    1.0000 </r>
       <r>   -5.2483    1.0000 </r>
       <r>   -4.1289    1.0000 </r>
       <r>   -3.1783    1.0000 </r>
       <r>   -0.9934    0.0000 </r>
       <r>   -0.3532    0.0000 </r>
       <r>    0.1487    0.0000 </r>
       <r>    0.3127    0.0000 </r>
       <r>    1.8586    0.0000 </r>
       <r>    2.9910    0.0000 </r>
      </set>
      <set comment="kpoint 20">
       <r>  -15.5292    1.0000 </r>
       <r>  -13.2562    1.0000 </r>
       <r>  -12.8580    1.0000 </r>
       <r>  -10.1989    1.0000 </r>
       <r>   -7.6803    1.0000 </r>
       <r>   -7.0248    1.0000 </r>
       <r>   -5.3824    1.0000 </r>
       <r>   -5.1663    1.0000 </r>
       <r>   -4.2478    1.0000 </r>
       <r>   -3.4717    1.0000 </r>
       <r>   -0.8507    0.0000 </r>
       <r>   -0.5627    0.0000 </r>
       <r>   -0.3384    0.0000 </r>
       <r>    0.3862    0.0000 </r>
       <r>    1.3881    0.0000 </r>
       <r>    2.5814    0.0000 </r>
      </set>
      <set comment="kpoint 21">
       <r>  -15.1036    1.0000 </r>
       <r>  -13.6616    1.0000 </r>
       <r>  -12.4941    1.0000 </r>
       <r>  -10.8363    1.0000 </r>
       <r>   -7.5079    1.0000 </r>
       <r>   -7.0116    1.0000 </r>
       <r>   -5.2039    1.0000 </r>
       <r>   -5.1255    1.0000 </r>
       <r>   -4.2487    1.0000 </r>
       <r>   -3.7560    1.0000 </r>
       <r>   -0.8567    0.0000 </r>
       <r>   -0.8563    0.0000 </r>
       <r>   -0.4296    0.0000 </r>
       <r>    0.5801    0.0000 </r>
       <r>    1.0355    0.0000 </r>
       <r>    2.1274    0.0000 </r>
      </set>
      <set comment="kpoint 22">
       <r>  -14.6426    1.0000 </r>
       <r>  -14.1557    1.0000 </r>
       <r>  -11.9937    1.0000 </r>
       <r>  -11.4374    1.0000 </r>
       <r>   -7.3007    1.0000 </r>
       <r>   -7.1148    1.0000 </r>
       <r>   -5.1085    1.0000 </r>
       <r>   -5.0993    1.0000 </r>
       <r>   -4.1532    1.0000 </r>
       <r>   -3.9897    1.0000 </r>
       <r>   -1.0322    0.0000 </r>
       <r>   -1.0273    0.0000 </r>
       <r>   -0.1011    0.0000 </r>
       <r>    0.3034    0.0000 </r>
       <r>    1.2473    0.0000 </r>
       <r>    1.6696    0.0000 </r>
      </set>
      <set comment="kpoint 23">
       <r>  -14.6426    1.0000 </r>
       <r>  -14.1557    1.0000 </r>
       <r>  -11.9937    1.0000 </r>
       <r>  -11.4374    1.0000 </r>
       <r>   -7.3007    1.0000 </r>
       <r>   -7.1148    1.0000 </r>
       <r>   -5.1085    1.0000 </r>
       <r>   -5.0993    1.0000 </r>
       <r>   -4.1532    1.0000 </r>
       <r>   -3.9897    1.0000 </r>
       <r>   -1.0322    0.0000 </r>
       <r>   -1.0273    0.0000 </r>
       <r>   -0.1011    0.0000 </r>
       <r>    0.3034    0.0000 </r>
       <r>    1.2473    0.0000 </r>
       <r>    1.6696    0.0000 </r>
      </set>
      <set comment="kpoint 24">
       <r>  -15.1036    1.0000 </r>
       <r>  -13.6616    1.0000 </r>
       <r>  -12.4941    1.0000 </r>
       <r>  -10.8363    1.0000 </r>
       <r>   -7.5079    1.0000 </r>
       <r>   -7.0116    1.0000 </r>
       <r>   -5.2039    1.0000 </r>
       <r>   -5.1255    1.0000 </r>
       <r>   -4.2487    1.0000 </r>
       <r>   -3.7560    1.0000 </r>
       <r>   -0.8567    0.0000 </r>
       <r>   -0.8563    0.0000 </r>
       <r>   -0.4296    0.0000 </r>
       <r>    0.5801    0.0000 </r>
       <r>    1.0355    0.0000 </r>
       <r>    2.1274    0.0000 </r>
      </set>
      <set comment="kpoint 25">
       <r>  -15.5292    1.0000 </r>
       <r>  -13.2562    1.0000 </r>
       <r>  -12.8580    1.0000 </r>
       <r>  -10.1989    1.0000 </r>
       <r>   -7.6803    1.0000 </r>
       <r>   -7.0248    1.0000 </r>
       <r>   -5.3824    1.0000 </r>
       <r>   -5.1663    1.0000 </r>
       <r>   -4.2478    1.0000 </r>
       <r>   -3.4717    1.0000 </r>
       <r>   -0.8507    0.0000 </r>
       <r>   -0.5627    0.0000 </r>
       <r>   -0.3384    0.0000 </r>
       <r>    0.3862    0.0000 </r>
       <r>    1.3881    0.0000 </r>
       <r>    2.5814    0.0000 </r>
      </set>
      <set comment="kpoint 26">
       <r>  -15.9132    1.0000 </r>
       <r>  -13.4483    1.0000 </r>
       <r>  -12.6001    1.0000 </r>
       <r>   -9.5386    1.0000 </r>
       <r>   -7.7715    1.0000 </r>
       <r>   -7.1298    1.0000 </r>
       <r>   -5.6048    1.0000 </r>
       <r>   -5.2483    1.0000 </r>
       <r>   -4.1289    1.0000 </r>
       <r>   -3.1783    1.0000 </r>
       <r>   -0.9934    0.0000 </r>
       <r>   -0.3532    0.0000 </r>
       <r>    0.1487    0.0000 </r>
       <r>    0.3127    0.0000 </r>
       <r>    1.8586    0.0000 </r>
       <r>    2.9910    0.0000 </r>
      </set>
      <set comment="kpoint 27">
       <r>  -16.2516    1.0000 </r>
       <r>  -13.7879    1.0000 </r>
       <r>  -12.2015    1.0000 </r>
       <r>   -8.8821    1.0000 </r>
       <r>   -7.7407    1.0000 </r>
       <r>   -7.2697    1.0000 </r>
       <r>   -5.8351    1.0000 </r>
       <r>   -5.3490    1.0000 </r>
       <r>   -3.9593    1.0000 </r>
       <r>   -2.9152    1.0000 </r>
       <r>   -1.0028    0.0000 </r>
       <r>   -0.4736    0.0000 </r>
       <r>    0.6806    0.0000 </r>
       <r>    0.7500    0.0000 </r>
       <r>    2.3189    0.0000 </r>
       <r>    3.2783    0.0000 </r>
      </set>
      <set comment="kpoint 28">
       <r>  -16.5414    1.0000 </r>
       <r>  -14.0883    1.0000 </r>
       <r>  -11.8788    1.0000 </r>
       <r>   -8.2978    1.0000 </r>
       <r>   -7.5594    1.0000 </r>
       <r>   -7.3726    1.0000 </r>
       <r>   -6.0483    1.0000 </r>
       <r>   -5.4052    1.0000 </r>
       <r>   -3.8282    1.0000 </r>
       <r>   -2.7089    1.0000 </r>
       <r>   -0.8277    0.0000 </r>
       <r>   -0.6786    0.0000 </r>
       <r>    1.2289    0.0000 </r>
       <r>    1.3956    0.0000 </r>
       <r>    2.6582    0.0000 </r>
       <r>    3.0710    0.0000 </r>
      </set>
      <set comment="kpoint 29">
       <r>  -16.7808    1.0000 </r>
       <r>  -14.3373    1.0000 </r>
       <r>  -11.6564    1.0000 </r>
       <r>   -7.9737    1.0000 </r>
       <r>   -7.2948    1.0000 </r>
       <r>   -7.2304    1.0000 </r>
       <r>   -6.2241    1.0000 </r>
       <r>   -5.3377    1.0000 </r>
       <r>   -3.7707    1.0000 </r>
       <r>   -2.5692    1.0000 </r>
       <r>   -0.8601    0.0000 </r>
       <r>   -0.4774    0.0000 </r>
       <r>    1.7987    0.0000 </r>
       <r>    1.9498    0.0000 </r>
       <r>    2.2939    0.0000 </r>
       <r>    2.6678    0.0000 </r>
      </set>
      <set comment="kpoint 30">
       <r>  -16.9683    1.0000 </r>
       <r>  -14.5323    1.0000 </r>
       <r>  -11.5244    1.0000 </r>
       <r>   -7.9592    1.0000 </r>
       <r>   -7.0616    1.0000 </r>
       <r>   -6.8274    1.0000 </r>
       <r>   -6.3166    1.0000 </r>
       <r>   -5.0700    1.0000 </r>
       <r>   -3.7693    1.0000 </r>
       <r>   -2.4904    1.0000 </r>
       <r>   -1.0009    0.0000 </r>
       <r>   -0.0116    0.0000 </r>
       <r>    1.2038    0.0000 </r>
       <r>    1.8889    0.0000 </r>
       <r>    2.3614    0.0000 </r>
       <r>    2.5991    0.0000 </r>
      </set>
      <set comment="kpoint 31">
       <r>  -17.1028    1.0000 </r>
       <r>  -14.6722    1.0000 </r>
       <r>  -11.4563    1.0000 </r>
       <r>   -8.0178    1.0000 </r>
       <r>   -6.9161    1.0000 </r>
       <r>   -6.6407    1.0000 </r>
       <r>   -6.1080    1.0000 </r>
       <r>   -4.6314    1.0000 </r>
       <r>   -3.7923    1.0000 </r>
       <r>   -2.4581    1.0000 </r>
       <r>   -1.0997    0.0000 </r>
       <r>    0.2989    0.0000 </r>
       <r>    0.4792    0.0000 </r>
       <r>    1.2488    0.0000 </r>
       <r>    2.3135    0.0000 </r>
       <r>    2.4518    0.0000 </r>
      </set>
      <set comment="kpoint 32">
       <r>  -17.1838    1.0000 </r>
       <r>  -14.7563    1.0000 </r>
       <r>  -11.4265    1.0000 </r>
       <r>   -8.0647    1.0000 </r>
       <r>   -6.8615    1.0000 </r>
       <r>   -6.6592    1.0000 </r>
       <r>   -5.7324    1.0000 </r>
       <r>   -4.1988    1.0000 </r>
       <r>   -3.8166    1.0000 </r>
       <r>   -2.4553    1.0000 </r>
       <r>   -1.1594    0.0000 </r>
       <r>   -0.3513    0.0000 </r>
       <r>    0.6259    0.0000 </r>
       <r>    0.9111    0.0000 </r>
       <r>    2.2367    0.0000 </r>
       <r>    2.3616    0.0000 </r>
      </set>
      <set comment="kpoint 33">
       <r>  -17.1460    1.0000 </r>
       <r>  -14.8735    1.0000 </r>
       <r>  -11.4373    1.0000 </r>
       <r>   -8.4320    1.0000 </r>
       <r>   -6.6662    1.0000 </r>
       <r>   -6.4036    1.0000 </r>
       <r>   -5.5168    1.0000 </r>
       <r>   -4.0529    1.0000 </r>
       <r>   -3.5638    1.0000 </r>
       <r>   -2.8602    1.0000 </r>
       <r>   -0.8216    0.0000 </r>
       <r>   -0.5425    0.0000 </r>
       <r>    0.2593    0.0000 </r>
       <r>    1.0263    0.0000 </r>
       <r>    2.3793    0.0000 </r>
       <r>    2.4228    0.0000 </r>
      </set>
      <set comment="kpoint 34">
       <r>  -17.1190    1.0000 </r>
       <r>  -14.8459    1.0000 </r>
       <r>  -11.4418    1.0000 </r>
       <r>   -8.4186    1.0000 </r>
       <r>   -6.6696    1.0000 </r>
       <r>   -6.4223    1.0000 </r>
       <r>   -5.6507    1.0000 </r>
       <r>   -4.2551    1.0000 </r>
       <r>   -3.5574    1.0000 </r>
       <r>   -2.8518    1.0000 </r>
       <r>   -0.8063    0.0000 </r>
       <r>   -0.2999    0.0000 </r>
       <r>    0.4835    0.0000 </r>
       <r>    0.8974    0.0000 </r>
       <r>    2.4026    0.0000 </r>
       <r>    2.4527    0.0000 </r>
      </set>
      <set comment="kpoint 35">
       <r>  -17.0382    1.0000 </r>
       <r>  -14.7633    1.0000 </r>
       <r>  -11.4604    1.0000 </r>
       <r>   -8.3835    1.0000 </r>
       <r>   -6.6955    1.0000 </r>
       <r>   -6.5577    1.0000 </r>
       <r>   -5.8803    1.0000 </r>
       <r>   -4.7148    1.0000 </r>
       <r>   -3.5563    1.0000 </r>
       <r>   -2.8375    1.0000 </r>
       <r>   -0.7643    0.0000 </r>
       <r>    0.3471    0.0000 </r>
       <r>    0.4474    0.0000 </r>
       <r>    1.1752    0.0000 </r>
       <r>    2.4687    0.0000 </r>
       <r>    2.5420    0.0000 </r>
      </set>
      <set comment="kpoint 36">
       <r>  -16.9040    1.0000 </r>
       <r>  -14.6262    1.0000 </r>
       <r>  -11.5094    1.0000 </r>
       <r>   -8.3469    1.0000 </r>
       <r>   -6.9228    1.0000 </r>
       <r>   -6.7966    1.0000 </r>
       <r>   -5.9294    1.0000 </r>
       <r>   -5.1819    1.0000 </r>
       <r>   -3.5802    1.0000 </r>
       <r>   -2.8347    1.0000 </r>
       <r>   -0.6958    0.0000 </r>
       <r>    0.0258    0.0000 </r>
       <r>    1.2282    0.0000 </r>
       <r>    1.8604    0.0000 </r>
       <r>    2.1500    0.0000 </r>
       <r>    2.5782    0.0000 </r>
      </set>
      <set comment="kpoint 37">
       <r>  -16.7171    1.0000 </r>
       <r>  -14.4358    1.0000 </r>
       <r>  -11.6149    1.0000 </r>
       <r>   -8.3680    1.0000 </r>
       <r>   -7.3529    1.0000 </r>
       <r>   -7.0174    1.0000 </r>
       <r>   -5.8410    1.0000 </r>
       <r>   -5.4584    1.0000 </r>
       <r>   -3.6533    1.0000 </r>
       <r>   -2.8606    1.0000 </r>
       <r>   -0.5994    0.0000 </r>
       <r>   -0.3547    0.0000 </r>
       <r>    1.4225    0.0000 </r>
       <r>    2.1187    0.0000 </r>
       <r>    2.3904    0.0000 </r>
       <r>    2.6940    0.0000 </r>
      </set>
      <set comment="kpoint 38">
       <r>  -16.4785    1.0000 </r>
       <r>  -14.1948    1.0000 </r>
       <r>  -11.8056    1.0000 </r>
       <r>   -8.5785    1.0000 </r>
       <r>   -7.6938    1.0000 </r>
       <r>   -7.2193    1.0000 </r>
       <r>   -5.6957    1.0000 </r>
       <r>   -5.5199    1.0000 </r>
       <r>   -3.7952    1.0000 </r>
       <r>   -2.9337    1.0000 </r>
       <r>   -0.6044    0.0000 </r>
       <r>   -0.4738    0.0000 </r>
       <r>    0.8533    0.0000 </r>
       <r>    1.6688    0.0000 </r>
       <r>    2.7356    0.0000 </r>
       <r>    3.1244    0.0000 </r>
      </set>
      <set comment="kpoint 39">
       <r>  -16.1899    1.0000 </r>
       <r>  -13.9099    1.0000 </r>
       <r>  -12.0931    1.0000 </r>
       <r>   -9.0433    1.0000 </r>
       <r>   -7.8828    1.0000 </r>
       <r>   -7.2387    1.0000 </r>
       <r>   -5.5281    1.0000 </r>
       <r>   -5.4765    1.0000 </r>
       <r>   -3.9878    1.0000 </r>
       <r>   -3.0648    1.0000 </r>
       <r>   -0.6879    0.0000 </r>
       <r>   -0.3320    0.0000 </r>
       <r>    0.3277    0.0000 </r>
       <r>    1.0461    0.0000 </r>
       <r>    2.6008    0.0000 </r>
       <r>    3.1254    0.0000 </r>
      </set>
      <set comment="kpoint 40">
       <r>  -15.8533    1.0000 </r>
       <r>  -13.6058    1.0000 </r>
       <r>  -12.4434    1.0000 </r>
       <r>   -9.6429    1.0000 </r>
       <r>   -7.9132    1.0000 </r>
       <r>   -7.1432    1.0000 </r>
       <r>   -5.4340    1.0000 </r>
       <r>   -5.3689    1.0000 </r>
       <r>   -4.1519    1.0000 </r>
       <r>   -3.2453    1.0000 </r>
       <r>   -0.6241    0.0000 </r>
       <r>   -0.3670    0.0000 </r>
       <r>    0.0871    0.0000 </r>
       <r>    0.4456    0.0000 </r>
       <r>    2.2981    0.0000 </r>
       <r>    2.8467    0.0000 </r>
      </set>
      <set comment="kpoint 41">
       <r>  -15.4721    1.0000 </r>
       <r>  -13.4272    1.0000 </r>
       <r>  -12.6817    1.0000 </r>
       <r>  -10.2753    1.0000 </r>
       <r>   -7.8120    1.0000 </r>
       <r>   -7.0438    1.0000 </r>
       <r>   -5.4521    1.0000 </r>
       <r>   -5.2583    1.0000 </r>
       <r>   -4.1889    1.0000 </r>
       <r>   -3.4430    1.0000 </r>
       <r>   -0.7007    0.0000 </r>
       <r>   -0.5150    0.0000 </r>
       <r>   -0.0085    0.0000 </r>
       <r>    0.2772    0.0000 </r>
       <r>    1.9075    0.0000 </r>
       <r>    2.4599    0.0000 </r>
      </set>
      <set comment="kpoint 42">
       <r>  -15.0512    1.0000 </r>
       <r>  -13.6818    1.0000 </r>
       <r>  -12.4672    1.0000 </r>
       <r>  -10.8950    1.0000 </r>
       <r>   -7.6201    1.0000 </r>
       <r>   -7.0349    1.0000 </r>
       <r>   -5.4770    1.0000 </r>
       <r>   -5.2378    1.0000 </r>
       <r>   -4.0918    1.0000 </r>
       <r>   -3.6214    1.0000 </r>
       <r>   -0.9672    0.0000 </r>
       <r>   -0.7036    0.0000 </r>
       <r>    0.0301    0.0000 </r>
       <r>    0.5346    0.0000 </r>
       <r>    1.5168    0.0000 </r>
       <r>    2.0351    0.0000 </r>
      </set>
      <set comment="kpoint 43">
       <r>  -14.5986    1.0000 </r>
       <r>  -14.1292    1.0000 </r>
       <r>  -12.0151    1.0000 </r>
       <r>  -11.4804    1.0000 </r>
       <r>   -7.3839    1.0000 </r>
       <r>   -7.1632    1.0000 </r>
       <r>   -5.4217    1.0000 </r>
       <r>   -5.3124    1.0000 </r>
       <r>   -3.9350    1.0000 </r>
       <r>   -3.7767    1.0000 </r>
       <r>   -1.0661    0.0000 </r>
       <r>   -0.9661    0.0000 </r>
       <r>    0.3386    0.0000 </r>
       <r>    0.6085    0.0000 </r>
       <r>    1.3646    0.0000 </r>
       <r>    1.6300    0.0000 </r>
      </set>
      <set comment="kpoint 44">
       <r>  -14.5986    1.0000 </r>
       <r>  -14.1292    1.0000 </r>
       <r>  -12.0151    1.0000 </r>
       <r>  -11.4804    1.0000 </r>
       <r>   -7.3839    1.0000 </r>
       <r>   -7.1632    1.0000 </r>
       <r>   -5.4217    1.0000 </r>
       <r>   -5.3124    1.0000 </r>
       <r>   -3.9350    1.0000 </r>
       <r>   -3.7767    1.0000 </r>
       <r>   -1.0661    0.0000 </r>
       <r>   -0.9661    0.0000 </r>
       <r>    0.3386    0.0000 </r>
       <r>    0.6085    0.0000 </r>
       <r>    1.3646    0.0000 </r>
       <r>    1.6300    0.0000 </r>
      </set>
      <set comment="kpoint 45">
       <r>  -15.0512    1.0000 </r>
       <r>  -13.6818    1.0000 </r>
       <r>  -12.4672    1.0000 </r>
       <r>  -10.8950    1.0000 </r>
       <r>   -7.6201    1.0000 </r>
       <r>   -7.0349    1.0000 </r>
       <r>   -5.4770    1.0000 </r>
       <r>   -5.2378    1.0000 </r>
       <r>   -4.0918    1.0000 </r>
       <r>   -3.6214    1.0000 </r>
       <r>   -0.9672    0.0000 </r>
       <r>   -0.7036    0.0000 </r>
       <r>    0.0301    0.0000 </r>
       <r>    0.5346    0.0000 </r>
       <r>    1.5168    0.0000 </r>
       <r>    2.0351    0.0000 </r>
      </set>
      <set comment="kpoint 46">
       <r>  -15.4721    1.0000 </r>
       <r>  -13.4272    1.0000 </r>
       <r>  -12.6817    1.0000 </r>
       <r>  -10.2753    1.0000 </r>
       <r>   -7.8120    1.0000 </r>
       <r>   -7.0438    1.0000 </r>
       <r>   -5.4521    1.0000 </r>
       <r>   -5.2583    1.0000 </r>
       <r>   -4.1889    1.0000 </r>
       <r>   -3.4430    1.0000 </r>
       <r>   -0.7007    0.0000 </r>
       <r>   -0.5150    0.0000 </r>
       <r>   -0.0085    0.0000 </r>
       <r>    0.2772    0.0000 </r>
       <r>    1.9075    0.0000 </r>
       <r>    2.4599    0.0000 </r>
      </set>
      <set comment="kpoint 47">
       <r>  -15.8533    1.0000 </r>
       <r>  -13.6058    1.0000 </r>
       <r>  -12.4434    1.0000 </r>
       <r>   -9.6429    1.0000 </r>
       <r>   -7.9132    1.0000 </r>
       <r>   -7.1432    1.0000 </r>
       <r>   -5.4340    1.0000 </r>
       <r>   -5.3689    1.0000 </r>
       <r>   -4.1519    1.0000 </r>
       <r>   -3.2453    1.0000 </r>
       <r>   -0.6241    0.0000 </r>
       <r>   -0.3670    0.0000 </r>
       <r>    0.0871    0.0000 </r>
       <r>    0.4456    0.0000 </r>
       <r>    2.2981    0.0000 </r>
       <r>    2.8467    0.0000 </r>
      </set>
      <set comment="kpoint 48">
       <r>  -16.1899    1.0000 </r>
       <r>  -13.9099    1.0000 </r>
       <r>  -12.0931    1.0000 </r>
       <r>   -9.0433    1.0000 </r>
       <r>   -7.8828    1.0000 </r>
       <r>   -7.2387    1.0000 </r>
       <r>   -5.5281    1.0000 </r>
       <r>   -5.4765    1.0000 </r>
       <r>   -3.9878    1.0000 </r>
       <r>   -3.0648    1.0000 </r>
       <r>   -0.6879    0.0000 </r>
       <r>   -0.3320    0.0000 </r>
       <r>    0.3277    0.0000 </r>
       <r>    1.0461    0.0000 </r>
       <r>    2.6008    0.0000 </r>
       <r>    3.1254    0.0000 </r>
      </set>
      <set comment="kpoint 49">
       <r>  -16.4785    1.0000 </r>
       <r>  -14.1948    1.0000 </r>
       <r>  -11.8056    1.0000 </r>
       <r>   -8.5785    1.0000 </r>
       <r>   -7.6938    1.0000 </r>
       <r>   -7.2193    1.0000 </r>
       <r>   -5.6957    1.0000 </r>
       <r>   -5.5199    1.0000 </r>
       <r>   -3.7952    1.0000 </r>
[...]
       <r>    3.3983    0.0000 </r>
       <r>    3.4077    0.0000 </r>
      </set>
      <set comment="kpoint 153">
       <r>  -15.3366    1.0000 </r>
       <r>  -15.0861    1.0000 </r>
       <r>  -10.8992    1.0000 </r>
       <r>  -10.5762    1.0000 </r>
       <r>   -7.9340    1.0000 </r>
       <r>   -7.7730    1.0000 </r>
       <r>   -5.2593    1.0000 </r>
       <r>   -5.0343    1.0000 </r>
       <r>   -3.8331    1.0000 </r>
       <r>   -3.7382    1.0000 </r>
       <r>    0.3278    0.0000 </r>
       <r>    0.7336    0.0000 </r>
       <r>    1.1398    0.0000 </r>
       <r>    1.4449    0.0000 </r>
       <r>    3.3653    0.0000 </r>
       <r>    3.3764    0.0000 </r>
      </set>
      <set comment="kpoint 154">
       <r>  -15.6075    1.0000 </r>
       <r>  -15.3519    1.0000 </r>
       <r>  -10.7501    1.0000 </r>
       <r>  -10.4199    1.0000 </r>
       <r>   -7.6063    1.0000 </r>
       <r>   -7.4406    1.0000 </r>
       <r>   -5.1405    1.0000 </r>
       <r>   -4.8607    1.0000 </r>
       <r>   -3.7123    1.0000 </r>
       <r>   -3.6915    1.0000 </r>
       <r>    0.3307    0.0000 </r>
       <r>    0.6482    0.0000 </r>
       <r>    1.2349    0.0000 </r>
       <r>    1.5791    0.0000 </r>
       <r>    3.0964    0.0000 </r>
       <r>    3.3251    0.0000 </r>
      </set>
      <set comment="kpoint 155">
       <r>  -15.8349    1.0000 </r>
       <r>  -15.5766    1.0000 </r>
       <r>  -10.7142    1.0000 </r>
       <r>  -10.3872    1.0000 </r>
       <r>   -7.0834    1.0000 </r>
       <r>   -6.9056    1.0000 </r>
       <r>   -5.1593    1.0000 </r>
       <r>   -4.8398    1.0000 </r>
       <r>   -3.6084    1.0000 </r>
       <r>   -3.4596    1.0000 </r>
       <r>    0.4262    0.0000 </r>
       <r>    0.6260    0.0000 </r>
       <r>    1.2342    0.0000 </r>
       <r>    1.6049    0.0000 </r>
       <r>    2.4927    0.0000 </r>
       <r>    2.7361    0.0000 </r>
      </set>
      <set comment="kpoint 156">
       <r>  -16.0147    1.0000 </r>
       <r>  -15.7550    1.0000 </r>
       <r>  -10.7381    1.0000 </r>
       <r>  -10.4168    1.0000 </r>
       <r>   -6.4412    1.0000 </r>
       <r>   -6.2516    1.0000 </r>
       <r>   -5.2275    1.0000 </r>
       <r>   -4.8899    1.0000 </r>
       <r>   -3.5262    1.0000 </r>
       <r>   -3.2571    1.0000 </r>
       <r>    0.5665    0.0000 </r>
       <r>    0.6388    0.0000 </r>
       <r>    1.1472    0.0000 </r>
       <r>    1.4760    0.0000 </r>
       <r>    1.8613    0.0000 </r>
       <r>    1.9816    0.0000 </r>
      </set>
      <set comment="kpoint 157">
       <r>  -16.1446    1.0000 </r>
       <r>  -15.8840    1.0000 </r>
       <r>  -10.7784    1.0000 </r>
       <r>  -10.4617    1.0000 </r>
       <r>   -5.7622    1.0000 </r>
       <r>   -5.5717    1.0000 </r>
       <r>   -5.2904    1.0000 </r>
       <r>   -4.9504    1.0000 </r>
       <r>   -3.5361    1.0000 </r>
       <r>   -3.1616    1.0000 </r>
       <r>    0.4428    0.0000 </r>
       <r>    0.4451    0.0000 </r>
       <r>    1.1097    0.0000 </r>
       <r>    1.2112    0.0000 </r>
       <r>    1.5580    0.0000 </r>
       <r>    1.6482    0.0000 </r>
      </set>
      <set comment="kpoint 158">
       <r>  -16.2230    1.0000 </r>
       <r>  -15.9620    1.0000 </r>
       <r>  -10.8104    1.0000 </r>
       <r>  -10.4965    1.0000 </r>
       <r>   -5.3519    1.0000 </r>
       <r>   -5.1570    1.0000 </r>
       <r>   -4.9938    1.0000 </r>
       <r>   -4.9612    1.0000 </r>
       <r>   -3.6558    1.0000 </r>
       <r>   -3.1958    1.0000 </r>
       <r>    0.0161    0.0000 </r>
       <r>    0.0475    0.0000 </r>
       <r>    1.1952    0.0000 </r>
       <r>    1.2436    0.0000 </r>
       <r>    1.4959    0.0000 </r>
       <r>    1.5759    0.0000 </r>
      </set>
     </set>
    </set>
   </array>
  </eigenvalues>
  <separator name="orbital magnetization" >
   <v name="MAGDIPOLOUT">      0.00000000      0.00000000      0.00000000</v>
  </separator>
  <dos>
   <i name="efermi">     -2.12527769 </i>
   <total>
    <array>
     <dimension dim="1">gridpoints</dimension>
     <dimension dim="2">spin</dimension>
     <field>energy</field>
     <field>total</field>
     <field>integrated</field>
     <set>
      <set comment="spin 1">
       <r>   -18.2757     0.0000     0.0000 </r>
       <r>   -18.1992     0.0000     0.0000 </r>
       <r>   -18.1227     0.0000     0.0000 </r>
       <r>   -18.0462     0.0000     0.0000 </r>
       <r>   -17.9697     0.0000     0.0000 </r>
       <r>   -17.8932     0.0000     0.0000 </r>
       <r>   -17.8167     0.0000     0.0000 </r>
       <r>   -17.7402     0.0000     0.0000 </r>
       <r>   -17.6637     0.0000     0.0000 </r>
       <r>   -17.5872     0.0000     0.0000 </r>
       <r>   -17.5107     0.0000     0.0000 </r>
       <r>   -17.4342     0.0000     0.0000 </r>
       <r>   -17.3577     0.0000     0.0000 </r>
       <r>   -17.2812     0.0000     0.0000 </r>
       <r>   -17.2047     0.3012     0.0230 </r>
       <r>   -17.1282     0.7573     0.0810 </r>
       <r>   -17.0517     0.7728     0.1401 </r>
       <r>   -16.9752     0.9848     0.2154 </r>
       <r>   -16.8987     0.8555     0.2809 </r>
       <r>   -16.8223     0.5910     0.3261 </r>
       <r>   -16.7458     1.1373     0.4131 </r>
       <r>   -16.6693     0.8038     0.4746 </r>
       <r>   -16.5928     0.9101     0.5442 </r>
       <r>   -16.5163     0.6017     0.5902 </r>
       <r>   -16.4398     1.4729     0.7029 </r>
       <r>   -16.3633     0.6045     0.7491 </r>
       <r>   -16.2868     0.2872     0.7711 </r>
       <r>   -16.2103     1.7320     0.9036 </r>
       <r>   -16.1338     0.6474     0.9531 </r>
       <r>   -16.0573     0.8322     1.0168 </r>
       <r>   -15.9808     0.7167     1.0716 </r>
       <r>   -15.9043     1.1145     1.1569 </r>
       <r>   -15.8278     1.2380     1.2516 </r>
       <r>   -15.7513     0.8701     1.3181 </r>
       <r>   -15.6748     0.7499     1.3755 </r>
       <r>   -15.5983     0.9090     1.4450 </r>
       <r>   -15.5218     1.1766     1.5350 </r>
       <r>   -15.4453     1.1670     1.6243 </r>
       <r>   -15.3688     0.7702     1.6832 </r>
       <r>   -15.2923     1.2836     1.7814 </r>
       <r>   -15.2158     1.0612     1.8626 </r>
       <r>   -15.1393     0.5000     1.9008 </r>
       <r>   -15.0628     1.8689     2.0438 </r>
       <r>   -14.9863     1.4820     2.1572 </r>
       <r>   -14.9098     0.9314     2.2284 </r>
       <r>   -14.8333     1.2463     2.3238 </r>
       <r>   -14.7568     2.1407     2.4875 </r>
       <r>   -14.6803     1.2517     2.5833 </r>
       <r>   -14.6038     1.4477     2.6940 </r>
       <r>   -14.5273     2.0995     2.8546 </r>
       <r>   -14.4508     0.9605     2.9281 </r>
       <r>   -14.3743     0.8378     2.9922 </r>
       <r>   -14.2979     1.5239     3.1088 </r>
       <r>   -14.2214     0.9517     3.1816 </r>
       <r>   -14.1449     1.2376     3.2762 </r>
       <r>   -14.0684     1.7625     3.4111 </r>
       <r>   -13.9919     2.3777     3.5929 </r>
       <r>   -13.9154     0.2086     3.6089 </r>
       <r>   -13.8389     0.4913     3.6465 </r>
       <r>   -13.7624     1.3056     3.7464 </r>
       <r>   -13.6859     0.6381     3.7952 </r>
       <r>   -13.6094     1.0333     3.8742 </r>
       <r>   -13.5329     0.3163     3.8984 </r>
       <r>   -13.4564     0.1008     3.9061 </r>
       <r>   -13.3799     0.6607     3.9567 </r>
       <r>   -13.3034     0.0687     3.9619 </r>
       <r>   -13.2269     0.3255     3.9868 </r>
       <r>   -13.1504     0.0758     3.9926 </r>
       <r>   -13.0739     0.0965     4.0000 </r>
       <r>   -12.9974     0.0034     4.0003 </r>
       <r>   -12.9209     0.1625     4.0127 </r>
       <r>   -12.8444     0.2760     4.0338 </r>
       <r>   -12.7679     0.0560     4.0381 </r>
       <r>   -12.6914     0.0868     4.0447 </r>
       <r>   -12.6149     0.4600     4.0799 </r>
       <r>   -12.5384     0.2845     4.1017 </r>
       <r>   -12.4619     1.0569     4.1825 </r>
       <r>   -12.3854     0.7625     4.2409 </r>
       <r>   -12.3089     0.3239     4.2656 </r>
       <r>   -12.2324     0.7291     4.3214 </r>
       <r>   -12.1559     0.7786     4.3810 </r>
       <r>   -12.0794     1.2759     4.4786 </r>
       <r>   -12.0029     2.0277     4.6337 </r>
       <r>   -11.9264     1.0469     4.7138 </r>
       <r>   -11.8500     1.2824     4.8119 </r>
       <r>   -11.7735     0.7663     4.8705 </r>
       <r>   -11.6970     1.0531     4.9510 </r>
       <r>   -11.6205     1.4524     5.0621 </r>
       <r>   -11.5440     0.7665     5.1208 </r>
       <r>   -11.4675     3.0216     5.3519 </r>
       <r>   -11.3910     4.0669     5.6630 </r>
       <r>   -11.3145     1.1988     5.7547 </r>
       <r>   -11.2380     1.6029     5.8773 </r>
       <r>   -11.1615     1.4136     5.9855 </r>
       <r>   -11.0850     0.4280     6.0182 </r>
       <r>   -11.0085     1.6497     6.1444 </r>
       <r>   -10.9320     0.7730     6.2036 </r>
       <r>   -10.8555     1.0097     6.2808 </r>
       <r>   -10.7790     1.3777     6.3862 </r>
       <r>   -10.7025     1.1900     6.4772 </r>
       <r>   -10.6260     0.0701     6.4826 </r>
       <r>   -10.5495     0.9705     6.5568 </r>
       <r>   -10.4730     0.5769     6.6009 </r>
       <r>   -10.3965     1.2006     6.6928 </r>
       <r>   -10.3200     0.4171     6.7247 </r>
       <r>   -10.2435     0.7848     6.7847 </r>
       <r>   -10.1670     0.6516     6.8346 </r>
       <r>   -10.0905     0.7694     6.8934 </r>
       <r>   -10.0140     1.3024     6.9931 </r>
       <r>    -9.9375     0.1346     7.0033 </r>
       <r>    -9.8610     0.3293     7.0285 </r>
       <r>    -9.7845     0.3221     7.0532 </r>
       <r>    -9.7080     0.5279     7.0936 </r>
       <r>    -9.6315     1.3051     7.1934 </r>
       <r>    -9.5550     0.6897     7.2462 </r>
       <r>    -9.4785     0.4689     7.2820 </r>
       <r>    -9.4020     0.0067     7.2825 </r>
       <r>    -9.3256     0.0275     7.2846 </r>
       <r>    -9.2491     1.3821     7.3904 </r>
       <r>    -9.1726     0.7465     7.4475 </r>
       <r>    -9.0961     0.0019     7.4476 </r>
       <r>    -9.0196     0.3164     7.4718 </r>
       <r>    -8.9431     0.0490     7.4756 </r>
       <r>    -8.8666     0.6580     7.5259 </r>
       <r>    -8.7901     1.1366     7.6129 </r>
       <r>    -8.7136     0.4959     7.6508 </r>
       <r>    -8.6371     0.0000     7.6508 </r>
       <r>    -8.5606     0.2978     7.6736 </r>
       <r>    -8.4841     0.0343     7.6762 </r>
       <r>    -8.4076     0.4344     7.7094 </r>
       <r>    -8.3311     1.0173     7.7872 </r>
       <r>    -8.2546     0.3739     7.8158 </r>
       <r>    -8.1781     0.2974     7.8386 </r>
       <r>    -8.1016     1.2336     7.9330 </r>
       <r>    -8.0251     2.7646     8.1444 </r>
       <r>    -7.9486     1.5294     8.2614 </r>
       <r>    -7.8721     1.7797     8.3976 </r>
       <r>    -7.7956     2.5166     8.5901 </r>
       <r>    -7.7191     2.3929     8.7731 </r>
       <r>    -7.6426     1.6842     8.9020 </r>
       <r>    -7.5661     1.5996     9.0243 </r>
       <r>    -7.4896     1.9733     9.1753 </r>
       <r>    -7.4131     2.3994     9.3588 </r>
       <r>    -7.3366     1.9604     9.5088 </r>
       <r>    -7.2601     2.8495     9.7268 </r>
       <r>    -7.1836     3.7293    10.0121 </r>
       <r>    -7.1071     2.9049    10.2343 </r>
       <r>    -7.0306     3.2845    10.4855 </r>
       <r>    -6.9541     1.5194    10.6018 </r>
       <r>    -6.8776     1.6755    10.7299 </r>
       <r>    -6.8012     1.2388    10.8247 </r>
       <r>    -6.7247     1.5980    10.9469 </r>
       <r>    -6.6482     2.2891    11.1221 </r>
       <r>    -6.5717     1.4294    11.2314 </r>
       <r>    -6.4952     1.0423    11.3111 </r>
       <r>    -6.4187     2.7143    11.5188 </r>
       <r>    -6.3422     0.8263    11.5820 </r>
       <r>    -6.2657     1.0274    11.6606 </r>
       <r>    -6.1892     2.2004    11.8289 </r>
       <r>    -6.1127     1.7082    11.9596 </r>
       <r>    -6.0362     1.8136    12.0983 </r>
       <r>    -5.9597     1.8039    12.2363 </r>
       <r>    -5.8832     1.2150    12.3292 </r>
       <r>    -5.8067     1.6554    12.4559 </r>
       <r>    -5.7302     2.8925    12.6771 </r>
       <r>    -5.6537     2.6100    12.8768 </r>
       <r>    -5.5772     3.7062    13.1603 </r>
       <r>    -5.5007     3.3569    13.4171 </r>
       <r>    -5.4242     3.9241    13.7173 </r>
       <r>    -5.3477     3.7666    14.0054 </r>
       <r>    -5.2712     2.9062    14.2277 </r>
       <r>    -5.1947     2.8239    14.4437 </r>
       <r>    -5.1182     4.0341    14.7523 </r>
       <r>    -5.0417     1.6819    14.8810 </r>
       <r>    -4.9652     2.3977    15.0644 </r>
       <r>    -4.8887     1.6380    15.1897 </r>
       <r>    -4.8122     2.4598    15.3779 </r>
       <r>    -4.7357     0.7418    15.4346 </r>
       <r>    -4.6592     0.8420    15.4990 </r>
       <r>    -4.5827     1.6526    15.6255 </r>
       <r>    -4.5062     1.7106    15.7563 </r>
       <r>    -4.4297     1.0955    15.8401 </r>
       <r>    -4.3533     0.3474    15.8667 </r>
       <r>    -4.2768     0.7936    15.9274 </r>
       <r>    -4.2003     1.5567    16.0465 </r>
       <r>    -4.1238     3.4896    16.3134 </r>
       <r>    -4.0473     1.9719    16.4643 </r>
       <r>    -3.9708     2.8035    16.6787 </r>
       <r>    -3.8943     2.6992    16.8852 </r>
       <r>    -3.8178     2.5783    17.0824 </r>
       <r>    -3.7413     5.3827    17.4942 </r>
       <r>    -3.6648     3.0165    17.7250 </r>
       <r>    -3.5883     2.9290    17.9490 </r>
       <r>    -3.5118     3.9498    18.2512 </r>
       <r>    -3.4353     2.9561    18.4773 </r>
       <r>    -3.3588     3.6770    18.7586 </r>
       <r>    -3.2823     2.8730    18.9783 </r>
       <r>    -3.2058     3.3853    19.2373 </r>
       <r>    -3.1293     1.5558    19.3563 </r>
       <r>    -3.0528     0.8009    19.4176 </r>
       <r>    -2.9763     0.3938    19.4477 </r>
       <r>    -2.8998     1.4895    19.5617 </r>
       <r>    -2.8233     2.3610    19.7423 </r>
       <r>    -2.7468     0.5696    19.7859 </r>
       <r>    -2.6703     0.3915    19.8158 </r>
       <r>    -2.5938     0.1766    19.8293 </r>
       <r>    -2.5173     0.3318    19.8547 </r>
       <r>    -2.4408     1.1647    19.9438 </r>
       <r>    -2.3643     0.1571    19.9558 </r>
       <r>    -2.2878     0.1951    19.9707 </r>
       <r>    -2.2113     0.3824    20.0000 </r>
       <r>    -2.1348     0.0002    20.0000 </r>
       <r>    -2.0583     0.0000    20.0000 </r>
       <r>    -1.9818     0.0000    20.0000 </r>
       <r>    -1.9053     0.0000    20.0000 </r>
       <r>    -1.8289     0.0000    20.0000 </r>
       <r>    -1.7524     0.0000    20.0000 </r>
       <r>    -1.6759     0.0000    20.0000 </r>
       <r>    -1.5994     0.0000    20.0000 </r>
       <r>    -1.5229     0.0000    20.0000 </r>
       <r>    -1.4464     0.0000    20.0000 </r>
       <r>    -1.3699     0.0440    20.0034 </r>
       <r>    -1.2934     0.2104    20.0195 </r>
       <r>    -1.2169     0.1615    20.0318 </r>
       <r>    -1.1404     0.5979    20.0775 </r>
       <r>    -1.0639     0.9194    20.1479 </r>
       <r>    -0.9874     1.8203    20.2871 </r>
       <r>    -0.9109     1.9690    20.4377 </r>
       <r>    -0.8344     1.5690    20.5578 </r>
       <r>    -0.7579     1.8109    20.6963 </r>
       <r>    -0.6814     2.4511    20.8838 </r>
       <r>    -0.6049     1.3119    20.9842 </r>
       <r>    -0.5284     1.4686    21.0965 </r>
       <r>    -0.4519     2.6545    21.2996 </r>
       <r>    -0.3754     2.2977    21.4753 </r>
       <r>    -0.2989     3.4267    21.7375 </r>
       <r>    -0.2224     1.9698    21.8881 </r>
       <r>    -0.1459     2.4367    22.0745 </r>
       <r>    -0.0694     1.8373    22.2151 </r>
       <r>     0.0071     3.7813    22.5044 </r>
       <r>     0.0836     4.1177    22.8194 </r>
       <r>     0.1601     3.1227    23.0582 </r>
       <r>     0.2366     2.1430    23.2222 </r>
       <r>     0.3131     3.4495    23.4860 </r>
       <r>     0.3896     3.7821    23.7754 </r>
       <r>     0.4661     5.5778    24.2020 </r>
       <r>     0.5426     5.1533    24.5963 </r>
       <r>     0.6190     2.8218    24.8121 </r>
       <r>     0.6955     4.0093    25.1188 </r>
       <r>     0.7720     2.7986    25.3329 </r>
       <r>     0.8485     3.7512    25.6199 </r>
       <r>     0.9250     4.2729    25.9467 </r>
       <r>     1.0015     2.5583    26.1424 </r>
       <r>     1.0780     3.7012    26.4256 </r>
       <r>     1.1545     2.0269    26.5806 </r>
       <r>     1.2310     3.3900    26.8399 </r>
       <r>     1.3075     3.0900    27.0763 </r>
       <r>     1.3840     1.4491    27.1872 </r>
       <r>     1.4605     2.6375    27.3889 </r>
       <r>     1.5370     2.7346    27.5981 </r>
       <r>     1.6135     2.4247    27.7836 </r>
       <r>     1.6900     2.6197    27.9840 </r>
       <r>     1.7665     1.1610    28.0728 </r>
       <r>     1.8430     1.9659    28.2232 </r>
       <r>     1.9195     3.8474    28.5175 </r>
       <r>     1.9960     2.3004    28.6935 </r>
       <r>     2.0725     1.4358    28.8033 </r>
       <r>     2.1490     2.0590    28.9608 </r>
       <r>     2.2255     2.3022    29.1369 </r>
       <r>     2.3020     3.0015    29.3665 </r>
       <r>     2.3785     3.7060    29.6500 </r>
       <r>     2.4550     1.9844    29.8018 </r>
       <r>     2.5315     2.5553    29.9973 </r>
       <r>     2.6080     3.4593    30.2619 </r>
       <r>     2.6845     3.1612    30.5038 </r>
       <r>     2.7610     3.1315    30.7433 </r>
       <r>     2.8375     2.6434    30.9455 </r>
       <r>     2.9140     1.5677    31.0654 </r>
       <r>     2.9905     1.7780    31.2015 </r>
       <r>     3.0670     1.8707    31.3446 </r>
       <r>     3.1434     2.2492    31.5166 </r>
       <r>     3.2199     0.7602    31.5748 </r>
       <r>     3.2964     1.6015    31.6973 </r>
       <r>     3.3729     1.7033    31.8276 </r>
       <r>     3.4494     1.2575    31.9238 </r>
       <r>     3.5259     0.5928    31.9691 </r>
       <r>     3.6024     0.0800    31.9752 </r>
       <r>     3.6789     0.3237    32.0000 </r>
       <r>     3.7554     0.0001    32.0000 </r>
       <r>     3.8319     0.0000    32.0000 </r>
       <r>     3.9084     0.0000    32.0000 </r>
       <r>     3.9849     0.0000    32.0000 </r>
       <r>     4.0614     0.0000    32.0000 </r>
       <r>     4.1379     0.0000    32.0000 </r>
       <r>     4.2144     0.0000    32.0000 </r>
       <r>     4.2909     0.0000    32.0000 </r>
       <r>     4.3674     0.0000    32.0000 </r>
       <r>     4.4439     0.0000    32.0000 </r>
       <r>     4.5204     0.0000    32.0000 </r>
       <r>     4.5969     0.0000    32.0000 </r>
       <r>     4.6734     0.0000    32.0000 </r>
      </set>
     </set>
    </array>
   </total>
  </dos>
 </calculation>
 <structure name="finalpos" >
  <crystal>
   <varray name="basis" >
    <v>       3.29720400       0.00000000       0.00000000 </v>
    <v>       0.00000000       4.60017600      -0.00005300 </v>
    <v>       0.00000000       0.00000000      20.02439000 </v>
   </varray>
   <i name="volume">    303.72431482 </i>
   <varray name="rec_basis" >
    <v>       0.30328727       0.00000000       0.00000000 </v>
    <v>       0.00000000       0.21738299       0.00000000 </v>
    <v>       0.00000000       0.00000058       0.04993910 </v>
   </varray>
  </crystal>
  <varray name="positions" >
   <v>       0.50000000       0.91156805       0.55256744 </v>
   <v>       0.50000000       0.08843195       0.44743256 </v>
   <v>       0.00000000       0.41156353       0.44743256 </v>
   <v>      -0.00000000       0.58843647       0.55256744 </v>
  </varray>
 </structure>
</modeling>
