<?xml version="1.0" encoding="ISO-8859-1"?>
<modeling>
 <generator>
  <i name="program" type="string">vasp </i>
  <i name="version" type="string">5.4.1  </i>
  <i name="subversion" type="string">24Jun15 (build Nov 20 2020 10:29:34) complex                          parallel </i>
  <i name="platform" type="string">IFC91_ompi </i>
  <i name="date" type="string">2021 09 09 </i>
  <i name="time" type="string">15:21:20 </i>
 </generator>
 <incar>
  <i type="string" name="PREC">a</i>
  <i type="string" name="ALGO"> Normal</i>
  <i type="int" name="ISPIN">     1</i>
  <i type="int" name="ICHARG">     2</i>
  <i type="int" name="NELM">   250</i>
  <i type="int" name="NELMDL">    -5</i>
  <i type="int" name="NELMIN">     6</i>
  <i type="int" name="IBRION">     2</i>
  <i name="EDIFF">      0.00001000</i>
  <i name="EDIFFG">     -0.01000000</i>
  <i type="int" name="NSW">   200</i>
  <i type="int" name="ISIF">     2</i>
  <i name="ENCUT">    520.00000000</i>
  <i name="POTIM">      0.30000000</i>
  <i type="logical" name="LREAL"> F  </i>
  <i type="int" name="ISMEAR">     0</i>
  <i name="SIGMA">      0.02000000</i>
  <i type="logical" name="LWAVE"> F  </i>
  <i type="logical" name="LCHARG"> F  </i>
  <i type="logical" name="LAECHG"> F  </i>
  <v type="int" name="KPOINT_BSE">    -1     0     0     0</v>
  <i type="int" name="NELM">   250</i>
 </incar>
 <kpoints>
  <generation param="Gamma">
   <v type="int" name="divisions">      21       15        1 </v>
   <v name="usershift">      0.00000000       0.00000000       0.00000000 </v>
   <v name="genvec1">      0.04761905       0.00000000       0.00000000 </v>
   <v name="genvec2">      0.00000000       0.06666667       0.00000000 </v>
   <v name="genvec3">      0.00000000       0.00000000       1.00000000 </v>
   <v name="shift">      0.00000000       0.00000000       0.00000000 </v>
  </generation>
  <varray name="kpointlist" >
   <v>       0.00000000       0.00000000       0.00000000 </v>
   <v>       0.04761905       0.00000000       0.00000000 </v>
   <v>       0.09523810       0.00000000       0.00000000 </v>
   <v>       0.14285714       0.00000000       0.00000000 </v>
   <v>       0.19047619       0.00000000       0.00000000 </v>
   <v>       0.23809524       0.00000000       0.00000000 </v>
   <v>       0.28571429      -0.00000000       0.00000000 </v>
   <v>       0.33333333       0.00000000       0.00000000 </v>
   <v>       0.38095238       0.00000000       0.00000000 </v>
   <v>       0.42857143       0.00000000       0.00000000 </v>
   <v>       0.47619048       0.00000000       0.00000000 </v>
   <v>      -0.00000000       0.06666667       0.00000000 </v>
   <v>       0.04761905       0.06666667       0.00000000 </v>
   <v>       0.09523810       0.06666667       0.00000000 </v>
   <v>       0.14285714       0.06666667       0.00000000 </v>
   <v>       0.19047619       0.06666667       0.00000000 </v>
   <v>       0.23809524       0.06666667       0.00000000 </v>
   <v>       0.28571429       0.06666667       0.00000000 </v>
   <v>       0.33333333       0.06666667       0.00000000 </v>
   <v>       0.38095238       0.06666667       0.00000000 </v>
   <v>       0.42857143       0.06666667       0.00000000 </v>
   <v>       0.47619048       0.06666667       0.00000000 </v>
   <v>      -0.47619048       0.06666667       0.00000000 </v>
   <v>      -0.42857143       0.06666667       0.00000000 </v>
   <v>      -0.38095238       0.06666667       0.00000000 </v>
   <v>      -0.33333333       0.06666667       0.00000000 </v>
   <v>      -0.28571429       0.06666667       0.00000000 </v>
   <v>      -0.23809524       0.06666667       0.00000000 </v>
   <v>      -0.19047619       0.06666667       0.00000000 </v>
   <v>      -0.14285714       0.06666667       0.00000000 </v>
   <v>      -0.09523810       0.06666667       0.00000000 </v>
   <v>      -0.04761905       0.06666667       0.00000000 </v>
   <v>      -0.00000000       0.13333333       0.00000000 </v>
   <v>       0.04761905       0.13333333       0.00000000 </v>
   <v>       0.09523810       0.13333333       0.00000000 </v>
   <v>       0.14285714       0.13333333       0.00000000 </v>
   <v>       0.19047619       0.13333333       0.00000000 </v>
   <v>       0.23809524       0.13333333       0.00000000 </v>
   <v>       0.28571429       0.13333333       0.00000000 </v>
   <v>       0.33333333       0.13333333       0.00000000 </v>
   <v>       0.38095238       0.13333333       0.00000000 </v>
   <v>       0.42857143       0.13333333       0.00000000 </v>
   <v>       0.47619048       0.13333333       0.00000000 </v>
   <v>      -0.47619048       0.13333333       0.00000000 </v>
   <v>      -0.42857143       0.13333333       0.00000000 </v>
   <v>      -0.38095238       0.13333333       0.00000000 </v>
   <v>      -0.33333333       0.13333333       0.00000000 </v>
   <v>      -0.28571429       0.13333333       0.00000000 </v>
   <v>      -0.23809524       0.13333333       0.00000000 </v>
   <v>      -0.19047619       0.13333333       0.00000000 </v>
   <v>      -0.14285714       0.13333333       0.00000000 </v>
   <v>      -0.09523810       0.13333333       0.00000000 </v>
   <v>      -0.04761905       0.13333333       0.00000000 </v>
   <v>      -0.00000000       0.20000000       0.00000000 </v>
   <v>       0.04761905       0.20000000       0.00000000 </v>
   <v>       0.09523810       0.20000000       0.00000000 </v>
   <v>       0.14285714       0.20000000       0.00000000 </v>
   <v>       0.19047619       0.20000000       0.00000000 </v>
   <v>       0.23809524       0.20000000       0.00000000 </v>
   <v>       0.28571429       0.20000000       0.00000000 </v>
   <v>       0.33333333       0.20000000       0.00000000 </v>
   <v>       0.38095238       0.20000000       0.00000000 </v>
   <v>       0.42857143       0.20000000       0.00000000 </v>
   <v>       0.47619048       0.20000000       0.00000000 </v>
   <v>      -0.47619048       0.20000000       0.00000000 </v>
   <v>      -0.42857143       0.20000000       0.00000000 </v>
   <v>      -0.38095238       0.20000000       0.00000000 </v>
   <v>      -0.33333333       0.20000000       0.00000000 </v>
   <v>      -0.28571429       0.20000000       0.00000000 </v>
   <v>      -0.23809524       0.20000000       0.00000000 </v>
   <v>      -0.19047619       0.20000000       0.00000000 </v>
   <v>      -0.14285714       0.20000000       0.00000000 </v>
   <v>      -0.09523810       0.20000000       0.00000000 </v>
   <v>      -0.04761905       0.20000000       0.00000000 </v>
   <v>      -0.00000000       0.26666667       0.00000000 </v>
   <v>       0.04761905       0.26666667       0.00000000 </v>
   <v>       0.09523810       0.26666667       0.00000000 </v>
   <v>       0.14285714       0.26666667       0.00000000 </v>
   <v>       0.19047619       0.26666667       0.00000000 </v>
   <v>       0.23809524       0.26666667       0.00000000 </v>
   <v>       0.28571429       0.26666667       0.00000000 </v>
   <v>       0.33333333       0.26666667       0.00000000 </v>
   <v>       0.38095238       0.26666667       0.00000000 </v>
   <v>       0.42857143       0.26666667       0.00000000 </v>
   <v>       0.47619048       0.26666667       0.00000000 </v>
   <v>      -0.47619048       0.26666667       0.00000000 </v>
   <v>      -0.42857143       0.26666667       0.00000000 </v>
   <v>      -0.38095238       0.26666667       0.00000000 </v>
   <v>      -0.33333333       0.26666667       0.00000000 </v>
   <v>      -0.28571429       0.26666667       0.00000000 </v>
   <v>      -0.23809524       0.26666667       0.00000000 </v>
   <v>      -0.19047619       0.26666667       0.00000000 </v>
   <v>      -0.14285714       0.26666667       0.00000000 </v>
   <v>      -0.09523810       0.26666667       0.00000000 </v>
   <v>      -0.04761905       0.26666667       0.00000000 </v>
   <v>      -0.00000000       0.33333333       0.00000000 </v>
   <v>       0.04761905       0.33333333       0.00000000 </v>
   <v>       0.09523810       0.33333333       0.00000000 </v>
   <v>       0.14285714       0.33333333       0.00000000 </v>
   <v>       0.19047619       0.33333333       0.00000000 </v>
   <v>       0.23809524       0.33333333       0.00000000 </v>
   <v>       0.28571429       0.33333333       0.00000000 </v>
   <v>       0.33333333       0.33333333       0.00000000 </v>
   <v>       0.38095238       0.33333333       0.00000000 </v>
   <v>       0.42857143       0.33333333       0.00000000 </v>
   <v>       0.47619048       0.33333333       0.00000000 </v>
   <v>      -0.47619048       0.33333333       0.00000000 </v>
   <v>      -0.42857143       0.33333333       0.00000000 </v>
   <v>      -0.38095238       0.33333333       0.00000000 </v>
   <v>      -0.33333333       0.33333333       0.00000000 </v>
   <v>      -0.28571429       0.33333333       0.00000000 </v>
   <v>      -0.23809524       0.33333333       0.00000000 </v>
   <v>      -0.19047619       0.33333333       0.00000000 </v>
   <v>      -0.14285714       0.33333333       0.00000000 </v>
   <v>      -0.09523810       0.33333333       0.00000000 </v>
   <v>      -0.04761905       0.33333333       0.00000000 </v>
   <v>      -0.00000000       0.40000000       0.00000000 </v>
   <v>       0.04761905       0.40000000       0.00000000 </v>
   <v>       0.09523810       0.40000000       0.00000000 </v>
   <v>       0.14285714       0.40000000       0.00000000 </v>
   <v>       0.19047619       0.40000000       0.00000000 </v>
   <v>       0.23809524       0.40000000       0.00000000 </v>
   <v>       0.28571429       0.40000000       0.00000000 </v>
   <v>       0.33333333       0.40000000       0.00000000 </v>
   <v>       0.38095238       0.40000000       0.00000000 </v>
   <v>       0.42857143       0.40000000       0.00000000 </v>
   <v>       0.47619048       0.40000000       0.00000000 </v>
   <v>      -0.47619048       0.40000000       0.00000000 </v>
   <v>      -0.42857143       0.40000000       0.00000000 </v>
   <v>      -0.38095238       0.40000000       0.00000000 </v>
   <v>      -0.33333333       0.40000000       0.00000000 </v>
   <v>      -0.28571429       0.40000000       0.00000000 </v>
   <v>      -0.23809524       0.40000000       0.00000000 </v>
   <v>      -0.19047619       0.40000000       0.00000000 </v>
   <v>      -0.14285714       0.40000000       0.00000000 </v>
   <v>      -0.09523810       0.40000000       0.00000000 </v>
   <v>      -0.04761905       0.40000000       0.00000000 </v>
   <v>      -0.00000000       0.46666667       0.00000000 </v>
   <v>       0.04761905       0.46666667       0.00000000 </v>
   <v>       0.09523810       0.46666667       0.00000000 </v>
   <v>       0.14285714       0.46666667       0.00000000 </v>
   <v>       0.19047619       0.46666667       0.00000000 </v>
   <v>       0.23809524       0.46666667       0.00000000 </v>
   <v>       0.28571429       0.46666667       0.00000000 </v>
   <v>       0.33333333       0.46666667       0.00000000 </v>
   <v>       0.38095238       0.46666667       0.00000000 </v>
   <v>       0.42857143       0.46666667       0.00000000 </v>
   <v>       0.47619048       0.46666667       0.00000000 </v>
   <v>      -0.47619048       0.46666667       0.00000000 </v>
   <v>      -0.42857143       0.46666667       0.00000000 </v>
   <v>      -0.38095238       0.46666667       0.00000000 </v>
   <v>      -0.33333333       0.46666667       0.00000000 </v>
   <v>      -0.28571429       0.46666667       0.00000000 </v>
   <v>      -0.23809524       0.46666667       0.00000000 </v>
   <v>      -0.19047619       0.46666667       0.00000000 </v>
   <v>      -0.14285714       0.46666667       0.00000000 </v>
   <v>      -0.09523810       0.46666667       0.00000000 </v>
   <v>      -0.04761905       0.46666667       0.00000000 </v>
  </varray>
  <varray name="weights" >
   <v>       0.00317460 </v>
   <v>       0.00634921 </v>
   <v>       0.00634921 </v>
   <v>       0.00634921 </v>
   <v>       0.00634921 </v>
   <v>       0.00634921 </v>
   <v>       0.00634921 </v>
   <v>       0.00634921 </v>
   <v>       0.00634921 </v>
   <v>       0.00634921 </v>
   <v>       0.00634921 </v>
   <v>       0.00634921 </v>
   <v>       0.00634921 </v>
   <v>       0.00634921 </v>
   <v>       0.00634921 </v>
   <v>       0.00634921 </v>
   <v>       0.00634921 </v>
   <v>       0.00634921 </v>
   <v>       0.00634921 </v>
   <v>       0.00634921 </v>
   <v>       0.00634921 </v>
   <v>       0.00634921 </v>
   <v>       0.00634921 </v>
   <v>       0.00634921 </v>
   <v>       0.00634921 </v>
   <v>       0.00634921 </v>
   <v>       0.00634921 </v>
   <v>       0.00634921 </v>
   <v>       0.00634921 </v>
   <v>       0.00634921 </v>
   <v>       0.00634921 </v>
   <v>       0.00634921 </v>
   <v>       0.00634921 </v>
   <v>       0.00634921 </v>
   <v>       0.00634921 </v>
   <v>       0.00634921 </v>
   <v>       0.00634921 </v>
   <v>       0.00634921 </v>
   <v>       0.00634921 </v>
   <v>       0.00634921 </v>
   <v>       0.00634921 </v>
   <v>       0.00634921 </v>
   <v>       0.00634921 </v>
   <v>       0.00634921 </v>
   <v>       0.00634921 </v>
   <v>       0.00634921 </v>
   <v>       0.00634921 </v>
   <v>       0.00634921 </v>
   <v>       0.00634921 </v>
   <v>       0.00634921 </v>
   <v>       0.00634921 </v>
   <v>       0.00634921 </v>
   <v>       0.00634921 </v>
   <v>       0.00634921 </v>
   <v>       0.00634921 </v>
   <v>       0.00634921 </v>
   <v>       0.00634921 </v>
   <v>       0.00634921 </v>
   <v>       0.00634921 </v>
   <v>       0.00634921 </v>
   <v>       0.00634921 </v>
   <v>       0.00634921 </v>
   <v>       0.00634921 </v>
   <v>       0.00634921 </v>
   <v>       0.00634921 </v>
   <v>       0.00634921 </v>
   <v>       0.00634921 </v>
   <v>       0.00634921 </v>
   <v>       0.00634921 </v>
   <v>       0.00634921 </v>
   <v>       0.00634921 </v>
   <v>       0.00634921 </v>
   <v>       0.00634921 </v>
   <v>       0.00634921 </v>
   <v>       0.00634921 </v>
   <v>       0.00634921 </v>
   <v>       0.00634921 </v>
   <v>       0.00634921 </v>
   <v>       0.00634921 </v>
   <v>       0.00634921 </v>
   <v>       0.00634921 </v>
   <v>       0.00634921 </v>
   <v>       0.00634921 </v>
   <v>       0.00634921 </v>
   <v>       0.00634921 </v>
   <v>       0.00634921 </v>
   <v>       0.00634921 </v>
   <v>       0.00634921 </v>
   <v>       0.00634921 </v>
   <v>       0.00634921 </v>
   <v>       0.00634921 </v>
   <v>       0.00634921 </v>
   <v>       0.00634921 </v>
   <v>       0.00634921 </v>
   <v>       0.00634921 </v>
   <v>       0.00634921 </v>
   <v>       0.00634921 </v>
   <v>       0.00634921 </v>
   <v>       0.00634921 </v>
   <v>       0.00634921 </v>
   <v>       0.00634921 </v>
   <v>       0.00634921 </v>
   <v>       0.00634921 </v>
   <v>       0.00634921 </v>
   <v>       0.00634921 </v>
   <v>       0.00634921 </v>
   <v>       0.00634921 </v>
   <v>       0.00634921 </v>
   <v>       0.00634921 </v>
   <v>       0.00634921 </v>
   <v>       0.00634921 </v>
   <v>       0.00634921 </v>
   <v>       0.00634921 </v>
   <v>       0.00634921 </v>
   <v>       0.00634921 </v>
   <v>       0.00634921 </v>
   <v>       0.00634921 </v>
   <v>       0.00634921 </v>
   <v>       0.00634921 </v>
   <v>       0.00634921 </v>
   <v>       0.00634921 </v>
   <v>       0.00634921 </v>
   <v>       0.00634921 </v>
   <v>       0.00634921 </v>
   <v>       0.00634921 </v>
   <v>       0.00634921 </v>
   <v>       0.00634921 </v>
   <v>       0.00634921 </v>
   <v>       0.00634921 </v>
   <v>       0.00634921 </v>
   <v>       0.00634921 </v>
   <v>       0.00634921 </v>
   <v>       0.00634921 </v>
   <v>       0.00634921 </v>
   <v>       0.00634921 </v>
   <v>       0.00634921 </v>
   <v>       0.00634921 </v>
   <v>       0.00634921 </v>
   <v>       0.00634921 </v>
   <v>       0.00634921 </v>
   <v>       0.00634921 </v>
   <v>       0.00634921 </v>
   <v>       0.00634921 </v>
   <v>       0.00634921 </v>
   <v>       0.00634921 </v>
   <v>       0.00634921 </v>
   <v>       0.00634921 </v>
   <v>       0.00634921 </v>
   <v>       0.00634921 </v>
   <v>       0.00634921 </v>
   <v>       0.00634921 </v>
   <v>       0.00634921 </v>
   <v>       0.00634921 </v>
   <v>       0.00634921 </v>
   <v>       0.00634921 </v>
   <v>       0.00634921 </v>
   <v>       0.00634921 </v>
   <v>       0.00634921 </v>
  </varray>
 </kpoints>
 <parameters>
  <separator name="general" >
   <i type="string" name="SYSTEM">unknown system</i>
   <i type="logical" name="LCOMPAT"> F  </i>
  </separator>
  <separator name="electronic" >
   <i type="string" name="PREC">a</i>
   <i name="ENMAX">    520.00000000</i>
   <i name="ENAUG">    342.92400000</i>
   <i name="EDIFF">      0.00001000</i>
   <i type="int" name="IALGO">    38</i>
   <i type="int" name="IWAVPR">    11</i>
   <i type="int" name="NBANDS">    16</i>
   <i name="NELECT">     20.00000000</i>
   <i type="int" name="TURBO">     0</i>
   <i type="int" name="IRESTART">     0</i>
   <i type="int" name="NREBOOT">     0</i>
   <i type="int" name="NMIN">     0</i>
   <i name="EREF">      0.00000000</i>
   <separator name="electronic smearing" >
    <i type="int" name="ISMEAR">     0</i>
    <i name="SIGMA">      0.02000000</i>
    <i name="KSPACING">      0.50000000</i>
    <i type="logical" name="KGAMMA"> T  </i>
   </separator>
   <separator name="electronic projectors" >
    <i type="logical" name="LREAL"> F  </i>
    <v name="ROPT">      0.00000000</v>
    <i type="int" name="LMAXPAW">  -100</i>
    <i type="int" name="LMAXMIX">     2</i>
    <i type="logical" name="NLSPLINE"> F  </i>
   </separator>
   <separator name="electronic startup" >
    <i type="int" name="ISTART">     0</i>
    <i type="int" name="ICHARG">     2</i>
    <i type="int" name="INIWAV">     1</i>
   </separator>
   <separator name="electronic spin" >
    <i type="int" name="ISPIN">     1</i>
    <i type="logical" name="LNONCOLLINEAR"> F  </i>
    <v name="MAGMOM">      1.00000000      1.00000000      1.00000000      1.00000000</v>
    <i name="NUPDOWN">     -1.00000000</i>
    <i type="logical" name="LSORBIT"> F  </i>
    <v name="SAXIS">      0.00000000      0.00000000      1.00000000</v>
    <i type="logical" name="LSPIRAL"> F  </i>
    <v name="QSPIRAL">      0.00000000      0.00000000      0.00000000</v>
    <i type="logical" name="LZEROZ"> F  </i>
   </separator>
   <separator name="electronic exchange-correlation" >
    <i type="logical" name="LASPH"> F  </i>
    <i type="logical" name="LMETAGGA"> F  </i>
   </separator>
   <separator name="electronic convergence" >
    <i type="int" name="NELM">   250</i>
    <i type="int" name="NELMDL">    -5</i>
    <i type="int" name="NELMIN">     6</i>
    <i name="ENINI">    520.00000000</i>
    <separator name="electronic convergence detail" >
     <i type="logical" name="LDIAG"> T  </i>
     <i type="logical" name="LSUBROT"> F  </i>
     <i name="WEIMIN">      0.00100000</i>
     <i name="EBREAK">      0.00000016</i>
     <i name="DEPER">      0.30000000</i>
     <i type="int" name="NRMM">     4</i>
     <i name="TIME">      0.40000000</i>
    </separator>
   </separator>
   <separator name="electronic mixer" >
    <i name="AMIX">      0.40000000</i>
    <i name="BMIX">      1.00000000</i>
    <i name="AMIN">      0.10000000</i>
    <i name="AMIX_MAG">      1.60000000</i>
    <i name="BMIX_MAG">      1.00000000</i>
    <separator name="electronic mixer details" >
     <i type="int" name="IMIX">     4</i>
     <i type="logical" name="MIXFIRST"> F  </i>
     <i type="int" name="MAXMIX">   -45</i>
     <i name="WC">    100.00000000</i>
     <i type="int" name="INIMIX">     1</i>
     <i type="int" name="MIXPRE">     1</i>
     <i type="int" name="MREMOVE">     5</i>
    </separator>
   </separator>
   <separator name="electronic dipolcorrection" >
    <i type="logical" name="LDIPOL"> F  </i>
    <i type="logical" name="LMONO"> F  </i>
    <i type="int" name="IDIPOL">     0</i>
    <i name="EPSILON">      1.00000000</i>
    <v name="DIPOL">   -100.00000000   -100.00000000   -100.00000000</v>
    <i name="EFIELD">      0.00000000</i>
   </separator>
  </separator>
  <separator name="grids" >
   <i type="int" name="NGX">    28</i>
   <i type="int" name="NGY">    36</i>
   <i type="int" name="NGZ">   150</i>
   <i type="int" name="NGXF">    56</i>
   <i type="int" name="NGYF">    72</i>
   <i type="int" name="NGZF">   300</i>
   <i type="logical" name="ADDGRID"> F  </i>
  </separator>
  <separator name="ionic" >
   <i type="int" name="NSW">   200</i>
   <i type="int" name="IBRION">     2</i>
   <i type="int" name="ISIF">     2</i>
   <i name="PSTRESS">      0.00000000</i>
   <i name="EDIFFG">     -0.01000000</i>
   <i type="int" name="NFREE">     1</i>
   <i name="POTIM">      0.30000000</i>
   <i name="SMASS">     -3.00000000</i>
   <i name="SCALEE">      1.00000000</i>
  </separator>
  <separator name="ionic md" >
   <i name="TEBEG">      0.00010000</i>
   <i name="TEEND">      0.00010000</i>
   <i type="int" name="NBLOCK">     1</i>
   <i type="int" name="KBLOCK">   200</i>
   <i type="int" name="NPACO">   256</i>
   <i name="APACO">     16.00000000</i>
  </separator>
  <separator name="symmetry" >
   <i type="int" name="ISYM">     2</i>
   <i name="SYMPREC">      0.00001000</i>
  </separator>
  <separator name="dos" >
   <i type="logical" name="LORBIT"> F  </i>
   <v name="RWIGS">     -1.00000000</v>
   <i type="int" name="NEDOS">   301</i>
   <i name="EMIN">     10.00000000</i>
   <i name="EMAX">    -10.00000000</i>
   <i name="EFERMI">      0.00000000</i>
  </separator>
  <separator name="writing" >
   <i type="int" name="NWRITE">     2</i>
   <i type="logical" name="LWAVE"> F  </i>
   <i type="logical" name="LCHARG"> F  </i>
   <i type="logical" name="LPARD"> F  </i>
   <i type="logical" name="LVTOT"> F  </i>
   <i type="logical" name="LVHAR"> F  </i>
   <i type="logical" name="LELF"> F  </i>
   <i type="logical" name="LOPTICS"> F  </i>
   <v name="STM">      0.00000000      0.00000000      0.00000000      0.00000000      0.00000000      0.00000000      0.00000000</v>
  </separator>
  <separator name="performance" >
   <i type="int" name="NPAR">     4</i>
   <i type="int" name="NSIM">     4</i>
   <i type="int" name="NBLK">    -1</i>
   <i type="logical" name="LPLANE"> T  </i>
   <i type="logical" name="LSCALAPACK"> T  </i>
   <i type="logical" name="LSCAAWARE"> F  </i>
   <i type="logical" name="LSCALU"> F  </i>
   <i type="logical" name="LASYNC"> F  </i>
   <i type="logical" name="LORBITALREAL"> F  </i>
  </separator>
  <separator name="miscellaneous" >
   <i type="int" name="IDIOT">     3</i>
   <i type="logical" name="LMUSIC"> F  </i>
   <v name="POMASS">     30.97400000</v>
   <v name="DARWINR">      0.00000000</v>
   <v name="DARWINV">      1.00000000</v>
   <i type="logical" name="LCORR"> T  </i>
  </separator>
  <i type="logical" name="GGA_COMPAT"> T  </i>
  <i type="logical" name="LBERRY"> F  </i>
  <i type="int" name="ICORELEVEL">     0</i>
  <i type="logical" name="LDAU"> F  </i>
  <i type="int" name="I_CONSTRAINED_M">     0</i>
  <separator name="electronic exchange-correlation" >
   <i type="string" name="GGA">--</i>
   <i type="int" name="VOSKOWN">     0</i>
   <i type="logical" name="LHFCALC"> F  </i>
   <i type="string" name="PRECFOCK"></i>
   <i type="logical" name="LSYMGRAD"> F  </i>
   <i type="logical" name="LHFONE"> F  </i>
   <i type="logical" name="LRHFCALC"> F  </i>
   <i type="logical" name="LTHOMAS"> F  </i>
   <i type="logical" name="LMODELHF"> F  </i>
   <i name="ENCUT4O">     -1.00000000</i>
   <i type="int" name="EXXOEP">     0</i>
   <i type="int" name="FOURORBIT">     0</i>
   <i name="AEXX">      0.00000000</i>
   <i name="HFALPHA">      0.00000000</i>
   <i name="MCALPHA">      0.00000000</i>
   <i name="ALDAX">      1.00000000</i>
   <i name="AGGAX">      1.00000000</i>
   <i name="ALDAC">      1.00000000</i>
   <i name="AGGAC">      1.00000000</i>
   <i type="int" name="NKREDX">     1</i>
   <i type="int" name="NKREDY">     1</i>
   <i type="int" name="NKREDZ">     1</i>
   <i type="logical" name="SHIFTRED"> F  </i>
   <i type="logical" name="ODDONLY"> F  </i>
   <i type="logical" name="EVENONLY"> F  </i>
   <i type="int" name="LMAXFOCK">     0</i>
   <i type="int" name="NMAXFOCKAE">     0</i>
   <i type="logical" name="LFOCKAEDFT"> F  </i>
   <i name="HFSCREEN">      0.00000000</i>
   <i name="HFSCREENC">      0.00000000</i>
   <i type="int" name="NBANDSGWLOW">     0</i>
  </separator>
  <separator name="vdW DFT" >
   <i type="logical" name="LUSE_VDW"> F  </i>
   <i name="Zab_VDW">     -0.84910000</i>
   <i name="PARAM1">      0.12340000</i>
   <i name="PARAM2">      1.00000000</i>
   <i name="PARAM3">      0.00000000</i>
  </separator>
  <separator name="model GW" >
   <i type="int" name="MODEL_GW">     0</i>
   <i name="MODEL_EPS0">     45.75151781</i>
   <i name="MODEL_ALPHA">      1.00000000</i>
  </separator>
  <separator name="linear response parameters" >
   <i type="logical" name="LEPSILON"> F  </i>
   <i type="logical" name="LRPA"> F  </i>
   <i type="logical" name="LNABLA"> F  </i>
   <i type="logical" name="LVEL"> F  </i>
   <i type="int" name="KINTER">     0</i>
   <i name="CSHIFT">      0.10000000</i>
   <i name="OMEGAMAX">     -1.00000000</i>
   <i name="DEG_THRESHOLD">      0.00200000</i>
  </separator>
  <separator name="orbital magnetization" >
   <i type="logical" name="NUCIND"> F  </i>
   <v name="MAGPOS">      0.00000000      0.00000000      0.00000000</v>
   <i type="logical" name="LNICSALL"> T  </i>
   <i type="logical" name="ORBITALMAG"> F  </i>
   <i type="logical" name="LMAGBLOCH"> F  </i>
   <i type="logical" name="LCHIMAG"> F  </i>
   <i type="logical" name="LGAUGE"> T  </i>
   <i type="int" name="MAGATOM">     0</i>
   <v name="MAGDIPOL">      0.00000000      0.00000000      0.00000000</v>
   <v name="AVECCONST">      0.00000000      0.00000000      0.00000000</v>
  </separator>
  <separator name="response functions" >
   <i type="logical" name="LADDER"> F  </i>
   <i type="logical" name="LFXC"> F  </i>
   <i type="logical" name="LHARTREE"> T  </i>
   <i type="int" name="IBSE">     0</i>
   <v type="int" name="KPOINT">    -1     0     0     0</v>
   <i type="logical" name="LTCTE"> F  </i>
   <i type="logical" name="LTETE"> F  </i>
   <i type="logical" name="LTRIPLET"> F  </i>
   <i type="logical" name="LFXCEPS"> F  </i>
   <i type="logical" name="LFXHEG"> F  </i>
   <i type="int" name="NATURALO">     0</i>
   <i type="logical" name="L2ORDER"> F  </i>
   <i type="logical" name="LUSEW"> F  </i>
   <i name="ENCUTGW">     -2.00000000</i>
   <i name="ENCUTGWSOFT">     -2.00000000</i>
   <i name="ENCUTLF">     -1.00000000</i>
   <i type="int" name="LMAXMP2">    -1</i>
   <i name="SCISSOR">      0.00000000</i>
   <i type="int" name="NOMEGA">     0</i>
   <i type="int" name="NOMEGAR">     0</i>
   <i type="int" name="NBANDSGW">    -1</i>
   <i type="int" name="NBANDSO">    -1</i>
   <i type="int" name="NBANDSV">    -1</i>
   <i type="int" name="NELM">   250</i>
   <i type="int" name="NELMHF">     1</i>
   <i type="int" name="DIM">     3</i>
   <i type="int" name="ANTIRES">     0</i>
   <i name="OMEGAMAX">    -30.00000000</i>
   <i name="OMEGAMIN">    -30.00000000</i>
   <i name="OMEGATL">   -200.00000000</i>
   <i type="int" name="OMEGAGRID">     0</i>
   <i name="CSHIFT">     -0.10000000</i>
   <i type="logical" name="SELFENERGY"> F  </i>
   <i type="logical" name="LSPECTRAL"> F  </i>
   <i type="logical" name="LSPECTRALGW"> F  </i>
   <i type="logical" name="LSINGLES"> F  </i>
   <i type="logical" name="LFERMIGW"> F  </i>
   <i type="logical" name="ODDONLYGW"> F  </i>
   <i type="logical" name="EVENONLYGW"> F  </i>
   <i type="int" name="NKREDLFX">     1</i>
   <i type="int" name="NKREDLFY">     1</i>
   <i type="int" name="NKREDLFZ">     1</i>
   <i type="int" name="MAXMEM">  1800</i>
   <i type="int" name="TELESCOPE">     0</i>
   <i type="int" name="TAUPAR">     1</i>
   <i type="int" name="OMEGAPAR">    -1</i>
   <i name="LAMBDA">      1.00000000</i>
  </separator>
  <separator name="External order field" >
   <i name="OFIELD_KAPPA">      0.00000000</i>
   <v name="OFIELD_K">      0.00000000      0.00000000      0.00000000</v>
   <i name="OFIELD_Q6_NEAR">      0.00000000</i>
   <i name="OFIELD_Q6_FAR">      0.00000000</i>
   <i name="OFIELD_A">      0.00000000</i>
  </separator>
 </parameters>
 <atominfo>
  <atoms>       4 </atoms>
  <types>       1 </types>
  <array name="atoms" >
   <dimension dim="1">ion</dimension>
   <field type="string">element</field>
   <field type="int">atomtype</field>
   <set>
    <rc><c>P </c><c>   1</c></rc>
    <rc><c>P </c><c>   1</c></rc>
    <rc><c>P </c><c>   1</c></rc>
    <rc><c>P </c><c>   1</c></rc>
   </set>
  </array>
  <array name="atomtypes" >
   <dimension dim="1">type</dimension>
   <field type="int">atomspertype</field>
   <field type="string">element</field>
   <field>mass</field>
   <field>valence</field>
   <field type="string">pseudopotential</field>
   <set>
    <rc><c>   4</c><c>P </c><c>     30.97400000</c><c>      5.00000000</c><c>  PAW_PBE P 06Sep2000                   </c></rc>
   </set>
  </array>
 </atominfo>
 <structure name="initialpos" >
  <crystal>
   <varray name="basis" >
    <v>       3.29654400       0.06595700       0.00000000 </v>
    <v>       0.09248600       4.62242600      -0.00005300 </v>
    <v>       0.00000000       0.00000000      20.02439000 </v>
   </varray>
   <i name="volume">    305.01011872 </i>
   <varray name="rec_basis" >
    <v>       0.30346948      -0.00607185       0.00000000 </v>
    <v>      -0.00433018       0.21642326       0.00000000 </v>
    <v>      -0.00000001       0.00000057       0.04993910 </v>
   </varray>
  </crystal>
  <varray name="positions" >
   <v>       0.50000000       0.91077300       0.55252100 </v>
   <v>       0.50000000       0.08922700       0.44747900 </v>
   <v>       0.00000000       0.41076900       0.44747900 </v>
   <v>       0.00000000       0.58923100       0.55252100 </v>
  </varray>
 </structure>
 <calculation>
  <scstep>
   <time name="dav">    1.49    1.49</time>
   <time name="total">    1.51    1.52</time>
   <energy>
    <i name="alphaZ">      5.25936991 </i>
    <i name="ewald">   1865.16984813 </i>
    <i name="hartreedc">  -2458.78301335 </i>
    <i name="XCdc">     13.04129535 </i>
    <i name="pawpsdc">    559.04011960 </i>
    <i name="pawaedc">   -526.39432044 </i>
    <i name="eentropy">     -0.00043588 </i>
    <i name="bandstr">    -28.05019238 </i>
    <i name="atom">    704.16778566 </i>
    <i name="e_fr_energy">    133.45045660 </i>
    <i name="e_wo_entrp">    133.45089248 </i>
    <i name="e_0_energy">    133.45067454 </i>
   </energy>
  </scstep>
  <scstep>
   <time name="dav">    2.00    2.00</time>
   <time name="total">    2.00    2.01</time>
   <energy>
    <i name="e_fr_energy">     -6.38726721 </i>
    <i name="e_wo_entrp">     -6.38726721 </i>
    <i name="e_0_energy">     -6.38726721 </i>
   </energy>
  </scstep>
  <scstep>
   <time name="dav">    1.82    1.82</time>
   <time name="total">    1.82    1.82</time>
   <energy>
    <i name="e_fr_energy">    -21.31900332 </i>
    <i name="e_wo_entrp">    -21.31900332 </i>
    <i name="e_0_energy">    -21.31900332 </i>
   </energy>
  </scstep>
  <scstep>
   <time name="dav">    1.87    1.87</time>
   <time name="total">    1.87    1.87</time>
   <energy>
    <i name="e_fr_energy">    -21.62344852 </i>
    <i name="e_wo_entrp">    -21.62344852 </i>
    <i name="e_0_energy">    -21.62344852 </i>
   </energy>
  </scstep>
  <scstep>
   <time name="dav">    1.97    1.97</time>
   <time name="total">    2.06    2.07</time>
   <energy>
    <i name="e_fr_energy">    -21.63271188 </i>
    <i name="e_wo_entrp">    -21.63271188 </i>
    <i name="e_0_energy">    -21.63271188 </i>
   </energy>
  </scstep>
  <scstep>
   <time name="dav">    1.79    1.79</time>
   <time name="total">    1.90    1.91</time>
   <energy>
    <i name="e_fr_energy">    -21.48345226 </i>
    <i name="e_wo_entrp">    -21.48345226 </i>
    <i name="e_0_energy">    -21.48345226 </i>
   </energy>
  </scstep>
  <scstep>
   <time name="dav">    1.75    1.75</time>
   <time name="total">    1.86    1.87</time>
   <energy>
    <i name="e_fr_energy">    -21.41417951 </i>
    <i name="e_wo_entrp">    -21.41417951 </i>
    <i name="e_0_energy">    -21.41417951 </i>
   </energy>
  </scstep>
  <scstep>
   <time name="dav">    1.80    1.80</time>
   <time name="total">    1.92    1.92</time>
   <energy>
    <i name="e_fr_energy">    -21.41346707 </i>
    <i name="e_wo_entrp">    -21.41346707 </i>
    <i name="e_0_energy">    -21.41346707 </i>
   </energy>
  </scstep>
  <scstep>
   <time name="dav">    2.09    2.09</time>
   <time name="total">    2.21    2.21</time>
   <energy>
    <i name="e_fr_energy">    -21.41331424 </i>
    <i name="e_wo_entrp">    -21.41331424 </i>
    <i name="e_0_energy">    -21.41331424 </i>
   </energy>
  </scstep>
  <scstep>
   <time name="dav">    1.79    1.79</time>
   <time name="total">    1.90    1.90</time>
   <energy>
    <i name="e_fr_energy">    -21.41307893 </i>
    <i name="e_wo_entrp">    -21.41307893 </i>
    <i name="e_0_energy">    -21.41307893 </i>
   </energy>
  </scstep>
  <scstep>
   <time name="dav">    1.83    1.83</time>
   <time name="total">    1.94    1.94</time>
   <energy>
    <i name="e_fr_energy">    -21.41299405 </i>
    <i name="e_wo_entrp">    -21.41299405 </i>
    <i name="e_0_energy">    -21.41299405 </i>
   </energy>
  </scstep>
  <scstep>
   <time name="dav">    1.60    1.60</time>
   <time name="total">    1.71    1.71</time>
   <energy>
    <i name="e_fr_energy">    -21.41335939 </i>
    <i name="e_wo_entrp">    -21.41335939 </i>
    <i name="e_0_energy">    -21.41335939 </i>
   </energy>
  </scstep>
  <scstep>
   <time name="dav">    1.61    1.61</time>
   <time name="total">    1.72    1.72</time>
   <energy>
    <i name="e_fr_energy">    -21.41344477 </i>
    <i name="e_wo_entrp">    -21.41344477 </i>
    <i name="e_0_energy">    -21.41344477 </i>
   </energy>
  </scstep>
  <scstep>
   <time name="dav">    1.48    1.48</time>
   <time name="total">    1.59    1.59</time>
   <energy>
    <i name="e_fr_energy">    -21.41359926 </i>
    <i name="e_wo_entrp">    -21.41359926 </i>
    <i name="e_0_energy">    -21.41359926 </i>
   </energy>
  </scstep>
  <scstep>
   <time name="dav">    1.54    1.54</time>
   <time name="total">    1.65    1.65</time>
   <energy>
    <i name="e_fr_energy">    -21.41364329 </i>
    <i name="e_wo_entrp">    -21.41364329 </i>
    <i name="e_0_energy">    -21.41364329 </i>
   </energy>
  </scstep>
  <scstep>
   <time name="dav">    1.46    1.46</time>
   <time name="total">    1.57    1.57</time>
   <energy>
    <i name="e_fr_energy">    -21.41367767 </i>
    <i name="e_wo_entrp">    -21.41367767 </i>
    <i name="e_0_energy">    -21.41367767 </i>
   </energy>
  </scstep>
  <scstep>
   <time name="dav">    1.49    1.49</time>
   <time name="total">    1.51    1.51</time>
   <energy>
    <i name="alphaZ">      5.25936991 </i>
    <i name="ewald">   1865.16984813 </i>
    <i name="hartreedc">  -2474.28662734 </i>
    <i name="XCdc">     14.11295532 </i>
    <i name="pawpsdc">   2113.57066276 </i>
    <i name="pawaedc">  -2081.26822060 </i>
    <i name="eentropy">     -0.00000000 </i>
    <i name="bandstr">   -168.13945505 </i>
    <i name="atom">    704.16778566 </i>
    <i name="e_fr_energy">    -21.41368122 </i>
    <i name="e_wo_entrp">    -21.41368122 </i>
    <i name="e_0_energy">    -21.41368122 </i>
   </energy>
  </scstep>
  <structure>
   <crystal>
    <varray name="basis" >
     <v>       3.29654400       0.06595700       0.00000000 </v>
     <v>       0.09248600       4.62242600      -0.00005300 </v>
     <v>       0.00000000       0.00000000      20.02439000 </v>
    </varray>
    <i name="volume">    305.01011872 </i>
    <varray name="rec_basis" >
     <v>       0.30346948      -0.00607185       0.00000000 </v>
     <v>      -0.00433018       0.21642326       0.00000000 </v>
     <v>      -0.00000001       0.00000057       0.04993910 </v>
    </varray>
   </crystal>
   <varray name="positions" >
    <v>       0.50000000       0.91077300       0.55252100 </v>
    <v>       0.50000000       0.08922700       0.44747900 </v>
    <v>       0.00000000       0.41076900       0.44747900 </v>
    <v>       0.00000000       0.58923100       0.55252100 </v>
   </varray>
  </structure>
  <varray name="forces" >
   <v>      -0.52148703       0.06566692      -0.00267957 </v>
   <v>       0.52148703      -0.06566692       0.00267957 </v>
   <v>      -0.52148248       0.06563470       0.00268091 </v>
   <v>       0.52148248      -0.06563470      -0.00268091 </v>
  </varray>
  <varray name="stress" >
   <v>       1.31374341     -11.43701224       0.00008044 </v>
   <v>     -11.43701223       1.20563826       0.00034655 </v>
   <v>       0.00008043       0.00034654      -0.12428747 </v>
  </varray>
  <energy>
   <i name="e_fr_energy">    -21.41368122 </i>
   <i name="e_wo_entrp">    -21.41368122 </i>
   <i name="e_0_energy">     -0.00000000 </i>
  </energy>
  <time name="totalsc">   31.51   31.56</time>
 </calculation>
 <calculation>
  <scstep>
   <time name="dav">    1.54    1.54</time>
   <time name="total">    1.65    1.65</time>
   <energy>
    <i name="alphaZ">      5.25936991 </i>
    <i name="ewald">   1864.73851065 </i>
    <i name="hartreedc">  -2474.06889921 </i>
    <i name="XCdc">     14.09971431 </i>
    <i name="pawpsdc">   2113.12008571 </i>
    <i name="pawaedc">  -2080.81771760 </i>
    <i name="eentropy">     -0.00000000 </i>
    <i name="bandstr">   -167.93185947 </i>
    <i name="atom">    704.16778566 </i>
    <i name="e_fr_energy">    -21.43301005 </i>
    <i name="e_wo_entrp">    -21.43301005 </i>
    <i name="e_0_energy">    -21.43301005 </i>
   </energy>
  </scstep>
  <scstep>
   <time name="dav">    1.83    1.83</time>
   <time name="total">    1.95    1.95</time>
   <energy>
    <i name="e_fr_energy">    -21.43599395 </i>
    <i name="e_wo_entrp">    -21.43599395 </i>
    <i name="e_0_energy">    -21.43599395 </i>
   </energy>
  </scstep>
  <scstep>
   <time name="dav">    1.96    1.97</time>
   <time name="total">    2.08    2.08</time>
   <energy>
    <i name="e_fr_energy">    -21.43581711 </i>
    <i name="e_wo_entrp">    -21.43581711 </i>
    <i name="e_0_energy">    -21.43581711 </i>
   </energy>
  </scstep>
  <scstep>
   <time name="dav">    1.82    1.82</time>
   <time name="total">    1.93    1.93</time>
   <energy>
    <i name="e_fr_energy">    -21.43577732 </i>
    <i name="e_wo_entrp">    -21.43577732 </i>
    <i name="e_0_energy">    -21.43577732 </i>
   </energy>
  </scstep>
  <scstep>
   <time name="dav">    1.60    1.60</time>
   <time name="total">    1.71    1.71</time>
   <energy>
    <i name="e_fr_energy">    -21.43578125 </i>
    <i name="e_wo_entrp">    -21.43578125 </i>
    <i name="e_0_energy">    -21.43578125 </i>
   </energy>
  </scstep>
  <scstep>
   <time name="dav">    1.34    1.34</time>
   <time name="total">    1.36    1.36</time>
   <energy>
    <i name="alphaZ">      5.25936991 </i>
    <i name="ewald">   1864.73851065 </i>
    <i name="hartreedc">  -2474.04647432 </i>
    <i name="XCdc">     14.09573244 </i>
    <i name="pawpsdc">   2099.48835672 </i>
    <i name="pawaedc">  -2067.18032224 </i>
    <i name="eentropy">     -0.00000000 </i>
    <i name="bandstr">   -167.95874114 </i>
    <i name="atom">    704.16778566 </i>
    <i name="e_fr_energy">    -21.43578232 </i>
    <i name="e_wo_entrp">    -21.43578232 </i>
    <i name="e_0_energy">    -21.43578232 </i>
   </energy>
  </scstep>
  <structure>
   <crystal>
    <varray name="basis" >
     <v>       3.29654400       0.06595700       0.00000000 </v>
     <v>       0.09248600       4.62242600      -0.00005300 </v>
     <v>       0.00000000       0.00000000      20.02439000 </v>
    </varray>
    <i name="volume">    305.01011872 </i>
    <varray name="rec_basis" >
     <v>       0.30346948      -0.00607185       0.00000000 </v>
     <v>      -0.00433018       0.21642326       0.00000000 </v>
     <v>      -0.00000001       0.00000057       0.04993910 </v>
    </varray>
   </crystal>
   <varray name="positions" >
    <v>       0.49540766       0.91124973       0.55251713 </v>
    <v>       0.50459234       0.08875027       0.44748287 </v>
    <v>      -0.00459229       0.41124553       0.44748288 </v>
    <v>       0.00459229       0.58875447       0.55251712 </v>
   </varray>
  </structure>
  <varray name="forces" >
   <v>      -0.20580266      -0.01840142       0.00042953 </v>
   <v>       0.20580266       0.01840142      -0.00042953 </v>
   <v>      -0.20579911      -0.01842850      -0.00042835 </v>
   <v>       0.20579911       0.01842850       0.00042835 </v>
  </varray>
  <varray name="stress" >
   <v>       0.41234253      -7.22625439       0.00004408 </v>
   <v>      -7.22625437       0.14468764       0.00029399 </v>
   <v>       0.00004409       0.00029398      -0.05412878 </v>
  </varray>
  <energy>
   <i name="e_fr_energy">    -21.43578232 </i>
   <i name="e_wo_entrp">    -21.43578232 </i>
   <i name="e_0_energy">     -0.00000000 </i>
  </energy>
  <time name="totalsc">   11.45   11.47</time>
 </calculation>
 <calculation>
  <scstep>
   <time name="dav">    1.53    1.53</time>
   <time name="total">    1.64    1.64</time>
   <energy>
    <i name="alphaZ">      5.25936991 </i>
    <i name="ewald">   1864.51278283 </i>
    <i name="hartreedc">  -2473.92202135 </i>
    <i name="XCdc">     14.08809695 </i>
    <i name="pawpsdc">   2099.51834104 </i>
    <i name="pawaedc">  -2067.21033555 </i>
    <i name="eentropy">     -0.00000000 </i>
    <i name="bandstr">   -167.85266078 </i>
    <i name="atom">    704.16778566 </i>
    <i name="e_fr_energy">    -21.43864129 </i>
    <i name="e_wo_entrp">    -21.43864129 </i>
    <i name="e_0_energy">    -21.43864129 </i>
   </energy>
  </scstep>
  <scstep>
   <time name="dav">    1.82    1.82</time>
   <time name="total">    1.93    1.93</time>
   <energy>
    <i name="e_fr_energy">    -21.43980204 </i>
    <i name="e_wo_entrp">    -21.43980204 </i>
    <i name="e_0_energy">    -21.43980204 </i>
   </energy>
  </scstep>
  <scstep>
   <time name="dav">    1.98    1.98</time>
   <time name="total">    2.09    2.09</time>
   <energy>
    <i name="e_fr_energy">    -21.43973775 </i>
    <i name="e_wo_entrp">    -21.43973775 </i>
    <i name="e_0_energy">    -21.43973775 </i>
   </energy>
  </scstep>
  <scstep>
   <time name="dav">    1.80    1.80</time>
   <time name="total">    1.92    1.92</time>
   <energy>
    <i name="e_fr_energy">    -21.43972303 </i>
    <i name="e_wo_entrp">    -21.43972303 </i>
    <i name="e_0_energy">    -21.43972303 </i>
   </energy>
  </scstep>
  <scstep>
   <time name="dav">    1.35    1.35</time>
   <time name="total">    1.46    1.46</time>
   <energy>
    <i name="e_fr_energy">    -21.43972416 </i>
    <i name="e_wo_entrp">    -21.43972416 </i>
    <i name="e_0_energy">    -21.43972416 </i>
   </energy>
  </scstep>
  <scstep>
   <time name="dav">    1.23    1.23</time>
   <time name="total">    1.25    1.25</time>
   <energy>
    <i name="alphaZ">      5.25936991 </i>
    <i name="ewald">   1864.51278283 </i>
    <i name="hartreedc">  -2473.91998331 </i>
    <i name="XCdc">     14.08629364 </i>
    <i name="pawpsdc">   2092.66647224 </i>
    <i name="pawaedc">  -2060.35572871 </i>
    <i name="eentropy">     -0.00000000 </i>
    <i name="bandstr">   -167.85671662 </i>
    <i name="atom">    704.16778566 </i>
    <i name="e_fr_energy">    -21.43972435 </i>
    <i name="e_wo_entrp">    -21.43972435 </i>
    <i name="e_0_energy">    -21.43972435 </i>
   </energy>
  </scstep>
  <structure>
   <crystal>
    <varray name="basis" >
     <v>       3.29654400       0.06595700       0.00000000 </v>
     <v>       0.09248600       4.62242600      -0.00005300 </v>
     <v>       0.00000000       0.00000000      20.02439000 </v>
    </varray>
    <i name="volume">    305.01011872 </i>
    <varray name="rec_basis" >
     <v>       0.30346948      -0.00607185       0.00000000 </v>
     <v>      -0.00433018       0.21642326       0.00000000 </v>
     <v>      -0.00000001       0.00000057       0.04993910 </v>
    </varray>
   </crystal>
   <varray name="positions" >
    <v>       0.49254374       0.91154704       0.55251471 </v>
    <v>       0.50745626       0.08845296       0.44748529 </v>
    <v>      -0.00745619       0.41154271       0.44748529 </v>
    <v>       0.00745619       0.58845729       0.55251471 </v>
   </varray>
  </structure>
  <varray name="forces" >
   <v>      -0.01325396      -0.05732217       0.00211157 </v>
   <v>       0.01325396       0.05732217      -0.00211157 </v>
   <v>      -0.01325108      -0.05734578      -0.00211097 </v>
   <v>       0.01325108       0.05734578       0.00211097 </v>
  </varray>
  <varray name="stress" >
   <v>       0.01942565      -4.68164679       0.00002333 </v>
   <v>      -4.68164681      -0.30582697       0.00026333 </v>
   <v>       0.00002331       0.00026334      -0.01897212 </v>
  </varray>
  <energy>
   <i name="e_fr_energy">    -21.43972435 </i>
   <i name="e_wo_entrp">    -21.43972435 </i>
   <i name="e_0_energy">     -0.00000000 </i>
  </energy>
  <time name="totalsc">   11.05   11.07</time>
 </calculation>
 <calculation>
  <scstep>
   <time name="dav">    1.57    1.57</time>
   <time name="total">    1.68    1.68</time>
   <energy>
    <i name="alphaZ">      5.25936991 </i>
    <i name="ewald">   1864.50641081 </i>
    <i name="hartreedc">  -2473.91805088 </i>
    <i name="XCdc">     14.08609013 </i>
    <i name="pawpsdc">   2092.66451104 </i>
    <i name="pawaedc">  -2060.35377791 </i>
    <i name="eentropy">     -0.00000000 </i>
    <i name="bandstr">   -167.85206580 </i>
    <i name="atom">    704.16778566 </i>
    <i name="e_fr_energy">    -21.43972704 </i>
    <i name="e_wo_entrp">    -21.43972704 </i>
    <i name="e_0_energy">    -21.43972704 </i>
   </energy>
  </scstep>
  <scstep>
   <time name="dav">    1.30    1.30</time>
   <time name="total">    1.41    1.41</time>
   <energy>
    <i name="e_fr_energy">    -21.43972810 </i>
    <i name="e_wo_entrp">    -21.43972810 </i>
    <i name="e_0_energy">    -21.43972810 </i>
   </energy>
  </scstep>
  <scstep>
   <time name="dav">    1.14    1.14</time>
   <time name="total">    1.25    1.25</time>
   <energy>
    <i name="e_fr_energy">    -21.43972816 </i>
    <i name="e_wo_entrp">    -21.43972816 </i>
    <i name="e_0_energy">    -21.43972816 </i>
   </energy>
  </scstep>
  <scstep>
   <time name="dav">    1.11    1.11</time>
   <time name="total">    1.22    1.23</time>
   <energy>
    <i name="e_fr_energy">    -21.43972821 </i>
    <i name="e_wo_entrp">    -21.43972821 </i>
    <i name="e_0_energy">    -21.43972821 </i>
   </energy>
  </scstep>
  <scstep>
   <time name="dav">    1.14    1.14</time>
   <time name="total">    1.25    1.25</time>
   <energy>
    <i name="e_fr_energy">    -21.43972825 </i>
    <i name="e_wo_entrp">    -21.43972825 </i>
    <i name="e_0_energy">    -21.43972825 </i>
   </energy>
  </scstep>
  <scstep>
   <time name="dav">    1.10    1.10</time>
   <time name="total">    1.12    1.12</time>
   <energy>
    <i name="alphaZ">      5.25936991 </i>
    <i name="ewald">   1864.50641081 </i>
    <i name="hartreedc">  -2473.92119492 </i>
    <i name="XCdc">     14.08606954 </i>
    <i name="pawpsdc">   2092.48095976 </i>
    <i name="pawaedc">  -2060.17015496 </i>
    <i name="eentropy">     -0.00000000 </i>
    <i name="bandstr">   -167.84897407 </i>
    <i name="atom">    704.16778566 </i>
    <i name="e_fr_energy">    -21.43972827 </i>
    <i name="e_wo_entrp">    -21.43972827 </i>
    <i name="e_0_energy">    -21.43972827 </i>
   </energy>
  </scstep>
  <structure>
   <crystal>
    <varray name="basis" >
     <v>       3.29654400       0.06595700       0.00000000 </v>
     <v>       0.09248600       4.62242600      -0.00005300 </v>
     <v>       0.00000000       0.00000000      20.02439000 </v>
    </varray>
    <i name="volume">    305.01011872 </i>
    <varray name="rec_basis" >
     <v>       0.30346948      -0.00607185       0.00000000 </v>
     <v>      -0.00433018       0.21642326       0.00000000 </v>
     <v>      -0.00000001       0.00000057       0.04993910 </v>
    </varray>
   </crystal>
   <varray name="positions" >
    <v>       0.49245637       0.91155611       0.55251464 </v>
    <v>       0.50754363       0.08844389       0.44748536 </v>
    <v>      -0.00754356       0.41155178       0.44748537 </v>
    <v>       0.00754356       0.58844822       0.55251463 </v>
   </varray>
  </structure>
  <varray name="forces" >
   <v>      -0.00766946      -0.05835649       0.00214677 </v>
   <v>       0.00766946       0.05835649      -0.00214677 </v>
   <v>      -0.00766664      -0.05837995      -0.00214615 </v>
   <v>       0.00766664       0.05837995       0.00214615 </v>
  </varray>
  <varray name="stress" >
   <v>       0.01014146      -4.61881539       0.00002313 </v>
   <v>      -4.61881542      -0.31914586       0.00026127 </v>
   <v>       0.00002318       0.00026129      -0.02239330 </v>
  </varray>
  <energy>
   <i name="e_fr_energy">    -21.43972827 </i>
   <i name="e_wo_entrp">    -21.43972827 </i>
   <i name="e_0_energy">     -0.00000000 </i>
  </energy>
  <time name="totalsc">    8.71    8.72</time>
 </calculation>
 <calculation>
  <scstep>
   <time name="dav">    1.57    1.57</time>
   <time name="total">    1.68    1.68</time>
   <energy>
    <i name="alphaZ">      5.25936991 </i>
    <i name="ewald">   1864.72042863 </i>
    <i name="hartreedc">  -2474.04679388 </i>
    <i name="XCdc">     14.09425128 </i>
    <i name="pawpsdc">   2092.48010367 </i>
    <i name="pawaedc">  -2060.16929882 </i>
    <i name="eentropy">     -0.00000000 </i>
    <i name="bandstr">   -167.94581621 </i>
    <i name="atom">    704.16778566 </i>
    <i name="e_fr_energy">    -21.43996977 </i>
    <i name="e_wo_entrp">    -21.43996977 </i>
    <i name="e_0_energy">    -21.43996977 </i>
   </energy>
  </scstep>
  <scstep>
   <time name="dav">    1.86    1.86</time>
   <time name="total">    1.97    1.97</time>
   <energy>
    <i name="e_fr_energy">    -21.44002237 </i>
    <i name="e_wo_entrp">    -21.44002237 </i>
    <i name="e_0_energy">    -21.44002237 </i>
   </energy>
  </scstep>
  <scstep>
   <time name="dav">    1.50    1.50</time>
   <time name="total">    1.62    1.62</time>
   <energy>
    <i name="e_fr_energy">    -21.44002177 </i>
    <i name="e_wo_entrp">    -21.44002177 </i>
    <i name="e_0_energy">    -21.44002177 </i>
   </energy>
  </scstep>
  <scstep>
   <time name="dav">    1.25    1.25</time>
   <time name="total">    1.37    1.37</time>
   <energy>
    <i name="e_fr_energy">    -21.44002221 </i>
    <i name="e_wo_entrp">    -21.44002221 </i>
    <i name="e_0_energy">    -21.44002221 </i>
   </energy>
  </scstep>
  <scstep>
   <time name="dav">    1.17    1.17</time>
   <time name="total">    1.28    1.28</time>
   <energy>
    <i name="e_fr_energy">    -21.44002223 </i>
    <i name="e_wo_entrp">    -21.44002223 </i>
    <i name="e_0_energy">    -21.44002223 </i>
   </energy>
  </scstep>
  <scstep>
   <time name="dav">    1.13    1.13</time>
   <time name="total">    1.15    1.16</time>
   <energy>
    <i name="alphaZ">      5.25936991 </i>
    <i name="ewald">   1864.72042863 </i>
    <i name="hartreedc">  -2474.04924307 </i>
    <i name="XCdc">     14.09529636 </i>
    <i name="pawpsdc">   2098.14503204 </i>
    <i name="pawaedc">  -2065.83639625 </i>
    <i name="eentropy">     -0.00000000 </i>
    <i name="bandstr">   -167.94229555 </i>
    <i name="atom">    704.16778566 </i>
    <i name="e_fr_energy">    -21.44002227 </i>
    <i name="e_wo_entrp">    -21.44002227 </i>
    <i name="e_0_energy">    -21.44002227 </i>
   </energy>
  </scstep>
  <structure>
   <crystal>
    <varray name="basis" >
     <v>       3.29654400       0.06595700       0.00000000 </v>
     <v>       0.09248600       4.62242600      -0.00005300 </v>
     <v>       0.00000000       0.00000000      20.02439000 </v>
    </varray>
    <i name="volume">    305.01011872 </i>
    <varray name="rec_basis" >
     <v>       0.30346948      -0.00607185       0.00000000 </v>
     <v>      -0.00433018       0.21642326       0.00000000 </v>
     <v>      -0.00000001       0.00000057       0.04993910 </v>
    </varray>
   </crystal>
   <varray name="positions" >
    <v>       0.49232984       0.91115108       0.55251809 </v>
    <v>       0.50767016       0.08884892       0.44748191 </v>
    <v>      -0.00767006       0.41114658       0.44748192 </v>
    <v>       0.00767006       0.58885342       0.55251808 </v>
   </varray>
  </structure>
  <varray name="forces" >
   <v>       0.00005106      -0.01729942      -0.00481635 </v>
   <v>      -0.00005106       0.01729942       0.00481635 </v>
   <v>       0.00005345      -0.01731824       0.00481617 </v>
   <v>      -0.00005345       0.01731824      -0.00481617 </v>
  </varray>
  <varray name="stress" >
   <v>       0.16836042      -4.52226753       0.00002678 </v>
   <v>      -4.52226755       0.24053568       0.00020395 </v>
   <v>       0.00002674       0.00020390      -0.18284054 </v>
  </varray>
  <energy>
   <i name="e_fr_energy">    -21.44002227 </i>
   <i name="e_wo_entrp">    -21.44002227 </i>
   <i name="e_0_energy">     -0.00000000 </i>
  </energy>
  <time name="totalsc">    9.84    9.86</time>
 </calculation>
 <calculation>
  <scstep>
   <time name="dav">    1.57    1.57</time>
   <time name="total">    1.68    1.69</time>
   <energy>
    <i name="alphaZ">      5.25936991 </i>
    <i name="ewald">   1864.80568501 </i>
    <i name="hartreedc">  -2474.09780730 </i>
    <i name="XCdc">     14.09854274 </i>
    <i name="pawpsdc">   2098.23712262 </i>
    <i name="pawaedc">  -2065.92847872 </i>
    <i name="eentropy">     -0.00000000 </i>
    <i name="bandstr">   -167.98225985 </i>
    <i name="atom">    704.16778566 </i>
    <i name="e_fr_energy">    -21.44003993 </i>
    <i name="e_wo_entrp">    -21.44003993 </i>
    <i name="e_0_energy">    -21.44003993 </i>
   </energy>
  </scstep>
  <scstep>
   <time name="dav">    1.89    1.89</time>
   <time name="total">    2.01    2.01</time>
   <energy>
    <i name="e_fr_energy">    -21.44004861 </i>
    <i name="e_wo_entrp">    -21.44004861 </i>
    <i name="e_0_energy">    -21.44004861 </i>
   </energy>
  </scstep>
  <scstep>
   <time name="dav">    1.18    1.18</time>
   <time name="total">    1.29    1.30</time>
   <energy>
    <i name="e_fr_energy">    -21.44004860 </i>
    <i name="e_wo_entrp">    -21.44004860 </i>
    <i name="e_0_energy">    -21.44004860 </i>
   </energy>
  </scstep>
  <scstep>
   <time name="dav">    1.16    1.16</time>
   <time name="total">    1.27    1.27</time>
   <energy>
    <i name="e_fr_energy">    -21.44004887 </i>
    <i name="e_wo_entrp">    -21.44004887 </i>
    <i name="e_0_energy">    -21.44004887 </i>
   </energy>
  </scstep>
  <scstep>
   <time name="dav">    1.13    1.13</time>
   <time name="total">    1.24    1.24</time>
   <energy>
    <i name="e_fr_energy">    -21.44004886 </i>
    <i name="e_wo_entrp">    -21.44004886 </i>
    <i name="e_0_energy">    -21.44004886 </i>
   </energy>
  </scstep>
  <scstep>
   <time name="dav">    1.08    1.08</time>
   <time name="total">    1.10    1.10</time>
   <energy>
    <i name="alphaZ">      5.25936991 </i>
    <i name="ewald">   1864.80568501 </i>
    <i name="hartreedc">  -2474.09658728 </i>
    <i name="XCdc">     14.09893738 </i>
    <i name="pawpsdc">   2100.55750096 </i>
    <i name="pawaedc">  -2068.24971606 </i>
    <i name="eentropy">     -0.00000000 </i>
    <i name="bandstr">   -167.98302447 </i>
    <i name="atom">    704.16778566 </i>
    <i name="e_fr_energy">    -21.44004889 </i>
    <i name="e_wo_entrp">    -21.44004889 </i>
    <i name="e_0_energy">    -21.44004889 </i>
   </energy>
  </scstep>
  <structure>
   <crystal>
    <varray name="basis" >
     <v>       3.29654400       0.06595700       0.00000000 </v>
     <v>       0.09248600       4.62242600      -0.00005300 </v>
     <v>       0.00000000       0.00000000      20.02439000 </v>
    </varray>
    <i name="volume">    305.01011872 </i>
    <varray name="rec_basis" >
     <v>       0.30346948      -0.00607185       0.00000000 </v>
     <v>      -0.00433018       0.21642326       0.00000000 </v>
     <v>      -0.00000001       0.00000057       0.04993910 </v>
    </varray>
   </crystal>
   <varray name="positions" >
    <v>       0.49227967       0.91099050       0.55251946 </v>
    <v>       0.50772033       0.08900950       0.44748054 </v>
    <v>      -0.00772021       0.41098593       0.44748055 </v>
    <v>       0.00772021       0.58901407       0.55251945 </v>
   </varray>
  </structure>
  <varray name="forces" >
   <v>       0.00316774      -0.00097369      -0.00752470 </v>
   <v>      -0.00316774       0.00097369       0.00752470 </v>
   <v>       0.00316997      -0.00099072       0.00752414 </v>
   <v>      -0.00316997       0.00099072      -0.00752414 </v>
  </varray>
  <varray name="stress" >
   <v>       0.22979546      -4.48461450       0.00002800 </v>
   <v>      -4.48461451       0.46495651       0.00018182 </v>
   <v>       0.00002803       0.00018175      -0.23902551 </v>
  </varray>
  <energy>
   <i name="e_fr_energy">    -21.44004889 </i>
   <i name="e_wo_entrp">    -21.44004889 </i>
   <i name="e_0_energy">     -0.00000000 </i>
  </energy>
  <time name="totalsc">    9.30    9.32</time>
  <eigenvalues>
   <array>
    <dimension dim="1">band</dimension>
    <dimension dim="2">kpoint</dimension>
    <dimension dim="3">spin</dimension>
    <field>eigene</field>
    <field>occ</field>
    <set>
     <set comment="spin 1">
      <set comment="kpoint 1">
       <r>  -17.2271    1.0000 </r>
       <r>  -14.7658    1.0000 </r>
       <r>  -11.4289    1.0000 </r>
       <r>   -7.9311    1.0000 </r>
       <r>   -6.9704    1.0000 </r>
       <r>   -6.7761    1.0000 </r>
       <r>   -5.5658    1.0000 </r>
       <r>   -4.0089    1.0000 </r>
       <r>   -3.9344    1.0000 </r>
       <r>   -2.2698    1.0000 </r>
       <r>   -1.3755    0.0000 </r>
       <r>   -0.6129    0.0000 </r>
       <r>    0.3440    0.0000 </r>
       <r>    1.1031    0.0000 </r>
       <r>    2.1389    0.0000 </r>
       <r>    2.3026    0.0000 </r>
      </set>
      <set comment="kpoint 2">
       <r>  -17.2001    1.0000 </r>
       <r>  -14.7376    1.0000 </r>
       <r>  -11.4380    1.0000 </r>
       <r>   -7.9106    1.0000 </r>
       <r>   -6.9886    1.0000 </r>
       <r>   -6.7523    1.0000 </r>
       <r>   -5.7417    1.0000 </r>
       <r>   -4.1918    1.0000 </r>
       <r>   -3.9242    1.0000 </r>
       <r>   -2.2700    1.0000 </r>
       <r>   -1.3505    0.0000 </r>
       <r>   -0.3681    0.0000 </r>
       <r>    0.5264    0.0000 </r>
       <r>    0.9963    0.0000 </r>
       <r>    2.1668    0.0000 </r>
       <r>    2.3328    0.0000 </r>
      </set>
      <set comment="kpoint 3">
       <r>  -17.1190    1.0000 </r>
       <r>  -14.6531    1.0000 </r>
       <r>  -11.4706    1.0000 </r>
       <r>   -7.8500    1.0000 </r>
       <r>   -7.0633    1.0000 </r>
       <r>   -6.6824    1.0000 </r>
       <r>   -6.1694    1.0000 </r>
       <r>   -4.6150    1.0000 </r>
       <r>   -3.8938    1.0000 </r>
       <r>   -2.2896    1.0000 </r>
       <r>   -1.2755    0.0000 </r>
       <r>    0.2864    0.0000 </r>
       <r>    0.4116    0.0000 </r>
       <r>    1.2918    0.0000 </r>
       <r>    2.2456    0.0000 </r>
       <r>    2.4233    0.0000 </r>
      </set>
      <set comment="kpoint 4">
       <r>  -16.9842    1.0000 </r>
       <r>  -14.5124    1.0000 </r>
       <r>  -11.5431    1.0000 </r>
       <r>   -7.7516    1.0000 </r>
       <r>   -7.2565    1.0000 </r>
       <r>   -6.7005    1.0000 </r>
       <r>   -6.5446    1.0000 </r>
       <r>   -5.0454    1.0000 </r>
       <r>   -3.8557    1.0000 </r>
       <r>   -2.3499    1.0000 </r>
       <r>   -1.1520    0.0000 </r>
       <r>   -0.0687    0.0000 </r>
       <r>    1.1988    0.0000 </r>
       <r>    1.8947    0.0000 </r>
       <r>    2.3061    0.0000 </r>
       <r>    2.5740    0.0000 </r>
      </set>
      <set comment="kpoint 5">
       <r>  -16.7964    1.0000 </r>
       <r>  -14.3159    1.0000 </r>
       <r>  -11.6809    1.0000 </r>
       <r>   -7.6382    1.0000 </r>
       <r>   -7.6201    1.0000 </r>
       <r>   -7.1560    1.0000 </r>
       <r>   -6.3946    1.0000 </r>
       <r>   -5.3116    1.0000 </r>
       <r>   -3.8331    1.0000 </r>
       <r>   -2.4620    1.0000 </r>
       <r>   -0.9834    0.0000 </r>
       <r>   -0.5515    0.0000 </r>
       <r>    1.9031    0.0000 </r>
       <r>    1.9031    0.0000 </r>
       <r>    2.2254    0.0000 </r>
       <r>    2.6936    0.0000 </r>
      </set>
      <set comment="kpoint 6">
       <r>  -16.5566    1.0000 </r>
       <r>  -14.0640    1.0000 </r>
       <r>  -11.9100    1.0000 </r>
       <r>   -8.1942    1.0000 </r>
       <r>   -7.5023    1.0000 </r>
       <r>   -7.4640    1.0000 </r>
       <r>   -6.1936    1.0000 </r>
       <r>   -5.3817    1.0000 </r>
       <r>   -3.8604    1.0000 </r>
       <r>   -2.6349    1.0000 </r>
       <r>   -0.9300    0.0000 </r>
       <r>   -0.7774    0.0000 </r>
       <r>    1.3237    0.0000 </r>
       <r>    1.3362    0.0000 </r>
       <r>    2.6472    0.0000 </r>
       <r>    2.9468    0.0000 </r>
      </set>
      <set comment="kpoint 7">
       <r>  -16.2662    1.0000 </r>
       <r>  -13.7575    1.0000 </r>
       <r>  -12.2414    1.0000 </r>
       <r>   -8.8435    1.0000 </r>
       <r>   -7.6941    1.0000 </r>
       <r>   -7.2973    1.0000 </r>
       <r>   -5.9589    1.0000 </r>
       <r>   -5.3208    1.0000 </r>
       <r>   -3.9672    1.0000 </r>
       <r>   -2.8716    1.0000 </r>
       <r>   -1.1338    0.0000 </r>
       <r>   -0.5582    0.0000 </r>
       <r>    0.6706    0.0000 </r>
       <r>    0.8080    0.0000 </r>
       <r>    2.1967    0.0000 </r>
       <r>    3.2749    0.0000 </r>
      </set>
      <set comment="kpoint 8">
       <r>  -15.9271    1.0000 </r>
       <r>  -13.3979    1.0000 </r>
       <r>  -12.6610    1.0000 </r>
       <r>   -9.5205    1.0000 </r>
       <r>   -7.7348    1.0000 </r>
       <r>   -7.1440    1.0000 </r>
       <r>   -5.7019    1.0000 </r>
       <r>   -5.1956    1.0000 </r>
       <r>   -4.1396    1.0000 </r>
       <r>   -3.1634    1.0000 </r>
       <r>   -1.1408    0.0000 </r>
       <r>   -0.4253    0.0000 </r>
       <r>    0.0674    0.0000 </r>
       <r>    0.4550    0.0000 </r>
       <r>    1.6875    0.0000 </r>
       <r>    3.0198    0.0000 </r>
      </set>
      <set comment="kpoint 9">
       <r>  -15.5420    1.0000 </r>
       <r>  -13.1547    1.0000 </r>
       <r>  -12.9700    1.0000 </r>
       <r>  -10.1895    1.0000 </r>
       <r>   -7.6547    1.0000 </r>
       <r>   -7.0414    1.0000 </r>
       <r>   -5.4401    1.0000 </r>
       <r>   -5.0574    1.0000 </r>
       <r>   -4.3068    1.0000 </r>
       <r>   -3.4888    1.0000 </r>
       <r>   -0.9865    0.0000 </r>
       <r>   -0.5753    0.0000 </r>
       <r>   -0.4299    0.0000 </r>
       <r>    0.4964    0.0000 </r>
       <r>    1.1798    0.0000 </r>
       <r>    2.6074    0.0000 </r>
      </set>
      <set comment="kpoint 10">
       <r>  -15.1149    1.0000 </r>
       <r>  -13.6520    1.0000 </r>
       <r>  -12.5139    1.0000 </r>
       <r>  -10.8319    1.0000 </r>
       <r>   -7.4948    1.0000 </r>
       <r>   -7.0309    1.0000 </r>
       <r>   -5.2007    1.0000 </r>
       <r>   -4.9544    1.0000 </r>
       <r>   -4.3805    1.0000 </r>
       <r>   -3.8159    1.0000 </r>
       <r>   -0.8831    0.0000 </r>
       <r>   -0.8446    0.0000 </r>
       <r>   -0.6115    0.0000 </r>
       <r>    0.6149    0.0000 </r>
       <r>    0.8678    0.0000 </r>
       <r>    2.1497    0.0000 </r>
      </set>
      <set comment="kpoint 11">
       <r>  -14.6514    1.0000 </r>
       <r>  -14.1596    1.0000 </r>
       <r>  -11.9994    1.0000 </r>
       <r>  -11.4372    1.0000 </r>
       <r>   -7.3015    1.0000 </r>
       <r>   -7.1282    1.0000 </r>
       <r>   -5.0201    1.0000 </r>
       <r>   -4.9338    1.0000 </r>
       <r>   -4.3092    1.0000 </r>
       <r>   -4.1051    1.0000 </r>
       <r>   -1.0339    0.0000 </r>
       <r>   -1.0233    0.0000 </r>
       <r>   -0.2714    0.0000 </r>
       <r>    0.1645    0.0000 </r>
       <r>    1.2396    0.0000 </r>
       <r>    1.6846    0.0000 </r>
      </set>
      <set comment="kpoint 12">
       <r>  -17.2056    1.0000 </r>
       <r>  -14.7958    1.0000 </r>
       <r>  -11.4380    1.0000 </r>
       <r>   -8.0878    1.0000 </r>
       <r>   -6.8748    1.0000 </r>
       <r>   -6.6823    1.0000 </r>
       <r>   -5.5497    1.0000 </r>
       <r>   -4.0235    1.0000 </r>
       <r>   -3.8386    1.0000 </r>
       <r>   -2.4724    1.0000 </r>
       <r>   -1.1878    0.0000 </r>
       <r>   -0.5961    0.0000 </r>
       <r>    0.3033    0.0000 </r>
       <r>    1.0878    0.0000 </r>
       <r>    2.1975    0.0000 </r>
       <r>    2.3330    0.0000 </r>
      </set>
      <set comment="kpoint 13">
       <r>  -17.1805    1.0000 </r>
       <r>  -14.7658    1.0000 </r>
       <r>  -11.4401    1.0000 </r>
       <r>   -8.0649    1.0000 </r>
       <r>   -6.8853    1.0000 </r>
       <r>   -6.6897    1.0000 </r>
       <r>   -5.6986    1.0000 </r>
       <r>   -4.2289    1.0000 </r>
       <r>   -3.8392    1.0000 </r>
       <r>   -2.4584    1.0000 </r>
       <r>   -1.1741    0.0000 </r>
       <r>   -0.3634    0.0000 </r>
       <r>    0.4614    0.0000 </r>
       <r>    1.0213    0.0000 </r>
       <r>    2.2204    0.0000 </r>
       <r>    2.3601    0.0000 </r>
      </set>
      <set comment="kpoint 14">
       <r>  -17.1014    1.0000 </r>
       <r>  -14.6797    1.0000 </r>
       <r>  -11.4632    1.0000 </r>
       <r>   -8.0133    1.0000 </r>
       <r>   -6.9373    1.0000 </r>
       <r>   -6.6951    1.0000 </r>
       <r>   -6.0616    1.0000 </r>
       <r>   -4.6686    1.0000 </r>
       <r>   -3.8305    1.0000 </r>
       <r>   -2.4545    1.0000 </r>
       <r>   -1.1184    0.0000 </r>
       <r>    0.2818    0.0000 </r>
       <r>    0.3519    0.0000 </r>
       <r>    1.3403    0.0000 </r>
       <r>    2.2917    0.0000 </r>
       <r>    2.4472    0.0000 </r>
      </set>
      <set comment="kpoint 15">
       <r>  -16.9688    1.0000 </r>
       <r>  -14.5379    1.0000 </r>
       <r>  -11.5242    1.0000 </r>
       <r>   -7.9537    1.0000 </r>
       <r>   -7.0784    1.0000 </r>
       <r>   -6.8640    1.0000 </r>
       <r>   -6.3034    1.0000 </r>
       <r>   -5.1090    1.0000 </r>
       <r>   -3.8218    1.0000 </r>
       <r>   -2.4833    1.0000 </r>
       <r>   -1.0209    0.0000 </r>
       <r>   -0.0954    0.0000 </r>
       <r>    1.1882    0.0000 </r>
       <r>    1.9805    0.0000 </r>
       <r>    2.2115    0.0000 </r>
       <r>    2.4997    0.0000 </r>
      </set>
      <set comment="kpoint 16">
       <r>  -16.7832    1.0000 </r>
       <r>  -14.3407    1.0000 </r>
       <r>  -11.6493    1.0000 </r>
       <r>   -7.9793    1.0000 </r>
       <r>   -7.2979    1.0000 </r>
       <r>   -7.2403    1.0000 </r>
       <r>   -6.2549    1.0000 </r>
       <r>   -5.3745    1.0000 </r>
       <r>   -3.8346    1.0000 </r>
       <r>   -2.5620    1.0000 </r>
       <r>   -0.8797    0.0000 </r>
       <r>   -0.5459    0.0000 </r>
       <r>    1.6211    0.0000 </r>
       <r>    2.1126    0.0000 </r>
       <r>    2.2398    0.0000 </r>
       <r>    2.6496    0.0000 </r>
      </set>
      <set comment="kpoint 17">
       <r>  -16.5456    1.0000 </r>
       <r>  -14.0890    1.0000 </r>
       <r>  -11.8663    1.0000 </r>
       <r>   -8.3218    1.0000 </r>
       <r>   -7.5633    1.0000 </r>
       <r>   -7.3568    1.0000 </r>
       <r>   -6.1020    1.0000 </r>
       <r>   -5.4384    1.0000 </r>
       <r>   -3.8975    1.0000 </r>
       <r>   -2.7043    1.0000 </r>
       <r>   -0.8892    0.0000 </r>
       <r>   -0.6990    0.0000 </r>
       <r>    1.0445    0.0000 </r>
       <r>    1.5602    0.0000 </r>
       <r>    2.7562    0.0000 </r>
       <r>    3.0479    0.0000 </r>
      </set>
      <set comment="kpoint 18">
       <r>  -16.2577    1.0000 </r>
       <r>  -13.7846    1.0000 </r>
       <r>  -12.1870    1.0000 </r>
       <r>   -8.9105    1.0000 </r>
       <r>   -7.7433    1.0000 </r>
       <r>   -7.2512    1.0000 </r>
       <r>   -5.9057    1.0000 </r>
       <r>   -5.3787    1.0000 </r>
       <r>   -4.0240    1.0000 </r>
       <r>   -2.9143    1.0000 </r>
       <r>   -1.0634    0.0000 </r>
       <r>   -0.5083    0.0000 </r>
       <r>    0.5383    0.0000 </r>
       <r>    0.8983    0.0000 </r>
       <r>    2.4916    0.0000 </r>
       <r>    3.2023    0.0000 </r>
      </set>
      <set comment="kpoint 19">
       <r>  -15.9214    1.0000 </r>
       <r>  -13.4346    1.0000 </r>
       <r>  -12.5922    1.0000 </r>
       <r>   -9.5669    1.0000 </r>
       <r>   -7.7733    1.0000 </r>
       <r>   -7.1177    1.0000 </r>
       <r>   -5.6896    1.0000 </r>
       <r>   -5.2727    1.0000 </r>
       <r>   -4.1781    1.0000 </r>
       <r>   -3.1801    1.0000 </r>
       <r>   -1.0560    0.0000 </r>
       <r>   -0.4601    0.0000 </r>
       <r>    0.2731    0.0000 </r>
       <r>    0.2789    0.0000 </r>
       <r>    2.0307    0.0000 </r>
       <r>    2.9342    0.0000 </r>
      </set>
      <set comment="kpoint 20">
       <r>  -15.5397    1.0000 </r>
       <r>  -13.1967    1.0000 </r>
       <r>  -12.8943    1.0000 </r>
       <r>  -10.2258    1.0000 </r>
       <r>   -7.6817    1.0000 </r>
       <r>   -7.0281    1.0000 </r>
       <r>   -5.4789    1.0000 </r>
       <r>   -5.1761    1.0000 </r>
       <r>   -4.2775    1.0000 </r>
       <r>   -3.4739    1.0000 </r>
       <r>   -0.8970    0.0000 </r>
       <r>   -0.7117    0.0000 </r>
       <r>   -0.2635    0.0000 </r>
       <r>    0.4406    0.0000 </r>
       <r>    1.5342    0.0000 </r>
       <r>    2.5324    0.0000 </r>
      </set>
      <set comment="kpoint 21">
       <r>  -15.1168    1.0000 </r>
       <r>  -13.6223    1.0000 </r>
       <r>  -12.5101    1.0000 </r>
       <r>  -10.8609    1.0000 </r>
       <r>   -7.5100    1.0000 </r>
       <r>   -7.0373    1.0000 </r>
       <r>   -5.3068    1.0000 </r>
       <r>   -5.1022    1.0000 </r>
       <r>   -4.2683    1.0000 </r>
       <r>   -3.7571    1.0000 </r>
       <r>   -0.9965    0.0000 </r>
       <r>   -0.7182    0.0000 </r>
       <r>   -0.5775    0.0000 </r>
       <r>    0.7576    0.0000 </r>
       <r>    1.0577    0.0000 </r>
       <r>    2.0900    0.0000 </r>
      </set>
      <set comment="kpoint 22">
       <r>  -14.6592    1.0000 </r>
       <r>  -14.1233    1.0000 </r>
       <r>  -12.0034    1.0000 </r>
       <r>  -11.4589    1.0000 </r>
       <r>   -7.3069    1.0000 </r>
       <r>   -7.1599    1.0000 </r>
       <r>   -5.2054    1.0000 </r>
       <r>   -5.0343    1.0000 </r>
       <r>   -4.1748    1.0000 </r>
       <r>   -3.9929    1.0000 </r>
       <r>   -1.1637    0.0000 </r>
       <r>   -0.9229    0.0000 </r>
       <r>   -0.2587    0.0000 </r>
       <r>    0.5066    0.0000 </r>
       <r>    1.2333    0.0000 </r>
       <r>    1.6518    0.0000 </r>
      </set>
      <set comment="kpoint 23">
       <r>  -14.6141    1.0000 </r>
       <r>  -14.1775    1.0000 </r>
       <r>  -12.0104    1.0000 </r>
       <r>  -11.4447    1.0000 </r>
       <r>   -7.3553    1.0000 </r>
       <r>   -7.1302    1.0000 </r>
       <r>   -5.1724    1.0000 </r>
       <r>   -5.0137    1.0000 </r>
       <r>   -4.1644    1.0000 </r>
       <r>   -4.0159    1.0000 </r>
       <r>   -1.1587    0.0000 </r>
       <r>   -0.9537    0.0000 </r>
       <r>    0.0678    0.0000 </r>
       <r>    0.1196    0.0000 </r>
       <r>    1.2643    0.0000 </r>
       <r>    1.6771    0.0000 </r>
      </set>
      <set comment="kpoint 24">
       <r>  -15.0782    1.0000 </r>
       <r>  -13.6937    1.0000 </r>
       <r>  -12.5015    1.0000 </r>
       <r>  -10.8425    1.0000 </r>
       <r>   -7.5630    1.0000 </r>
       <r>   -7.0405    1.0000 </r>
       <r>   -5.1663    1.0000 </r>
       <r>   -5.1013    1.0000 </r>
       <r>   -4.2658    1.0000 </r>
       <r>   -3.7813    1.0000 </r>
       <r>   -0.9914    0.0000 </r>
       <r>   -0.7959    0.0000 </r>
       <r>   -0.2858    0.0000 </r>
       <r>    0.3881    0.0000 </r>
       <r>    1.0703    0.0000 </r>
       <r>    2.1415    0.0000 </r>
      </set>
      <set comment="kpoint 25">
       <r>  -15.5065    1.0000 </r>
       <r>  -13.3197    1.0000 </r>
       <r>  -12.8356    1.0000 </r>
       <r>  -10.2050    1.0000 </r>
       <r>   -7.7303    1.0000 </r>
       <r>   -7.0649    1.0000 </r>
       <r>   -5.2871    1.0000 </r>
       <r>   -5.1858    1.0000 </r>
       <r>   -4.2572    1.0000 </r>
       <r>   -3.4945    1.0000 </r>
       <r>   -0.8668    0.0000 </r>
       <r>   -0.5253    0.0000 </r>
       <r>   -0.3441    0.0000 </r>
       <r>    0.3249    0.0000 </r>
       <r>    1.3167    0.0000 </r>
       <r>    2.5957    0.0000 </r>
      </set>
      <set comment="kpoint 26">
       <r>  -15.8930    1.0000 </r>
       <r>  -13.4904    1.0000 </r>
       <r>  -12.6014    1.0000 </r>
       <r>   -9.5458    1.0000 </r>
       <r>   -7.8123    1.0000 </r>
       <r>   -7.1739    1.0000 </r>
       <r>   -5.5234    1.0000 </r>
       <r>   -5.2626    1.0000 </r>
       <r>   -4.1183    1.0000 </r>
       <r>   -3.2015    1.0000 </r>
       <r>   -0.9644    0.0000 </r>
       <r>   -0.3751    0.0000 </r>
       <r>    0.0657    0.0000 </r>
       <r>    0.3619    0.0000 </r>
       <r>    1.7443    0.0000 </r>
       <r>    3.0017    0.0000 </r>
      </set>
      <set comment="kpoint 27">
       <r>  -16.2337    1.0000 </r>
       <r>  -13.8180    1.0000 </r>
       <r>  -12.2179    1.0000 </r>
       <r>   -8.8924    1.0000 </r>
       <r>   -7.7694    1.0000 </r>
       <r>   -7.3111    1.0000 </r>
       <r>   -5.7704    1.0000 </r>
       <r>   -5.3627    1.0000 </r>
       <r>   -3.9295    1.0000 </r>
       <r>   -2.9419    1.0000 </r>
       <r>   -0.9829    0.0000 </r>
       <r>   -0.5053    0.0000 </r>
       <r>    0.6438    0.0000 </r>
       <r>    0.7712    0.0000 </r>
       <r>    2.1897    0.0000 </r>
       <r>    3.3013    0.0000 </r>
      </set>
      <set comment="kpoint 28">
       <r>  -16.5259    1.0000 </r>
       <r>  -14.1129    1.0000 </r>
       <r>  -11.9033    1.0000 </r>
       <r>   -8.3154    1.0000 </r>
       <r>   -7.5735    1.0000 </r>
       <r>   -7.4056    1.0000 </r>
       <r>   -6.0027    1.0000 </r>
       <r>   -5.4162    1.0000 </r>
       <r>   -3.7881    1.0000 </r>
       <r>   -2.7405    1.0000 </r>
       <r>   -0.8216    0.0000 </r>
       <r>   -0.6964    0.0000 </r>
       <r>    1.2750    0.0000 </r>
       <r>    1.3238    0.0000 </r>
       <r>    2.5633    0.0000 </r>
       <r>    3.0983    0.0000 </r>
      </set>
      <set comment="kpoint 29">
       <r>  -16.7675    1.0000 </r>
       <r>  -14.3583    1.0000 </r>
       <r>  -11.6853    1.0000 </r>
       <r>   -8.0021    1.0000 </r>
       <r>   -7.3170    1.0000 </r>
       <r>   -7.2258    1.0000 </r>
       <r>   -6.2024    1.0000 </r>
       <r>   -5.3429    1.0000 </r>
       <r>   -3.7310    1.0000 </r>
       <r>   -2.6044    1.0000 </r>
       <r>   -0.8668    0.0000 </r>
       <r>   -0.4804    0.0000 </r>
       <r>    1.8203    0.0000 </r>
       <r>    1.8598    0.0000 </r>
       <r>    2.3508    0.0000 </r>
       <r>    2.6854    0.0000 </r>
      </set>
      <set comment="kpoint 30">
       <r>  -16.9571    1.0000 </r>
       <r>  -14.5505    1.0000 </r>
       <r>  -11.5544    1.0000 </r>
       <r>   -7.9860    1.0000 </r>
       <r>   -7.0853    1.0000 </r>
       <r>   -6.7866    1.0000 </r>
       <r>   -6.3371    1.0000 </r>
       <r>   -5.0688    1.0000 </r>
       <r>   -3.7381    1.0000 </r>
       <r>   -2.5258    1.0000 </r>
       <r>   -1.0014    0.0000 </r>
       <r>   -0.0199    0.0000 </r>
       <r>    1.2298    0.0000 </r>
       <r>    1.7883    0.0000 </r>
       <r>    2.3735    0.0000 </r>
       <r>    2.6123    0.0000 </r>
      </set>
      <set comment="kpoint 31">
       <r>  -17.0937    1.0000 </r>
       <r>  -14.6879    1.0000 </r>
       <r>  -11.4847    1.0000 </r>
       <r>   -8.0378    1.0000 </r>
       <r>   -6.9427    1.0000 </r>
       <r>   -6.5909    1.0000 </r>
       <r>   -6.1436    1.0000 </r>
       <r>   -4.6285    1.0000 </r>
       <r>   -3.7739    1.0000 </r>
       <r>   -2.4893    1.0000 </r>
       <r>   -1.0985    0.0000 </r>
       <r>    0.3218    0.0000 </r>
       <r>    0.4596    0.0000 </r>
       <r>    1.1805    0.0000 </r>
       <r>    2.3064    0.0000 </r>
       <r>    2.4593    0.0000 </r>
      </set>
      <set comment="kpoint 32">
       <r>  -17.1767    1.0000 </r>
       <r>  -14.7698    1.0000 </r>
       <r>  -11.4511    1.0000 </r>
       <r>   -8.0777    1.0000 </r>
       <r>   -6.8884    1.0000 </r>
       <r>   -6.6441    1.0000 </r>
       <r>   -5.7373    1.0000 </r>
       <r>   -4.2007    1.0000 </r>
       <r>   -3.8127    1.0000 </r>
       <r>   -2.4783    1.0000 </r>
       <r>   -1.1602    0.0000 </r>
       <r>   -0.3401    0.0000 </r>
       <r>    0.5223    0.0000 </r>
       <r>    0.9370    0.0000 </r>
       <r>    2.2280    0.0000 </r>
       <r>    2.3661    0.0000 </r>
      </set>
      <set comment="kpoint 33">
       <r>  -17.1415    1.0000 </r>
       <r>  -14.8858    1.0000 </r>
       <r>  -11.4525    1.0000 </r>
       <r>   -8.4419    1.0000 </r>
       <r>   -6.6819    1.0000 </r>
       <r>   -6.4153    1.0000 </r>
       <r>   -5.5022    1.0000 </r>
       <r>   -4.0702    1.0000 </r>
       <r>   -3.5792    1.0000 </r>
       <r>   -2.8715    1.0000 </r>
       <r>   -0.8288    0.0000 </r>
       <r>   -0.5458    0.0000 </r>
       <r>    0.1844    0.0000 </r>
       <r>    1.0498    0.0000 </r>
       <r>    2.3657    0.0000 </r>
       <r>    2.4234    0.0000 </r>
      </set>
      <set comment="kpoint 34">
       <r>  -17.1184    1.0000 </r>
       <r>  -14.8540    1.0000 </r>
       <r>  -11.4476    1.0000 </r>
       <r>   -8.4189    1.0000 </r>
       <r>   -6.6822    1.0000 </r>
       <r>   -6.4719    1.0000 </r>
       <r>   -5.6053    1.0000 </r>
       <r>   -4.2976    1.0000 </r>
       <r>   -3.5984    1.0000 </r>
       <r>   -2.8506    1.0000 </r>
       <r>   -0.8203    0.0000 </r>
       <r>   -0.3256    0.0000 </r>
       <r>    0.3547    0.0000 </r>
       <r>    1.0074    0.0000 </r>
       <r>    2.3825    0.0000 </r>
       <r>    2.4474    0.0000 </r>
      </set>
      <set comment="kpoint 35">
       <r>  -17.0414    1.0000 </r>
       <r>  -14.7671    1.0000 </r>
       <r>  -11.4565    1.0000 </r>
       <r>   -8.3760    1.0000 </r>
       <r>   -6.7044    1.0000 </r>
       <r>   -6.6174    1.0000 </r>
       <r>   -5.8420    1.0000 </r>
       <r>   -4.7702    1.0000 </r>
       <r>   -3.6219    1.0000 </r>
       <r>   -2.8263    1.0000 </r>
       <r>   -0.7816    0.0000 </r>
       <r>    0.3081    0.0000 </r>
       <r>    0.3177    0.0000 </r>
       <r>    1.3161    0.0000 </r>
       <r>    2.4328    0.0000 </r>
       <r>    2.4982    0.0000 </r>
      </set>
      <set comment="kpoint 36">
       <r>  -16.9110    1.0000 </r>
       <r>  -14.6257    1.0000 </r>
       <r>  -11.4958    1.0000 </r>
       <r>   -8.3364    1.0000 </r>
       <r>   -6.9507    1.0000 </r>
       <r>   -6.8007    1.0000 </r>
[...]
       <r>    3.1595    0.0000 </r>
       <r>    3.5320    0.0000 </r>
      </set>
      <set comment="kpoint 153">
       <r>  -15.2712    1.0000 </r>
       <r>  -15.1656    1.0000 </r>
       <r>  -10.9416    1.0000 </r>
       <r>  -10.5551    1.0000 </r>
       <r>   -7.9190    1.0000 </r>
       <r>   -7.7864    1.0000 </r>
       <r>   -5.3294    1.0000 </r>
       <r>   -4.9393    1.0000 </r>
       <r>   -3.8032    1.0000 </r>
       <r>   -3.7629    1.0000 </r>
       <r>    0.4194    0.0000 </r>
       <r>    0.5657    0.0000 </r>
       <r>    1.0357    0.0000 </r>
       <r>    1.5222    0.0000 </r>
       <r>    3.2077    0.0000 </r>
       <r>    3.4407    0.0000 </r>
      </set>
      <set comment="kpoint 154">
       <r>  -15.5551    1.0000 </r>
       <r>  -15.4181    1.0000 </r>
       <r>  -10.7737    1.0000 </r>
       <r>  -10.4179    1.0000 </r>
       <r>   -7.6267    1.0000 </r>
       <r>   -7.4156    1.0000 </r>
       <r>   -5.1625    1.0000 </r>
       <r>   -4.8286    1.0000 </r>
       <r>   -3.7297    1.0000 </r>
       <r>   -3.6711    1.0000 </r>
       <r>    0.4169    0.0000 </r>
       <r>    0.5084    0.0000 </r>
       <r>    1.1687    0.0000 </r>
       <r>    1.6172    0.0000 </r>
       <r>    3.0138    0.0000 </r>
       <r>    3.3297    0.0000 </r>
      </set>
      <set comment="kpoint 155">
       <r>  -15.7947    1.0000 </r>
       <r>  -15.6304    1.0000 </r>
       <r>  -10.7229    1.0000 </r>
       <r>  -10.3972    1.0000 </r>
       <r>   -7.1329    1.0000 </r>
       <r>   -6.8524    1.0000 </r>
       <r>   -5.1496    1.0000 </r>
       <r>   -4.8471    1.0000 </r>
       <r>   -3.5448    1.0000 </r>
       <r>   -3.5355    1.0000 </r>
       <r>    0.5079    0.0000 </r>
       <r>    0.5150    0.0000 </r>
       <r>    1.2088    0.0000 </r>
       <r>    1.6028    0.0000 </r>
       <r>    2.4395    0.0000 </r>
       <r>    2.7557    0.0000 </r>
      </set>
      <set comment="kpoint 156">
       <r>  -15.9863    1.0000 </r>
       <r>  -15.7968    1.0000 </r>
       <r>  -10.7389    1.0000 </r>
       <r>  -10.4303    1.0000 </r>
       <r>   -6.5095    1.0000 </r>
       <r>   -6.1840    1.0000 </r>
       <r>   -5.2063    1.0000 </r>
       <r>   -4.9091    1.0000 </r>
       <r>   -3.4570    1.0000 </r>
       <r>   -3.3610    1.0000 </r>
       <r>    0.5200    0.0000 </r>
       <r>    0.6706    0.0000 </r>
       <r>    1.1629    0.0000 </r>
       <r>    1.4288    0.0000 </r>
       <r>    1.8640    0.0000 </r>
       <r>    1.9783    0.0000 </r>
      </set>
      <set comment="kpoint 157">
       <r>  -16.1275    1.0000 </r>
       <r>  -15.9143    1.0000 </r>
       <r>  -10.7767    1.0000 </r>
       <r>  -10.4735    1.0000 </r>
       <r>   -5.8381    1.0000 </r>
       <r>   -5.5158    1.0000 </r>
       <r>   -5.2566    1.0000 </r>
       <r>   -4.9679    1.0000 </r>
       <r>   -3.4846    1.0000 </r>
       <r>   -3.2643    1.0000 </r>
       <r>    0.3116    0.0000 </r>
       <r>    0.5452    0.0000 </r>
       <r>    1.1743    0.0000 </r>
       <r>    1.1900    0.0000 </r>
       <r>    1.5007    0.0000 </r>
       <r>    1.6665    0.0000 </r>
      </set>
      <set comment="kpoint 158">
       <r>  -16.2170    1.0000 </r>
       <r>  -15.9809    1.0000 </r>
       <r>  -10.8093    1.0000 </r>
       <r>  -10.5039    1.0000 </r>
       <r>   -5.3493    1.0000 </r>
       <r>   -5.2230    1.0000 </r>
       <r>   -5.0040    1.0000 </r>
       <r>   -4.9028    1.0000 </r>
       <r>   -3.6267    1.0000 </r>
       <r>   -3.2776    1.0000 </r>
       <r>   -0.0699    0.0000 </r>
       <r>    0.0958    0.0000 </r>
       <r>    1.2204    0.0000 </r>
       <r>    1.2302    0.0000 </r>
       <r>    1.4824    0.0000 </r>
       <r>    1.5909    0.0000 </r>
      </set>
     </set>
    </set>
   </array>
  </eigenvalues>
  <separator name="orbital magnetization" >
   <v name="MAGDIPOLOUT">      0.00000000      0.00000000      0.00000000</v>
  </separator>
  <dos>
   <i name="efermi">     -2.12772651 </i>
   <total>
    <array>
     <dimension dim="1">gridpoints</dimension>
     <dimension dim="2">spin</dimension>
     <field>energy</field>
     <field>total</field>
     <field>integrated</field>
     <set>
      <set comment="spin 1">
       <r>   -18.2750     0.0000     0.0000 </r>
       <r>   -18.1982     0.0000     0.0000 </r>
       <r>   -18.1213     0.0000     0.0000 </r>
       <r>   -18.0445     0.0000     0.0000 </r>
       <r>   -17.9677     0.0000     0.0000 </r>
       <r>   -17.8908     0.0000     0.0000 </r>
       <r>   -17.8140     0.0000     0.0000 </r>
       <r>   -17.7371     0.0000     0.0000 </r>
       <r>   -17.6603     0.0000     0.0000 </r>
       <r>   -17.5834     0.0000     0.0000 </r>
       <r>   -17.5066     0.0000     0.0000 </r>
       <r>   -17.4297     0.0000     0.0000 </r>
       <r>   -17.3529     0.0000     0.0000 </r>
       <r>   -17.2760     0.0000     0.0000 </r>
       <r>   -17.1992     0.3036     0.0233 </r>
       <r>   -17.1223     0.7708     0.0826 </r>
       <r>   -17.0455     0.7816     0.1426 </r>
       <r>   -16.9687     0.9673     0.2170 </r>
       <r>   -16.8918     0.8630     0.2833 </r>
       <r>   -16.8150     0.6336     0.3320 </r>
       <r>   -16.7381     1.0864     0.4155 </r>
       <r>   -16.6613     0.8902     0.4839 </r>
       <r>   -16.5844     0.7369     0.5405 </r>
       <r>   -16.5076     0.7635     0.5992 </r>
       <r>   -16.4307     1.2865     0.6980 </r>
       <r>   -16.3539     0.5954     0.7438 </r>
       <r>   -16.2770     0.5582     0.7867 </r>
       <r>   -16.2002     1.5587     0.9065 </r>
       <r>   -16.1233     0.7432     0.9636 </r>
       <r>   -16.0465     0.6744     1.0154 </r>
       <r>   -15.9697     1.0438     1.0956 </r>
       <r>   -15.8928     1.0593     1.1770 </r>
       <r>   -15.8160     0.9074     1.2468 </r>
       <r>   -15.7391     0.8109     1.3091 </r>
       <r>   -15.6623     1.1553     1.3979 </r>
       <r>   -15.5854     0.7245     1.4535 </r>
       <r>   -15.5086     1.2842     1.5522 </r>
       <r>   -15.4317     1.1225     1.6385 </r>
       <r>   -15.3549     1.0744     1.7210 </r>
       <r>   -15.2780     0.9601     1.7948 </r>
       <r>   -15.2012     0.8523     1.8603 </r>
       <r>   -15.1243     1.3131     1.9612 </r>
       <r>   -15.0475     1.0824     2.0444 </r>
       <r>   -14.9707     1.8173     2.1840 </r>
       <r>   -14.8938     1.1440     2.2719 </r>
       <r>   -14.8170     1.1252     2.3584 </r>
       <r>   -14.7401     2.2340     2.5301 </r>
       <r>   -14.6633     0.8476     2.5952 </r>
       <r>   -14.5864     2.3253     2.7739 </r>
       <r>   -14.5096     1.2417     2.8693 </r>
       <r>   -14.4327     1.1393     2.9569 </r>
       <r>   -14.3559     1.2156     3.0503 </r>
       <r>   -14.2790     1.0352     3.1299 </r>
       <r>   -14.2022     0.9572     3.2034 </r>
       <r>   -14.1253     2.2846     3.3790 </r>
       <r>   -14.0485     1.2555     3.4755 </r>
       <r>   -13.9717     0.6544     3.5258 </r>
       <r>   -13.8948     1.4451     3.6368 </r>
       <r>   -13.8180     0.6060     3.6834 </r>
       <r>   -13.7411     0.9045     3.7529 </r>
       <r>   -13.6643     0.8543     3.8185 </r>
       <r>   -13.5874     0.7158     3.8736 </r>
       <r>   -13.5106     0.4088     3.9050 </r>
       <r>   -13.4337     0.3329     3.9305 </r>
       <r>   -13.3569     0.3080     3.9542 </r>
       <r>   -13.2800     0.2649     3.9746 </r>
       <r>   -13.2032     0.0540     3.9787 </r>
       <r>   -13.1263     0.2732     3.9997 </r>
       <r>   -13.0495     0.0037     4.0000 </r>
       <r>   -12.9726     0.0705     4.0054 </r>
       <r>   -12.8958     0.1701     4.0185 </r>
       <r>   -12.8190     0.2353     4.0366 </r>
       <r>   -12.7421     0.0202     4.0381 </r>
       <r>   -12.6653     0.3300     4.0635 </r>
       <r>   -12.5884     0.4011     4.0943 </r>
       <r>   -12.5116     0.3291     4.1196 </r>
       <r>   -12.4347     1.2249     4.2137 </r>
       <r>   -12.3579     0.4087     4.2451 </r>
       <r>   -12.2810     0.4349     4.2786 </r>
       <r>   -12.2042     1.0742     4.3611 </r>
       <r>   -12.1273     0.6554     4.4115 </r>
       <r>   -12.0505     1.9280     4.5596 </r>
       <r>   -11.9736     1.7037     4.6905 </r>
       <r>   -11.8968     0.9135     4.7607 </r>
       <r>   -11.8200     1.0416     4.8408 </r>
       <r>   -11.7431     0.9888     4.9168 </r>
       <r>   -11.6663     1.1770     5.0072 </r>
       <r>   -11.5894     1.1078     5.0923 </r>
       <r>   -11.5126     1.9151     5.2395 </r>
       <r>   -11.4357     4.2391     5.5653 </r>
       <r>   -11.3589     2.2253     5.7363 </r>
       <r>   -11.2820     0.7347     5.7927 </r>
       <r>   -11.2052     2.0270     5.9485 </r>
       <r>   -11.1283     0.6585     5.9991 </r>
       <r>   -11.0515     1.0483     6.0797 </r>
       <r>   -10.9746     1.4820     6.1935 </r>
       <r>   -10.8978     0.6823     6.2460 </r>
       <r>   -10.8210     1.2151     6.3394 </r>
       <r>   -10.7441     1.1867     6.4305 </r>
       <r>   -10.6673     0.6867     6.4833 </r>
       <r>   -10.5904     0.4832     6.5204 </r>
       <r>   -10.5136     0.6221     6.5683 </r>
       <r>   -10.4367     0.9919     6.6445 </r>
       <r>   -10.3599     1.0882     6.7281 </r>
       <r>   -10.2830     0.4094     6.7596 </r>
       <r>   -10.2062     0.7633     6.8182 </r>
       <r>   -10.1293     0.6540     6.8685 </r>
       <r>   -10.0525     1.1241     6.9549 </r>
       <r>    -9.9756     0.6301     7.0033 </r>
       <r>    -9.8988     0.2355     7.0214 </r>
       <r>    -9.8220     0.2691     7.0420 </r>
       <r>    -9.7451     0.3229     7.0669 </r>
       <r>    -9.6683     1.2540     7.1632 </r>
       <r>    -9.5914     0.9117     7.2333 </r>
       <r>    -9.5146     0.5829     7.2781 </r>
       <r>    -9.4377     0.0580     7.2825 </r>
       <r>    -9.3609     0.0015     7.2827 </r>
       <r>    -9.2840     1.1185     7.3686 </r>
       <r>    -9.2072     0.8091     7.4308 </r>
       <r>    -9.1303     0.2191     7.4476 </r>
       <r>    -9.0535     0.2187     7.4644 </r>
       <r>    -8.9766     0.1168     7.4734 </r>
       <r>    -8.8998     0.5071     7.5124 </r>
       <r>    -8.8230     1.1088     7.5976 </r>
       <r>    -8.7461     0.6737     7.6494 </r>
       <r>    -8.6693     0.0187     7.6508 </r>
       <r>    -8.5924     0.2248     7.6681 </r>
       <r>    -8.5156     0.1057     7.6762 </r>
       <r>    -8.4387     0.2018     7.6917 </r>
       <r>    -8.3619     1.0264     7.7706 </r>
       <r>    -8.2850     0.5861     7.8156 </r>
       <r>    -8.2082     0.0634     7.8205 </r>
       <r>    -8.1313     0.9298     7.8919 </r>
       <r>    -8.0545     2.2889     8.0678 </r>
       <r>    -7.9776     2.1622     8.2340 </r>
       <r>    -7.9008     1.6953     8.3643 </r>
       <r>    -7.8240     2.0868     8.5246 </r>
       <r>    -7.7471     2.5516     8.7207 </r>
       <r>    -7.6703     1.9889     8.8736 </r>
       <r>    -7.5934     1.6164     8.9978 </r>
       <r>    -7.5166     2.0615     9.1562 </r>
       <r>    -7.4397     1.6095     9.2799 </r>
       <r>    -7.3629     2.7505     9.4912 </r>
       <r>    -7.2860     2.4846     9.6822 </r>
       <r>    -7.2092     3.5599     9.9557 </r>
       <r>    -7.1323     2.9917    10.1856 </r>
       <r>    -7.0555     3.1507    10.4278 </r>
       <r>    -6.9786     2.2997    10.6045 </r>
       <r>    -6.9018     1.2795    10.7028 </r>
       <r>    -6.8250     1.5490    10.8218 </r>
       <r>    -6.7481     1.4232    10.9312 </r>
       <r>    -6.6713     1.9609    11.0819 </r>
       <r>    -6.5944     1.7078    11.2131 </r>
       <r>    -6.5176     1.4364    11.3235 </r>
       <r>    -6.4407     1.6604    11.4511 </r>
       <r>    -6.3639     1.1317    11.5381 </r>
       <r>    -6.2870     1.6416    11.6642 </r>
       <r>    -6.2102     1.6426    11.7905 </r>
       <r>    -6.1333     1.8782    11.9348 </r>
       <r>    -6.0565     1.5261    12.0521 </r>
       <r>    -5.9796     1.4873    12.1664 </r>
       <r>    -5.9028     2.7121    12.3748 </r>
       <r>    -5.8260     0.8406    12.4394 </r>
       <r>    -5.7491     2.3115    12.6170 </r>
       <r>    -5.6723     2.6123    12.8177 </r>
       <r>    -5.5954     3.7912    13.1091 </r>
       <r>    -5.5186     3.7248    13.3953 </r>
       <r>    -5.4417     3.6763    13.6778 </r>
       <r>    -5.3649     4.3574    14.0127 </r>
       <r>    -5.2880     2.8662    14.2329 </r>
       <r>    -5.2112     2.3422    14.4129 </r>
       <r>    -5.1343     3.3290    14.6687 </r>
       <r>    -5.0575     2.0529    14.8265 </r>
       <r>    -4.9806     2.9926    15.0565 </r>
       <r>    -4.9038     2.0654    15.2152 </r>
       <r>    -4.8270     1.4200    15.3243 </r>
       <r>    -4.7501     0.9527    15.3975 </r>
       <r>    -4.6733     1.6219    15.5222 </r>
       <r>    -4.5964     1.3449    15.6255 </r>
       <r>    -4.5196     1.7486    15.7599 </r>
       <r>    -4.4427     0.4292    15.7929 </r>
       <r>    -4.3659     0.9936    15.8692 </r>
       <r>    -4.2890     0.9420    15.9416 </r>
       <r>    -4.2122     2.0489    16.0991 </r>
       <r>    -4.1353     2.5624    16.2960 </r>
       <r>    -4.0585     2.5953    16.4954 </r>
       <r>    -3.9816     2.0329    16.6516 </r>
       <r>    -3.9048     2.9095    16.8752 </r>
       <r>    -3.8279     3.0503    17.1096 </r>
       <r>    -3.7511     4.2143    17.4335 </r>
       <r>    -3.6743     4.1115    17.7494 </r>
       <r>    -3.5974     3.2684    18.0006 </r>
       <r>    -3.5206     3.0921    18.2382 </r>
       <r>    -3.4437     3.4182    18.5009 </r>
       <r>    -3.3669     3.0988    18.7390 </r>
       <r>    -3.2900     2.4996    18.9311 </r>
       <r>    -3.2132     3.6442    19.2111 </r>
       <r>    -3.1363     1.9005    19.3572 </r>
       <r>    -3.0595     0.8953    19.4260 </r>
       <r>    -2.9826     0.5403    19.4675 </r>
       <r>    -2.9058     1.7627    19.6030 </r>
       <r>    -2.8289     1.7024    19.7338 </r>
       <r>    -2.7521     0.7690    19.7929 </r>
       <r>    -2.6753     0.2964    19.8156 </r>
       <r>    -2.5984     0.2778    19.8370 </r>
       <r>    -2.5216     0.3251    19.8620 </r>
       <r>    -2.4447     1.1252    19.9484 </r>
       <r>    -2.3679     0.1094    19.9569 </r>
       <r>    -2.2910     0.2413    19.9754 </r>
       <r>    -2.2142     0.3202    20.0000 </r>
       <r>    -2.1373     0.0000    20.0000 </r>
       <r>    -2.0605     0.0000    20.0000 </r>
       <r>    -1.9836     0.0000    20.0000 </r>
       <r>    -1.9068     0.0000    20.0000 </r>
       <r>    -1.8299     0.0000    20.0000 </r>
       <r>    -1.7531     0.0000    20.0000 </r>
       <r>    -1.6763     0.0000    20.0000 </r>
       <r>    -1.5994     0.0000    20.0000 </r>
       <r>    -1.5226     0.0000    20.0000 </r>
       <r>    -1.4457     0.0000    20.0000 </r>
       <r>    -1.3689     0.0722    20.0055 </r>
       <r>    -1.2920     0.1958    20.0206 </r>
       <r>    -1.2152     0.2719    20.0415 </r>
       <r>    -1.1383     1.2612    20.1384 </r>
       <r>    -1.0615     1.2443    20.2340 </r>
       <r>    -0.9846     1.3192    20.3354 </r>
       <r>    -0.9078     1.6547    20.4626 </r>
       <r>    -0.8309     2.0064    20.6167 </r>
       <r>    -0.7541     1.9022    20.7629 </r>
       <r>    -0.6773     1.3267    20.8649 </r>
       <r>    -0.6004     1.6581    20.9923 </r>
       <r>    -0.5236     3.0704    21.2282 </r>
       <r>    -0.4467     1.7691    21.3642 </r>
       <r>    -0.3699     2.1324    21.5280 </r>
       <r>    -0.2930     3.0518    21.7626 </r>
       <r>    -0.2162     2.4002    21.9470 </r>
       <r>    -0.1393     3.0868    22.1842 </r>
       <r>    -0.0625     2.3860    22.3676 </r>
       <r>     0.0144     3.1934    22.6130 </r>
       <r>     0.0912     3.4689    22.8795 </r>
       <r>     0.1681     3.4576    23.1452 </r>
       <r>     0.2449     3.0483    23.3795 </r>
       <r>     0.3217     4.0699    23.6922 </r>
       <r>     0.3986     4.5356    24.0408 </r>
       <r>     0.4754     4.5068    24.3871 </r>
       <r>     0.5523     4.2571    24.7143 </r>
       <r>     0.6291     2.9941    24.9444 </r>
       <r>     0.7060     4.0452    25.2552 </r>
       <r>     0.7828     2.1287    25.4188 </r>
       <r>     0.8597     4.2337    25.7441 </r>
       <r>     0.9365     2.6623    25.9487 </r>
       <r>     1.0134     2.6931    26.1557 </r>
       <r>     1.0902     3.3371    26.4121 </r>
       <r>     1.1671     2.5759    26.6101 </r>
       <r>     1.2439     4.0417    26.9207 </r>
       <r>     1.3207     2.8120    27.1367 </r>
       <r>     1.3976     2.0585    27.2949 </r>
       <r>     1.4744     1.7896    27.4325 </r>
       <r>     1.5513     2.7574    27.6444 </r>
       <r>     1.6281     2.9544    27.8714 </r>
       <r>     1.7050     2.3003    28.0482 </r>
       <r>     1.7818     1.6166    28.1724 </r>
       <r>     1.8587     2.3228    28.3509 </r>
       <r>     1.9355     3.0754    28.5872 </r>
       <r>     2.0124     2.4120    28.7726 </r>
       <r>     2.0892     1.3511    28.8764 </r>
       <r>     2.1661     2.2102    29.0462 </r>
       <r>     2.2429     2.9145    29.2702 </r>
       <r>     2.3197     1.9864    29.4229 </r>
       <r>     2.3966     2.6457    29.6262 </r>
       <r>     2.4734     3.1708    29.8698 </r>
       <r>     2.5503     3.0639    30.1053 </r>
       <r>     2.6271     4.0389    30.4156 </r>
       <r>     2.7040     2.9593    30.6431 </r>
       <r>     2.7808     1.9177    30.7904 </r>
       <r>     2.8577     2.7063    30.9984 </r>
       <r>     2.9345     1.9697    31.1498 </r>
       <r>     3.0114     1.6146    31.2738 </r>
       <r>     3.0882     1.9263    31.4219 </r>
       <r>     3.1651     1.3056    31.5222 </r>
       <r>     3.2419     1.4323    31.6323 </r>
       <r>     3.3187     2.5817    31.8307 </r>
       <r>     3.3956     0.5513    31.8730 </r>
       <r>     3.4724     0.3481    31.8998 </r>
       <r>     3.5493     0.6296    31.9482 </r>
       <r>     3.6261     0.1838    31.9623 </r>
       <r>     3.7030     0.3269    31.9874 </r>
       <r>     3.7798     0.1638    32.0000 </r>
       <r>     3.8567     0.0000    32.0000 </r>
       <r>     3.9335     0.0000    32.0000 </r>
       <r>     4.0104     0.0000    32.0000 </r>
       <r>     4.0872     0.0000    32.0000 </r>
       <r>     4.1641     0.0000    32.0000 </r>
       <r>     4.2409     0.0000    32.0000 </r>
       <r>     4.3178     0.0000    32.0000 </r>
       <r>     4.3946     0.0000    32.0000 </r>
       <r>     4.4714     0.0000    32.0000 </r>
       <r>     4.5483     0.0000    32.0000 </r>
       <r>     4.6251     0.0000    32.0000 </r>
       <r>     4.7020     0.0000    32.0000 </r>
       <r>     4.7788     0.0000    32.0000 </r>
      </set>
     </set>
    </array>
   </total>
  </dos>
 </calculation>
 <structure name="finalpos" >
  <crystal>
   <varray name="basis" >
    <v>       3.29654400       0.06595700       0.00000000 </v>
    <v>       0.09248600       4.62242600      -0.00005300 </v>
    <v>       0.00000000       0.00000000      20.02439000 </v>
   </varray>
   <i name="volume">    305.01011872 </i>
   <varray name="rec_basis" >
    <v>       0.30346948      -0.00607185       0.00000000 </v>
    <v>      -0.00433018       0.21642326       0.00000000 </v>
    <v>      -0.00000001       0.00000057       0.04993910 </v>
   </varray>
  </crystal>
  <varray name="positions" >
   <v>       0.49227967       0.91099050       0.55251946 </v>
   <v>       0.50772033       0.08900950       0.44748054 </v>
   <v>      -0.00772021       0.41098593       0.44748055 </v>
   <v>       0.00772021       0.58901407       0.55251945 </v>
  </varray>
 </structure>
</modeling>
