<?xml version="1.0" encoding="ISO-8859-1"?>
<modeling>
 <generator>
  <i name="program" type="string">vasp </i>
  <i name="version" type="string">5.4.1  </i>
  <i name="subversion" type="string">24Jun15 (build Nov 20 2020 10:29:34) complex                          parallel </i>
  <i name="platform" type="string">IFC91_ompi </i>
  <i name="date" type="string">2021 09 09 </i>
  <i name="time" type="string">15:24:03 </i>
 </generator>
 <incar>
  <i type="string" name="PREC">a</i>
  <i type="string" name="ALGO"> Normal</i>
  <i type="int" name="ISPIN">     1</i>
  <i type="int" name="ICHARG">     2</i>
  <i type="int" name="NELM">   250</i>
  <i type="int" name="NELMDL">    -5</i>
  <i type="int" name="NELMIN">     6</i>
  <i type="int" name="IBRION">     2</i>
  <i name="EDIFF">      0.00001000</i>
  <i name="EDIFFG">     -0.01000000</i>
  <i type="int" name="NSW">   200</i>
  <i type="int" name="ISIF">     2</i>
  <i name="ENCUT">    520.00000000</i>
  <i name="POTIM">      0.30000000</i>
  <i type="logical" name="LREAL"> F  </i>
  <i type="int" name="ISMEAR">     0</i>
  <i name="SIGMA">      0.02000000</i>
  <i type="logical" name="LWAVE"> F  </i>
  <i type="logical" name="LCHARG"> F  </i>
  <i type="logical" name="LAECHG"> F  </i>
  <v type="int" name="KPOINT_BSE">    -1     0     0     0</v>
  <i type="int" name="NELM">   250</i>
 </incar>
 <kpoints>
  <generation param="Gamma">
   <v type="int" name="divisions">      21       15        1 </v>
   <v name="usershift">      0.00000000       0.00000000       0.00000000 </v>
   <v name="genvec1">      0.04761905       0.00000000       0.00000000 </v>
   <v name="genvec2">      0.00000000       0.06666667       0.00000000 </v>
   <v name="genvec3">      0.00000000       0.00000000       1.00000000 </v>
   <v name="shift">      0.00000000       0.00000000       0.00000000 </v>
  </generation>
  <varray name="kpointlist" >
   <v>       0.00000000       0.00000000       0.00000000 </v>
   <v>       0.04761905       0.00000000       0.00000000 </v>
   <v>       0.09523810       0.00000000       0.00000000 </v>
   <v>       0.14285714       0.00000000       0.00000000 </v>
   <v>       0.19047619       0.00000000       0.00000000 </v>
   <v>       0.23809524       0.00000000       0.00000000 </v>
   <v>       0.28571429       0.00000000       0.00000000 </v>
   <v>       0.33333333       0.00000000       0.00000000 </v>
   <v>       0.38095238       0.00000000       0.00000000 </v>
   <v>       0.42857143       0.00000000       0.00000000 </v>
   <v>       0.47619048       0.00000000       0.00000000 </v>
   <v>       0.00000000       0.06666667       0.00000000 </v>
   <v>       0.04761905       0.06666667       0.00000000 </v>
   <v>       0.09523810       0.06666667       0.00000000 </v>
   <v>       0.14285714       0.06666667       0.00000000 </v>
   <v>       0.19047619       0.06666667       0.00000000 </v>
   <v>       0.23809524       0.06666667       0.00000000 </v>
   <v>       0.28571429       0.06666667       0.00000000 </v>
   <v>       0.33333333       0.06666667       0.00000000 </v>
   <v>       0.38095238       0.06666667       0.00000000 </v>
   <v>       0.42857143       0.06666667       0.00000000 </v>
   <v>       0.47619048       0.06666667       0.00000000 </v>
   <v>      -0.47619048       0.06666667       0.00000000 </v>
   <v>      -0.42857143       0.06666667       0.00000000 </v>
   <v>      -0.38095238       0.06666667       0.00000000 </v>
   <v>      -0.33333333       0.06666667       0.00000000 </v>
   <v>      -0.28571429       0.06666667       0.00000000 </v>
   <v>      -0.23809524       0.06666667       0.00000000 </v>
   <v>      -0.19047619       0.06666667       0.00000000 </v>
   <v>      -0.14285714       0.06666667       0.00000000 </v>
   <v>      -0.09523810       0.06666667       0.00000000 </v>
   <v>      -0.04761905       0.06666667       0.00000000 </v>
   <v>       0.00000000       0.13333333       0.00000000 </v>
   <v>       0.04761905       0.13333333       0.00000000 </v>
   <v>       0.09523810       0.13333333       0.00000000 </v>
   <v>       0.14285714       0.13333333       0.00000000 </v>
   <v>       0.19047619       0.13333333       0.00000000 </v>
   <v>       0.23809524       0.13333333       0.00000000 </v>
   <v>       0.28571429       0.13333333       0.00000000 </v>
   <v>       0.33333333       0.13333333       0.00000000 </v>
   <v>       0.38095238       0.13333333       0.00000000 </v>
   <v>       0.42857143       0.13333333       0.00000000 </v>
   <v>       0.47619048       0.13333333       0.00000000 </v>
   <v>      -0.47619048       0.13333333       0.00000000 </v>
   <v>      -0.42857143       0.13333333       0.00000000 </v>
   <v>      -0.38095238       0.13333333       0.00000000 </v>
   <v>      -0.33333333       0.13333333       0.00000000 </v>
   <v>      -0.28571429       0.13333333       0.00000000 </v>
   <v>      -0.23809524       0.13333333       0.00000000 </v>
   <v>      -0.19047619       0.13333333       0.00000000 </v>
   <v>      -0.14285714       0.13333333       0.00000000 </v>
   <v>      -0.09523810       0.13333333       0.00000000 </v>
   <v>      -0.04761905       0.13333333       0.00000000 </v>
   <v>       0.00000000       0.20000000       0.00000000 </v>
   <v>       0.04761905       0.20000000       0.00000000 </v>
   <v>       0.09523810       0.20000000       0.00000000 </v>
   <v>       0.14285714       0.20000000       0.00000000 </v>
   <v>       0.19047619       0.20000000       0.00000000 </v>
   <v>       0.23809524       0.20000000       0.00000000 </v>
   <v>       0.28571429       0.20000000       0.00000000 </v>
   <v>       0.33333333       0.20000000       0.00000000 </v>
   <v>       0.38095238       0.20000000       0.00000000 </v>
   <v>       0.42857143       0.20000000       0.00000000 </v>
   <v>       0.47619048       0.20000000       0.00000000 </v>
   <v>      -0.47619048       0.20000000       0.00000000 </v>
   <v>      -0.42857143       0.20000000       0.00000000 </v>
   <v>      -0.38095238       0.20000000       0.00000000 </v>
   <v>      -0.33333333       0.20000000       0.00000000 </v>
   <v>      -0.28571429       0.20000000       0.00000000 </v>
   <v>      -0.23809524       0.20000000       0.00000000 </v>
   <v>      -0.19047619       0.20000000       0.00000000 </v>
   <v>      -0.14285714       0.20000000       0.00000000 </v>
   <v>      -0.09523810       0.20000000       0.00000000 </v>
   <v>      -0.04761905       0.20000000       0.00000000 </v>
   <v>       0.00000000       0.26666667       0.00000000 </v>
   <v>       0.04761905       0.26666667       0.00000000 </v>
   <v>       0.09523810       0.26666667       0.00000000 </v>
   <v>       0.14285714       0.26666667       0.00000000 </v>
   <v>       0.19047619       0.26666667       0.00000000 </v>
   <v>       0.23809524       0.26666667       0.00000000 </v>
   <v>       0.28571429       0.26666667       0.00000000 </v>
   <v>       0.33333333       0.26666667       0.00000000 </v>
   <v>       0.38095238       0.26666667       0.00000000 </v>
   <v>       0.42857143       0.26666667       0.00000000 </v>
   <v>       0.47619048       0.26666667       0.00000000 </v>
   <v>      -0.47619048       0.26666667       0.00000000 </v>
   <v>      -0.42857143       0.26666667       0.00000000 </v>
   <v>      -0.38095238       0.26666667       0.00000000 </v>
   <v>      -0.33333333       0.26666667       0.00000000 </v>
   <v>      -0.28571429       0.26666667       0.00000000 </v>
   <v>      -0.23809524       0.26666667       0.00000000 </v>
   <v>      -0.19047619       0.26666667       0.00000000 </v>
   <v>      -0.14285714       0.26666667       0.00000000 </v>
   <v>      -0.09523810       0.26666667       0.00000000 </v>
   <v>      -0.04761905       0.26666667       0.00000000 </v>
   <v>       0.00000000       0.33333333       0.00000000 </v>
   <v>       0.04761905       0.33333333       0.00000000 </v>
   <v>       0.09523810       0.33333333       0.00000000 </v>
   <v>       0.14285714       0.33333333       0.00000000 </v>
   <v>       0.19047619       0.33333333       0.00000000 </v>
   <v>       0.23809524       0.33333333       0.00000000 </v>
   <v>       0.28571429       0.33333333       0.00000000 </v>
   <v>       0.33333333       0.33333333       0.00000000 </v>
   <v>       0.38095238       0.33333333       0.00000000 </v>
   <v>       0.42857143       0.33333333       0.00000000 </v>
   <v>       0.47619048       0.33333333       0.00000000 </v>
   <v>      -0.47619048       0.33333333       0.00000000 </v>
   <v>      -0.42857143       0.33333333       0.00000000 </v>
   <v>      -0.38095238       0.33333333       0.00000000 </v>
   <v>      -0.33333333       0.33333333       0.00000000 </v>
   <v>      -0.28571429       0.33333333       0.00000000 </v>
   <v>      -0.23809524       0.33333333       0.00000000 </v>
   <v>      -0.19047619       0.33333333       0.00000000 </v>
   <v>      -0.14285714       0.33333333       0.00000000 </v>
   <v>      -0.09523810       0.33333333       0.00000000 </v>
   <v>      -0.04761905       0.33333333       0.00000000 </v>
   <v>       0.00000000       0.40000000       0.00000000 </v>
   <v>       0.04761905       0.40000000       0.00000000 </v>
   <v>       0.09523810       0.40000000       0.00000000 </v>
   <v>       0.14285714       0.40000000       0.00000000 </v>
   <v>       0.19047619       0.40000000       0.00000000 </v>
   <v>       0.23809524       0.40000000       0.00000000 </v>
   <v>       0.28571429       0.40000000       0.00000000 </v>
   <v>       0.33333333       0.40000000       0.00000000 </v>
   <v>       0.38095238       0.40000000       0.00000000 </v>
   <v>       0.42857143       0.40000000       0.00000000 </v>
   <v>       0.47619048       0.40000000       0.00000000 </v>
   <v>      -0.47619048       0.40000000       0.00000000 </v>
   <v>      -0.42857143       0.40000000       0.00000000 </v>
   <v>      -0.38095238       0.40000000       0.00000000 </v>
   <v>      -0.33333333       0.40000000       0.00000000 </v>
   <v>      -0.28571429       0.40000000       0.00000000 </v>
   <v>      -0.23809524       0.40000000       0.00000000 </v>
   <v>      -0.19047619       0.40000000       0.00000000 </v>
   <v>      -0.14285714       0.40000000       0.00000000 </v>
   <v>      -0.09523810       0.40000000       0.00000000 </v>
   <v>      -0.04761905       0.40000000       0.00000000 </v>
   <v>       0.00000000       0.46666667       0.00000000 </v>
   <v>       0.04761905       0.46666667       0.00000000 </v>
   <v>       0.09523810       0.46666667       0.00000000 </v>
   <v>       0.14285714       0.46666667       0.00000000 </v>
   <v>       0.19047619       0.46666667       0.00000000 </v>
   <v>       0.23809524       0.46666667       0.00000000 </v>
   <v>       0.28571429       0.46666667       0.00000000 </v>
   <v>       0.33333333       0.46666667       0.00000000 </v>
   <v>       0.38095238       0.46666667       0.00000000 </v>
   <v>       0.42857143       0.46666667       0.00000000 </v>
   <v>       0.47619048       0.46666667       0.00000000 </v>
   <v>      -0.47619048       0.46666667       0.00000000 </v>
   <v>      -0.42857143       0.46666667       0.00000000 </v>
   <v>      -0.38095238       0.46666667       0.00000000 </v>
   <v>      -0.33333333       0.46666667       0.00000000 </v>
   <v>      -0.28571429       0.46666667       0.00000000 </v>
   <v>      -0.23809524       0.46666667       0.00000000 </v>
   <v>      -0.19047619       0.46666667       0.00000000 </v>
   <v>      -0.14285714       0.46666667       0.00000000 </v>
   <v>      -0.09523810       0.46666667       0.00000000 </v>
   <v>      -0.04761905       0.46666667       0.00000000 </v>
  </varray>
  <varray name="weights" >
   <v>       0.00317460 </v>
   <v>       0.00634921 </v>
   <v>       0.00634921 </v>
   <v>       0.00634921 </v>
   <v>       0.00634921 </v>
   <v>       0.00634921 </v>
   <v>       0.00634921 </v>
   <v>       0.00634921 </v>
   <v>       0.00634921 </v>
   <v>       0.00634921 </v>
   <v>       0.00634921 </v>
   <v>       0.00634921 </v>
   <v>       0.00634921 </v>
   <v>       0.00634921 </v>
   <v>       0.00634921 </v>
   <v>       0.00634921 </v>
   <v>       0.00634921 </v>
   <v>       0.00634921 </v>
   <v>       0.00634921 </v>
   <v>       0.00634921 </v>
   <v>       0.00634921 </v>
   <v>       0.00634921 </v>
   <v>       0.00634921 </v>
   <v>       0.00634921 </v>
   <v>       0.00634921 </v>
   <v>       0.00634921 </v>
   <v>       0.00634921 </v>
   <v>       0.00634921 </v>
   <v>       0.00634921 </v>
   <v>       0.00634921 </v>
   <v>       0.00634921 </v>
   <v>       0.00634921 </v>
   <v>       0.00634921 </v>
   <v>       0.00634921 </v>
   <v>       0.00634921 </v>
   <v>       0.00634921 </v>
   <v>       0.00634921 </v>
   <v>       0.00634921 </v>
   <v>       0.00634921 </v>
   <v>       0.00634921 </v>
   <v>       0.00634921 </v>
   <v>       0.00634921 </v>
   <v>       0.00634921 </v>
   <v>       0.00634921 </v>
   <v>       0.00634921 </v>
   <v>       0.00634921 </v>
   <v>       0.00634921 </v>
   <v>       0.00634921 </v>
   <v>       0.00634921 </v>
   <v>       0.00634921 </v>
   <v>       0.00634921 </v>
   <v>       0.00634921 </v>
   <v>       0.00634921 </v>
   <v>       0.00634921 </v>
   <v>       0.00634921 </v>
   <v>       0.00634921 </v>
   <v>       0.00634921 </v>
   <v>       0.00634921 </v>
   <v>       0.00634921 </v>
   <v>       0.00634921 </v>
   <v>       0.00634921 </v>
   <v>       0.00634921 </v>
   <v>       0.00634921 </v>
   <v>       0.00634921 </v>
   <v>       0.00634921 </v>
   <v>       0.00634921 </v>
   <v>       0.00634921 </v>
   <v>       0.00634921 </v>
   <v>       0.00634921 </v>
   <v>       0.00634921 </v>
   <v>       0.00634921 </v>
   <v>       0.00634921 </v>
   <v>       0.00634921 </v>
   <v>       0.00634921 </v>
   <v>       0.00634921 </v>
   <v>       0.00634921 </v>
   <v>       0.00634921 </v>
   <v>       0.00634921 </v>
   <v>       0.00634921 </v>
   <v>       0.00634921 </v>
   <v>       0.00634921 </v>
   <v>       0.00634921 </v>
   <v>       0.00634921 </v>
   <v>       0.00634921 </v>
   <v>       0.00634921 </v>
   <v>       0.00634921 </v>
   <v>       0.00634921 </v>
   <v>       0.00634921 </v>
   <v>       0.00634921 </v>
   <v>       0.00634921 </v>
   <v>       0.00634921 </v>
   <v>       0.00634921 </v>
   <v>       0.00634921 </v>
   <v>       0.00634921 </v>
   <v>       0.00634921 </v>
   <v>       0.00634921 </v>
   <v>       0.00634921 </v>
   <v>       0.00634921 </v>
   <v>       0.00634921 </v>
   <v>       0.00634921 </v>
   <v>       0.00634921 </v>
   <v>       0.00634921 </v>
   <v>       0.00634921 </v>
   <v>       0.00634921 </v>
   <v>       0.00634921 </v>
   <v>       0.00634921 </v>
   <v>       0.00634921 </v>
   <v>       0.00634921 </v>
   <v>       0.00634921 </v>
   <v>       0.00634921 </v>
   <v>       0.00634921 </v>
   <v>       0.00634921 </v>
   <v>       0.00634921 </v>
   <v>       0.00634921 </v>
   <v>       0.00634921 </v>
   <v>       0.00634921 </v>
   <v>       0.00634921 </v>
   <v>       0.00634921 </v>
   <v>       0.00634921 </v>
   <v>       0.00634921 </v>
   <v>       0.00634921 </v>
   <v>       0.00634921 </v>
   <v>       0.00634921 </v>
   <v>       0.00634921 </v>
   <v>       0.00634921 </v>
   <v>       0.00634921 </v>
   <v>       0.00634921 </v>
   <v>       0.00634921 </v>
   <v>       0.00634921 </v>
   <v>       0.00634921 </v>
   <v>       0.00634921 </v>
   <v>       0.00634921 </v>
   <v>       0.00634921 </v>
   <v>       0.00634921 </v>
   <v>       0.00634921 </v>
   <v>       0.00634921 </v>
   <v>       0.00634921 </v>
   <v>       0.00634921 </v>
   <v>       0.00634921 </v>
   <v>       0.00634921 </v>
   <v>       0.00634921 </v>
   <v>       0.00634921 </v>
   <v>       0.00634921 </v>
   <v>       0.00634921 </v>
   <v>       0.00634921 </v>
   <v>       0.00634921 </v>
   <v>       0.00634921 </v>
   <v>       0.00634921 </v>
   <v>       0.00634921 </v>
   <v>       0.00634921 </v>
   <v>       0.00634921 </v>
   <v>       0.00634921 </v>
   <v>       0.00634921 </v>
   <v>       0.00634921 </v>
   <v>       0.00634921 </v>
   <v>       0.00634921 </v>
   <v>       0.00634921 </v>
   <v>       0.00634921 </v>
  </varray>
 </kpoints>
 <parameters>
  <separator name="general" >
   <i type="string" name="SYSTEM">unknown system</i>
   <i type="logical" name="LCOMPAT"> F  </i>
  </separator>
  <separator name="electronic" >
   <i type="string" name="PREC">a</i>
   <i name="ENMAX">    520.00000000</i>
   <i name="ENAUG">    342.92400000</i>
   <i name="EDIFF">      0.00001000</i>
   <i type="int" name="IALGO">    38</i>
   <i type="int" name="IWAVPR">    11</i>
   <i type="int" name="NBANDS">    16</i>
   <i name="NELECT">     20.00000000</i>
   <i type="int" name="TURBO">     0</i>
   <i type="int" name="IRESTART">     0</i>
   <i type="int" name="NREBOOT">     0</i>
   <i type="int" name="NMIN">     0</i>
   <i name="EREF">      0.00000000</i>
   <separator name="electronic smearing" >
    <i type="int" name="ISMEAR">     0</i>
    <i name="SIGMA">      0.02000000</i>
    <i name="KSPACING">      0.50000000</i>
    <i type="logical" name="KGAMMA"> T  </i>
   </separator>
   <separator name="electronic projectors" >
    <i type="logical" name="LREAL"> F  </i>
    <v name="ROPT">      0.00000000</v>
    <i type="int" name="LMAXPAW">  -100</i>
    <i type="int" name="LMAXMIX">     2</i>
    <i type="logical" name="NLSPLINE"> F  </i>
   </separator>
   <separator name="electronic startup" >
    <i type="int" name="ISTART">     0</i>
    <i type="int" name="ICHARG">     2</i>
    <i type="int" name="INIWAV">     1</i>
   </separator>
   <separator name="electronic spin" >
    <i type="int" name="ISPIN">     1</i>
    <i type="logical" name="LNONCOLLINEAR"> F  </i>
    <v name="MAGMOM">      1.00000000      1.00000000      1.00000000      1.00000000</v>
    <i name="NUPDOWN">     -1.00000000</i>
    <i type="logical" name="LSORBIT"> F  </i>
    <v name="SAXIS">      0.00000000      0.00000000      1.00000000</v>
    <i type="logical" name="LSPIRAL"> F  </i>
    <v name="QSPIRAL">      0.00000000      0.00000000      0.00000000</v>
    <i type="logical" name="LZEROZ"> F  </i>
   </separator>
   <separator name="electronic exchange-correlation" >
    <i type="logical" name="LASPH"> F  </i>
    <i type="logical" name="LMETAGGA"> F  </i>
   </separator>
   <separator name="electronic convergence" >
    <i type="int" name="NELM">   250</i>
    <i type="int" name="NELMDL">    -5</i>
    <i type="int" name="NELMIN">     6</i>
    <i name="ENINI">    520.00000000</i>
    <separator name="electronic convergence detail" >
     <i type="logical" name="LDIAG"> T  </i>
     <i type="logical" name="LSUBROT"> F  </i>
     <i name="WEIMIN">      0.00100000</i>
     <i name="EBREAK">      0.00000016</i>
     <i name="DEPER">      0.30000000</i>
     <i type="int" name="NRMM">     4</i>
     <i name="TIME">      0.40000000</i>
    </separator>
   </separator>
   <separator name="electronic mixer" >
    <i name="AMIX">      0.40000000</i>
    <i name="BMIX">      1.00000000</i>
    <i name="AMIN">      0.10000000</i>
    <i name="AMIX_MAG">      1.60000000</i>
    <i name="BMIX_MAG">      1.00000000</i>
    <separator name="electronic mixer details" >
     <i type="int" name="IMIX">     4</i>
     <i type="logical" name="MIXFIRST"> F  </i>
     <i type="int" name="MAXMIX">   -45</i>
     <i name="WC">    100.00000000</i>
     <i type="int" name="INIMIX">     1</i>
     <i type="int" name="MIXPRE">     1</i>
     <i type="int" name="MREMOVE">     5</i>
    </separator>
   </separator>
   <separator name="electronic dipolcorrection" >
    <i type="logical" name="LDIPOL"> F  </i>
    <i type="logical" name="LMONO"> F  </i>
    <i type="int" name="IDIPOL">     0</i>
    <i name="EPSILON">      1.00000000</i>
    <v name="DIPOL">   -100.00000000   -100.00000000   -100.00000000</v>
    <i name="EFIELD">      0.00000000</i>
   </separator>
  </separator>
  <separator name="grids" >
   <i type="int" name="NGX">    28</i>
   <i type="int" name="NGY">    36</i>
   <i type="int" name="NGZ">   150</i>
   <i type="int" name="NGXF">    56</i>
   <i type="int" name="NGYF">    72</i>
   <i type="int" name="NGZF">   300</i>
   <i type="logical" name="ADDGRID"> F  </i>
  </separator>
  <separator name="ionic" >
   <i type="int" name="NSW">   200</i>
   <i type="int" name="IBRION">     2</i>
   <i type="int" name="ISIF">     2</i>
   <i name="PSTRESS">      0.00000000</i>
   <i name="EDIFFG">     -0.01000000</i>
   <i type="int" name="NFREE">     1</i>
   <i name="POTIM">      0.30000000</i>
   <i name="SMASS">     -3.00000000</i>
   <i name="SCALEE">      1.00000000</i>
  </separator>
  <separator name="ionic md" >
   <i name="TEBEG">      0.00010000</i>
   <i name="TEEND">      0.00010000</i>
   <i type="int" name="NBLOCK">     1</i>
   <i type="int" name="KBLOCK">   200</i>
   <i type="int" name="NPACO">   256</i>
   <i name="APACO">     16.00000000</i>
  </separator>
  <separator name="symmetry" >
   <i type="int" name="ISYM">     2</i>
   <i name="SYMPREC">      0.00001000</i>
  </separator>
  <separator name="dos" >
   <i type="logical" name="LORBIT"> F  </i>
   <v name="RWIGS">     -1.00000000</v>
   <i type="int" name="NEDOS">   301</i>
   <i name="EMIN">     10.00000000</i>
   <i name="EMAX">    -10.00000000</i>
   <i name="EFERMI">      0.00000000</i>
  </separator>
  <separator name="writing" >
   <i type="int" name="NWRITE">     2</i>
   <i type="logical" name="LWAVE"> F  </i>
   <i type="logical" name="LCHARG"> F  </i>
   <i type="logical" name="LPARD"> F  </i>
   <i type="logical" name="LVTOT"> F  </i>
   <i type="logical" name="LVHAR"> F  </i>
   <i type="logical" name="LELF"> F  </i>
   <i type="logical" name="LOPTICS"> F  </i>
   <v name="STM">      0.00000000      0.00000000      0.00000000      0.00000000      0.00000000      0.00000000      0.00000000</v>
  </separator>
  <separator name="performance" >
   <i type="int" name="NPAR">     4</i>
   <i type="int" name="NSIM">     4</i>
   <i type="int" name="NBLK">    -1</i>
   <i type="logical" name="LPLANE"> T  </i>
   <i type="logical" name="LSCALAPACK"> T  </i>
   <i type="logical" name="LSCAAWARE"> F  </i>
   <i type="logical" name="LSCALU"> F  </i>
   <i type="logical" name="LASYNC"> F  </i>
   <i type="logical" name="LORBITALREAL"> F  </i>
  </separator>
  <separator name="miscellaneous" >
   <i type="int" name="IDIOT">     3</i>
   <i type="logical" name="LMUSIC"> F  </i>
   <v name="POMASS">     30.97400000</v>
   <v name="DARWINR">      0.00000000</v>
   <v name="DARWINV">      1.00000000</v>
   <i type="logical" name="LCORR"> T  </i>
  </separator>
  <i type="logical" name="GGA_COMPAT"> T  </i>
  <i type="logical" name="LBERRY"> F  </i>
  <i type="int" name="ICORELEVEL">     0</i>
  <i type="logical" name="LDAU"> F  </i>
  <i type="int" name="I_CONSTRAINED_M">     0</i>
  <separator name="electronic exchange-correlation" >
   <i type="string" name="GGA">--</i>
   <i type="int" name="VOSKOWN">     0</i>
   <i type="logical" name="LHFCALC"> F  </i>
   <i type="string" name="PRECFOCK"></i>
   <i type="logical" name="LSYMGRAD"> F  </i>
   <i type="logical" name="LHFONE"> F  </i>
   <i type="logical" name="LRHFCALC"> F  </i>
   <i type="logical" name="LTHOMAS"> F  </i>
   <i type="logical" name="LMODELHF"> F  </i>
   <i name="ENCUT4O">     -1.00000000</i>
   <i type="int" name="EXXOEP">     0</i>
   <i type="int" name="FOURORBIT">     0</i>
   <i name="AEXX">      0.00000000</i>
   <i name="HFALPHA">      0.00000000</i>
   <i name="MCALPHA">      0.00000000</i>
   <i name="ALDAX">      1.00000000</i>
   <i name="AGGAX">      1.00000000</i>
   <i name="ALDAC">      1.00000000</i>
   <i name="AGGAC">      1.00000000</i>
   <i type="int" name="NKREDX">     1</i>
   <i type="int" name="NKREDY">     1</i>
   <i type="int" name="NKREDZ">     1</i>
   <i type="logical" name="SHIFTRED"> F  </i>
   <i type="logical" name="ODDONLY"> F  </i>
   <i type="logical" name="EVENONLY"> F  </i>
   <i type="int" name="LMAXFOCK">     0</i>
   <i type="int" name="NMAXFOCKAE">     0</i>
   <i type="logical" name="LFOCKAEDFT"> F  </i>
   <i name="HFSCREEN">      0.00000000</i>
   <i name="HFSCREENC">      0.00000000</i>
   <i type="int" name="NBANDSGWLOW">     0</i>
  </separator>
  <separator name="vdW DFT" >
   <i type="logical" name="LUSE_VDW"> F  </i>
   <i name="Zab_VDW">     -0.84910000</i>
   <i name="PARAM1">      0.12340000</i>
   <i name="PARAM2">      1.00000000</i>
   <i name="PARAM3">      0.00000000</i>
  </separator>
  <separator name="model GW" >
   <i type="int" name="MODEL_GW">     0</i>
   <i name="MODEL_EPS0">     46.24378240</i>
   <i name="MODEL_ALPHA">      1.00000000</i>
  </separator>
  <separator name="linear response parameters" >
   <i type="logical" name="LEPSILON"> F  </i>
   <i type="logical" name="LRPA"> F  </i>
   <i type="logical" name="LNABLA"> F  </i>
   <i type="logical" name="LVEL"> F  </i>
   <i type="int" name="KINTER">     0</i>
   <i name="CSHIFT">      0.10000000</i>
   <i name="OMEGAMAX">     -1.00000000</i>
   <i name="DEG_THRESHOLD">      0.00200000</i>
  </separator>
  <separator name="orbital magnetization" >
   <i type="logical" name="NUCIND"> F  </i>
   <v name="MAGPOS">      0.00000000      0.00000000      0.00000000</v>
   <i type="logical" name="LNICSALL"> T  </i>
   <i type="logical" name="ORBITALMAG"> F  </i>
   <i type="logical" name="LMAGBLOCH"> F  </i>
   <i type="logical" name="LCHIMAG"> F  </i>
   <i type="logical" name="LGAUGE"> T  </i>
   <i type="int" name="MAGATOM">     0</i>
   <v name="MAGDIPOL">      0.00000000      0.00000000      0.00000000</v>
   <v name="AVECCONST">      0.00000000      0.00000000      0.00000000</v>
  </separator>
  <separator name="response functions" >
   <i type="logical" name="LADDER"> F  </i>
   <i type="logical" name="LFXC"> F  </i>
   <i type="logical" name="LHARTREE"> T  </i>
   <i type="int" name="IBSE">     0</i>
   <v type="int" name="KPOINT">    -1     0     0     0</v>
   <i type="logical" name="LTCTE"> F  </i>
   <i type="logical" name="LTETE"> F  </i>
   <i type="logical" name="LTRIPLET"> F  </i>
   <i type="logical" name="LFXCEPS"> F  </i>
   <i type="logical" name="LFXHEG"> F  </i>
   <i type="int" name="NATURALO">     0</i>
   <i type="logical" name="L2ORDER"> F  </i>
   <i type="logical" name="LUSEW"> F  </i>
   <i name="ENCUTGW">     -2.00000000</i>
   <i name="ENCUTGWSOFT">     -2.00000000</i>
   <i name="ENCUTLF">     -1.00000000</i>
   <i type="int" name="LMAXMP2">    -1</i>
   <i name="SCISSOR">      0.00000000</i>
   <i type="int" name="NOMEGA">     0</i>
   <i type="int" name="NOMEGAR">     0</i>
   <i type="int" name="NBANDSGW">    -1</i>
   <i type="int" name="NBANDSO">    -1</i>
   <i type="int" name="NBANDSV">    -1</i>
   <i type="int" name="NELM">   250</i>
   <i type="int" name="NELMHF">     1</i>
   <i type="int" name="DIM">     3</i>
   <i type="int" name="ANTIRES">     0</i>
   <i name="OMEGAMAX">    -30.00000000</i>
   <i name="OMEGAMIN">    -30.00000000</i>
   <i name="OMEGATL">   -200.00000000</i>
   <i type="int" name="OMEGAGRID">     0</i>
   <i name="CSHIFT">     -0.10000000</i>
   <i type="logical" name="SELFENERGY"> F  </i>
   <i type="logical" name="LSPECTRAL"> F  </i>
   <i type="logical" name="LSPECTRALGW"> F  </i>
   <i type="logical" name="LSINGLES"> F  </i>
   <i type="logical" name="LFERMIGW"> F  </i>
   <i type="logical" name="ODDONLYGW"> F  </i>
   <i type="logical" name="EVENONLYGW"> F  </i>
   <i type="int" name="NKREDLFX">     1</i>
   <i type="int" name="NKREDLFY">     1</i>
   <i type="int" name="NKREDLFZ">     1</i>
   <i type="int" name="MAXMEM">  1800</i>
   <i type="int" name="TELESCOPE">     0</i>
   <i type="int" name="TAUPAR">     1</i>
   <i type="int" name="OMEGAPAR">    -1</i>
   <i name="LAMBDA">      1.00000000</i>
  </separator>
  <separator name="External order field" >
   <i name="OFIELD_KAPPA">      0.00000000</i>
   <v name="OFIELD_K">      0.00000000      0.00000000      0.00000000</v>
   <i name="OFIELD_Q6_NEAR">      0.00000000</i>
   <i name="OFIELD_Q6_FAR">      0.00000000</i>
   <i name="OFIELD_A">      0.00000000</i>
  </separator>
 </parameters>
 <atominfo>
  <atoms>       4 </atoms>
  <types>       1 </types>
  <array name="atoms" >
   <dimension dim="1">ion</dimension>
   <field type="string">element</field>
   <field type="int">atomtype</field>
   <set>
    <rc><c>P </c><c>   1</c></rc>
    <rc><c>P </c><c>   1</c></rc>
    <rc><c>P </c><c>   1</c></rc>
    <rc><c>P </c><c>   1</c></rc>
   </set>
  </array>
  <array name="atomtypes" >
   <dimension dim="1">type</dimension>
   <field type="int">atomspertype</field>
   <field type="string">element</field>
   <field>mass</field>
   <field>valence</field>
   <field type="string">pseudopotential</field>
   <set>
    <rc><c>   4</c><c>P </c><c>     30.97400000</c><c>      5.00000000</c><c>  PAW_PBE P 06Sep2000                   </c></rc>
   </set>
  </array>
 </atominfo>
 <structure name="initialpos" >
  <crystal>
   <varray name="basis" >
    <v>       3.33001300       0.00000000       0.00000000 </v>
    <v>       0.00000000       4.62335100      -0.00005300 </v>
    <v>       0.00000000       0.00000000      20.02439000 </v>
   </varray>
   <i name="volume">    308.29188270 </i>
   <varray name="rec_basis" >
    <v>       0.30029913       0.00000000       0.00000000 </v>
    <v>       0.00000000       0.21629333       0.00000000 </v>
    <v>       0.00000000       0.00000057       0.04993910 </v>
   </varray>
  </crystal>
  <varray name="positions" >
   <v>       0.50000000       0.91077300       0.55252100 </v>
   <v>       0.50000000       0.08922700       0.44747900 </v>
   <v>       0.00000000       0.41076900       0.44747900 </v>
   <v>       0.00000000       0.58923100       0.55252100 </v>
  </varray>
 </structure>
 <calculation>
  <scstep>
   <time name="dav">    1.49    1.49</time>
   <time name="total">    1.52    1.52</time>
   <energy>
    <i name="alphaZ">      5.20338397 </i>
    <i name="ewald">   1839.44848328 </i>
    <i name="hartreedc">  -2433.42098906 </i>
    <i name="XCdc">     12.93298621 </i>
    <i name="pawpsdc">    559.04011960 </i>
    <i name="pawaedc">   -526.39432044 </i>
    <i name="eentropy">     -0.00075559 </i>
    <i name="bandstr">    -28.00252047 </i>
    <i name="atom">    704.16778566 </i>
    <i name="e_fr_energy">    132.97417317 </i>
    <i name="e_wo_entrp">    132.97492876 </i>
    <i name="e_0_energy">    132.97455097 </i>
   </energy>
  </scstep>
  <scstep>
   <time name="dav">    2.02    2.02</time>
   <time name="total">    2.03    2.03</time>
   <energy>
    <i name="e_fr_energy">     -6.37246596 </i>
    <i name="e_wo_entrp">     -6.37246596 </i>
    <i name="e_0_energy">     -6.37246596 </i>
   </energy>
  </scstep>
  <scstep>
   <time name="dav">    1.84    1.84</time>
   <time name="total">    1.84    1.85</time>
   <energy>
    <i name="e_fr_energy">    -21.33785901 </i>
    <i name="e_wo_entrp">    -21.33785901 </i>
    <i name="e_0_energy">    -21.33785901 </i>
   </energy>
  </scstep>
  <scstep>
   <time name="dav">    1.85    1.85</time>
   <time name="total">    1.85    1.85</time>
   <energy>
    <i name="e_fr_energy">    -21.64413753 </i>
    <i name="e_wo_entrp">    -21.64413753 </i>
    <i name="e_0_energy">    -21.64413753 </i>
   </energy>
  </scstep>
  <scstep>
   <time name="dav">    1.99    1.99</time>
   <time name="total">    2.08    2.09</time>
   <energy>
    <i name="e_fr_energy">    -21.65397187 </i>
    <i name="e_wo_entrp">    -21.65397187 </i>
    <i name="e_0_energy">    -21.65397187 </i>
   </energy>
  </scstep>
  <scstep>
   <time name="dav">    1.80    1.80</time>
   <time name="total">    1.91    1.92</time>
   <energy>
    <i name="e_fr_energy">    -21.51862877 </i>
    <i name="e_wo_entrp">    -21.51862877 </i>
    <i name="e_0_energy">    -21.51862877 </i>
   </energy>
  </scstep>
  <scstep>
   <time name="dav">    1.74    1.74</time>
   <time name="total">    1.85    1.85</time>
   <energy>
    <i name="e_fr_energy">    -21.45290849 </i>
    <i name="e_wo_entrp">    -21.45290849 </i>
    <i name="e_0_energy">    -21.45290849 </i>
   </energy>
  </scstep>
  <scstep>
   <time name="dav">    1.82    1.82</time>
   <time name="total">    1.94    1.94</time>
   <energy>
    <i name="e_fr_energy">    -21.45246012 </i>
    <i name="e_wo_entrp">    -21.45246012 </i>
    <i name="e_0_energy">    -21.45246012 </i>
   </energy>
  </scstep>
  <scstep>
   <time name="dav">    2.12    2.12</time>
   <time name="total">    2.23    2.23</time>
   <energy>
    <i name="e_fr_energy">    -21.45232176 </i>
    <i name="e_wo_entrp">    -21.45232176 </i>
    <i name="e_0_energy">    -21.45232176 </i>
   </energy>
  </scstep>
  <scstep>
   <time name="dav">    1.83    1.83</time>
   <time name="total">    1.94    1.94</time>
   <energy>
    <i name="e_fr_energy">    -21.45219645 </i>
    <i name="e_wo_entrp">    -21.45219645 </i>
    <i name="e_0_energy">    -21.45219645 </i>
   </energy>
  </scstep>
  <scstep>
   <time name="dav">    1.80    1.80</time>
   <time name="total">    1.91    1.91</time>
   <energy>
    <i name="e_fr_energy">    -21.45210812 </i>
    <i name="e_wo_entrp">    -21.45210812 </i>
    <i name="e_0_energy">    -21.45210812 </i>
   </energy>
  </scstep>
  <scstep>
   <time name="dav">    1.62    1.62</time>
   <time name="total">    1.73    1.73</time>
   <energy>
    <i name="e_fr_energy">    -21.45249769 </i>
    <i name="e_wo_entrp">    -21.45249769 </i>
    <i name="e_0_energy">    -21.45249769 </i>
   </energy>
  </scstep>
  <scstep>
   <time name="dav">    1.62    1.62</time>
   <time name="total">    1.73    1.73</time>
   <energy>
    <i name="e_fr_energy">    -21.45259200 </i>
    <i name="e_wo_entrp">    -21.45259200 </i>
    <i name="e_0_energy">    -21.45259200 </i>
   </energy>
  </scstep>
  <scstep>
   <time name="dav">    1.49    1.49</time>
   <time name="total">    1.60    1.60</time>
   <energy>
    <i name="e_fr_energy">    -21.45270841 </i>
    <i name="e_wo_entrp">    -21.45270841 </i>
    <i name="e_0_energy">    -21.45270841 </i>
   </energy>
  </scstep>
  <scstep>
   <time name="dav">    1.55    1.55</time>
   <time name="total">    1.66    1.66</time>
   <energy>
    <i name="e_fr_energy">    -21.45274422 </i>
    <i name="e_wo_entrp">    -21.45274422 </i>
    <i name="e_0_energy">    -21.45274422 </i>
   </energy>
  </scstep>
  <scstep>
   <time name="dav">    1.47    1.47</time>
   <time name="total">    1.58    1.58</time>
   <energy>
    <i name="e_fr_energy">    -21.45277321 </i>
    <i name="e_wo_entrp">    -21.45277321 </i>
    <i name="e_0_energy">    -21.45277321 </i>
   </energy>
  </scstep>
  <scstep>
   <time name="dav">    1.48    1.48</time>
   <time name="total">    1.50    1.50</time>
   <energy>
    <i name="alphaZ">      5.20338397 </i>
    <i name="ewald">   1839.44848328 </i>
    <i name="hartreedc">  -2448.29846611 </i>
    <i name="XCdc">     13.98376422 </i>
    <i name="pawpsdc">   2058.06102244 </i>
    <i name="pawaedc">  -2025.73822776 </i>
    <i name="eentropy">     -0.00000000 </i>
    <i name="bandstr">   -168.28052107 </i>
    <i name="atom">    704.16778566 </i>
    <i name="e_fr_energy">    -21.45277537 </i>
    <i name="e_wo_entrp">    -21.45277537 </i>
    <i name="e_0_energy">    -21.45277537 </i>
   </energy>
  </scstep>
  <structure>
   <crystal>
    <varray name="basis" >
     <v>       3.33001300       0.00000000       0.00000000 </v>
     <v>       0.00000000       4.62335100      -0.00005300 </v>
     <v>       0.00000000       0.00000000      20.02439000 </v>
    </varray>
    <i name="volume">    308.29188270 </i>
    <varray name="rec_basis" >
     <v>       0.30029913       0.00000000       0.00000000 </v>
     <v>       0.00000000       0.21629333       0.00000000 </v>
     <v>       0.00000000       0.00000057       0.04993910 </v>
    </varray>
   </crystal>
   <varray name="positions" >
    <v>       0.50000000       0.91077300       0.55252100 </v>
    <v>       0.50000000       0.08922700       0.44747900 </v>
    <v>       0.00000000       0.41076900       0.44747900 </v>
    <v>       0.00000000       0.58923100       0.55252100 </v>
   </varray>
  </structure>
  <varray name="forces" >
   <v>       0.00000036      -0.03615591      -0.01620000 </v>
   <v>      -0.00000036       0.03615591       0.01620000 </v>
   <v>      -0.00000038      -0.03618708       0.01620471 </v>
   <v>       0.00000038       0.03618708      -0.01620471 </v>
  </varray>
  <varray name="stress" >
   <v>      -5.01751886       0.00000370       0.00000163 </v>
   <v>       0.00000369      -1.46415100       0.00035934 </v>
   <v>       0.00000161       0.00035932      -0.41837158 </v>
  </varray>
  <energy>
   <i name="e_fr_energy">    -21.45277537 </i>
   <i name="e_wo_entrp">    -21.45277537 </i>
   <i name="e_0_energy">     -0.00000000 </i>
  </energy>
  <time name="totalsc">   31.68   31.72</time>
 </calculation>
 <calculation>
  <scstep>
   <time name="dav">    1.59    1.59</time>
   <time name="total">    1.70    1.70</time>
   <energy>
    <i name="alphaZ">      5.20338397 </i>
    <i name="ewald">   1840.02980569 </i>
    <i name="hartreedc">  -2448.81769886 </i>
    <i name="XCdc">     13.99145673 </i>
    <i name="pawpsdc">   2057.87826051 </i>
    <i name="pawaedc">  -2025.55550068 </i>
    <i name="eentropy">     -0.00000000 </i>
    <i name="bandstr">   -168.35039766 </i>
    <i name="atom">    704.16778566 </i>
    <i name="e_fr_energy">    -21.45290465 </i>
    <i name="e_wo_entrp">    -21.45290465 </i>
    <i name="e_0_energy">    -21.45290465 </i>
   </energy>
  </scstep>
  <scstep>
   <time name="dav">    1.89    1.89</time>
   <time name="total">    2.00    2.01</time>
   <energy>
    <i name="e_fr_energy">    -21.45292341 </i>
    <i name="e_wo_entrp">    -21.45292341 </i>
    <i name="e_0_energy">    -21.45292341 </i>
   </energy>
  </scstep>
  <scstep>
   <time name="dav">    1.30    1.30</time>
   <time name="total">    1.41    1.41</time>
   <energy>
    <i name="e_fr_energy">    -21.45292469 </i>
    <i name="e_wo_entrp">    -21.45292469 </i>
    <i name="e_0_energy">    -21.45292469 </i>
   </energy>
  </scstep>
  <scstep>
   <time name="dav">    1.33    1.33</time>
   <time name="total">    1.44    1.44</time>
   <energy>
    <i name="e_fr_energy">    -21.45292773 </i>
    <i name="e_wo_entrp">    -21.45292773 </i>
    <i name="e_0_energy">    -21.45292773 </i>
   </energy>
  </scstep>
  <scstep>
   <time name="dav">    1.19    1.19</time>
   <time name="total">    1.30    1.30</time>
   <energy>
    <i name="e_fr_energy">    -21.45292794 </i>
    <i name="e_wo_entrp">    -21.45292794 </i>
    <i name="e_0_energy">    -21.45292794 </i>
   </energy>
  </scstep>
  <scstep>
   <time name="dav">    1.19    1.19</time>
   <time name="total">    1.21    1.21</time>
   <energy>
    <i name="alphaZ">      5.20338397 </i>
    <i name="ewald">   1840.02980569 </i>
    <i name="hartreedc">  -2448.82400572 </i>
    <i name="XCdc">     13.99215916 </i>
    <i name="pawpsdc">   2062.14829511 </i>
    <i name="pawaedc">  -2029.82720003 </i>
    <i name="eentropy">     -0.00000000 </i>
    <i name="bandstr">   -168.34315223 </i>
    <i name="atom">    704.16778566 </i>
    <i name="e_fr_energy">    -21.45292840 </i>
    <i name="e_wo_entrp">    -21.45292840 </i>
    <i name="e_0_energy">    -21.45292840 </i>
   </energy>
  </scstep>
  <structure>
   <crystal>
    <varray name="basis" >
     <v>       3.33001300       0.00000000       0.00000000 </v>
     <v>       0.00000000       4.62335100      -0.00005300 </v>
     <v>       0.00000000       0.00000000      20.02439000 </v>
    </varray>
    <i name="volume">    308.29188270 </i>
    <varray name="rec_basis" >
     <v>       0.30029913       0.00000000       0.00000000 </v>
     <v>       0.00000000       0.21629333       0.00000000 </v>
     <v>       0.00000000       0.00000057       0.04993910 </v>
    </varray>
   </crystal>
   <varray name="positions" >
    <v>       0.50000000       0.91054664       0.55249758 </v>
    <v>       0.50000000       0.08945336       0.44750242 </v>
    <v>      -0.00000000       0.41054244       0.44750242 </v>
    <v>       0.00000000       0.58945756       0.55249758 </v>
   </varray>
  </structure>
  <varray name="forces" >
   <v>      -0.00000003      -0.01523721      -0.01253326 </v>
   <v>       0.00000003       0.01523721       0.01253326 </v>
   <v>       0.00000006      -0.01526339       0.01253396 </v>
   <v>      -0.00000006       0.01526339      -0.01253396 </v>
  </varray>
  <varray name="stress" >
   <v>      -4.91826640       0.00000039      -0.00000076 </v>
   <v>       0.00000036      -1.14046834       0.00029990 </v>
   <v>      -0.00000078       0.00029988      -0.35109227 </v>
  </varray>
  <energy>
   <i name="e_fr_energy">    -21.45292840 </i>
   <i name="e_wo_entrp">    -21.45292840 </i>
   <i name="e_0_energy">     -0.00000000 </i>
  </energy>
  <time name="totalsc">    9.85    9.86</time>
 </calculation>
 <calculation>
  <scstep>
   <time name="dav">    1.55    1.55</time>
   <time name="total">    1.67    1.67</time>
   <energy>
    <i name="alphaZ">      5.20338397 </i>
    <i name="ewald">   1840.56752708 </i>
    <i name="hartreedc">  -2449.29283472 </i>
    <i name="XCdc">     13.99924796 </i>
    <i name="pawpsdc">   2062.27175652 </i>
    <i name="pawaedc">  -2029.95066017 </i>
    <i name="eentropy">     -0.00000000 </i>
    <i name="bandstr">   -168.41916203 </i>
    <i name="atom">    704.16778566 </i>
    <i name="e_fr_energy">    -21.45295573 </i>
    <i name="e_wo_entrp">    -21.45295573 </i>
    <i name="e_0_energy">    -21.45295573 </i>
   </energy>
  </scstep>
  <scstep>
   <time name="dav">    1.91    1.91</time>
   <time name="total">    2.02    2.02</time>
   <energy>
    <i name="e_fr_energy">    -21.45297142 </i>
    <i name="e_wo_entrp">    -21.45297142 </i>
    <i name="e_0_energy">    -21.45297142 </i>
   </energy>
  </scstep>
  <scstep>
   <time name="dav">    1.24    1.24</time>
   <time name="total">    1.35    1.35</time>
   <energy>
    <i name="e_fr_energy">    -21.45297181 </i>
    <i name="e_wo_entrp">    -21.45297181 </i>
    <i name="e_0_energy">    -21.45297181 </i>
   </energy>
  </scstep>
  <scstep>
   <time name="dav">    1.18    1.18</time>
   <time name="total">    1.29    1.29</time>
   <energy>
    <i name="e_fr_energy">    -21.45297285 </i>
    <i name="e_wo_entrp">    -21.45297285 </i>
    <i name="e_0_energy">    -21.45297285 </i>
   </energy>
  </scstep>
  <scstep>
   <time name="dav">    1.15    1.15</time>
   <time name="total">    1.26    1.26</time>
   <energy>
    <i name="e_fr_energy">    -21.45297279 </i>
    <i name="e_wo_entrp">    -21.45297279 </i>
    <i name="e_0_energy">    -21.45297279 </i>
   </energy>
  </scstep>
  <scstep>
   <time name="dav">    1.15    1.15</time>
   <time name="total">    1.17    1.17</time>
   <energy>
    <i name="alphaZ">      5.20338397 </i>
    <i name="ewald">   1840.56752708 </i>
    <i name="hartreedc">  -2449.29339765 </i>
    <i name="XCdc">     13.99993348 </i>
    <i name="pawpsdc">   2066.51964139 </i>
    <i name="pawaedc">  -2034.20010483 </i>
    <i name="eentropy">     -0.00000000 </i>
    <i name="bandstr">   -168.41774201 </i>
    <i name="atom">    704.16778566 </i>
    <i name="e_fr_energy">    -21.45297290 </i>
    <i name="e_wo_entrp">    -21.45297290 </i>
    <i name="e_0_energy">    -21.45297290 </i>
   </energy>
  </scstep>
  <structure>
   <crystal>
    <varray name="basis" >
     <v>       3.33001300       0.00000000       0.00000000 </v>
     <v>       0.00000000       4.62335100      -0.00005300 </v>
     <v>       0.00000000       0.00000000      20.02439000 </v>
    </varray>
    <i name="volume">    308.29188270 </i>
    <varray name="rec_basis" >
     <v>       0.30029913       0.00000000       0.00000000 </v>
     <v>       0.00000000       0.21629333       0.00000000 </v>
     <v>       0.00000000       0.00000057       0.04993910 </v>
    </varray>
   </crystal>
   <varray name="positions" >
    <v>       0.50000001       0.91033733       0.55247593 </v>
    <v>       0.49999999       0.08966267       0.44752407 </v>
    <v>      -0.00000001       0.41033295       0.44752408 </v>
    <v>       0.00000001       0.58966705       0.55247592 </v>
   </varray>
  </structure>
  <varray name="forces" >
   <v>      -0.00000003       0.00407971      -0.00933764 </v>
   <v>       0.00000003      -0.00407971       0.00933764 </v>
   <v>       0.00000014       0.00405825       0.00933527 </v>
   <v>      -0.00000014      -0.00405825      -0.00933527 </v>
  </varray>
  <varray name="stress" >
   <v>      -4.82621189      -0.00000031      -0.00000190 </v>
   <v>      -0.00000037      -0.83742163       0.00024453 </v>
   <v>      -0.00000181       0.00024459      -0.28155625 </v>
  </varray>
  <energy>
   <i name="e_fr_energy">    -21.45297290 </i>
   <i name="e_wo_entrp">    -21.45297290 </i>
   <i name="e_0_energy">     -0.00000000 </i>
  </energy>
  <time name="totalsc">    9.53    9.54</time>
 </calculation>
 <calculation>
  <scstep>
   <time name="dav">    1.48    1.48</time>
   <time name="total">    1.59    1.59</time>
   <energy>
    <i name="alphaZ">      5.20338397 </i>
    <i name="ewald">   1840.88330596 </i>
    <i name="hartreedc">  -2449.59356831 </i>
    <i name="XCdc">     14.00184908 </i>
    <i name="pawpsdc">   2066.62617448 </i>
    <i name="pawaedc">  -2034.30663860 </i>
    <i name="eentropy">     -0.00000000 </i>
    <i name="bandstr">   -168.43527332 </i>
    <i name="atom">    704.16778566 </i>
    <i name="e_fr_energy">    -21.45298108 </i>
    <i name="e_wo_entrp">    -21.45298108 </i>
    <i name="e_0_energy">    -21.45298108 </i>
   </energy>
  </scstep>
  <scstep>
   <time name="dav">    1.42    1.42</time>
   <time name="total">    1.53    1.53</time>
   <energy>
    <i name="e_fr_energy">    -21.45298352 </i>
    <i name="e_wo_entrp">    -21.45298352 </i>
    <i name="e_0_energy">    -21.45298352 </i>
   </energy>
  </scstep>
  <scstep>
   <time name="dav">    1.15    1.15</time>
   <time name="total">    1.26    1.26</time>
   <energy>
    <i name="e_fr_energy">    -21.45298373 </i>
    <i name="e_wo_entrp">    -21.45298373 </i>
    <i name="e_0_energy">    -21.45298373 </i>
   </energy>
  </scstep>
  <scstep>
   <time name="dav">    1.13    1.13</time>
   <time name="total">    1.24    1.25</time>
   <energy>
    <i name="e_fr_energy">    -21.45298395 </i>
    <i name="e_wo_entrp">    -21.45298395 </i>
    <i name="e_0_energy">    -21.45298395 </i>
   </energy>
  </scstep>
  <scstep>
   <time name="dav">    1.12    1.12</time>
   <time name="total">    1.23    1.23</time>
   <energy>
    <i name="e_fr_energy">    -21.45298404 </i>
    <i name="e_wo_entrp">    -21.45298404 </i>
    <i name="e_0_energy">    -21.45298404 </i>
   </energy>
  </scstep>
  <scstep>
   <time name="dav">    1.13    1.13</time>
   <time name="total">    1.15    1.15</time>
   <energy>
    <i name="alphaZ">      5.20338397 </i>
    <i name="ewald">   1840.88330596 </i>
    <i name="hartreedc">  -2449.59137225 </i>
    <i name="XCdc">     14.00195086 </i>
    <i name="pawpsdc">   2067.68323936 </i>
    <i name="pawaedc">  -2035.36399573 </i>
    <i name="eentropy">     -0.00000000 </i>
    <i name="bandstr">   -168.43728193 </i>
    <i name="atom">    704.16778566 </i>
    <i name="e_fr_energy">    -21.45298410 </i>
    <i name="e_wo_entrp">    -21.45298410 </i>
    <i name="e_0_energy">    -21.45298410 </i>
   </energy>
  </scstep>
  <structure>
   <crystal>
    <varray name="basis" >
     <v>       3.33001300       0.00000000       0.00000000 </v>
     <v>       0.00000000       4.62335100      -0.00005300 </v>
     <v>       0.00000000       0.00000000      20.02439000 </v>
    </varray>
    <i name="volume">    308.29188270 </i>
    <varray name="rec_basis" >
     <v>       0.30029913       0.00000000       0.00000000 </v>
     <v>       0.00000000       0.21629333       0.00000000 </v>
     <v>       0.00000000       0.00000057       0.04993910 </v>
    </varray>
   </crystal>
   <varray name="positions" >
    <v>       0.50000001       0.91035058       0.55245817 </v>
    <v>       0.49999999       0.08964942       0.44754183 </v>
    <v>      -0.00000001       0.41034603       0.44754183 </v>
    <v>       0.00000001       0.58965397       0.55245817 </v>
   </varray>
  </structure>
  <varray name="forces" >
   <v>      -0.00000010       0.00151087      -0.00393102 </v>
   <v>       0.00000010      -0.00151087       0.00393102 </v>
   <v>       0.00000006       0.00149400       0.00392976 </v>
   <v>      -0.00000006      -0.00149400      -0.00392976 </v>
  </varray>
  <varray name="stress" >
   <v>      -4.82268986      -0.00000040      -0.00000168 </v>
   <v>      -0.00000036      -0.83658047       0.00019673 </v>
   <v>      -0.00000166       0.00019678      -0.15950714 </v>
  </varray>
  <energy>
   <i name="e_fr_energy">    -21.45298410 </i>
   <i name="e_wo_entrp">    -21.45298410 </i>
   <i name="e_0_energy">     -0.00000000 </i>
  </energy>
  <time name="totalsc">    8.72    8.73</time>
  <eigenvalues>
   <array>
    <dimension dim="1">band</dimension>
    <dimension dim="2">kpoint</dimension>
    <dimension dim="3">spin</dimension>
    <field>eigene</field>
    <field>occ</field>
    <set>
     <set comment="spin 1">
      <set comment="kpoint 1">
       <r>  -17.1958    1.0000 </r>
       <r>  -14.7245    1.0000 </r>
       <r>  -11.4747    1.0000 </r>
       <r>   -7.9122    1.0000 </r>
       <r>   -6.9932    1.0000 </r>
       <r>   -6.7366    1.0000 </r>
       <r>   -5.7250    1.0000 </r>
       <r>   -4.1378    1.0000 </r>
       <r>   -3.8958    1.0000 </r>
       <r>   -2.3032    1.0000 </r>
       <r>   -1.3466    0.0000 </r>
       <r>   -0.7810    0.0000 </r>
       <r>    0.2187    0.0000 </r>
       <r>    0.9048    0.0000 </r>
       <r>    2.1319    0.0000 </r>
       <r>    2.2848    0.0000 </r>
      </set>
      <set comment="kpoint 2">
       <r>  -17.1694    1.0000 </r>
       <r>  -14.6969    1.0000 </r>
       <r>  -11.4859    1.0000 </r>
       <r>   -7.8923    1.0000 </r>
       <r>   -7.0163    1.0000 </r>
       <r>   -6.7133    1.0000 </r>
       <r>   -5.8892    1.0000 </r>
       <r>   -4.3096    1.0000 </r>
       <r>   -3.8861    1.0000 </r>
       <r>   -2.3051    1.0000 </r>
       <r>   -1.3220    0.0000 </r>
       <r>   -0.5471    0.0000 </r>
       <r>    0.4520    0.0000 </r>
       <r>    0.7470    0.0000 </r>
       <r>    2.1593    0.0000 </r>
       <r>    2.3143    0.0000 </r>
      </set>
      <set comment="kpoint 3">
       <r>  -17.0903    1.0000 </r>
       <r>  -14.6140    1.0000 </r>
       <r>  -11.5247    1.0000 </r>
       <r>   -7.8332    1.0000 </r>
       <r>   -7.1062    1.0000 </r>
       <r>   -6.6441    1.0000 </r>
       <r>   -6.2908    1.0000 </r>
       <r>   -4.7021    1.0000 </r>
       <r>   -3.8605    1.0000 </r>
       <r>   -2.3291    1.0000 </r>
       <r>   -1.2484    0.0000 </r>
       <r>    0.0822    0.0000 </r>
       <r>    0.3542    0.0000 </r>
       <r>    1.0255    0.0000 </r>
       <r>    2.2368    0.0000 </r>
       <r>    2.4026    0.0000 </r>
      </set>
      <set comment="kpoint 4">
       <r>  -16.9589    1.0000 </r>
       <r>  -14.4761    1.0000 </r>
       <r>  -11.6068    1.0000 </r>
       <r>   -7.7374    1.0000 </r>
       <r>   -7.3228    1.0000 </r>
       <r>   -6.7692    1.0000 </r>
       <r>   -6.5302    1.0000 </r>
       <r>   -5.0927    1.0000 </r>
       <r>   -3.8311    1.0000 </r>
       <r>   -2.3950    1.0000 </r>
       <r>   -1.1273    0.0000 </r>
       <r>   -0.1306    0.0000 </r>
       <r>    0.9652    0.0000 </r>
       <r>    1.6416    0.0000 </r>
       <r>    2.2961    0.0000 </r>
       <r>    2.5492    0.0000 </r>
      </set>
      <set comment="kpoint 5">
       <r>  -16.7758    1.0000 </r>
       <r>  -14.2835    1.0000 </r>
       <r>  -11.7558    1.0000 </r>
       <r>   -7.7226    1.0000 </r>
       <r>   -7.6096    1.0000 </r>
       <r>   -7.2043    1.0000 </r>
       <r>   -6.3741    1.0000 </r>
       <r>   -5.3263    1.0000 </r>
       <r>   -3.8210    1.0000 </r>
       <r>   -2.5127    1.0000 </r>
       <r>   -0.9619    0.0000 </r>
       <r>   -0.5940    0.0000 </r>
       <r>    1.7060    0.0000 </r>
       <r>    1.8978    0.0000 </r>
       <r>    1.9602    0.0000 </r>
       <r>    2.6694    0.0000 </r>
      </set>
      <set comment="kpoint 6">
       <r>  -16.5420    1.0000 </r>
       <r>  -14.0365    1.0000 </r>
       <r>  -11.9938    1.0000 </r>
       <r>   -8.2811    1.0000 </r>
       <r>   -7.5243    1.0000 </r>
       <r>   -7.4579    1.0000 </r>
       <r>   -6.1800    1.0000 </r>
       <r>   -5.3826    1.0000 </r>
       <r>   -3.8631    1.0000 </r>
       <r>   -2.6898    1.0000 </r>
       <r>   -0.9487    0.0000 </r>
       <r>   -0.7598    0.0000 </r>
       <r>    1.1808    0.0000 </r>
       <r>    1.3332    0.0000 </r>
       <r>    2.4785    0.0000 </r>
       <r>    2.9186    0.0000 </r>
      </set>
      <set comment="kpoint 7">
       <r>  -16.2589    1.0000 </r>
       <r>  -13.7357    1.0000 </r>
       <r>  -12.3286    1.0000 </r>
       <r>   -8.9219    1.0000 </r>
       <r>   -7.6976    1.0000 </r>
       <r>   -7.2965    1.0000 </r>
       <r>   -5.9545    1.0000 </r>
       <r>   -5.3218    1.0000 </r>
       <r>   -3.9821    1.0000 </r>
       <r>   -2.9276    1.0000 </r>
       <r>   -1.1320    0.0000 </r>
       <r>   -0.5450    0.0000 </r>
       <r>    0.5603    0.0000 </r>
       <r>    0.8091    0.0000 </r>
       <r>    2.0814    0.0000 </r>
       <r>    3.2418    0.0000 </r>
      </set>
      <set comment="kpoint 8">
       <r>  -15.9285    1.0000 </r>
       <r>  -13.3820    1.0000 </r>
       <r>  -12.7456    1.0000 </r>
       <r>   -9.5864    1.0000 </r>
       <r>   -7.7294    1.0000 </r>
       <r>   -7.1490    1.0000 </r>
       <r>   -5.7081    1.0000 </r>
       <r>   -5.2039    1.0000 </r>
       <r>   -4.1592    1.0000 </r>
       <r>   -3.2165    1.0000 </r>
       <r>   -1.1262    0.0000 </r>
       <r>   -0.4164    0.0000 </r>
       <r>   -0.0181    0.0000 </r>
       <r>    0.4603    0.0000 </r>
       <r>    1.5912    0.0000 </r>
       <r>    2.9607    0.0000 </r>
      </set>
      <set comment="kpoint 9">
       <r>  -15.5533    1.0000 </r>
       <r>  -13.2162    1.0000 </r>
       <r>  -12.9764    1.0000 </r>
       <r>  -10.2420    1.0000 </r>
       <r>   -7.6478    1.0000 </r>
       <r>   -7.0509    1.0000 </r>
       <r>   -5.4579    1.0000 </r>
       <r>   -5.0768    1.0000 </r>
       <r>   -4.3248    1.0000 </r>
       <r>   -3.5354    1.0000 </r>
       <r>   -0.9596    0.0000 </r>
       <r>   -0.5666    0.0000 </r>
       <r>   -0.5025    0.0000 </r>
       <r>    0.5064    0.0000 </r>
       <r>    1.0931    0.0000 </r>
       <r>    2.5587    0.0000 </r>
      </set>
      <set comment="kpoint 10">
       <r>  -15.1372    1.0000 </r>
       <r>  -13.7110    1.0000 </r>
       <r>  -12.5202    1.0000 </r>
       <r>  -10.8713    1.0000 </r>
       <r>   -7.4913    1.0000 </r>
       <r>   -7.0419    1.0000 </r>
       <r>   -5.2292    1.0000 </r>
       <r>   -4.9856    1.0000 </r>
       <r>   -4.3963    1.0000 </r>
       <r>   -3.8536    1.0000 </r>
       <r>   -0.8510    0.0000 </r>
       <r>   -0.8335    0.0000 </r>
       <r>   -0.6738    0.0000 </r>
       <r>    0.6002    0.0000 </r>
       <r>    0.8146    0.0000 </r>
       <r>    2.1107    0.0000 </r>
      </set>
      <set comment="kpoint 11">
       <r>  -14.6856    1.0000 </r>
       <r>  -14.2064    1.0000 </r>
       <r>  -12.0153    1.0000 </r>
       <r>  -11.4644    1.0000 </r>
       <r>   -7.3038    1.0000 </r>
       <r>   -7.1363    1.0000 </r>
       <r>   -5.0561    1.0000 </r>
       <r>   -4.9714    1.0000 </r>
       <r>   -4.3284    1.0000 </r>
       <r>   -4.1330    1.0000 </r>
       <r>   -1.0261    0.0000 </r>
       <r>   -1.0123    0.0000 </r>
       <r>   -0.3027    0.0000 </r>
       <r>    0.1287    0.0000 </r>
       <r>    1.2136    0.0000 </r>
       <r>    1.6537    0.0000 </r>
      </set>
      <set comment="kpoint 12">
       <r>  -17.1744    1.0000 </r>
       <r>  -14.7554    1.0000 </r>
       <r>  -11.4802    1.0000 </r>
       <r>   -8.0730    1.0000 </r>
       <r>   -6.8905    1.0000 </r>
       <r>   -6.6470    1.0000 </r>
       <r>   -5.7085    1.0000 </r>
       <r>   -4.1532    1.0000 </r>
       <r>   -3.8039    1.0000 </r>
       <r>   -2.4948    1.0000 </r>
       <r>   -1.1689    0.0000 </r>
       <r>   -0.7635    0.0000 </r>
       <r>    0.1712    0.0000 </r>
       <r>    0.8910    0.0000 </r>
       <r>    2.1887    0.0000 </r>
       <r>    2.3149    0.0000 </r>
      </set>
      <set comment="kpoint 13">
       <r>  -17.1480    1.0000 </r>
       <r>  -14.7280    1.0000 </r>
       <r>  -11.4900    1.0000 </r>
       <r>   -8.0576    1.0000 </r>
       <r>   -6.9067    1.0000 </r>
       <r>   -6.6345    1.0000 </r>
       <r>   -5.8624    1.0000 </r>
       <r>   -4.3318    1.0000 </r>
       <r>   -3.7938    1.0000 </r>
       <r>   -2.4928    1.0000 </r>
       <r>   -1.1482    0.0000 </r>
       <r>   -0.5303    0.0000 </r>
       <r>    0.3978    0.0000 </r>
       <r>    0.7452    0.0000 </r>
       <r>    2.2148    0.0000 </r>
       <r>    2.3444    0.0000 </r>
      </set>
      <set comment="kpoint 14">
       <r>  -17.0690    1.0000 </r>
       <r>  -14.6457    1.0000 </r>
       <r>  -11.5246    1.0000 </r>
       <r>   -8.0162    1.0000 </r>
       <r>   -6.9725    1.0000 </r>
       <r>   -6.6338    1.0000 </r>
       <r>   -6.1984    1.0000 </r>
       <r>   -4.7355    1.0000 </r>
       <r>   -3.7747    1.0000 </r>
       <r>   -2.5015    1.0000 </r>
       <r>   -1.0902    0.0000 </r>
       <r>    0.0980    0.0000 </r>
       <r>    0.3370    0.0000 </r>
       <r>    1.0039    0.0000 </r>
       <r>    2.2884    0.0000 </r>
       <r>    2.4324    0.0000 </r>
      </set>
      <set comment="kpoint 15">
       <r>  -16.9377    1.0000 </r>
       <r>  -14.5090    1.0000 </r>
       <r>  -11.5998    1.0000 </r>
       <r>   -7.9717    1.0000 </r>
       <r>   -7.1300    1.0000 </r>
       <r>   -6.8789    1.0000 </r>
       <r>   -6.3242    1.0000 </r>
       <r>   -5.1361    1.0000 </r>
       <r>   -3.7612    1.0000 </r>
       <r>   -2.5412    1.0000 </r>
       <r>   -0.9940    0.0000 </r>
       <r>   -0.1235    0.0000 </r>
       <r>    0.9756    0.0000 </r>
       <r>    1.6378    0.0000 </r>
       <r>    2.2873    0.0000 </r>
       <r>    2.5249    0.0000 </r>
      </set>
      <set comment="kpoint 16">
       <r>  -16.7548    1.0000 </r>
       <r>  -14.3183    1.0000 </r>
       <r>  -11.7392    1.0000 </r>
       <r>   -8.0272    1.0000 </r>
       <r>   -7.3439    1.0000 </r>
       <r>   -7.2763    1.0000 </r>
       <r>   -6.2161    1.0000 </r>
       <r>   -5.3731    1.0000 </r>
       <r>   -3.7765    1.0000 </r>
       <r>   -2.6274    1.0000 </r>
       <r>   -0.8577    0.0000 </r>
       <r>   -0.5566    0.0000 </r>
       <r>    1.6743    0.0000 </r>
       <r>    1.7706    0.0000 </r>
       <r>    2.0676    0.0000 </r>
       <r>    2.6338    0.0000 </r>
      </set>
      <set comment="kpoint 17">
       <r>  -16.5213    1.0000 </r>
       <r>  -14.0750    1.0000 </r>
       <r>  -11.9659    1.0000 </r>
       <r>   -8.3934    1.0000 </r>
       <r>   -7.5887    1.0000 </r>
       <r>   -7.3863    1.0000 </r>
       <r>   -6.0428    1.0000 </r>
       <r>   -5.4290    1.0000 </r>
       <r>   -3.8503    1.0000 </r>
       <r>   -2.7726    1.0000 </r>
       <r>   -0.8736    0.0000 </r>
       <r>   -0.6844    0.0000 </r>
       <r>    1.1474    0.0000 </r>
       <r>    1.2771    0.0000 </r>
       <r>    2.5664    0.0000 </r>
       <r>    2.9913    0.0000 </r>
      </set>
      <set comment="kpoint 18">
       <r>  -16.2386    1.0000 </r>
       <r>  -13.7821    1.0000 </r>
       <r>  -12.2865    1.0000 </r>
       <r>   -8.9772    1.0000 </r>
       <r>   -7.7593    1.0000 </r>
       <r>   -7.2820    1.0000 </r>
       <r>   -5.8362    1.0000 </r>
       <r>   -5.3740    1.0000 </r>
       <r>   -3.9936    1.0000 </r>
       <r>   -2.9808    1.0000 </r>
       <r>   -1.0207    0.0000 </r>
       <r>   -0.4963    0.0000 </r>
       <r>    0.6280    0.0000 </r>
       <r>    0.6625    0.0000 </r>
       <r>    2.2601    0.0000 </r>
       <r>    3.1863    0.0000 </r>
      </set>
      <set comment="kpoint 19">
       <r>  -15.9087    1.0000 </r>
       <r>  -13.4540    1.0000 </r>
       <r>  -12.6738    1.0000 </r>
       <r>   -9.6215    1.0000 </r>
       <r>   -7.7874    1.0000 </r>
       <r>   -7.1504    1.0000 </r>
       <r>   -5.6146    1.0000 </r>
       <r>   -5.2798    1.0000 </r>
       <r>   -4.1664    1.0000 </r>
       <r>   -3.2414    1.0000 </r>
       <r>   -0.9946    0.0000 </r>
       <r>   -0.4119    0.0000 </r>
       <r>    0.0836    0.0000 </r>
       <r>    0.3049    0.0000 </r>
       <r>    1.8166    0.0000 </r>
       <r>    2.9097    0.0000 </r>
      </set>
      <set comment="kpoint 20">
       <r>  -15.5345    1.0000 </r>
       <r>  -13.3094    1.0000 </r>
       <r>  -12.8815    1.0000 </r>
       <r>  -10.2676    1.0000 </r>
       <r>   -7.6996    1.0000 </r>
       <r>   -7.0556    1.0000 </r>
       <r>   -5.4022    1.0000 </r>
       <r>   -5.2037    1.0000 </r>
       <r>   -4.2828    1.0000 </r>
       <r>   -3.5288    1.0000 </r>
       <r>   -0.8491    0.0000 </r>
       <r>   -0.6246    0.0000 </r>
       <r>   -0.3829    0.0000 </r>
       <r>    0.3866    0.0000 </r>
       <r>    1.3605    0.0000 </r>
       <r>    2.5162    0.0000 </r>
      </set>
      <set comment="kpoint 21">
       <r>  -15.1200    1.0000 </r>
       <r>  -13.7166    1.0000 </r>
       <r>  -12.5124    1.0000 </r>
       <r>  -10.8909    1.0000 </r>
       <r>   -7.5341    1.0000 </r>
       <r>   -7.0499    1.0000 </r>
       <r>   -5.2332    1.0000 </r>
       <r>   -5.1639    1.0000 </r>
       <r>   -4.2840    1.0000 </r>
       <r>   -3.8056    1.0000 </r>
       <r>   -0.9012    0.0000 </r>
       <r>   -0.8819    0.0000 </r>
       <r>   -0.4360    0.0000 </r>
       <r>    0.5604    0.0000 </r>
       <r>    1.0256    0.0000 </r>
       <r>    2.0776    0.0000 </r>
      </set>
      <set comment="kpoint 22">
       <r>  -14.6711    1.0000 </r>
       <r>  -14.1974    1.0000 </r>
       <r>  -12.0227    1.0000 </r>
       <r>  -11.4787    1.0000 </r>
       <r>   -7.3346    1.0000 </r>
       <r>   -7.1539    1.0000 </r>
       <r>   -5.1441    1.0000 </r>
       <r>   -5.1368    1.0000 </r>
       <r>   -4.1919    1.0000 </r>
       <r>   -4.0328    1.0000 </r>
       <r>   -1.0642    0.0000 </r>
       <r>   -1.0545    0.0000 </r>
       <r>   -0.1068    0.0000 </r>
       <r>    0.2887    0.0000 </r>
       <r>    1.2283    0.0000 </r>
       <r>    1.6351    0.0000 </r>
      </set>
      <set comment="kpoint 23">
       <r>  -14.6711    1.0000 </r>
       <r>  -14.1974    1.0000 </r>
       <r>  -12.0227    1.0000 </r>
       <r>  -11.4787    1.0000 </r>
       <r>   -7.3346    1.0000 </r>
       <r>   -7.1539    1.0000 </r>
       <r>   -5.1441    1.0000 </r>
       <r>   -5.1368    1.0000 </r>
       <r>   -4.1919    1.0000 </r>
       <r>   -4.0328    1.0000 </r>
       <r>   -1.0642    0.0000 </r>
       <r>   -1.0545    0.0000 </r>
       <r>   -0.1068    0.0000 </r>
       <r>    0.2887    0.0000 </r>
       <r>    1.2283    0.0000 </r>
       <r>    1.6351    0.0000 </r>
      </set>
      <set comment="kpoint 24">
       <r>  -15.1200    1.0000 </r>
       <r>  -13.7166    1.0000 </r>
       <r>  -12.5124    1.0000 </r>
       <r>  -10.8909    1.0000 </r>
       <r>   -7.5341    1.0000 </r>
       <r>   -7.0499    1.0000 </r>
       <r>   -5.2332    1.0000 </r>
       <r>   -5.1639    1.0000 </r>
       <r>   -4.2840    1.0000 </r>
       <r>   -3.8056    1.0000 </r>
       <r>   -0.9012    0.0000 </r>
       <r>   -0.8819    0.0000 </r>
       <r>   -0.4360    0.0000 </r>
       <r>    0.5604    0.0000 </r>
       <r>    1.0256    0.0000 </r>
       <r>    2.0776    0.0000 </r>
      </set>
      <set comment="kpoint 25">
       <r>  -15.5345    1.0000 </r>
       <r>  -13.3094    1.0000 </r>
       <r>  -12.8815    1.0000 </r>
       <r>  -10.2676    1.0000 </r>
       <r>   -7.6996    1.0000 </r>
       <r>   -7.0556    1.0000 </r>
       <r>   -5.4022    1.0000 </r>
       <r>   -5.2037    1.0000 </r>
       <r>   -4.2828    1.0000 </r>
       <r>   -3.5288    1.0000 </r>
       <r>   -0.8491    0.0000 </r>
       <r>   -0.6246    0.0000 </r>
       <r>   -0.3829    0.0000 </r>
       <r>    0.3866    0.0000 </r>
       <r>    1.3605    0.0000 </r>
       <r>    2.5162    0.0000 </r>
      </set>
      <set comment="kpoint 26">
       <r>  -15.9087    1.0000 </r>
       <r>  -13.4540    1.0000 </r>
       <r>  -12.6738    1.0000 </r>
       <r>   -9.6215    1.0000 </r>
       <r>   -7.7874    1.0000 </r>
       <r>   -7.1504    1.0000 </r>
       <r>   -5.6146    1.0000 </r>
       <r>   -5.2798    1.0000 </r>
       <r>   -4.1664    1.0000 </r>
       <r>   -3.2414    1.0000 </r>
       <r>   -0.9946    0.0000 </r>
       <r>   -0.4119    0.0000 </r>
       <r>    0.0836    0.0000 </r>
       <r>    0.3049    0.0000 </r>
       <r>    1.8166    0.0000 </r>
       <r>    2.9097    0.0000 </r>
      </set>
      <set comment="kpoint 27">
       <r>  -16.2386    1.0000 </r>
       <r>  -13.7821    1.0000 </r>
       <r>  -12.2865    1.0000 </r>
       <r>   -8.9772    1.0000 </r>
       <r>   -7.7593    1.0000 </r>
       <r>   -7.2820    1.0000 </r>
       <r>   -5.8362    1.0000 </r>
       <r>   -5.3740    1.0000 </r>
       <r>   -3.9936    1.0000 </r>
       <r>   -2.9808    1.0000 </r>
       <r>   -1.0207    0.0000 </r>
       <r>   -0.4963    0.0000 </r>
       <r>    0.6280    0.0000 </r>
       <r>    0.6625    0.0000 </r>
       <r>    2.2601    0.0000 </r>
       <r>    3.1863    0.0000 </r>
      </set>
      <set comment="kpoint 28">
       <r>  -16.5213    1.0000 </r>
       <r>  -14.0750    1.0000 </r>
       <r>  -11.9659    1.0000 </r>
       <r>   -8.3934    1.0000 </r>
       <r>   -7.5887    1.0000 </r>
       <r>   -7.3863    1.0000 </r>
       <r>   -6.0428    1.0000 </r>
       <r>   -5.4290    1.0000 </r>
       <r>   -3.8503    1.0000 </r>
       <r>   -2.7726    1.0000 </r>
       <r>   -0.8736    0.0000 </r>
       <r>   -0.6844    0.0000 </r>
       <r>    1.1474    0.0000 </r>
       <r>    1.2771    0.0000 </r>
       <r>    2.5664    0.0000 </r>
       <r>    2.9914    0.0000 </r>
      </set>
      <set comment="kpoint 29">
       <r>  -16.7548    1.0000 </r>
       <r>  -14.3183    1.0000 </r>
       <r>  -11.7392    1.0000 </r>
       <r>   -8.0272    1.0000 </r>
       <r>   -7.3439    1.0000 </r>
       <r>   -7.2763    1.0000 </r>
       <r>   -6.2161    1.0000 </r>
       <r>   -5.3731    1.0000 </r>
       <r>   -3.7765    1.0000 </r>
       <r>   -2.6274    1.0000 </r>
       <r>   -0.8577    0.0000 </r>
       <r>   -0.5566    0.0000 </r>
       <r>    1.6743    0.0000 </r>
       <r>    1.7706    0.0000 </r>
       <r>    2.0676    0.0000 </r>
       <r>    2.6338    0.0000 </r>
      </set>
      <set comment="kpoint 30">
       <r>  -16.9377    1.0000 </r>
       <r>  -14.5090    1.0000 </r>
       <r>  -11.5998    1.0000 </r>
       <r>   -7.9717    1.0000 </r>
       <r>   -7.1300    1.0000 </r>
       <r>   -6.8789    1.0000 </r>
       <r>   -6.3242    1.0000 </r>
       <r>   -5.1361    1.0000 </r>
       <r>   -3.7612    1.0000 </r>
       <r>   -2.5412    1.0000 </r>
       <r>   -0.9940    0.0000 </r>
       <r>   -0.1235    0.0000 </r>
       <r>    0.9756    0.0000 </r>
       <r>    1.6378    0.0000 </r>
       <r>    2.2873    0.0000 </r>
       <r>    2.5248    0.0000 </r>
      </set>
      <set comment="kpoint 31">
       <r>  -17.0690    1.0000 </r>
       <r>  -14.6457    1.0000 </r>
       <r>  -11.5246    1.0000 </r>
       <r>   -8.0162    1.0000 </r>
       <r>   -6.9725    1.0000 </r>
       <r>   -6.6338    1.0000 </r>
       <r>   -6.1984    1.0000 </r>
       <r>   -4.7355    1.0000 </r>
       <r>   -3.7747    1.0000 </r>
       <r>   -2.5015    1.0000 </r>
       <r>   -1.0902    0.0000 </r>
       <r>    0.0980    0.0000 </r>
       <r>    0.3370    0.0000 </r>
       <r>    1.0039    0.0000 </r>
       <r>    2.2884    0.0000 </r>
       <r>    2.4324    0.0000 </r>
      </set>
      <set comment="kpoint 32">
       <r>  -17.1480    1.0000 </r>
       <r>  -14.7280    1.0000 </r>
       <r>  -11.4900    1.0000 </r>
       <r>   -8.0576    1.0000 </r>
       <r>   -6.9067    1.0000 </r>
       <r>   -6.6345    1.0000 </r>
       <r>   -5.8624    1.0000 </r>
       <r>   -4.3318    1.0000 </r>
       <r>   -3.7938    1.0000 </r>
       <r>   -2.4928    1.0000 </r>
       <r>   -1.1482    0.0000 </r>
       <r>   -0.5303    0.0000 </r>
       <r>    0.3978    0.0000 </r>
       <r>    0.7452    0.0000 </r>
       <r>    2.2148    0.0000 </r>
       <r>    2.3444    0.0000 </r>
      </set>
      <set comment="kpoint 33">
       <r>  -17.1106    1.0000 </r>
       <r>  -14.8479    1.0000 </r>
       <r>  -11.4855    1.0000 </r>
       <r>   -8.4301    1.0000 </r>
       <r>   -6.6872    1.0000 </r>
       <r>   -6.3914    1.0000 </r>
       <r>   -5.6593    1.0000 </r>
       <r>   -4.1997    1.0000 </r>
       <r>   -3.5572    1.0000 </r>
       <r>   -2.8826    1.0000 </r>
       <r>   -0.8180    0.0000 </r>
       <r>   -0.7119    0.0000 </r>
       <r>    0.0337    0.0000 </r>
       <r>    0.8585    0.0000 </r>
       <r>    2.3520    0.0000 </r>
       <r>    2.4048    0.0000 </r>
      </set>
      <set comment="kpoint 34">
       <r>  -17.0842    1.0000 </r>
       <r>  -14.8209    1.0000 </r>
       <r>  -11.4918    1.0000 </r>
       <r>   -8.4186    1.0000 </r>
       <r>   -6.6941    1.0000 </r>
       <r>   -6.4191    1.0000 </r>
       <r>   -5.7744    1.0000 </r>
       <r>   -4.3895    1.0000 </r>
       <r>   -3.5540    1.0000 </r>
       <r>   -2.8764    1.0000 </r>
       <r>   -0.8039    0.0000 </r>
       <r>   -0.4784    0.0000 </r>
       <r>    0.2553    0.0000 </r>
       <r>    0.7360    0.0000 </r>
       <r>    2.3746    0.0000 </r>
       <r>    2.4340    0.0000 </r>
      </set>
      <set comment="kpoint 35">
       <r>  -17.0054    1.0000 </r>
       <r>  -14.7402    1.0000 </r>
       <r>  -11.5156    1.0000 </r>
       <r>   -8.3898    1.0000 </r>
       <r>   -6.7314    1.0000 </r>
       <r>   -6.5916    1.0000 </r>
       <r>   -5.9444    1.0000 </r>
       <r>   -4.8192    1.0000 </r>
       <r>   -3.5591    1.0000 </r>
       <r>   -2.8676    1.0000 </r>
       <r>   -0.7641    0.0000 </r>
       <r>    0.1461    0.0000 </r>
       <r>    0.3092    0.0000 </r>
       <r>    0.9334    0.0000 </r>
       <r>    2.4368    0.0000 </r>
       <r>    2.5214    0.0000 </r>
      </set>
      <set comment="kpoint 36">
       <r>  -16.8745    1.0000 </r>
       <r>  -14.6064    1.0000 </r>
       <r>  -11.5725    1.0000 </r>
       <r>   -8.3667    1.0000 </r>
       <r>   -6.9749    1.0000 </r>
       <r>   -6.8494    1.0000 </r>
       <r>   -5.9499    1.0000 </r>
       <r>   -5.2448    1.0000 </r>
       <r>   -3.5924    1.0000 </r>
       <r>   -2.8724    1.0000 </r>
       <r>   -0.6983    0.0000 </r>
       <r>   -0.0757    0.0000 </r>
       <r>    1.0004    0.0000 </r>
       <r>    1.6041    0.0000 </r>
       <r>    2.0412    0.0000 </r>
       <r>    2.5453    0.0000 </r>
      </set>
      <set comment="kpoint 37">
       <r>  -16.6921    1.0000 </r>
       <r>  -14.4207    1.0000 </r>
       <r>  -11.6868    1.0000 </r>
       <r>   -8.4141    1.0000 </r>
       <r>   -7.3919    1.0000 </r>
       <r>   -7.0706    1.0000 </r>
       <r>   -5.8516    1.0000 </r>
       <r>   -5.4867    1.0000 </r>
       <r>   -3.6771    1.0000 </r>
       <r>   -2.9070    1.0000 </r>
       <r>   -0.6056    0.0000 </r>
       <r>   -0.4233    0.0000 </r>
       <r>    1.3104    0.0000 </r>
       <r>    1.9154    0.0000 </r>
       <r>    2.1573    0.0000 </r>
       <r>    2.6589    0.0000 </r>
      </set>
      <set comment="kpoint 38">
       <r>  -16.4594    1.0000 </r>
       <r>  -14.1861    1.0000 </r>
       <r>  -11.8836    1.0000 </r>
       <r>   -8.6574    1.0000 </r>
       <r>   -7.7151    1.0000 </r>
       <r>   -7.2469    1.0000 </r>
       <r>   -5.7074    1.0000 </r>
       <r>   -5.5376    1.0000 </r>
       <r>   -3.8283    1.0000 </r>
       <r>   -2.9880    1.0000 </r>
       <r>   -0.6441    0.0000 </r>
       <r>   -0.4864    0.0000 </r>
       <r>    0.7783    0.0000 </r>
       <r>    1.5337    0.0000 </r>
       <r>    2.6821    0.0000 </r>
       <r>    3.0673    0.0000 </r>
      </set>
      <set comment="kpoint 39">
       <r>  -16.1780    1.0000 </r>
       <r>  -13.9101    1.0000 </r>
       <r>  -12.1700    1.0000 </r>
       <r>   -9.1328    1.0000 </r>
       <r>   -7.8924    1.0000 </r>
       <r>   -7.2529    1.0000 </r>
       <r>   -5.5451    1.0000 </r>
       <r>   -5.4989    1.0000 </r>
       <r>   -4.0223    1.0000 </r>
       <r>   -3.1239    1.0000 </r>
       <r>   -0.7079    0.0000 </r>
       <r>   -0.3617    0.0000 </r>
       <r>    0.2852    0.0000 </r>
       <r>    0.9447    0.0000 </r>
       <r>    2.5525    0.0000 </r>
       <r>    3.0362    0.0000 </r>
      </set>
      <set comment="kpoint 40">
       <r>  -15.8499    1.0000 </r>
       <r>  -13.6206    1.0000 </r>
       <r>  -12.5077    1.0000 </r>
       <r>   -9.7248    1.0000 </r>
       <r>   -7.9193    1.0000 </r>
       <r>   -7.1607    1.0000 </r>
       <r>   -5.4655    1.0000 </r>
       <r>   -5.3931    1.0000 </r>
       <r>   -4.1803    1.0000 </r>
       <r>   -3.3046    1.0000 </r>
       <r>   -0.6358    0.0000 </r>
       <r>   -0.4306    0.0000 </r>
       <r>    0.0889    0.0000 </r>
       <r>    0.3687    0.0000 </r>
       <r>    2.2550    0.0000 </r>
       <r>    2.7702    0.0000 </r>
      </set>
      <set comment="kpoint 41">
       <r>  -15.4786    1.0000 </r>
       <r>  -13.4729    1.0000 </r>
       <r>  -12.7135    1.0000 </r>
       <r>  -10.3441    1.0000 </r>
       <r>   -7.8217    1.0000 </r>
       <r>   -7.0707    1.0000 </r>
       <r>   -5.4869    1.0000 </r>
       <r>   -5.2897    1.0000 </r>
       <r>   -4.2136    1.0000 </r>
       <r>   -3.4985    1.0000 </r>
       <r>   -0.7485    0.0000 </r>
       <r>   -0.5365    0.0000 </r>
       <r>   -0.0552    0.0000 </r>
       <r>    0.2688    0.0000 </r>
       <r>    1.8729    0.0000 </r>
       <r>    2.3981    0.0000 </r>
      </set>
      <set comment="kpoint 42">
       <r>  -15.0688    1.0000 </r>
       <r>  -13.7365    1.0000 </r>
       <r>  -12.4870    1.0000 </r>
       <r>  -10.9500    1.0000 </r>
       <r>   -7.6374    1.0000 </r>
       <r>   -7.0694    1.0000 </r>
       <r>   -5.5083    1.0000 </r>
       <r>   -5.2731    1.0000 </r>
       <r>   -4.1213    1.0000 </r>
       <r>   -3.6719    1.0000 </r>
       <r>   -1.0013    0.0000 </r>
       <r>   -0.7415    0.0000 </r>
       <r>    0.0110    0.0000 </r>
       <r>    0.5103    0.0000 </r>
       <r>    1.4952    0.0000 </r>
       <r>    1.9888    0.0000 </r>
      </set>
      <set comment="kpoint 43">
       <r>  -14.6285    1.0000 </r>
       <r>  -14.1722    1.0000 </r>
       <r>  -12.0443    1.0000 </r>
       <r>  -11.5220    1.0000 </r>
       <r>   -7.4104    1.0000 </r>
       <r>   -7.1971    1.0000 </r>
       <r>   -5.4526    1.0000 </r>
       <r>   -5.3465    1.0000 </r>
       <r>   -3.9730    1.0000 </r>
       <r>   -3.8220    1.0000 </r>
       <r>   -1.0943    0.0000 </r>
       <r>   -0.9971    0.0000 </r>
       <r>    0.3145    0.0000 </r>
       <r>    0.5741    0.0000 </r>
       <r>    1.3501    0.0000 </r>
       <r>    1.6001    0.0000 </r>
      </set>
      <set comment="kpoint 44">
       <r>  -14.6285    1.0000 </r>
       <r>  -14.1722    1.0000 </r>
       <r>  -12.0443    1.0000 </r>
       <r>  -11.5220    1.0000 </r>
       <r>   -7.4104    1.0000 </r>
       <r>   -7.1971    1.0000 </r>
       <r>   -5.4526    1.0000 </r>
       <r>   -5.3465    1.0000 </r>
       <r>   -3.9730    1.0000 </r>
       <r>   -3.8220    1.0000 </r>
       <r>   -1.0943    0.0000 </r>
       <r>   -0.9971    0.0000 </r>
       <r>    0.3145    0.0000 </r>
       <r>    0.5741    0.0000 </r>
       <r>    1.3501    0.0000 </r>
       <r>    1.6001    0.0000 </r>
      </set>
      <set comment="kpoint 45">
       <r>  -15.0688    1.0000 </r>
       <r>  -13.7365    1.0000 </r>
       <r>  -12.4870    1.0000 </r>
       <r>  -10.9500    1.0000 </r>
       <r>   -7.6374    1.0000 </r>
       <r>   -7.0694    1.0000 </r>
       <r>   -5.5083    1.0000 </r>
       <r>   -5.2731    1.0000 </r>
       <r>   -4.1213    1.0000 </r>
       <r>   -3.6719    1.0000 </r>
       <r>   -1.0013    0.0000 </r>
       <r>   -0.7415    0.0000 </r>
       <r>    0.0110    0.0000 </r>
       <r>    0.5103    0.0000 </r>
       <r>    1.4952    0.0000 </r>
       <r>    1.9888    0.0000 </r>
      </set>
      <set comment="kpoint 46">
       <r>  -15.4786    1.0000 </r>
       <r>  -13.4729    1.0000 </r>
       <r>  -12.7135    1.0000 </r>
       <r>  -10.3441    1.0000 </r>
       <r>   -7.8217    1.0000 </r>
       <r>   -7.0707    1.0000 </r>
       <r>   -5.4869    1.0000 </r>
       <r>   -5.2897    1.0000 </r>
       <r>   -4.2136    1.0000 </r>
       <r>   -3.4985    1.0000 </r>
       <r>   -0.7485    0.0000 </r>
       <r>   -0.5365    0.0000 </r>
       <r>   -0.0552    0.0000 </r>
       <r>    0.2688    0.0000 </r>
       <r>    1.8729    0.0000 </r>
       <r>    2.3981    0.0000 </r>
      </set>
      <set comment="kpoint 47">
       <r>  -15.8499    1.0000 </r>
       <r>  -13.6206    1.0000 </r>
       <r>  -12.5077    1.0000 </r>
       <r>   -9.7248    1.0000 </r>
       <r>   -7.9193    1.0000 </r>
       <r>   -7.1607    1.0000 </r>
       <r>   -5.4655    1.0000 </r>
       <r>   -5.3931    1.0000 </r>
       <r>   -4.1803    1.0000 </r>
       <r>   -3.3046    1.0000 </r>
       <r>   -0.6358    0.0000 </r>
       <r>   -0.4306    0.0000 </r>
       <r>    0.0889    0.0000 </r>
       <r>    0.3687    0.0000 </r>
       <r>    2.2550    0.0000 </r>
       <r>    2.7702    0.0000 </r>
      </set>
      <set comment="kpoint 48">
       <r>  -16.1780    1.0000 </r>
       <r>  -13.9101    1.0000 </r>
       <r>  -12.1700    1.0000 </r>
       <r>   -9.1328    1.0000 </r>
       <r>   -7.8924    1.0000 </r>
       <r>   -7.2529    1.0000 </r>
       <r>   -5.5451    1.0000 </r>
       <r>   -5.4989    1.0000 </r>
       <r>   -4.0223    1.0000 </r>
       <r>   -3.1239    1.0000 </r>
       <r>   -0.7079    0.0000 </r>
       <r>   -0.3617    0.0000 </r>
       <r>    0.2852    0.0000 </r>
       <r>    0.9447    0.0000 </r>
       <r>    2.5525    0.0000 </r>
       <r>    3.0362    0.0000 </r>
      </set>
      <set comment="kpoint 49">
       <r>  -16.4594    1.0000 </r>
       <r>  -14.1861    1.0000 </r>
       <r>  -11.8836    1.0000 </r>
       <r>   -8.6574    1.0000 </r>
       <r>   -7.7151    1.0000 </r>
       <r>   -7.2469    1.0000 </r>
       <r>   -5.7074    1.0000 </r>
       <r>   -5.5376    1.0000 </r>
       <r>   -3.8283    1.0000 </r>
[...]
       <r>    3.3193    0.0000 </r>
       <r>    3.3695    0.0000 </r>
      </set>
      <set comment="kpoint 153">
       <r>  -15.3385    1.0000 </r>
       <r>  -15.0913    1.0000 </r>
       <r>  -10.9541    1.0000 </r>
       <r>  -10.6335    1.0000 </r>
       <r>   -7.9361    1.0000 </r>
       <r>   -7.7782    1.0000 </r>
       <r>   -5.3007    1.0000 </r>
       <r>   -5.0824    1.0000 </r>
       <r>   -3.8579    1.0000 </r>
       <r>   -3.7653    1.0000 </r>
       <r>    0.2549    0.0000 </r>
       <r>    0.6495    0.0000 </r>
       <r>    1.0800    0.0000 </r>
       <r>    1.3767    0.0000 </r>
       <r>    3.2577    0.0000 </r>
       <r>    3.3208    0.0000 </r>
      </set>
      <set comment="kpoint 154">
       <r>  -15.6016    1.0000 </r>
       <r>  -15.3491    1.0000 </r>
       <r>  -10.7892    1.0000 </r>
       <r>  -10.4596    1.0000 </r>
       <r>   -7.6359    1.0000 </r>
       <r>   -7.4749    1.0000 </r>
       <r>   -5.1652    1.0000 </r>
       <r>   -4.8942    1.0000 </r>
       <r>   -3.7577    1.0000 </r>
       <r>   -3.7387    1.0000 </r>
       <r>    0.2505    0.0000 </r>
       <r>    0.5585    0.0000 </r>
       <r>    1.1826    0.0000 </r>
       <r>    1.5195    0.0000 </r>
       <r>    2.9208    0.0000 </r>
       <r>    3.1764    0.0000 </r>
      </set>
      <set comment="kpoint 155">
       <r>  -15.8228    1.0000 </r>
       <r>  -15.5674    1.0000 </r>
       <r>  -10.7352    1.0000 </r>
       <r>  -10.4074    1.0000 </r>
       <r>   -7.1444    1.0000 </r>
       <r>   -6.9725    1.0000 </r>
       <r>   -5.1672    1.0000 </r>
       <r>   -4.8548    1.0000 </r>
       <r>   -3.6736    1.0000 </r>
       <r>   -3.5274    1.0000 </r>
       <r>    0.3260    0.0000 </r>
       <r>    0.5185    0.0000 </r>
       <r>    1.1915    0.0000 </r>
       <r>    1.5556    0.0000 </r>
       <r>    2.2849    0.0000 </r>
       <r>    2.5149    0.0000 </r>
      </set>
      <set comment="kpoint 156">
       <r>  -15.9978    1.0000 </r>
       <r>  -15.7408    1.0000 </r>
       <r>  -10.7446    1.0000 </r>
       <r>  -10.4219    1.0000 </r>
       <r>   -6.5315    1.0000 </r>
       <r>   -6.3482    1.0000 </r>
       <r>   -5.2244    1.0000 </r>
       <r>   -4.8924    1.0000 </r>
       <r>   -3.6040    1.0000 </r>
       <r>   -3.3381    1.0000 </r>
       <r>    0.4224    0.0000 </r>
       <r>    0.4894    0.0000 </r>
       <r>    1.1044    0.0000 </r>
       <r>    1.3844    0.0000 </r>
       <r>    1.7301    0.0000 </r>
       <r>    1.8052    0.0000 </r>
      </set>
      <set comment="kpoint 157">
       <r>  -16.1243    1.0000 </r>
       <r>  -15.8664    1.0000 </r>
       <r>  -10.7752    1.0000 </r>
       <r>  -10.4570    1.0000 </r>
       <r>   -5.8778    1.0000 </r>
       <r>   -5.6922    1.0000 </r>
       <r>   -5.2823    1.0000 </r>
       <r>   -4.9456    1.0000 </r>
       <r>   -3.6219    1.0000 </r>
       <r>   -3.2512    1.0000 </r>
       <r>    0.2344    0.0000 </r>
       <r>    0.2480    0.0000 </r>
       <r>    1.0575    0.0000 </r>
       <r>    1.1020    0.0000 </r>
       <r>    1.4531    0.0000 </r>
       <r>    1.5982    0.0000 </r>
      </set>
      <set comment="kpoint 158">
       <r>  -16.2006    1.0000 </r>
       <r>  -15.9423    1.0000 </r>
       <r>  -10.8017    1.0000 </r>
       <r>  -10.4863    1.0000 </r>
       <r>   -5.3457    1.0000 </r>
       <r>   -5.2939    1.0000 </r>
       <r>   -5.0968    1.0000 </r>
       <r>   -4.9853    1.0000 </r>
       <r>   -3.7459    1.0000 </r>
       <r>   -3.2912    1.0000 </r>
       <r>   -0.1859    0.0000 </r>
       <r>   -0.1431    0.0000 </r>
       <r>    1.1192    0.0000 </r>
       <r>    1.1551    0.0000 </r>
       <r>    1.3802    0.0000 </r>
       <r>    1.5429    0.0000 </r>
      </set>
     </set>
    </set>
   </array>
  </eigenvalues>
  <separator name="orbital magnetization" >
   <v name="MAGDIPOLOUT">      0.00000000      0.00000000      0.00000000</v>
  </separator>
  <dos>
   <i name="efermi">     -2.21223506 </i>
   <total>
    <array>
     <dimension dim="1">gridpoints</dimension>
     <dimension dim="2">spin</dimension>
     <field>energy</field>
     <field>total</field>
     <field>integrated</field>
     <set>
      <set comment="spin 1">
       <r>   -18.2357     0.0000     0.0000 </r>
       <r>   -18.1594     0.0000     0.0000 </r>
       <r>   -18.0832     0.0000     0.0000 </r>
       <r>   -18.0069     0.0000     0.0000 </r>
       <r>   -17.9306     0.0000     0.0000 </r>
       <r>   -17.8544     0.0000     0.0000 </r>
       <r>   -17.7781     0.0000     0.0000 </r>
       <r>   -17.7019     0.0000     0.0000 </r>
       <r>   -17.6256     0.0000     0.0000 </r>
       <r>   -17.5494     0.0000     0.0000 </r>
       <r>   -17.4731     0.0000     0.0000 </r>
       <r>   -17.3968     0.0000     0.0000 </r>
       <r>   -17.3206     0.0000     0.0000 </r>
       <r>   -17.2443     0.0000     0.0000 </r>
       <r>   -17.1681     0.3088     0.0235 </r>
       <r>   -17.0918     0.7842     0.0834 </r>
       <r>   -17.0156     0.7751     0.1425 </r>
       <r>   -16.9393     1.0176     0.2201 </r>
       <r>   -16.8630     0.8698     0.2864 </r>
       <r>   -16.7868     0.5770     0.3304 </r>
       <r>   -16.7105     1.1135     0.4153 </r>
       <r>   -16.6343     0.8713     0.4817 </r>
       <r>   -16.5580     0.9112     0.5512 </r>
       <r>   -16.4818     0.5607     0.5940 </r>
       <r>   -16.4055     1.4500     0.7046 </r>
       <r>   -16.3293     0.6586     0.7548 </r>
       <r>   -16.2530     0.5061     0.7934 </r>
       <r>   -16.1767     1.6645     0.9203 </r>
       <r>   -16.1005     0.5080     0.9590 </r>
       <r>   -16.0242     0.9677     1.0328 </r>
       <r>   -15.9480     0.7458     1.0897 </r>
       <r>   -15.8717     1.0854     1.1725 </r>
       <r>   -15.7955     1.1947     1.2636 </r>
       <r>   -15.7192     0.9921     1.3392 </r>
       <r>   -15.6429     0.5221     1.3790 </r>
       <r>   -15.5667     1.3485     1.4819 </r>
       <r>   -15.4904     0.9146     1.5516 </r>
       <r>   -15.4142     1.2288     1.6453 </r>
       <r>   -15.3379     1.0998     1.7292 </r>
       <r>   -15.2617     1.0346     1.8081 </r>
       <r>   -15.1854     0.8996     1.8767 </r>
       <r>   -15.1091     0.9679     1.9505 </r>
       <r>   -15.0329     1.9523     2.0994 </r>
       <r>   -14.9566     1.2620     2.1956 </r>
       <r>   -14.8804     0.8103     2.2574 </r>
       <r>   -14.8041     1.6371     2.3822 </r>
       <r>   -14.7279     1.8054     2.5199 </r>
       <r>   -14.6516     1.3601     2.6236 </r>
       <r>   -14.5753     1.9130     2.7695 </r>
       <r>   -14.4991     1.6612     2.8962 </r>
       <r>   -14.4228     0.8841     2.9636 </r>
       <r>   -14.3466     1.0473     3.0435 </r>
       <r>   -14.2703     1.6350     3.1681 </r>
       <r>   -14.1941     1.0620     3.2491 </r>
       <r>   -14.1178     1.4595     3.3604 </r>
       <r>   -14.0416     2.9002     3.5816 </r>
       <r>   -13.9653     0.2315     3.5992 </r>
       <r>   -13.8890     0.5738     3.6430 </r>
       <r>   -13.8128     0.9844     3.7181 </r>
       <r>   -13.7365     0.9778     3.7926 </r>
       <r>   -13.6603     0.8534     3.8577 </r>
       <r>   -13.5840     0.5323     3.8983 </r>
       <r>   -13.5078     0.0039     3.8986 </r>
       <r>   -13.4315     0.6448     3.9478 </r>
       <r>   -13.3552     0.1809     3.9615 </r>
       <r>   -13.2790     0.3325     3.9869 </r>
       <r>   -13.2027     0.1433     3.9978 </r>
       <r>   -13.1265     0.0285     4.0000 </r>
       <r>   -13.0502     0.0000     4.0000 </r>
       <r>   -12.9740     0.0945     4.0072 </r>
       <r>   -12.8977     0.1140     4.0159 </r>
       <r>   -12.8214     0.2911     4.0381 </r>
       <r>   -12.7452     0.0891     4.0449 </r>
       <r>   -12.6689     0.6217     4.0923 </r>
       <r>   -12.5927     0.1218     4.1016 </r>
       <r>   -12.5164     0.5505     4.1436 </r>
       <r>   -12.4402     1.0947     4.2270 </r>
       <r>   -12.3639     0.3058     4.2504 </r>
       <r>   -12.2876     1.1156     4.3354 </r>
       <r>   -12.2114     0.5945     4.3808 </r>
       <r>   -12.1351     0.7548     4.4383 </r>
       <r>   -12.0589     2.1212     4.6001 </r>
       <r>   -11.9826     1.7404     4.7328 </r>
       <r>   -11.9064     0.9880     4.8081 </r>
       <r>   -11.8301     0.7144     4.8626 </r>
       <r>   -11.7539     1.3117     4.9626 </r>
       <r>   -11.6776     1.3840     5.0682 </r>
       <r>   -11.6013     0.7294     5.1238 </r>
       <r>   -11.5251     2.8354     5.3400 </r>
       <r>   -11.4488     3.9238     5.6392 </r>
       <r>   -11.3726     1.3782     5.7443 </r>
       <r>   -11.2963     1.0283     5.8227 </r>
       <r>   -11.2201     2.0907     5.9822 </r>
       <r>   -11.1438     0.3996     6.0126 </r>
       <r>   -11.0675     0.8627     6.0784 </r>
       <r>   -10.9913     1.6229     6.2022 </r>
       <r>   -10.9150     1.0179     6.2798 </r>
       <r>   -10.8388     0.7728     6.3387 </r>
       <r>   -10.7625     1.1900     6.4295 </r>
       <r>   -10.6863     0.6976     6.4827 </r>
       <r>   -10.6100     0.9767     6.5572 </r>
       <r>   -10.5337     0.0215     6.5588 </r>
       <r>   -10.4575     1.1143     6.6438 </r>
       <r>   -10.3812     1.0901     6.7269 </r>
       <r>   -10.3050     0.7658     6.7853 </r>
       <r>   -10.2287     0.6624     6.8358 </r>
       <r>   -10.1525     0.0522     6.8398 </r>
       <r>   -10.0762     1.4557     6.9508 </r>
       <r>    -9.9999     0.6926     7.0036 </r>
       <r>    -9.9237     0.3303     7.0288 </r>
       <r>    -9.8474     0.3296     7.0539 </r>
       <r>    -9.7712     0.0023     7.0541 </r>
       <r>    -9.6949     1.2675     7.1508 </r>
       <r>    -9.6187     1.4157     7.2587 </r>
       <r>    -9.5424     0.3121     7.2825 </r>
       <r>    -9.4662     0.0002     7.2825 </r>
       <r>    -9.3899     0.0190     7.2840 </r>
       <r>    -9.3136     0.6861     7.3363 </r>
       <r>    -9.2374     1.0975     7.4200 </r>
       <r>    -9.1611     0.3698     7.4482 </r>
       <r>    -9.0849     0.3254     7.4730 </r>
       <r>    -9.0086     0.0415     7.4762 </r>
       <r>    -8.9324     0.6628     7.5267 </r>
       <r>    -8.8561     0.3013     7.5497 </r>
       <r>    -8.7798     1.2846     7.6476 </r>
       <r>    -8.7036     0.0415     7.6508 </r>
       <r>    -8.6273     0.3273     7.6758 </r>
       <r>    -8.5511     0.0055     7.6762 </r>
       <r>    -8.4748     0.0001     7.6762 </r>
       <r>    -8.3986     0.9718     7.7503 </r>
       <r>    -8.3223     0.8598     7.8159 </r>
       <r>    -8.2460     0.1654     7.8285 </r>
       <r>    -8.1698     0.1956     7.8434 </r>
       <r>    -8.0935     1.2740     7.9406 </r>
       <r>    -8.0173     2.9878     8.1684 </r>
       <r>    -7.9410     1.4396     8.2782 </r>
       <r>    -7.8648     1.7875     8.4145 </r>
       <r>    -7.7885     2.6712     8.6182 </r>
       <r>    -7.7122     2.5842     8.8152 </r>
       <r>    -7.6360     1.7479     8.9485 </r>
       <r>    -7.5597     1.3405     9.0508 </r>
       <r>    -7.4835     2.3005     9.2262 </r>
       <r>    -7.4072     2.4665     9.4143 </r>
       <r>    -7.3310     1.9256     9.5611 </r>
       <r>    -7.2547     3.8402     9.8540 </r>
       <r>    -7.1785     3.0632    10.0875 </r>
       <r>    -7.1022     3.8073    10.3779 </r>
       <r>    -7.0259     2.7861    10.5903 </r>
       <r>    -6.9497     1.7078    10.7206 </r>
       <r>    -6.8734     0.9412    10.7923 </r>
       <r>    -6.7972     1.6041    10.9147 </r>
       <r>    -6.7209     0.9989    10.9908 </r>
       <r>    -6.6447     2.3903    11.1731 </r>
       <r>    -6.5684     1.2869    11.2712 </r>
       <r>    -6.4921     1.2903    11.3696 </r>
       <r>    -6.4159     2.2889    11.5442 </r>
       <r>    -6.3396     1.2722    11.6412 </r>
       <r>    -6.2634     0.8772    11.7081 </r>
       <r>    -6.1871     2.5774    11.9046 </r>
       <r>    -6.1109     2.2090    12.0731 </r>
       <r>    -6.0346     1.0603    12.1539 </r>
       <r>    -5.9583     1.4558    12.2649 </r>
       <r>    -5.8821     1.7351    12.3973 </r>
       <r>    -5.8058     2.8947    12.6180 </r>
       <r>    -5.7296     1.6182    12.7414 </r>
       <r>    -5.6533     3.5803    13.0144 </r>
       <r>    -5.5771     4.2275    13.3368 </r>
       <r>    -5.5008     2.7562    13.5470 </r>
       <r>    -5.4245     3.5784    13.8198 </r>
       <r>    -5.3483     4.1178    14.1339 </r>
       <r>    -5.2720     3.0647    14.3676 </r>
       <r>    -5.1958     3.5906    14.6414 </r>
       <r>    -5.1195     2.7489    14.8510 </r>
       <r>    -5.0433     2.3429    15.0297 </r>
       <r>    -4.9670     1.5177    15.1454 </r>
       <r>    -4.8908     2.3976    15.3282 </r>
       <r>    -4.8145     1.5377    15.4455 </r>
       <r>    -4.7382     1.0544    15.5259 </r>
       <r>    -4.6620     0.7239    15.5811 </r>
       <r>    -4.5857     1.6665    15.7082 </r>
       <r>    -4.5095     1.7251    15.8397 </r>
       <r>    -4.4332     0.5235    15.8796 </r>
       <r>    -4.3570     0.8391    15.9436 </r>
       <r>    -4.2807     1.2897    16.0420 </r>
       <r>    -4.2044     1.1850    16.1323 </r>
       <r>    -4.1282     3.3633    16.3888 </r>
       <r>    -4.0519     2.0263    16.5433 </r>
       <r>    -3.9757     2.7431    16.7525 </r>
       <r>    -3.8994     1.8787    16.8958 </r>
       <r>    -3.8232     3.2688    17.1451 </r>
       <r>    -3.7469     5.7814    17.5859 </r>
       <r>    -3.6706     3.3063    17.8381 </r>
       <r>    -3.5944     2.6494    18.0401 </r>
       <r>    -3.5181     3.8989    18.3374 </r>
       <r>    -3.4419     3.4454    18.6001 </r>
       <r>    -3.3656     3.2970    18.8516 </r>
       <r>    -3.2894     3.4210    19.1124 </r>
       <r>    -3.2131     3.0397    19.3442 </r>
       <r>    -3.1368     0.7497    19.4014 </r>
       <r>    -3.0606     0.5474    19.4431 </r>
       <r>    -2.9843     0.9160    19.5130 </r>
       <r>    -2.9081     1.7944    19.6498 </r>
       <r>    -2.8318     1.7052    19.7798 </r>
       <r>    -2.7556     0.4344    19.8130 </r>
       <r>    -2.6793     0.1666    19.8257 </r>
       <r>    -2.6031     0.3569    19.8529 </r>
       <r>    -2.5268     0.3397    19.8788 </r>
       <r>    -2.4505     1.0059    19.9555 </r>
       <r>    -2.3743     0.1554    19.9674 </r>
       <r>    -2.2980     0.3447    19.9936 </r>
       <r>    -2.2218     0.0834    20.0000 </r>
       <r>    -2.1455     0.0000    20.0000 </r>
       <r>    -2.0693     0.0000    20.0000 </r>
       <r>    -1.9930     0.0000    20.0000 </r>
       <r>    -1.9167     0.0000    20.0000 </r>
       <r>    -1.8405     0.0000    20.0000 </r>
       <r>    -1.7642     0.0000    20.0000 </r>
       <r>    -1.6880     0.0000    20.0000 </r>
       <r>    -1.6117     0.0000    20.0000 </r>
       <r>    -1.5355     0.0000    20.0000 </r>
       <r>    -1.4592     0.0000    20.0000 </r>
       <r>    -1.3829     0.0004    20.0000 </r>
       <r>    -1.3067     0.2259    20.0173 </r>
       <r>    -1.2304     0.1731    20.0305 </r>
       <r>    -1.1542     0.2894    20.0525 </r>
       <r>    -1.0779     1.3589    20.1561 </r>
       <r>    -1.0017     1.8364    20.2962 </r>
       <r>    -0.9254     2.0309    20.4510 </r>
       <r>    -0.8491     1.5175    20.5668 </r>
       <r>    -0.7729     1.9012    20.7117 </r>
       <r>    -0.6966     2.4842    20.9012 </r>
       <r>    -0.6204     2.0049    21.0541 </r>
       <r>    -0.5441     1.7891    21.1905 </r>
       <r>    -0.4679     3.0684    21.4245 </r>
       <r>    -0.3916     3.4408    21.6869 </r>
       <r>    -0.3154     2.6139    21.8862 </r>
       <r>    -0.2391     2.7604    22.0967 </r>
       <r>    -0.1628     1.9570    22.2459 </r>
       <r>    -0.0866     3.5091    22.5135 </r>
       <r>    -0.0103     2.1223    22.6754 </r>
       <r>     0.0659     3.7147    22.9586 </r>
       <r>     0.1422     3.4314    23.2203 </r>
       <r>     0.2184     2.5428    23.4142 </r>
       <r>     0.2947     5.2704    23.8161 </r>
       <r>     0.3710     4.3905    24.1509 </r>
       <r>     0.4472     5.4005    24.5628 </r>
       <r>     0.5235     3.2438    24.8101 </r>
       <r>     0.5997     3.0455    25.0424 </r>
       <r>     0.6760     3.1820    25.2850 </r>
       <r>     0.7522     4.4200    25.6221 </r>
       <r>     0.8285     4.3902    25.9569 </r>
       <r>     0.9048     2.7711    26.1682 </r>
       <r>     0.9810     4.0730    26.4788 </r>
       <r>     1.0573     2.4743    26.6674 </r>
       <r>     1.1335     1.8325    26.8072 </r>
       <r>     1.2098     3.2825    27.0575 </r>
       <r>     1.2860     1.8214    27.1964 </r>
       <r>     1.3623     2.5125    27.3880 </r>
       <r>     1.4386     2.8597    27.6061 </r>
       <r>     1.5148     1.6256    27.7300 </r>
       <r>     1.5911     2.8490    27.9473 </r>
       <r>     1.6673     2.8385    28.1637 </r>
       <r>     1.7436     1.8233    28.3028 </r>
       <r>     1.8198     2.2526    28.4745 </r>
       <r>     1.8961     3.2558    28.7228 </r>
       <r>     1.9723     1.2077    28.8149 </r>
       <r>     2.0486     2.3504    28.9941 </r>
       <r>     2.1249     2.0389    29.1496 </r>
       <r>     2.2011     1.9968    29.3019 </r>
       <r>     2.2774     3.2347    29.5486 </r>
       <r>     2.3536     2.6529    29.7509 </r>
       <r>     2.4299     2.2963    29.9260 </r>
       <r>     2.5061     2.2717    30.0992 </r>
       <r>     2.5824     4.5718    30.4478 </r>
       <r>     2.6587     2.9130    30.6700 </r>
       <r>     2.7349     2.5817    30.8668 </r>
       <r>     2.8112     1.7195    30.9980 </r>
       <r>     2.8874     1.2593    31.0940 </r>
       <r>     2.9637     2.8635    31.3123 </r>
       <r>     3.0399     1.5175    31.4281 </r>
       <r>     3.1162     1.3389    31.5302 </r>
       <r>     3.1925     1.4789    31.6429 </r>
       <r>     3.2687     2.0202    31.7970 </r>
       <r>     3.3450     0.9892    31.8724 </r>
       <r>     3.4212     0.7617    31.9305 </r>
       <r>     3.4975     0.5770    31.9745 </r>
       <r>     3.5737     0.0097    31.9752 </r>
       <r>     3.6500     0.3246    32.0000 </r>
       <r>     3.7263     0.0001    32.0000 </r>
       <r>     3.8025     0.0000    32.0000 </r>
       <r>     3.8788     0.0000    32.0000 </r>
       <r>     3.9550     0.0000    32.0000 </r>
       <r>     4.0313     0.0000    32.0000 </r>
       <r>     4.1075     0.0000    32.0000 </r>
       <r>     4.1838     0.0000    32.0000 </r>
       <r>     4.2600     0.0000    32.0000 </r>
       <r>     4.3363     0.0000    32.0000 </r>
       <r>     4.4126     0.0000    32.0000 </r>
       <r>     4.4888     0.0000    32.0000 </r>
       <r>     4.5651     0.0000    32.0000 </r>
       <r>     4.6413     0.0000    32.0000 </r>
      </set>
     </set>
    </array>
   </total>
  </dos>
 </calculation>
 <structure name="finalpos" >
  <crystal>
   <varray name="basis" >
    <v>       3.33001300       0.00000000       0.00000000 </v>
    <v>       0.00000000       4.62335100      -0.00005300 </v>
    <v>       0.00000000       0.00000000      20.02439000 </v>
   </varray>
   <i name="volume">    308.29188270 </i>
   <varray name="rec_basis" >
    <v>       0.30029913       0.00000000       0.00000000 </v>
    <v>       0.00000000       0.21629333       0.00000000 </v>
    <v>       0.00000000       0.00000057       0.04993910 </v>
   </varray>
  </crystal>
  <varray name="positions" >
   <v>       0.50000001       0.91035058       0.55245817 </v>
   <v>       0.49999999       0.08964942       0.44754183 </v>
   <v>      -0.00000001       0.41034603       0.44754183 </v>
   <v>       0.00000001       0.58965397       0.55245817 </v>
  </varray>
 </structure>
</modeling>
