<?xml version="1.0" encoding="ISO-8859-1"?>
<modeling>
 <generator>
  <i name="program" type="string">vasp </i>
  <i name="version" type="string">5.4.1  </i>
  <i name="subversion" type="string">24Jun15 (build Nov 20 2020 10:29:34) complex                          parallel </i>
  <i name="platform" type="string">IFC91_ompi </i>
  <i name="date" type="string">2021 09 13 </i>
  <i name="time" type="string">23:29:45 </i>
 </generator>
 <incar>
  <i type="int" name="ISTART">     1</i>
  <i type="string" name="PREC">a</i>
  <i type="string" name="ALGO"> Normal</i>
  <i type="int" name="ISPIN">     1</i>
  <i type="int" name="ICHARG">     2</i>
  <i type="int" name="NELM">   250</i>
  <i type="int" name="NELMDL">    -5</i>
  <i type="int" name="NELMIN">     6</i>
  <i type="int" name="IBRION">     2</i>
  <i name="EDIFF">      0.00001000</i>
  <i name="EDIFFG">     -0.00500000</i>
  <i type="int" name="NSW">     0</i>
  <i type="int" name="ISIF">     2</i>
  <i name="ENCUT">    520.00000000</i>
  <i name="POTIM">      0.25000000</i>
  <v name="MAGMOM">      0.60000000      0.60000000</v>
  <i type="string" name="LREAL"> Auto</i>
  <i type="int" name="ISMEAR">     0</i>
  <i name="SIGMA">      0.02000000</i>
  <i type="logical" name="LWAVE"> F  </i>
  <i type="logical" name="LCHARG"> F  </i>
  <i type="logical" name="LVHAR"> F  </i>
  <v type="int" name="KPOINT_BSE">    -1     0     0     0</v>
  <i type="int" name="NELM">   250</i>
 </incar>
 <kpoints>
  <generation param="Gamma">
   <v type="int" name="divisions">      25       24        1 </v>
   <v name="usershift">      0.00000000       0.00000000       0.00000000 </v>
   <v name="genvec1">      0.04000000      -0.00000000       0.00000000 </v>
   <v name="genvec2">      0.00000000       0.04166667       0.00000000 </v>
   <v name="genvec3">      0.00000000       0.00000000       1.00000000 </v>
   <v name="shift">      0.00000000       0.00000000       0.00000000 </v>
  </generation>
  <varray name="kpointlist" >
   <v>       0.00000000       0.00000000       0.00000000 </v>
   <v>       0.04000000       0.00000000       0.00000000 </v>
   <v>       0.08000000       0.00000000       0.00000000 </v>
   <v>       0.12000000      -0.00000000       0.00000000 </v>
   <v>       0.16000000       0.00000000       0.00000000 </v>
   <v>       0.20000000       0.00000000       0.00000000 </v>
   <v>       0.24000000      -0.00000000       0.00000000 </v>
   <v>       0.28000000       0.00000000       0.00000000 </v>
   <v>       0.32000000       0.00000000       0.00000000 </v>
   <v>       0.36000000       0.00000000       0.00000000 </v>
   <v>       0.40000000       0.00000000       0.00000000 </v>
   <v>       0.44000000       0.00000000       0.00000000 </v>
   <v>       0.48000000      -0.00000000       0.00000000 </v>
   <v>      -0.00000000       0.04166667       0.00000000 </v>
   <v>       0.04000000       0.04166667       0.00000000 </v>
   <v>       0.08000000       0.04166667       0.00000000 </v>
   <v>       0.12000000       0.04166667       0.00000000 </v>
   <v>       0.16000000       0.04166667       0.00000000 </v>
   <v>       0.20000000       0.04166667       0.00000000 </v>
   <v>       0.24000000       0.04166667       0.00000000 </v>
   <v>       0.28000000       0.04166667       0.00000000 </v>
   <v>       0.32000000       0.04166667       0.00000000 </v>
   <v>       0.36000000       0.04166667       0.00000000 </v>
   <v>       0.40000000       0.04166667       0.00000000 </v>
   <v>       0.44000000       0.04166667       0.00000000 </v>
   <v>       0.48000000       0.04166667       0.00000000 </v>
   <v>      -0.48000000       0.04166667       0.00000000 </v>
   <v>      -0.44000000       0.04166667       0.00000000 </v>
   <v>      -0.40000000       0.04166667       0.00000000 </v>
   <v>      -0.36000000       0.04166667       0.00000000 </v>
   <v>      -0.32000000       0.04166667       0.00000000 </v>
   <v>      -0.28000000       0.04166667       0.00000000 </v>
   <v>      -0.24000000       0.04166667       0.00000000 </v>
   <v>      -0.20000000       0.04166667       0.00000000 </v>
   <v>      -0.16000000       0.04166667       0.00000000 </v>
   <v>      -0.12000000       0.04166667       0.00000000 </v>
   <v>      -0.08000000       0.04166667       0.00000000 </v>
   <v>      -0.04000000       0.04166667       0.00000000 </v>
   <v>       0.00000000       0.08333333       0.00000000 </v>
   <v>       0.04000000       0.08333333       0.00000000 </v>
   <v>       0.08000000       0.08333333       0.00000000 </v>
   <v>       0.12000000       0.08333333       0.00000000 </v>
   <v>       0.16000000       0.08333333       0.00000000 </v>
   <v>       0.20000000       0.08333333       0.00000000 </v>
   <v>       0.24000000       0.08333333       0.00000000 </v>
   <v>       0.28000000       0.08333333       0.00000000 </v>
   <v>       0.32000000       0.08333333       0.00000000 </v>
   <v>       0.36000000       0.08333333       0.00000000 </v>
   <v>       0.40000000       0.08333333       0.00000000 </v>
   <v>       0.44000000       0.08333333       0.00000000 </v>
   <v>       0.48000000       0.08333333       0.00000000 </v>
   <v>      -0.48000000       0.08333333       0.00000000 </v>
   <v>      -0.44000000       0.08333333       0.00000000 </v>
   <v>      -0.40000000       0.08333333       0.00000000 </v>
   <v>      -0.36000000       0.08333333       0.00000000 </v>
   <v>      -0.32000000       0.08333333       0.00000000 </v>
   <v>      -0.28000000       0.08333333       0.00000000 </v>
   <v>      -0.24000000       0.08333333       0.00000000 </v>
   <v>      -0.20000000       0.08333333       0.00000000 </v>
   <v>      -0.16000000       0.08333333       0.00000000 </v>
   <v>      -0.12000000       0.08333333       0.00000000 </v>
   <v>      -0.08000000       0.08333333       0.00000000 </v>
   <v>      -0.04000000       0.08333333       0.00000000 </v>
   <v>      -0.00000000       0.12500000       0.00000000 </v>
   <v>       0.04000000       0.12500000       0.00000000 </v>
   <v>       0.08000000       0.12500000       0.00000000 </v>
   <v>       0.12000000       0.12500000       0.00000000 </v>
   <v>       0.16000000       0.12500000       0.00000000 </v>
   <v>       0.20000000       0.12500000       0.00000000 </v>
   <v>       0.24000000       0.12500000       0.00000000 </v>
   <v>       0.28000000       0.12500000       0.00000000 </v>
   <v>       0.32000000       0.12500000       0.00000000 </v>
   <v>       0.36000000       0.12500000       0.00000000 </v>
   <v>       0.40000000       0.12500000       0.00000000 </v>
   <v>       0.44000000       0.12500000       0.00000000 </v>
   <v>       0.48000000       0.12500000       0.00000000 </v>
   <v>      -0.48000000       0.12500000       0.00000000 </v>
   <v>      -0.44000000       0.12500000       0.00000000 </v>
   <v>      -0.40000000       0.12500000       0.00000000 </v>
   <v>      -0.36000000       0.12500000       0.00000000 </v>
   <v>      -0.32000000       0.12500000       0.00000000 </v>
   <v>      -0.28000000       0.12500000       0.00000000 </v>
   <v>      -0.24000000       0.12500000       0.00000000 </v>
   <v>      -0.20000000       0.12500000       0.00000000 </v>
   <v>      -0.16000000       0.12500000       0.00000000 </v>
   <v>      -0.12000000       0.12500000       0.00000000 </v>
   <v>      -0.08000000       0.12500000       0.00000000 </v>
   <v>      -0.04000000       0.12500000       0.00000000 </v>
   <v>       0.00000000       0.16666667       0.00000000 </v>
   <v>       0.04000000       0.16666667       0.00000000 </v>
   <v>       0.08000000       0.16666667       0.00000000 </v>
   <v>       0.12000000       0.16666667       0.00000000 </v>
   <v>       0.16000000       0.16666667       0.00000000 </v>
   <v>       0.20000000       0.16666667       0.00000000 </v>
   <v>       0.24000000       0.16666667       0.00000000 </v>
   <v>       0.28000000       0.16666667       0.00000000 </v>
   <v>       0.32000000       0.16666667       0.00000000 </v>
   <v>       0.36000000       0.16666667       0.00000000 </v>
   <v>       0.40000000       0.16666667       0.00000000 </v>
   <v>       0.44000000       0.16666667       0.00000000 </v>
   <v>       0.48000000       0.16666667       0.00000000 </v>
   <v>      -0.48000000       0.16666667       0.00000000 </v>
   <v>      -0.44000000       0.16666667       0.00000000 </v>
   <v>      -0.40000000       0.16666667       0.00000000 </v>
   <v>      -0.36000000       0.16666667       0.00000000 </v>
   <v>      -0.32000000       0.16666667       0.00000000 </v>
   <v>      -0.28000000       0.16666667       0.00000000 </v>
   <v>      -0.24000000       0.16666667       0.00000000 </v>
   <v>      -0.20000000       0.16666667       0.00000000 </v>
   <v>      -0.16000000       0.16666667       0.00000000 </v>
   <v>      -0.12000000       0.16666667       0.00000000 </v>
   <v>      -0.08000000       0.16666667       0.00000000 </v>
   <v>      -0.04000000       0.16666667       0.00000000 </v>
   <v>      -0.00000000       0.20833333       0.00000000 </v>
   <v>       0.04000000       0.20833333       0.00000000 </v>
   <v>       0.08000000       0.20833333       0.00000000 </v>
   <v>       0.12000000       0.20833333       0.00000000 </v>
   <v>       0.16000000       0.20833333       0.00000000 </v>
   <v>       0.20000000       0.20833333       0.00000000 </v>
   <v>       0.24000000       0.20833333       0.00000000 </v>
   <v>       0.28000000       0.20833333       0.00000000 </v>
   <v>       0.32000000       0.20833333       0.00000000 </v>
   <v>       0.36000000       0.20833333       0.00000000 </v>
   <v>       0.40000000       0.20833333       0.00000000 </v>
   <v>       0.44000000       0.20833333       0.00000000 </v>
   <v>       0.48000000       0.20833333       0.00000000 </v>
   <v>      -0.48000000       0.20833333       0.00000000 </v>
   <v>      -0.44000000       0.20833333       0.00000000 </v>
   <v>      -0.40000000       0.20833333       0.00000000 </v>
   <v>      -0.36000000       0.20833333       0.00000000 </v>
   <v>      -0.32000000       0.20833333       0.00000000 </v>
   <v>      -0.28000000       0.20833333       0.00000000 </v>
   <v>      -0.24000000       0.20833333       0.00000000 </v>
   <v>      -0.20000000       0.20833333       0.00000000 </v>
   <v>      -0.16000000       0.20833333       0.00000000 </v>
   <v>      -0.12000000       0.20833333       0.00000000 </v>
   <v>      -0.08000000       0.20833333       0.00000000 </v>
   <v>      -0.04000000       0.20833333       0.00000000 </v>
   <v>      -0.00000000       0.25000000       0.00000000 </v>
   <v>       0.04000000       0.25000000       0.00000000 </v>
   <v>       0.08000000       0.25000000       0.00000000 </v>
   <v>       0.12000000       0.25000000       0.00000000 </v>
   <v>       0.16000000       0.25000000       0.00000000 </v>
   <v>       0.20000000       0.25000000       0.00000000 </v>
   <v>       0.24000000       0.25000000       0.00000000 </v>
   <v>       0.28000000       0.25000000       0.00000000 </v>
   <v>       0.32000000       0.25000000       0.00000000 </v>
   <v>       0.36000000       0.25000000       0.00000000 </v>
   <v>       0.40000000       0.25000000       0.00000000 </v>
   <v>       0.44000000       0.25000000       0.00000000 </v>
   <v>       0.48000000       0.25000000       0.00000000 </v>
   <v>      -0.48000000       0.25000000       0.00000000 </v>
   <v>      -0.44000000       0.25000000       0.00000000 </v>
   <v>      -0.40000000       0.25000000       0.00000000 </v>
   <v>      -0.36000000       0.25000000       0.00000000 </v>
   <v>      -0.32000000       0.25000000       0.00000000 </v>
   <v>      -0.28000000       0.25000000       0.00000000 </v>
   <v>      -0.24000000       0.25000000       0.00000000 </v>
   <v>      -0.20000000       0.25000000       0.00000000 </v>
   <v>      -0.16000000       0.25000000       0.00000000 </v>
   <v>      -0.12000000       0.25000000       0.00000000 </v>
   <v>      -0.08000000       0.25000000       0.00000000 </v>
   <v>      -0.04000000       0.25000000       0.00000000 </v>
   <v>       0.00000000       0.29166667       0.00000000 </v>
   <v>       0.04000000       0.29166667       0.00000000 </v>
   <v>       0.08000000       0.29166667       0.00000000 </v>
   <v>       0.12000000       0.29166667       0.00000000 </v>
   <v>       0.16000000       0.29166667       0.00000000 </v>
   <v>       0.20000000       0.29166667       0.00000000 </v>
   <v>       0.24000000       0.29166667       0.00000000 </v>
   <v>       0.28000000       0.29166667       0.00000000 </v>
   <v>       0.32000000       0.29166667       0.00000000 </v>
   <v>       0.36000000       0.29166667       0.00000000 </v>
   <v>       0.40000000       0.29166667       0.00000000 </v>
   <v>       0.44000000       0.29166667       0.00000000 </v>
   <v>       0.48000000       0.29166667       0.00000000 </v>
   <v>      -0.48000000       0.29166667       0.00000000 </v>
   <v>      -0.44000000       0.29166667       0.00000000 </v>
   <v>      -0.40000000       0.29166667       0.00000000 </v>
   <v>      -0.36000000       0.29166667       0.00000000 </v>
   <v>      -0.32000000       0.29166667       0.00000000 </v>
   <v>      -0.28000000       0.29166667       0.00000000 </v>
   <v>      -0.24000000       0.29166667       0.00000000 </v>
   <v>      -0.20000000       0.29166667       0.00000000 </v>
   <v>      -0.16000000       0.29166667       0.00000000 </v>
   <v>      -0.12000000       0.29166667       0.00000000 </v>
   <v>      -0.08000000       0.29166667       0.00000000 </v>
   <v>      -0.04000000       0.29166667       0.00000000 </v>
   <v>      -0.00000000       0.33333333       0.00000000 </v>
   <v>       0.04000000       0.33333333       0.00000000 </v>
   <v>       0.08000000       0.33333333       0.00000000 </v>
   <v>       0.12000000       0.33333333       0.00000000 </v>
   <v>       0.16000000       0.33333333       0.00000000 </v>
   <v>       0.20000000       0.33333333       0.00000000 </v>
   <v>       0.24000000       0.33333333       0.00000000 </v>
   <v>       0.28000000       0.33333333       0.00000000 </v>
   <v>       0.32000000       0.33333333       0.00000000 </v>
   <v>       0.36000000       0.33333333       0.00000000 </v>
   <v>       0.40000000       0.33333333       0.00000000 </v>
   <v>       0.44000000       0.33333333       0.00000000 </v>
   <v>       0.48000000       0.33333333       0.00000000 </v>
   <v>      -0.48000000       0.33333333       0.00000000 </v>
   <v>      -0.44000000       0.33333333       0.00000000 </v>
   <v>      -0.40000000       0.33333333       0.00000000 </v>
   <v>      -0.36000000       0.33333333       0.00000000 </v>
   <v>      -0.32000000       0.33333333       0.00000000 </v>
   <v>      -0.28000000       0.33333333       0.00000000 </v>
   <v>      -0.24000000       0.33333333       0.00000000 </v>
   <v>      -0.20000000       0.33333333       0.00000000 </v>
   <v>      -0.16000000       0.33333333       0.00000000 </v>
   <v>      -0.12000000       0.33333333       0.00000000 </v>
   <v>      -0.08000000       0.33333333       0.00000000 </v>
   <v>      -0.04000000       0.33333333       0.00000000 </v>
   <v>      -0.00000000       0.37500000       0.00000000 </v>
   <v>       0.04000000       0.37500000       0.00000000 </v>
   <v>       0.08000000       0.37500000       0.00000000 </v>
   <v>       0.12000000       0.37500000       0.00000000 </v>
   <v>       0.16000000       0.37500000       0.00000000 </v>
   <v>       0.20000000       0.37500000       0.00000000 </v>
   <v>       0.24000000       0.37500000       0.00000000 </v>
   <v>       0.28000000       0.37500000       0.00000000 </v>
   <v>       0.32000000       0.37500000       0.00000000 </v>
   <v>       0.36000000       0.37500000       0.00000000 </v>
   <v>       0.40000000       0.37500000       0.00000000 </v>
   <v>       0.44000000       0.37500000       0.00000000 </v>
   <v>       0.48000000       0.37500000       0.00000000 </v>
   <v>      -0.48000000       0.37500000       0.00000000 </v>
   <v>      -0.44000000       0.37500000       0.00000000 </v>
   <v>      -0.40000000       0.37500000       0.00000000 </v>
   <v>      -0.36000000       0.37500000       0.00000000 </v>
   <v>      -0.32000000       0.37500000       0.00000000 </v>
   <v>      -0.28000000       0.37500000       0.00000000 </v>
   <v>      -0.24000000       0.37500000       0.00000000 </v>
   <v>      -0.20000000       0.37500000       0.00000000 </v>
   <v>      -0.16000000       0.37500000       0.00000000 </v>
   <v>      -0.12000000       0.37500000       0.00000000 </v>
   <v>      -0.08000000       0.37500000       0.00000000 </v>
   <v>      -0.04000000       0.37500000       0.00000000 </v>
   <v>      -0.00000000       0.41666667       0.00000000 </v>
   <v>       0.04000000       0.41666667       0.00000000 </v>
   <v>       0.08000000       0.41666667       0.00000000 </v>
   <v>       0.12000000       0.41666667       0.00000000 </v>
   <v>       0.16000000       0.41666667       0.00000000 </v>
   <v>       0.20000000       0.41666667       0.00000000 </v>
   <v>       0.24000000       0.41666667       0.00000000 </v>
   <v>       0.28000000       0.41666667       0.00000000 </v>
   <v>       0.32000000       0.41666667       0.00000000 </v>
   <v>       0.36000000       0.41666667       0.00000000 </v>
   <v>       0.40000000       0.41666667       0.00000000 </v>
   <v>       0.44000000       0.41666667       0.00000000 </v>
   <v>       0.48000000       0.41666667       0.00000000 </v>
   <v>      -0.48000000       0.41666667       0.00000000 </v>
   <v>      -0.44000000       0.41666667       0.00000000 </v>
   <v>      -0.40000000       0.41666667       0.00000000 </v>
   <v>      -0.36000000       0.41666667       0.00000000 </v>
   <v>      -0.32000000       0.41666667       0.00000000 </v>
   <v>      -0.28000000       0.41666667       0.00000000 </v>
   <v>      -0.24000000       0.41666667       0.00000000 </v>
   <v>      -0.20000000       0.41666667       0.00000000 </v>
   <v>      -0.16000000       0.41666667       0.00000000 </v>
   <v>      -0.12000000       0.41666667       0.00000000 </v>
   <v>      -0.08000000       0.41666667       0.00000000 </v>
   <v>      -0.04000000       0.41666667       0.00000000 </v>
   <v>       0.00000000       0.45833333       0.00000000 </v>
   <v>       0.04000000       0.45833333       0.00000000 </v>
   <v>       0.08000000       0.45833333       0.00000000 </v>
   <v>       0.12000000       0.45833333       0.00000000 </v>
   <v>       0.16000000       0.45833333       0.00000000 </v>
   <v>       0.20000000       0.45833333       0.00000000 </v>
   <v>       0.24000000       0.45833333       0.00000000 </v>
   <v>       0.28000000       0.45833333       0.00000000 </v>
   <v>       0.32000000       0.45833333       0.00000000 </v>
   <v>       0.36000000       0.45833333       0.00000000 </v>
   <v>       0.40000000       0.45833333       0.00000000 </v>
   <v>       0.44000000       0.45833333       0.00000000 </v>
   <v>       0.48000000       0.45833333       0.00000000 </v>
   <v>      -0.48000000       0.45833333       0.00000000 </v>
   <v>      -0.44000000       0.45833333       0.00000000 </v>
   <v>      -0.40000000       0.45833333       0.00000000 </v>
   <v>      -0.36000000       0.45833333       0.00000000 </v>
   <v>      -0.32000000       0.45833333       0.00000000 </v>
   <v>      -0.28000000       0.45833333       0.00000000 </v>
   <v>      -0.24000000       0.45833333       0.00000000 </v>
   <v>      -0.20000000       0.45833333       0.00000000 </v>
   <v>      -0.16000000       0.45833333       0.00000000 </v>
   <v>      -0.12000000       0.45833333       0.00000000 </v>
   <v>      -0.08000000       0.45833333       0.00000000 </v>
   <v>      -0.04000000       0.45833333       0.00000000 </v>
   <v>      -0.00000000       0.50000000       0.00000000 </v>
   <v>       0.04000000       0.50000000       0.00000000 </v>
   <v>       0.08000000       0.50000000       0.00000000 </v>
   <v>       0.12000000       0.50000000       0.00000000 </v>
   <v>       0.16000000       0.50000000       0.00000000 </v>
   <v>       0.20000000       0.50000000       0.00000000 </v>
   <v>       0.24000000       0.50000000       0.00000000 </v>
   <v>       0.28000000       0.50000000       0.00000000 </v>
   <v>       0.32000000       0.50000000       0.00000000 </v>
   <v>       0.36000000       0.50000000       0.00000000 </v>
   <v>       0.40000000       0.50000000       0.00000000 </v>
   <v>       0.44000000       0.50000000       0.00000000 </v>
   <v>       0.48000000       0.50000000       0.00000000 </v>
  </varray>
  <varray name="weights" >
   <v>       0.00166667 </v>
   <v>       0.00333333 </v>
   <v>       0.00333333 </v>
   <v>       0.00333333 </v>
   <v>       0.00333333 </v>
   <v>       0.00333333 </v>
   <v>       0.00333333 </v>
   <v>       0.00333333 </v>
   <v>       0.00333333 </v>
   <v>       0.00333333 </v>
   <v>       0.00333333 </v>
   <v>       0.00333333 </v>
   <v>       0.00333333 </v>
   <v>       0.00333333 </v>
   <v>       0.00333333 </v>
   <v>       0.00333333 </v>
   <v>       0.00333333 </v>
   <v>       0.00333333 </v>
   <v>       0.00333333 </v>
   <v>       0.00333333 </v>
   <v>       0.00333333 </v>
   <v>       0.00333333 </v>
   <v>       0.00333333 </v>
   <v>       0.00333333 </v>
   <v>       0.00333333 </v>
   <v>       0.00333333 </v>
   <v>       0.00333333 </v>
   <v>       0.00333333 </v>
   <v>       0.00333333 </v>
   <v>       0.00333333 </v>
   <v>       0.00333333 </v>
   <v>       0.00333333 </v>
   <v>       0.00333333 </v>
   <v>       0.00333333 </v>
   <v>       0.00333333 </v>
   <v>       0.00333333 </v>
   <v>       0.00333333 </v>
   <v>       0.00333333 </v>
   <v>       0.00333333 </v>
   <v>       0.00333333 </v>
   <v>       0.00333333 </v>
   <v>       0.00333333 </v>
   <v>       0.00333333 </v>
   <v>       0.00333333 </v>
   <v>       0.00333333 </v>
   <v>       0.00333333 </v>
   <v>       0.00333333 </v>
   <v>       0.00333333 </v>
   <v>       0.00333333 </v>
   <v>       0.00333333 </v>
   <v>       0.00333333 </v>
   <v>       0.00333333 </v>
   <v>       0.00333333 </v>
   <v>       0.00333333 </v>
   <v>       0.00333333 </v>
   <v>       0.00333333 </v>
   <v>       0.00333333 </v>
   <v>       0.00333333 </v>
   <v>       0.00333333 </v>
   <v>       0.00333333 </v>
   <v>       0.00333333 </v>
   <v>       0.00333333 </v>
   <v>       0.00333333 </v>
   <v>       0.00333333 </v>
   <v>       0.00333333 </v>
   <v>       0.00333333 </v>
   <v>       0.00333333 </v>
   <v>       0.00333333 </v>
   <v>       0.00333333 </v>
   <v>       0.00333333 </v>
   <v>       0.00333333 </v>
   <v>       0.00333333 </v>
   <v>       0.00333333 </v>
   <v>       0.00333333 </v>
   <v>       0.00333333 </v>
   <v>       0.00333333 </v>
   <v>       0.00333333 </v>
   <v>       0.00333333 </v>
   <v>       0.00333333 </v>
   <v>       0.00333333 </v>
   <v>       0.00333333 </v>
   <v>       0.00333333 </v>
   <v>       0.00333333 </v>
   <v>       0.00333333 </v>
   <v>       0.00333333 </v>
   <v>       0.00333333 </v>
   <v>       0.00333333 </v>
   <v>       0.00333333 </v>
   <v>       0.00333333 </v>
   <v>       0.00333333 </v>
   <v>       0.00333333 </v>
   <v>       0.00333333 </v>
   <v>       0.00333333 </v>
   <v>       0.00333333 </v>
   <v>       0.00333333 </v>
   <v>       0.00333333 </v>
   <v>       0.00333333 </v>
   <v>       0.00333333 </v>
   <v>       0.00333333 </v>
   <v>       0.00333333 </v>
   <v>       0.00333333 </v>
   <v>       0.00333333 </v>
   <v>       0.00333333 </v>
   <v>       0.00333333 </v>
   <v>       0.00333333 </v>
   <v>       0.00333333 </v>
   <v>       0.00333333 </v>
   <v>       0.00333333 </v>
   <v>       0.00333333 </v>
   <v>       0.00333333 </v>
   <v>       0.00333333 </v>
   <v>       0.00333333 </v>
   <v>       0.00333333 </v>
   <v>       0.00333333 </v>
   <v>       0.00333333 </v>
   <v>       0.00333333 </v>
   <v>       0.00333333 </v>
   <v>       0.00333333 </v>
   <v>       0.00333333 </v>
   <v>       0.00333333 </v>
   <v>       0.00333333 </v>
   <v>       0.00333333 </v>
   <v>       0.00333333 </v>
   <v>       0.00333333 </v>
   <v>       0.00333333 </v>
   <v>       0.00333333 </v>
   <v>       0.00333333 </v>
   <v>       0.00333333 </v>
   <v>       0.00333333 </v>
   <v>       0.00333333 </v>
   <v>       0.00333333 </v>
   <v>       0.00333333 </v>
   <v>       0.00333333 </v>
   <v>       0.00333333 </v>
   <v>       0.00333333 </v>
   <v>       0.00333333 </v>
   <v>       0.00333333 </v>
   <v>       0.00333333 </v>
   <v>       0.00333333 </v>
   <v>       0.00333333 </v>
   <v>       0.00333333 </v>
   <v>       0.00333333 </v>
   <v>       0.00333333 </v>
   <v>       0.00333333 </v>
   <v>       0.00333333 </v>
   <v>       0.00333333 </v>
   <v>       0.00333333 </v>
   <v>       0.00333333 </v>
   <v>       0.00333333 </v>
   <v>       0.00333333 </v>
   <v>       0.00333333 </v>
   <v>       0.00333333 </v>
   <v>       0.00333333 </v>
   <v>       0.00333333 </v>
   <v>       0.00333333 </v>
   <v>       0.00333333 </v>
   <v>       0.00333333 </v>
   <v>       0.00333333 </v>
   <v>       0.00333333 </v>
   <v>       0.00333333 </v>
   <v>       0.00333333 </v>
   <v>       0.00333333 </v>
   <v>       0.00333333 </v>
   <v>       0.00333333 </v>
   <v>       0.00333333 </v>
   <v>       0.00333333 </v>
   <v>       0.00333333 </v>
   <v>       0.00333333 </v>
   <v>       0.00333333 </v>
   <v>       0.00333333 </v>
   <v>       0.00333333 </v>
   <v>       0.00333333 </v>
   <v>       0.00333333 </v>
   <v>       0.00333333 </v>
   <v>       0.00333333 </v>
   <v>       0.00333333 </v>
   <v>       0.00333333 </v>
   <v>       0.00333333 </v>
   <v>       0.00333333 </v>
   <v>       0.00333333 </v>
   <v>       0.00333333 </v>
   <v>       0.00333333 </v>
   <v>       0.00333333 </v>
   <v>       0.00333333 </v>
   <v>       0.00333333 </v>
   <v>       0.00333333 </v>
   <v>       0.00333333 </v>
   <v>       0.00333333 </v>
   <v>       0.00333333 </v>
   <v>       0.00333333 </v>
   <v>       0.00333333 </v>
   <v>       0.00333333 </v>
   <v>       0.00333333 </v>
   <v>       0.00333333 </v>
   <v>       0.00333333 </v>
   <v>       0.00333333 </v>
   <v>       0.00333333 </v>
   <v>       0.00333333 </v>
   <v>       0.00333333 </v>
   <v>       0.00333333 </v>
   <v>       0.00333333 </v>
   <v>       0.00333333 </v>
   <v>       0.00333333 </v>
   <v>       0.00333333 </v>
   <v>       0.00333333 </v>
   <v>       0.00333333 </v>
   <v>       0.00333333 </v>
   <v>       0.00333333 </v>
   <v>       0.00333333 </v>
   <v>       0.00333333 </v>
   <v>       0.00333333 </v>
   <v>       0.00333333 </v>
   <v>       0.00333333 </v>
   <v>       0.00333333 </v>
   <v>       0.00333333 </v>
   <v>       0.00333333 </v>
   <v>       0.00333333 </v>
   <v>       0.00333333 </v>
   <v>       0.00333333 </v>
   <v>       0.00333333 </v>
   <v>       0.00333333 </v>
   <v>       0.00333333 </v>
   <v>       0.00333333 </v>
   <v>       0.00333333 </v>
   <v>       0.00333333 </v>
   <v>       0.00333333 </v>
   <v>       0.00333333 </v>
   <v>       0.00333333 </v>
   <v>       0.00333333 </v>
   <v>       0.00333333 </v>
   <v>       0.00333333 </v>
   <v>       0.00333333 </v>
   <v>       0.00333333 </v>
   <v>       0.00333333 </v>
   <v>       0.00333333 </v>
   <v>       0.00333333 </v>
   <v>       0.00333333 </v>
   <v>       0.00333333 </v>
   <v>       0.00333333 </v>
   <v>       0.00333333 </v>
   <v>       0.00333333 </v>
   <v>       0.00333333 </v>
   <v>       0.00333333 </v>
   <v>       0.00333333 </v>
   <v>       0.00333333 </v>
   <v>       0.00333333 </v>
   <v>       0.00333333 </v>
   <v>       0.00333333 </v>
   <v>       0.00333333 </v>
   <v>       0.00333333 </v>
   <v>       0.00333333 </v>
   <v>       0.00333333 </v>
   <v>       0.00333333 </v>
   <v>       0.00333333 </v>
   <v>       0.00333333 </v>
   <v>       0.00333333 </v>
   <v>       0.00333333 </v>
   <v>       0.00333333 </v>
   <v>       0.00333333 </v>
   <v>       0.00333333 </v>
   <v>       0.00333333 </v>
   <v>       0.00333333 </v>
   <v>       0.00333333 </v>
   <v>       0.00333333 </v>
   <v>       0.00333333 </v>
   <v>       0.00333333 </v>
   <v>       0.00333333 </v>
   <v>       0.00333333 </v>
   <v>       0.00333333 </v>
   <v>       0.00333333 </v>
   <v>       0.00333333 </v>
   <v>       0.00333333 </v>
   <v>       0.00333333 </v>
   <v>       0.00333333 </v>
   <v>       0.00333333 </v>
   <v>       0.00333333 </v>
   <v>       0.00333333 </v>
   <v>       0.00333333 </v>
   <v>       0.00333333 </v>
   <v>       0.00333333 </v>
   <v>       0.00333333 </v>
   <v>       0.00333333 </v>
   <v>       0.00333333 </v>
   <v>       0.00333333 </v>
   <v>       0.00333333 </v>
   <v>       0.00333333 </v>
   <v>       0.00333333 </v>
   <v>       0.00333333 </v>
   <v>       0.00166667 </v>
   <v>       0.00333333 </v>
   <v>       0.00333333 </v>
   <v>       0.00333333 </v>
   <v>       0.00333333 </v>
   <v>       0.00333333 </v>
   <v>       0.00333333 </v>
   <v>       0.00333333 </v>
   <v>       0.00333333 </v>
   <v>       0.00333333 </v>
   <v>       0.00333333 </v>
   <v>       0.00333333 </v>
   <v>       0.00333333 </v>
  </varray>
 </kpoints>
 <parameters>
  <separator name="general" >
   <i type="string" name="SYSTEM">unknown system</i>
   <i type="logical" name="LCOMPAT"> F  </i>
  </separator>
  <separator name="electronic" >
   <i type="string" name="PREC">a</i>
   <i name="ENMAX">    520.00000000</i>
   <i name="ENAUG">    644.87300000</i>
   <i name="EDIFF">      0.00001000</i>
   <i type="int" name="IALGO">    38</i>
   <i type="int" name="IWAVPR">    10</i>
   <i type="int" name="NBANDS">    12</i>
   <i name="NELECT">      8.00000000</i>
   <i type="int" name="TURBO">     0</i>
   <i type="int" name="IRESTART">     0</i>
   <i type="int" name="NREBOOT">     0</i>
   <i type="int" name="NMIN">     0</i>
   <i name="EREF">      0.00000000</i>
   <separator name="electronic smearing" >
    <i type="int" name="ISMEAR">     0</i>
    <i name="SIGMA">      0.02000000</i>
    <i name="KSPACING">      0.50000000</i>
    <i type="logical" name="KGAMMA"> T  </i>
   </separator>
   <separator name="electronic projectors" >
    <i type="logical" name="LREAL"> T  </i>
    <v name="ROPT">     -0.00025000</v>
    <i type="int" name="LMAXPAW">  -100</i>
    <i type="int" name="LMAXMIX">     2</i>
    <i type="logical" name="NLSPLINE"> F  </i>
   </separator>
   <separator name="electronic startup" >
    <i type="int" name="ISTART">     0</i>
    <i type="int" name="ICHARG">     2</i>
    <i type="int" name="INIWAV">     1</i>
   </separator>
   <separator name="electronic spin" >
    <i type="int" name="ISPIN">     1</i>
    <i type="logical" name="LNONCOLLINEAR"> F  </i>
    <v name="MAGMOM">      0.60000000      0.60000000</v>
    <i name="NUPDOWN">     -1.00000000</i>
    <i type="logical" name="LSORBIT"> F  </i>
    <v name="SAXIS">      0.00000000      0.00000000      1.00000000</v>
    <i type="logical" name="LSPIRAL"> F  </i>
    <v name="QSPIRAL">      0.00000000      0.00000000      0.00000000</v>
    <i type="logical" name="LZEROZ"> F  </i>
   </separator>
   <separator name="electronic exchange-correlation" >
    <i type="logical" name="LASPH"> F  </i>
    <i type="logical" name="LMETAGGA"> F  </i>
   </separator>
   <separator name="electronic convergence" >
    <i type="int" name="NELM">   250</i>
    <i type="int" name="NELMDL">    -5</i>
    <i type="int" name="NELMIN">     6</i>
    <i name="ENINI">    520.00000000</i>
    <separator name="electronic convergence detail" >
     <i type="logical" name="LDIAG"> T  </i>
     <i type="logical" name="LSUBROT"> F  </i>
     <i name="WEIMIN">      0.00000000</i>
     <i name="EBREAK">      0.00000021</i>
     <i name="DEPER">      0.30000000</i>
     <i type="int" name="NRMM">     4</i>
     <i name="TIME">      0.40000000</i>
    </separator>
   </separator>
   <separator name="electronic mixer" >
    <i name="AMIX">      0.40000000</i>
    <i name="BMIX">      1.00000000</i>
    <i name="AMIN">      0.10000000</i>
    <i name="AMIX_MAG">      1.60000000</i>
    <i name="BMIX_MAG">      1.00000000</i>
    <separator name="electronic mixer details" >
     <i type="int" name="IMIX">     4</i>
     <i type="logical" name="MIXFIRST"> F  </i>
     <i type="int" name="MAXMIX">   -45</i>
     <i name="WC">    100.00000000</i>
     <i type="int" name="INIMIX">     1</i>
     <i type="int" name="MIXPRE">     1</i>
     <i type="int" name="MREMOVE">     5</i>
    </separator>
   </separator>
   <separator name="electronic dipolcorrection" >
    <i type="logical" name="LDIPOL"> F  </i>
    <i type="logical" name="LMONO"> F  </i>
    <i type="int" name="IDIPOL">     0</i>
    <i name="EPSILON">      1.00000000</i>
    <v name="DIPOL">   -100.00000000   -100.00000000   -100.00000000</v>
    <i name="EFIELD">      0.00000000</i>
   </separator>
  </separator>
  <separator name="grids" >
   <i type="int" name="NGX">    18</i>
   <i type="int" name="NGY">    18</i>
   <i type="int" name="NGZ">   112</i>
   <i type="int" name="NGXF">    36</i>
   <i type="int" name="NGYF">    36</i>
   <i type="int" name="NGZF">   224</i>
   <i type="logical" name="ADDGRID"> F  </i>
  </separator>
  <separator name="ionic" >
   <i type="int" name="NSW">     0</i>
   <i type="int" name="IBRION">    -1</i>
   <i type="int" name="ISIF">     2</i>
   <i name="PSTRESS">      0.00000000</i>
   <i name="EDIFFG">     -0.00500000</i>
   <i type="int" name="NFREE">     1</i>
   <i name="POTIM">      0.25000000</i>
   <i name="SMASS">     -3.00000000</i>
   <i name="SCALEE">      1.00000000</i>
  </separator>
  <separator name="ionic md" >
   <i name="TEBEG">      0.00010000</i>
   <i name="TEEND">      0.00010000</i>
   <i type="int" name="NBLOCK">     1</i>
   <i type="int" name="KBLOCK">     1</i>
   <i type="int" name="NPACO">   256</i>
   <i name="APACO">     16.00000000</i>
  </separator>
  <separator name="symmetry" >
   <i type="int" name="ISYM">     2</i>
   <i name="SYMPREC">      0.00001000</i>
  </separator>
  <separator name="dos" >
   <i type="logical" name="LORBIT"> F  </i>
   <v name="RWIGS">     -1.00000000</v>
   <i type="int" name="NEDOS">   301</i>
   <i name="EMIN">     10.00000000</i>
   <i name="EMAX">    -10.00000000</i>
   <i name="EFERMI">      0.00000000</i>
  </separator>
  <separator name="writing" >
   <i type="int" name="NWRITE">     2</i>
   <i type="logical" name="LWAVE"> F  </i>
   <i type="logical" name="LCHARG"> F  </i>
   <i type="logical" name="LPARD"> F  </i>
   <i type="logical" name="LVTOT"> F  </i>
   <i type="logical" name="LVHAR"> F  </i>
   <i type="logical" name="LELF"> F  </i>
   <i type="logical" name="LOPTICS"> F  </i>
   <v name="STM">      0.00000000      0.00000000      0.00000000      0.00000000      0.00000000      0.00000000      0.00000000</v>
  </separator>
  <separator name="performance" >
   <i type="int" name="NPAR">     6</i>
   <i type="int" name="NSIM">     4</i>
   <i type="int" name="NBLK">    -1</i>
   <i type="logical" name="LPLANE"> T  </i>
   <i type="logical" name="LSCALAPACK"> T  </i>
   <i type="logical" name="LSCAAWARE"> F  </i>
   <i type="logical" name="LSCALU"> F  </i>
   <i type="logical" name="LASYNC"> F  </i>
   <i type="logical" name="LORBITALREAL"> F  </i>
  </separator>
  <separator name="miscellaneous" >
   <i type="int" name="IDIOT">     3</i>
   <i type="logical" name="LMUSIC"> F  </i>
   <v name="POMASS">     12.01100000</v>
   <v name="DARWINR">      0.00000000</v>
   <v name="DARWINV">      1.00000000</v>
   <i type="logical" name="LCORR"> T  </i>
  </separator>
  <i type="logical" name="GGA_COMPAT"> T  </i>
  <i type="logical" name="LBERRY"> F  </i>
  <i type="int" name="ICORELEVEL">     0</i>
  <i type="logical" name="LDAU"> F  </i>
  <i type="int" name="I_CONSTRAINED_M">     0</i>
  <separator name="electronic exchange-correlation" >
   <i type="string" name="GGA">--</i>
   <i type="int" name="VOSKOWN">     0</i>
   <i type="logical" name="LHFCALC"> F  </i>
   <i type="string" name="PRECFOCK"></i>
   <i type="logical" name="LSYMGRAD"> F  </i>
   <i type="logical" name="LHFONE"> F  </i>
   <i type="logical" name="LRHFCALC"> F  </i>
   <i type="logical" name="LTHOMAS"> F  </i>
   <i type="logical" name="LMODELHF"> F  </i>
   <i name="ENCUT4O">     -1.00000000</i>
   <i type="int" name="EXXOEP">     0</i>
   <i type="int" name="FOURORBIT">     0</i>
   <i name="AEXX">      0.00000000</i>
   <i name="HFALPHA">      0.00000000</i>
   <i name="MCALPHA">      0.00000000</i>
   <i name="ALDAX">      1.00000000</i>
   <i name="AGGAX">      1.00000000</i>
   <i name="ALDAC">      1.00000000</i>
   <i name="AGGAC">      1.00000000</i>
   <i type="int" name="NKREDX">     1</i>
   <i type="int" name="NKREDY">     1</i>
   <i type="int" name="NKREDZ">     1</i>
   <i type="logical" name="SHIFTRED"> F  </i>
   <i type="logical" name="ODDONLY"> F  </i>
   <i type="logical" name="EVENONLY"> F  </i>
   <i type="int" name="LMAXFOCK">     0</i>
   <i type="int" name="NMAXFOCKAE">     0</i>
   <i type="logical" name="LFOCKAEDFT"> F  </i>
   <i name="HFSCREEN">      0.00000000</i>
   <i name="HFSCREENC">      0.00000000</i>
   <i type="int" name="NBANDSGWLOW">     0</i>
  </separator>
  <separator name="vdW DFT" >
   <i type="logical" name="LUSE_VDW"> F  </i>
   <i name="Zab_VDW">     -0.84910000</i>
   <i name="PARAM1">      0.12340000</i>
   <i name="PARAM2">      1.00000000</i>
   <i name="PARAM3">      0.00000000</i>
  </separator>
  <separator name="model GW" >
   <i type="int" name="MODEL_GW">     0</i>
   <i name="MODEL_EPS0">     23.46299223</i>
   <i name="MODEL_ALPHA">      1.00000000</i>
  </separator>
  <separator name="linear response parameters" >
   <i type="logical" name="LEPSILON"> F  </i>
   <i type="logical" name="LRPA"> F  </i>
   <i type="logical" name="LNABLA"> F  </i>
   <i type="logical" name="LVEL"> F  </i>
   <i type="int" name="KINTER">     0</i>
   <i name="CSHIFT">      0.10000000</i>
   <i name="OMEGAMAX">     -1.00000000</i>
   <i name="DEG_THRESHOLD">      0.00200000</i>
  </separator>
  <separator name="orbital magnetization" >
   <i type="logical" name="NUCIND"> F  </i>
   <v name="MAGPOS">      0.00000000      0.00000000      0.00000000</v>
   <i type="logical" name="LNICSALL"> T  </i>
   <i type="logical" name="ORBITALMAG"> F  </i>
   <i type="logical" name="LMAGBLOCH"> F  </i>
   <i type="logical" name="LCHIMAG"> F  </i>
   <i type="logical" name="LGAUGE"> T  </i>
   <i type="int" name="MAGATOM">     0</i>
   <v name="MAGDIPOL">      0.00000000      0.00000000      0.00000000</v>
   <v name="AVECCONST">      0.00000000      0.00000000      0.00000000</v>
  </separator>
  <separator name="response functions" >
   <i type="logical" name="LADDER"> F  </i>
   <i type="logical" name="LFXC"> F  </i>
   <i type="logical" name="LHARTREE"> T  </i>
   <i type="int" name="IBSE">     0</i>
   <v type="int" name="KPOINT">    -1     0     0     0</v>
   <i type="logical" name="LTCTE"> F  </i>
   <i type="logical" name="LTETE"> F  </i>
   <i type="logical" name="LTRIPLET"> F  </i>
   <i type="logical" name="LFXCEPS"> F  </i>
   <i type="logical" name="LFXHEG"> F  </i>
   <i type="int" name="NATURALO">     0</i>
   <i type="logical" name="L2ORDER"> F  </i>
   <i type="logical" name="LUSEW"> F  </i>
   <i name="ENCUTGW">     -2.00000000</i>
   <i name="ENCUTGWSOFT">     -2.00000000</i>
   <i name="ENCUTLF">     -1.00000000</i>
   <i type="int" name="LMAXMP2">    -1</i>
   <i name="SCISSOR">      0.00000000</i>
   <i type="int" name="NOMEGA">     0</i>
   <i type="int" name="NOMEGAR">     0</i>
   <i type="int" name="NBANDSGW">    -1</i>
   <i type="int" name="NBANDSO">    -1</i>
   <i type="int" name="NBANDSV">    -1</i>
   <i type="int" name="NELM">   250</i>
   <i type="int" name="NELMHF">     1</i>
   <i type="int" name="DIM">     3</i>
   <i type="int" name="ANTIRES">     0</i>
   <i name="OMEGAMAX">    -30.00000000</i>
   <i name="OMEGAMIN">    -30.00000000</i>
   <i name="OMEGATL">   -200.00000000</i>
   <i type="int" name="OMEGAGRID">     0</i>
   <i name="CSHIFT">     -0.10000000</i>
   <i type="logical" name="SELFENERGY"> F  </i>
   <i type="logical" name="LSPECTRAL"> F  </i>
   <i type="logical" name="LSPECTRALGW"> F  </i>
   <i type="logical" name="LSINGLES"> F  </i>
   <i type="logical" name="LFERMIGW"> F  </i>
   <i type="logical" name="ODDONLYGW"> F  </i>
   <i type="logical" name="EVENONLYGW"> F  </i>
   <i type="int" name="NKREDLFX">     1</i>
   <i type="int" name="NKREDLFY">     1</i>
   <i type="int" name="NKREDLFZ">     1</i>
   <i type="int" name="MAXMEM">  1800</i>
   <i type="int" name="TELESCOPE">     0</i>
   <i type="int" name="TAUPAR">     1</i>
   <i type="int" name="OMEGAPAR">    -1</i>
   <i name="LAMBDA">      1.00000000</i>
  </separator>
  <separator name="External order field" >
   <i name="OFIELD_KAPPA">      0.00000000</i>
   <v name="OFIELD_K">      0.00000000      0.00000000      0.00000000</v>
   <i name="OFIELD_Q6_NEAR">      0.00000000</i>
   <i name="OFIELD_Q6_FAR">      0.00000000</i>
   <i name="OFIELD_A">      0.00000000</i>
  </separator>
 </parameters>
 <atominfo>
  <atoms>       2 </atoms>
  <types>       1 </types>
  <array name="atoms" >
   <dimension dim="1">ion</dimension>
   <field type="string">element</field>
   <field type="int">atomtype</field>
   <set>
    <rc><c>C </c><c>   1</c></rc>
    <rc><c>C </c><c>   1</c></rc>
   </set>
  </array>
  <array name="atomtypes" >
   <dimension dim="1">type</dimension>
   <field type="int">atomspertype</field>
   <field type="string">element</field>
   <field>mass</field>
   <field>valence</field>
   <field type="string">pseudopotential</field>
   <set>
    <rc><c>   2</c><c>C </c><c>     12.01100000</c><c>      4.00000000</c><c>  PAW_PBE C 08Apr2002                   </c></rc>
   </set>
  </array>
 </atominfo>
 <structure name="initialpos" >
  <crystal>
   <varray name="basis" >
    <v>       2.43992900      -0.02792500       0.00000000 </v>
    <v>      -1.24414800       2.15118600       0.00000000 </v>
    <v>       0.00000000       0.00000000      15.00000000 </v>
   </varray>
   <i name="volume">     78.20997409 </i>
   <varray name="rec_basis" >
    <v>       0.41257896       0.23861688       0.00000000 </v>
    <v>       0.00535577       0.46795739       0.00000000 </v>
    <v>       0.00000000       0.00000000       0.06666667 </v>
   </varray>
  </crystal>
  <varray name="positions" >
   <v>       0.00083726       0.00038706       0.50000000 </v>
   <v>       0.33249574       0.66627994       0.50000000 </v>
  </varray>
 </structure>
 <calculation>
  <scstep>
   <time name="dav">    0.87    0.87</time>
   <time name="total">    0.88    0.89</time>
   <energy>
    <i name="alphaZ">      4.20134219 </i>
    <i name="ewald">    847.77013017 </i>
    <i name="hartreedc">  -1065.81608437 </i>
    <i name="XCdc">     26.42722149 </i>
    <i name="pawpsdc">    217.04409276 </i>
    <i name="pawaedc">   -218.18290438 </i>
    <i name="eentropy">     -0.00011443 </i>
    <i name="bandstr">    -70.40880519 </i>
    <i name="atom">    294.29778662 </i>
    <i name="e_fr_energy">     35.33266487 </i>
    <i name="e_wo_entrp">     35.33277930 </i>
    <i name="e_0_energy">     35.33272208 </i>
   </energy>
  </scstep>
  <scstep>
   <time name="dav">    1.11    1.11</time>
   <time name="total">    1.11    1.11</time>
   <energy>
    <i name="e_fr_energy">    -18.14668577 </i>
    <i name="e_wo_entrp">    -18.14668577 </i>
    <i name="e_0_energy">    -18.14668577 </i>
   </energy>
  </scstep>
  <scstep>
   <time name="dav">    1.30    1.30</time>
   <time name="total">    1.30    1.31</time>
   <energy>
    <i name="e_fr_energy">    -19.76004295 </i>
    <i name="e_wo_entrp">    -19.76004295 </i>
    <i name="e_0_energy">    -19.76004295 </i>
   </energy>
  </scstep>
  <scstep>
   <time name="dav">    1.25    1.25</time>
   <time name="total">    1.25    1.25</time>
   <energy>
    <i name="e_fr_energy">    -19.76659830 </i>
    <i name="e_wo_entrp">    -19.76659830 </i>
    <i name="e_0_energy">    -19.76659830 </i>
   </energy>
  </scstep>
  <scstep>
   <time name="dav">    1.22    1.22</time>
   <time name="total">    1.25    1.26</time>
   <energy>
    <i name="e_fr_energy">    -19.76660430 </i>
    <i name="e_wo_entrp">    -19.76660430 </i>
    <i name="e_0_energy">    -19.76660430 </i>
   </energy>
  </scstep>
  <scstep>
   <time name="dav">    1.08    1.09</time>
   <time name="total">    1.12    1.12</time>
   <energy>
    <i name="e_fr_energy">    -18.80774046 </i>
    <i name="e_wo_entrp">    -18.80774046 </i>
    <i name="e_0_energy">    -18.80774046 </i>
   </energy>
  </scstep>
  <scstep>
   <time name="dav">    1.23    1.23</time>
   <time name="total">    1.26    1.27</time>
   <energy>
    <i name="e_fr_energy">    -18.43901094 </i>
    <i name="e_wo_entrp">    -18.43901094 </i>
    <i name="e_0_energy">    -18.43901094 </i>
   </energy>
  </scstep>
  <scstep>
   <time name="dav">    1.20    1.20</time>
   <time name="total">    1.23    1.23</time>
   <energy>
    <i name="e_fr_energy">    -18.43095927 </i>
    <i name="e_wo_entrp">    -18.43095927 </i>
    <i name="e_0_energy">    -18.43095927 </i>
   </energy>
  </scstep>
  <scstep>
   <time name="dav">    1.12    1.12</time>
   <time name="total">    1.15    1.16</time>
   <energy>
    <i name="e_fr_energy">    -18.42902872 </i>
    <i name="e_wo_entrp">    -18.42902872 </i>
    <i name="e_0_energy">    -18.42902872 </i>
   </energy>
  </scstep>
  <scstep>
   <time name="dav">    0.99    0.99</time>
   <time name="total">    1.03    1.03</time>
   <energy>
    <i name="e_fr_energy">    -18.42735598 </i>
    <i name="e_wo_entrp">    -18.42735598 </i>
    <i name="e_0_energy">    -18.42735598 </i>
   </energy>
  </scstep>
  <scstep>
   <time name="dav">    0.92    0.92</time>
   <time name="total">    0.96    0.96</time>
   <energy>
    <i name="e_fr_energy">    -18.42749628 </i>
    <i name="e_wo_entrp">    -18.42749628 </i>
    <i name="e_0_energy">    -18.42749628 </i>
   </energy>
  </scstep>
  <scstep>
   <time name="dav">    0.97    0.97</time>
   <time name="total">    1.01    1.01</time>
   <energy>
    <i name="e_fr_energy">    -18.42778784 </i>
    <i name="e_wo_entrp">    -18.42778784 </i>
    <i name="e_0_energy">    -18.42778784 </i>
   </energy>
  </scstep>
  <scstep>
   <time name="dav">    0.96    0.96</time>
   <time name="total">    0.99    1.00</time>
   <energy>
    <i name="e_fr_energy">    -18.42852079 </i>
    <i name="e_wo_entrp">    -18.42852079 </i>
    <i name="e_0_energy">    -18.42852079 </i>
   </energy>
  </scstep>
  <scstep>
   <time name="dav">    1.15    1.16</time>
   <time name="total">    1.19    1.19</time>
   <energy>
    <i name="e_fr_energy">    -18.42857931 </i>
    <i name="e_wo_entrp">    -18.42857931 </i>
    <i name="e_0_energy">    -18.42857931 </i>
   </energy>
  </scstep>
  <scstep>
   <time name="dav">    0.91    0.91</time>
   <time name="total">    0.95    0.95</time>
   <energy>
    <i name="e_fr_energy">    -18.42868465 </i>
    <i name="e_wo_entrp">    -18.42868465 </i>
    <i name="e_0_energy">    -18.42868465 </i>
   </energy>
  </scstep>
  <scstep>
   <time name="dav">    0.95    0.95</time>
   <time name="total">    0.98    0.99</time>
   <energy>
    <i name="e_fr_energy">    -18.42869496 </i>
    <i name="e_wo_entrp">    -18.42869496 </i>
    <i name="e_0_energy">    -18.42869496 </i>
   </energy>
  </scstep>
  <scstep>
   <time name="dav">    0.91    0.91</time>
   <time name="total">    0.91    0.91</time>
   <energy>
    <i name="alphaZ">      4.20134219 </i>
    <i name="ewald">    847.77013017 </i>
    <i name="hartreedc">  -1099.87896207 </i>
    <i name="XCdc">     27.63443031 </i>
    <i name="pawpsdc">    855.27993412 </i>
    <i name="pawaedc">   -856.65584485 </i>
    <i name="eentropy">     -0.00000000 </i>
    <i name="bandstr">    -91.07751393 </i>
    <i name="atom">    294.29778662 </i>
    <i name="e_fr_energy">    -18.42869743 </i>
    <i name="e_wo_entrp">    -18.42869743 </i>
    <i name="e_0_energy">    -18.42869743 </i>
   </energy>
  </scstep>
  <structure>
   <crystal>
    <varray name="basis" >
     <v>       2.43992900      -0.02792500       0.00000000 </v>
     <v>      -1.24414800       2.15118600       0.00000000 </v>
     <v>       0.00000000       0.00000000      15.00000000 </v>
    </varray>
    <i name="volume">     78.20997409 </i>
    <varray name="rec_basis" >
     <v>       0.41257896       0.23861688       0.00000000 </v>
     <v>       0.00535577       0.46795739       0.00000000 </v>
     <v>       0.00000000       0.00000000       0.06666667 </v>
    </varray>
   </crystal>
   <varray name="positions" >
    <v>       0.00083726       0.00038706       0.50000000 </v>
    <v>       0.33249574       0.66627994       0.50000000 </v>
   </varray>
  </structure>
  <varray name="forces" >
   <v>       0.12952916       0.05376124       0.00000000 </v>
   <v>      -0.12952916      -0.05376124       0.00000000 </v>
  </varray>
  <varray name="stress" >
   <v>      28.32248709      22.92054395       0.00000000 </v>
   <v>      22.92054400       5.79228148       0.00000000 </v>
   <v>       0.00000000       0.00000000      -0.06998826 </v>
  </varray>
  <energy>
   <i name="e_fr_energy">    -18.42869743 </i>
   <i name="e_wo_entrp">    -18.42869743 </i>
   <i name="e_0_energy">     -0.00000000 </i>
  </energy>
  <time name="totalsc">   19.31   19.36</time>
  <eigenvalues>
   <array>
    <dimension dim="1">band</dimension>
    <dimension dim="2">kpoint</dimension>
    <dimension dim="3">spin</dimension>
    <field>eigene</field>
    <field>occ</field>
    <set>
     <set comment="spin 1">
      <set comment="kpoint 1">
       <r>  -21.8287    1.0000 </r>
       <r>   -9.9113    1.0000 </r>
       <r>   -5.3148    1.0000 </r>
       <r>   -5.1151    1.0000 </r>
       <r>    1.0171    0.0000 </r>
       <r>    1.9289    0.0000 </r>
       <r>    2.4247    0.0000 </r>
       <r>    4.3538    0.0000 </r>
       <r>    5.0966    0.0000 </r>
       <r>    6.0061    0.0000 </r>
       <r>    6.3888    0.0000 </r>
       <r>    8.2364    0.0000 </r>
      </set>
      <set comment="kpoint 2">
       <r>  -21.7895    1.0000 </r>
       <r>   -9.8643    1.0000 </r>
       <r>   -5.4053    1.0000 </r>
       <r>   -5.2648    1.0000 </r>
       <r>    1.0704    0.0000 </r>
       <r>    1.9826    0.0000 </r>
       <r>    2.4790    0.0000 </r>
       <r>    4.4072    0.0000 </r>
       <r>    5.1490    0.0000 </r>
       <r>    6.1818    0.0000 </r>
       <r>    6.3718    0.0000 </r>
       <r>    8.2881    0.0000 </r>
      </set>
      <set comment="kpoint 3">
       <r>  -21.6720    1.0000 </r>
       <r>   -9.7237    1.0000 </r>
       <r>   -5.6965    1.0000 </r>
       <r>   -5.6572    1.0000 </r>
       <r>    1.2302    0.0000 </r>
       <r>    2.1435    0.0000 </r>
       <r>    2.6416    0.0000 </r>
       <r>    4.5673    0.0000 </r>
       <r>    5.3057    0.0000 </r>
       <r>    6.3088    0.0000 </r>
       <r>    6.6944    0.0000 </r>
       <r>    8.4431    0.0000 </r>
      </set>
      <set comment="kpoint 4">
       <r>  -21.4766    1.0000 </r>
       <r>   -9.4901    1.0000 </r>
       <r>   -6.3602    1.0000 </r>
       <r>   -6.0288    1.0000 </r>
       <r>    1.4965    0.0000 </r>
       <r>    2.4116    0.0000 </r>
       <r>    2.9127    0.0000 </r>
       <r>    4.8337    0.0000 </r>
       <r>    5.5627    0.0000 </r>
       <r>    6.2003    0.0000 </r>
       <r>    7.4900    0.0000 </r>
       <r>    8.2702    0.0000 </r>
      </set>
      <set comment="kpoint 5">
       <r>  -21.2037    1.0000 </r>
       <r>   -9.1651    1.0000 </r>
       <r>   -7.1995    1.0000 </r>
       <r>   -6.4667    1.0000 </r>
       <r>    1.8690    0.0000 </r>
       <r>    2.7863    0.0000 </r>
       <r>    3.2921    0.0000 </r>
       <r>    5.2058    0.0000 </r>
       <r>    5.8600    0.0000 </r>
       <r>    6.1054    0.0000 </r>
       <r>    7.4790    0.0000 </r>
       <r>    8.5151    0.0000 </r>
      </set>
      <set comment="kpoint 6">
       <r>  -20.8539    1.0000 </r>
       <r>   -8.7510    1.0000 </r>
       <r>   -8.1584    1.0000 </r>
       <r>   -6.9273    1.0000 </r>
       <r>    2.3475    0.0000 </r>
       <r>    3.2668    0.0000 </r>
       <r>    3.7797    0.0000 </r>
       <r>    5.6801    0.0000 </r>
       <r>    5.7792    0.0000 </r>
       <r>    6.4597    0.0000 </r>
       <r>    6.5489    0.0000 </r>
       <r>    9.5193    0.0000 </r>
      </set>
      <set comment="kpoint 7">
       <r>  -20.4284    1.0000 </r>
       <r>   -9.1905    1.0000 </r>
       <r>   -8.2513    1.0000 </r>
       <r>   -7.3771    1.0000 </r>
       <r>    2.9314    0.0000 </r>
       <r>    3.8489    0.0000 </r>
       <r>    4.3747    0.0000 </r>
       <r>    5.4997    0.0000 </r>
       <r>    5.5725    0.0000 </r>
       <r>    6.2789    0.0000 </r>
       <r>    7.0328    0.0000 </r>
       <r>   10.0737    0.0000 </r>
      </set>
      <set comment="kpoint 8">
       <r>  -19.9283    1.0000 </r>
       <r>  -10.2594    1.0000 </r>
       <r>   -7.7923    1.0000 </r>
       <r>   -7.6715    1.0000 </r>
       <r>    3.6191    0.0000 </r>
       <r>    4.3021    0.0000 </r>
       <r>    4.6394    0.0000 </r>
       <r>    5.0672    0.0000 </r>
       <r>    5.3740    0.0000 </r>
       <r>    6.9604    0.0000 </r>
       <r>    7.7197    0.0000 </r>
       <r>   10.7168    0.0000 </r>
      </set>
      <set comment="kpoint 9">
       <r>  -19.3555    1.0000 </r>
       <r>  -11.3376    1.0000 </r>
       <r>   -8.1565    1.0000 </r>
       <r>   -7.0208    1.0000 </r>
       <r>    3.2418    0.0000 </r>
       <r>    4.4040    0.0000 </r>
       <r>    5.1645    0.0000 </r>
       <r>    5.3640    0.0000 </r>
       <r>    5.9031    0.0000 </r>
       <r>    7.7478    0.0000 </r>
       <r>    8.5133    0.0000 </r>
       <r>   11.4348    0.0000 </r>
      </set>
      <set comment="kpoint 10">
       <r>  -18.7125    1.0000 </r>
       <r>  -12.4037    1.0000 </r>
       <r>   -8.4583    1.0000 </r>
       <r>   -6.3153    1.0000 </r>
       <r>    2.1246    0.0000 </r>
       <r>    4.9476    0.0000 </r>
       <r>    5.3550    0.0000 </r>
       <r>    6.2593    0.0000 </r>
       <r>    6.8203    0.0000 </r>
       <r>    8.6334    0.0000 </r>
       <r>    9.4112    0.0000 </r>
       <r>   12.1892    0.0000 </r>
      </set>
      <set comment="kpoint 11">
       <r>  -18.0034    1.0000 </r>
       <r>  -13.4403    1.0000 </r>
       <r>   -8.6903    1.0000 </r>
       <r>   -5.5871    1.0000 </r>
       <r>    1.0682    0.0000 </r>
       <r>    4.8434    0.0000 </r>
       <r>    6.3283    0.0000 </r>
       <r>    7.2565    0.0000 </r>
       <r>    7.8477    0.0000 </r>
       <r>    9.6088    0.0000 </r>
       <r>   10.4105    0.0000 </r>
       <r>   12.5346    0.0000 </r>
      </set>
      <set comment="kpoint 12">
       <r>  -17.2379    1.0000 </r>
       <r>  -14.4288    1.0000 </r>
       <r>   -8.8474    1.0000 </r>
       <r>   -4.9083    1.0000 </r>
       <r>    0.1621    0.0000 </r>
       <r>    4.7574    0.0000 </r>
       <r>    7.4222    0.0000 </r>
       <r>    8.3464    0.0000 </r>
       <r>    8.9825    0.0000 </r>
       <r>   10.6455    0.0000 </r>
       <r>   11.2125    0.0000 </r>
       <r>   11.5106    0.0000 </r>
      </set>
      <set comment="kpoint 13">
       <r>  -16.4697    1.0000 </r>
       <r>  -15.3098    1.0000 </r>
       <r>   -8.9267    1.0000 </r>
       <r>   -4.4458    1.0000 </r>
       <r>   -0.4167    0.0000 </r>
       <r>    4.7129    0.0000 </r>
       <r>    8.6098    0.0000 </r>
       <r>    9.5066    0.0000 </r>
       <r>    9.8860    0.0000 </r>
       <r>   10.2249    0.0000 </r>
       <r>   10.7574    0.0000 </r>
       <r>   11.5682    0.0000 </r>
      </set>
      <set comment="kpoint 14">
       <r>  -21.7877    1.0000 </r>
       <r>   -9.8623    1.0000 </r>
       <r>   -5.4659    1.0000 </r>
       <r>   -5.2254    1.0000 </r>
       <r>    1.0727    0.0000 </r>
       <r>    1.9850    0.0000 </r>
       <r>    2.4814    0.0000 </r>
       <r>    4.4096    0.0000 </r>
       <r>    5.1505    0.0000 </r>
       <r>    6.0854    0.0000 </r>
       <r>    6.5325    0.0000 </r>
       <r>    8.2905    0.0000 </r>
      </set>
      <set comment="kpoint 15">
       <r>  -21.7077    1.0000 </r>
       <r>   -9.7664    1.0000 </r>
       <r>   -5.6990    1.0000 </r>
       <r>   -5.4612    1.0000 </r>
       <r>    1.1816    0.0000 </r>
       <r>    2.0947    0.0000 </r>
       <r>    2.5923    0.0000 </r>
       <r>    4.5187    0.0000 </r>
       <r>    5.2579    0.0000 </r>
       <r>    6.3250    0.0000 </r>
       <r>    6.5875    0.0000 </r>
       <r>    8.3959    0.0000 </r>
      </set>
      <set comment="kpoint 16">
       <r>  -21.5495    1.0000 </r>
       <r>   -9.5772    1.0000 </r>
       <r>   -6.1716    1.0000 </r>
       <r>   -5.8528    1.0000 </r>
       <r>    1.3971    0.0000 </r>
       <r>    2.3116    0.0000 </r>
       <r>    2.8116    0.0000 </r>
       <r>    4.7343    0.0000 </r>
       <r>    5.4690    0.0000 </r>
       <r>    6.3697    0.0000 </r>
       <r>    7.0853    0.0000 </r>
       <r>    8.4815    0.0000 </r>
      </set>
      <set comment="kpoint 17">
       <r>  -21.3136    1.0000 </r>
       <r>   -9.2959    1.0000 </r>
       <r>   -6.8714    1.0000 </r>
       <r>   -6.3122    1.0000 </r>
       <r>    1.7190    0.0000 </r>
       <r>    2.6354    0.0000 </r>
       <r>    3.1393    0.0000 </r>
       <r>    5.0560    0.0000 </r>
       <r>    5.7749    0.0000 </r>
       <r>    6.2711    0.0000 </r>
       <r>    7.7845    0.0000 </r>
       <r>    7.9262    0.0000 </r>
      </set>
      <set comment="kpoint 18">
       <r>  -21.0006    1.0000 </r>
       <r>   -8.9243    1.0000 </r>
       <r>   -7.7392    1.0000 </r>
       <r>   -6.7946    1.0000 </r>
       <r>    2.1470    0.0000 </r>
       <r>    3.0654    0.0000 </r>
       <r>    3.5753    0.0000 </r>
       <r>    5.4825    0.0000 </r>
       <r>    5.9995    0.0000 </r>
       <r>    6.3003    0.0000 </r>
       <r>    6.9263    0.0000 </r>
       <r>    8.9713    0.0000 </r>
      </set>
      <set comment="kpoint 19">
       <r>  -20.6112    1.0000 </r>
       <r>   -8.7152    1.0000 </r>
       <r>   -8.4653    1.0000 </r>
       <r>   -7.2700    1.0000 </r>
       <r>    2.6807    0.0000 </r>
       <r>    3.6001    0.0000 </r>
       <r>    4.1194    0.0000 </r>
       <r>    5.8417    0.0000 </r>
       <r>    5.9061    0.0000 </r>
       <r>    6.0570    0.0000 </r>
       <r>    6.7869    0.0000 </r>
       <r>    9.8333    0.0000 </r>
      </set>
      <set comment="kpoint 20">
       <r>  -20.1468    1.0000 </r>
       <r>   -9.7533    1.0000 </r>
       <r>   -7.9234    1.0000 </r>
       <r>   -7.7148    1.0000 </r>
       <r>    3.3193    0.0000 </r>
       <r>    4.2234    0.0000 </r>
       <r>    4.7699    0.0000 </r>
       <r>    4.8960    0.0000 </r>
       <r>    5.6374    0.0000 </r>
       <r>    6.6581    0.0000 </r>
       <r>    7.4195    0.0000 </r>
       <r>   10.4316    0.0000 </r>
      </set>
      <set comment="kpoint 21">
       <r>  -19.6087    1.0000 </r>
       <r>  -10.8186    1.0000 </r>
       <r>   -8.1119    1.0000 </r>
       <r>   -7.3056    1.0000 </r>
       <r>    3.7423    0.0000 </r>
       <r>    4.0605    0.0000 </r>
       <r>    5.0129    0.0000 </r>
       <r>    5.3992    0.0000 </r>
       <r>    5.5700    0.0000 </r>
       <r>    7.3960    0.0000 </r>
       <r>    8.1620    0.0000 </r>
       <r>   11.1094    0.0000 </r>
      </set>
      <set comment="kpoint 22">
       <r>  -18.9992    1.0000 </r>
       <r>  -11.8851    1.0000 </r>
       <r>   -8.4490    1.0000 </r>
       <r>   -6.6239    1.0000 </r>
       <r>    2.6282    0.0000 </r>
       <r>    4.8834    0.0000 </r>
       <r>    5.2734    0.0000 </r>
       <r>    5.8549    0.0000 </r>
       <r>    6.4100    0.0000 </r>
       <r>    8.2334    0.0000 </r>
       <r>    9.0100    0.0000 </r>
       <r>   11.8387    0.0000 </r>
      </set>
      <set comment="kpoint 23">
       <r>  -18.3215    1.0000 </r>
       <r>  -12.9326    1.0000 </r>
       <r>   -8.7180    1.0000 </r>
       <r>   -5.9010    1.0000 </r>
       <r>    1.5420    0.0000 </r>
       <r>    5.0756    0.0000 </r>
       <r>    5.8854    0.0000 </r>
       <r>    6.8031    0.0000 </r>
       <r>    7.3851    0.0000 </r>
       <r>    9.1632    0.0000 </r>
       <r>    9.9609    0.0000 </r>
       <r>   12.5173    0.0000 </r>
      </set>
      <set comment="kpoint 24">
       <r>  -17.5817    1.0000 </r>
       <r>  -13.9433    1.0000 </r>
       <r>   -8.9133    1.0000 </r>
       <r>   -5.1847    1.0000 </r>
       <r>    0.5540    0.0000 </r>
       <r>    4.9755    0.0000 </r>
       <r>    6.9271    0.0000 </r>
       <r>    7.8468    0.0000 </r>
       <r>    8.4687    0.0000 </r>
       <r>   10.1685    0.0000 </r>
       <r>   11.0105    0.0000 </r>
       <r>   11.8716    0.0000 </r>
      </set>
      <set comment="kpoint 25">
       <r>  -16.7997    1.0000 </r>
       <r>  -14.8895    1.0000 </r>
       <r>   -9.0314    1.0000 </r>
       <r>   -4.5881    1.0000 </r>
       <r>   -0.2097    0.0000 </r>
       <r>    4.9110    0.0000 </r>
       <r>    8.0706    0.0000 </r>
       <r>    8.9712    0.0000 </r>
       <r>    9.6585    0.0000 </r>
       <r>   10.5486    0.0000 </r>
       <r>   11.0651    0.0000 </r>
       <r>   11.6157    0.0000 </r>
      </set>
      <set comment="kpoint 26">
       <r>  -16.2333    1.0000 </r>
       <r>  -15.5093    1.0000 </r>
       <r>   -9.0701    1.0000 </r>
       <r>   -4.3409    1.0000 </r>
       <r>   -0.5117    0.0000 </r>
       <r>    4.8900    0.0000 </r>
       <r>    9.2100    0.0000 </r>
       <r>    9.3422    0.0000 </r>
       <r>    9.9593    0.0000 </r>
       <r>   10.3428    0.0000 </r>
       <r>   10.8933    0.0000 </r>
       <r>   10.9553    0.0000 </r>
      </set>
      <set comment="kpoint 27">
       <r>  -16.8348    1.0000 </r>
       <r>  -14.8491    1.0000 </r>
       <r>   -9.0290    1.0000 </r>
       <r>   -4.6093    1.0000 </r>
       <r>   -0.1836    0.0000 </r>
       <r>    4.9137    0.0000 </r>
       <r>    8.0176    0.0000 </r>
       <r>    8.9199    0.0000 </r>
       <r>    9.6035    0.0000 </r>
       <r>   10.6084    0.0000 </r>
       <r>   11.0508    0.0000 </r>
       <r>   11.6349    0.0000 </r>
      </set>
      <set comment="kpoint 28">
       <r>  -17.6160    1.0000 </r>
       <r>  -13.8986    1.0000 </r>
       <r>   -8.9087    1.0000 </r>
       <r>   -5.2153    1.0000 </r>
       <r>    0.5941    0.0000 </r>
       <r>    4.9808    0.0000 </r>
       <r>    6.8785    0.0000 </r>
       <r>    7.7984    0.0000 </r>
       <r>    8.4183    0.0000 </r>
       <r>   10.1225    0.0000 </r>
       <r>   10.9617    0.0000 </r>
       <r>   11.9325    0.0000 </r>
      </set>
      <set comment="kpoint 29">
       <r>  -18.3532    1.0000 </r>
       <r>  -12.8856    1.0000 </r>
       <r>   -8.7112    1.0000 </r>
       <r>   -5.9336    1.0000 </r>
       <r>    1.5881    0.0000 </r>
       <r>    5.0824    0.0000 </r>
       <r>    5.8423    0.0000 </r>
       <r>    6.7588    0.0000 </r>
       <r>    7.3395    0.0000 </r>
       <r>    9.1199    0.0000 </r>
       <r>    9.9164    0.0000 </r>
       <r>   12.4909    0.0000 </r>
      </set>
      <set comment="kpoint 30">
       <r>  -19.0280    1.0000 </r>
       <r>  -11.8367    1.0000 </r>
       <r>   -8.4401    1.0000 </r>
       <r>   -6.6554    1.0000 </r>
       <r>    2.6766    0.0000 </r>
       <r>    4.8472    0.0000 </r>
       <r>    5.2798    0.0000 </r>
       <r>    5.8150    0.0000 </r>
       <r>    6.3693    0.0000 </r>
       <r>    8.1940    0.0000 </r>
       <r>    8.9701    0.0000 </r>
       <r>   11.8050    0.0000 </r>
      </set>
      <set comment="kpoint 31">
       <r>  -19.6343    1.0000 </r>
       <r>  -10.7696    1.0000 </r>
       <r>   -8.1010    1.0000 </r>
       <r>   -7.3346    1.0000 </r>
       <r>    3.7899    0.0000 </r>
       <r>    4.0254    0.0000 </r>
       <r>    4.9783    0.0000 </r>
       <r>    5.3988    0.0000 </r>
       <r>    5.5461    0.0000 </r>
       <r>    7.3609    0.0000 </r>
       <r>    8.1268    0.0000 </r>
       <r>   11.0773    0.0000 </r>
      </set>
      <set comment="kpoint 32">
       <r>  -20.1691    1.0000 </r>
       <r>   -9.7048    1.0000 </r>
       <r>   -7.9492    1.0000 </r>
       <r>   -7.7022    1.0000 </r>
       <r>    3.2887    0.0000 </r>
       <r>    4.1956    0.0000 </r>
       <r>    4.7388    0.0000 </r>
       <r>    4.9394    0.0000 </r>
       <r>    5.6499    0.0000 </r>
       <r>    6.6276    0.0000 </r>
       <r>    7.3891    0.0000 </r>
       <r>   10.4029    0.0000 </r>
      </set>
      <set comment="kpoint 33">
       <r>  -20.6302    1.0000 </r>
       <r>   -8.6689    1.0000 </r>
       <r>   -8.4876    1.0000 </r>
       <r>   -7.2557    1.0000 </r>
       <r>    2.6547    0.0000 </r>
       <r>    3.5742    0.0000 </r>
       <r>    4.0929    0.0000 </r>
       <r>    5.8533    0.0000 </r>
       <r>    5.9250    0.0000 </r>
       <r>    6.0548    0.0000 </r>
       <r>    6.7618    0.0000 </r>
       <r>    9.8085    0.0000 </r>
      </set>
      <set comment="kpoint 34">
       <r>  -21.0161    1.0000 </r>
       <r>   -8.9428    1.0000 </r>
       <r>   -7.6977    1.0000 </r>
       <r>   -6.7781    1.0000 </r>
       <r>    2.1257    0.0000 </r>
       <r>    3.0441    0.0000 </r>
       <r>    3.5537    0.0000 </r>
       <r>    5.4614    0.0000 </r>
       <r>    6.0015    0.0000 </r>
       <r>    6.2872    0.0000 </r>
       <r>    6.9640    0.0000 </r>
       <r>    8.9575    0.0000 </r>
      </set>
      <set comment="kpoint 35">
       <r>  -21.3257    1.0000 </r>
       <r>   -9.3104    1.0000 </r>
       <r>   -6.8394    1.0000 </r>
       <r>   -6.2921    1.0000 </r>
       <r>    1.7024    0.0000 </r>
       <r>    2.6188    0.0000 </r>
       <r>    3.1224    0.0000 </r>
       <r>    5.0394    0.0000 </r>
       <r>    5.7593    0.0000 </r>
       <r>    6.2744    0.0000 </r>
       <r>    7.8159    0.0000 </r>
       <r>    7.9156    0.0000 </r>
      </set>
      <set comment="kpoint 36">
       <r>  -21.5582    1.0000 </r>
       <r>   -9.5876    1.0000 </r>
       <r>   -6.1554    1.0000 </r>
       <r>   -5.8268    1.0000 </r>
       <r>    1.3852    0.0000 </r>
       <r>    2.2997    0.0000 </r>
       <r>    2.7995    0.0000 </r>
       <r>    4.7225    0.0000 </r>
       <r>    5.4571    0.0000 </r>
       <r>    6.3606    0.0000 </r>
       <r>    7.0872    0.0000 </r>
       <r>    8.5034    0.0000 </r>
      </set>
      <set comment="kpoint 37">
       <r>  -21.7129    1.0000 </r>
       <r>   -9.7727    1.0000 </r>
       <r>   -5.6966    1.0000 </r>
       <r>   -5.4359    1.0000 </r>
       <r>    1.1745    0.0000 </r>
       <r>    2.0876    0.0000 </r>
       <r>    2.5850    0.0000 </r>
       <r>    4.5116    0.0000 </r>
       <r>    5.2507    0.0000 </r>
       <r>    6.2911    0.0000 </r>
       <r>    6.6154    0.0000 </r>
       <r>    8.3889    0.0000 </r>
      </set>
      <set comment="kpoint 38">
       <r>  -21.7895    1.0000 </r>
       <r>   -9.8644    1.0000 </r>
       <r>   -5.4663    1.0000 </r>
       <r>   -5.2152    1.0000 </r>
       <r>    1.0703    0.0000 </r>
       <r>    1.9826    0.0000 </r>
       <r>    2.4790    0.0000 </r>
       <r>    4.4073    0.0000 </r>
       <r>    5.1481    0.0000 </r>
       <r>    6.0748    0.0000 </r>
       <r>    6.5407    0.0000 </r>
       <r>    8.2881    0.0000 </r>
      </set>
      <set comment="kpoint 39">
       <r>  -21.6650    1.0000 </r>
       <r>   -9.7155    1.0000 </r>
       <r>   -5.9361    1.0000 </r>
       <r>   -5.4932    1.0000 </r>
       <r>    1.2394    0.0000 </r>
       <r>    2.1533    0.0000 </r>
       <r>    2.6514    0.0000 </r>
       <r>    4.5769    0.0000 </r>
       <r>    5.3127    0.0000 </r>
       <r>    6.2357    0.0000 </r>
       <r>    6.9971    0.0000 </r>
       <r>    8.4513    0.0000 </r>
      </set>
      <set comment="kpoint 40">
       <r>  -21.5443    1.0000 </r>
       <r>   -9.5711    1.0000 </r>
       <r>   -6.3217    1.0000 </r>
       <r>   -5.7522    1.0000 </r>
       <r>    1.4041    0.0000 </r>
       <r>    2.3189    0.0000 </r>
       <r>    2.8189    0.0000 </r>
       <r>    4.7414    0.0000 </r>
       <r>    5.4752    0.0000 </r>
       <r>    6.4270    0.0000 </r>
       <r>    7.1667    0.0000 </r>
       <r>    8.4311    0.0000 </r>
      </set>
      <set comment="kpoint 41">
       <r>  -21.3456    1.0000 </r>
       <r>   -9.3343    1.0000 </r>
       <r>   -6.8667    1.0000 </r>
       <r>   -6.1909    1.0000 </r>
       <r>    1.6753    0.0000 </r>
       <r>    2.5915    0.0000 </r>
       <r>    3.0949    0.0000 </r>
       <r>    5.0122    0.0000 </r>
       <r>    5.7415    0.0000 </r>
       <r>    6.5865    0.0000 </r>
       <r>    7.5495    0.0000 </r>
       <r>    7.8488    0.0000 </r>
      </set>
      <set comment="kpoint 42">
       <r>  -21.0696    1.0000 </r>
       <r>   -9.0063    1.0000 </r>
       <r>   -7.5513    1.0000 </r>
       <r>   -6.7356    1.0000 </r>
       <r>    2.0528    0.0000 </r>
       <r>    2.9707    0.0000 </r>
       <r>    3.4794    0.0000 </r>
       <r>    5.3886    0.0000 </r>
       <r>    6.1013    0.0000 </r>
       <r>    6.5919    0.0000 </r>
       <r>    7.0911    0.0000 </r>
       <r>    8.2408    0.0000 </r>
      </set>
      <set comment="kpoint 43">
       <r>  -20.7170    1.0000 </r>
       <r>   -8.5897    1.0000 </r>
       <r>   -8.3746    1.0000 </r>
       <r>   -7.2929    1.0000 </r>
       <r>    2.5363    0.0000 </r>
       <r>    3.4556    0.0000 </r>
       <r>    3.9721    0.0000 </r>
       <r>    5.8685    0.0000 </r>
       <r>    6.2027    0.0000 </r>
       <r>    6.3598    0.0000 </r>
       <r>    6.6883    0.0000 </r>
       <r>    9.1664    0.0000 </r>
      </set>
      <set comment="kpoint 44">
       <r>  -20.2888    1.0000 </r>
       <r>   -9.3114    1.0000 </r>
       <r>   -8.0880    1.0000 </r>
       <r>   -7.8079    1.0000 </r>
       <r>    3.1252    0.0000 </r>
       <r>    4.0427    0.0000 </r>
       <r>    4.5727    0.0000 </r>
       <r>    5.2147    0.0000 </r>
       <r>    6.2256    0.0000 </r>
       <r>    6.4569    0.0000 </r>
       <r>    7.2306    0.0000 </r>
       <r>   10.2387    0.0000 </r>
      </set>
      <set comment="kpoint 45">
       <r>  -19.7865    1.0000 </r>
       <r>  -10.3178    1.0000 </r>
       <r>   -8.2621    1.0000 </r>
       <r>   -7.5068    1.0000 </r>
       <r>    3.8185    0.0000 </r>
       <r>    4.1373    0.0000 </r>
       <r>    4.7614    0.0000 </r>
       <r>    5.2794    0.0000 </r>
       <r>    6.0401    0.0000 </r>
       <r>    7.1439    0.0000 </r>
       <r>    7.9178    0.0000 </r>
       <r>   10.8640    0.0000 </r>
      </set>
      <set comment="kpoint 46">
       <r>  -19.2118    1.0000 </r>
       <r>  -11.3546    1.0000 </r>
       <r>   -8.6486    1.0000 </r>
       <r>   -6.8550    1.0000 </r>
       <r>    3.0611    0.0000 </r>
       <r>    4.6135    0.0000 </r>
       <r>    5.5490    0.0000 </r>
       <r>    5.8373    0.0000 </r>
       <r>    6.1185    0.0000 </r>
       <r>    7.9293    0.0000 </r>
       <r>    8.7144    0.0000 </r>
       <r>   11.5371    0.0000 </r>
      </set>
      <set comment="kpoint 47">
       <r>  -18.5675    1.0000 </r>
       <r>  -12.3926    1.0000 </r>
       <r>   -8.9626    1.0000 </r>
       <r>   -6.1488    1.0000 </r>
       <r>    1.9807    0.0000 </r>
       <r>    5.4714    0.0000 </r>
       <r>    5.7317    0.0000 </r>
       <r>    6.4457    0.0000 </r>
       <r>    7.0314    0.0000 </r>
       <r>    8.8060    0.0000 </r>
       <r>    9.6152    0.0000 </r>
       <r>   12.1689    0.0000 </r>
      </set>
      <set comment="kpoint 48">
       <r>  -17.8580    1.0000 </r>
       <r>  -13.4091    1.0000 </r>
       <r>   -9.2007    1.0000 </r>
       <r>   -5.4202    1.0000 </r>
       <r>    0.9551    0.0000 </r>
       <r>    5.5408    0.0000 </r>
       <r>    6.5379    0.0000 </r>
       <r>    7.4365    0.0000 </r>
       <r>    8.0628    0.0000 </r>
       <r>    9.7564    0.0000 </r>
       <r>   10.6165    0.0000 </r>
       <r>   12.4560    0.0000 </r>
      </set>
      <set comment="kpoint 49">
       <r>  -17.0938    1.0000 </r>
       <r>  -14.3822    1.0000 </r>
       <r>   -9.3600    1.0000 </r>
       <r>   -4.7423    1.0000 </r>
       <r>    0.0725    0.0000 </r>
       <r>    5.4596    0.0000 </r>
       <r>    7.6310    0.0000 </r>
       <r>    8.5066    0.0000 </r>
       <r>    9.2015    0.0000 </r>
       <r>   10.7068    0.0000 </r>
       <r>   11.2582    0.0000 </r>
       <r>   11.7166    0.0000 </r>
      </set>
      <set comment="kpoint 50">
       <r>  -16.3352    1.0000 </r>
       <r>  -15.2443    1.0000 </r>
       <r>   -9.4388    1.0000 </r>
       <r>   -4.2881    1.0000 </r>
       <r>   -0.4842    0.0000 </r>
       <r>    5.4178    0.0000 </r>
       <r>    8.8161    0.0000 </r>
       <r>    9.5960    0.0000 </r>
       <r>    9.9683    0.0000 </r>
       <r>   10.4469    0.0000 </r>
       <r>   10.7361    0.0000 </r>
       <r>   11.6677    0.0000 </r>
      </set>
      <set comment="kpoint 51">
       <r>  -16.3958    1.0000 </r>
       <r>  -15.1785    1.0000 </r>
       <r>   -9.4364    1.0000 </r>
       <r>   -4.3123    1.0000 </r>
       <r>   -0.4554    0.0000 </r>
       <r>    5.4205    0.0000 </r>
       <r>    8.7071    0.0000 </r>
       <r>    9.5044    0.0000 </r>
       <r>   10.0827    0.0000 </r>
       <r>   10.3331    0.0000 </r>
       <r>   10.8061    0.0000 </r>
       <r>   11.7914    0.0000 </r>
      </set>
      <set comment="kpoint 52">
       <r>  -17.1640    1.0000 </r>
       <r>  -14.2968    1.0000 </r>
       <r>   -9.3526    1.0000 </r>
       <r>   -4.7972    1.0000 </r>
       <r>    0.1408    0.0000 </r>
       <r>    5.4674    0.0000 </r>
       <r>    7.5296    0.0000 </r>
       <r>    8.4088    0.0000 </r>
       <r>    9.0961    0.0000 </r>
       <r>   10.6286    0.0000 </r>
       <r>   11.3738    0.0000 </r>
       <r>   11.6175    0.0000 </r>
      </set>
      <set comment="kpoint 53">
       <r>  -17.9241    1.0000 </r>
       <r>  -13.3182    1.0000 </r>
       <r>   -9.1886    1.0000 </r>
       <r>   -5.4846    1.0000 </r>
       <r>    1.0411    0.0000 </r>
       <r>    5.5524    0.0000 </r>
       <r>    6.4463    0.0000 </r>
       <r>    7.3447    0.0000 </r>
       <r>    7.9668    0.0000 </r>
       <r>    9.6693    0.0000 </r>
       <r>   10.5233    0.0000 </r>
       <r>   12.4551    0.0000 </r>
      </set>
      <set comment="kpoint 54">
       <r>  -18.6279    1.0000 </r>
       <r>  -12.2984    1.0000 </r>
       <r>   -8.9458    1.0000 </r>
       <r>   -6.2133    1.0000 </r>
       <r>    2.0737    0.0000 </r>
       <r>    5.4017    0.0000 </r>
       <r>    5.7346    0.0000 </r>
       <r>    6.3618    0.0000 </r>
       <r>    6.9452    0.0000 </r>
       <r>    8.7243    0.0000 </r>
       <r>    9.5310    0.0000 </r>
       <r>   12.1167    0.0000 </r>
      </set>
      <set comment="kpoint 55">
       <r>  -19.2660    1.0000 </r>
       <r>  -11.2592    1.0000 </r>
       <r>   -8.6271    1.0000 </r>
       <r>   -6.9156    1.0000 </r>
       <r>    3.1553    0.0000 </r>
       <r>    4.5387    0.0000 </r>
       <r>    5.4740    0.0000 </r>
       <r>    5.8497    0.0000 </r>
       <r>    6.0501    0.0000 </r>
       <r>    7.8554    0.0000 </r>
       <r>    8.6394    0.0000 </r>
       <r>   11.4752    0.0000 </r>
      </set>
      <set comment="kpoint 56">
       <r>  -19.8343    1.0000 </r>
       <r>  -10.2235    1.0000 </r>
       <r>   -8.2357    1.0000 </r>
       <r>   -7.5616    1.0000 </r>
       <r>    3.7526    0.0000 </r>
       <r>    4.2247    0.0000 </r>
       <r>    4.6998    0.0000 </r>
       <r>    5.2125    0.0000 </r>
       <r>    6.0627    0.0000 </r>
       <r>    7.0786    0.0000 </r>
       <r>    7.8524    0.0000 </r>
       <r>   10.8049    0.0000 </r>
      </set>
      <set comment="kpoint 57">
       <r>  -20.3300    1.0000 </r>
       <r>   -9.2222    1.0000 </r>
       <r>   -8.1361    1.0000 </r>
       <r>   -7.7757    1.0000 </r>
       <r>    3.0685    0.0000 </r>
       <r>    3.9869    0.0000 </r>
       <r>    4.5150    0.0000 </r>
       <r>    5.2998    0.0000 </r>
       <r>    6.2468    0.0000 </r>
       <r>    6.4006    0.0000 </r>
       <r>    7.1758    0.0000 </r>
       <r>   10.1861    0.0000 </r>
      </set>
      <set comment="kpoint 58">
       <r>  -20.7515    1.0000 </r>
       <r>   -8.6304    1.0000 </r>
       <r>   -8.2965    1.0000 </r>
       <r>   -7.2533    1.0000 </r>
       <r>    2.4889    0.0000 </r>
       <r>    3.4083    0.0000 </r>
       <r>    3.9240    0.0000 </r>
       <r>    5.8222    0.0000 </r>
       <r>    6.2793    0.0000 </r>
       <r>    6.3611    0.0000 </r>
       <r>    6.6579    0.0000 </r>
       <r>    9.1404    0.0000 </r>
      </set>
      <set comment="kpoint 59">
       <r>  -21.0973    1.0000 </r>
       <r>   -9.0392    1.0000 </r>
       <r>   -7.4907    1.0000 </r>
       <r>   -6.6877    1.0000 </r>
       <r>    2.0149    0.0000 </r>
       <r>    2.9327    0.0000 </r>
       <r>    3.4408    0.0000 </r>
       <r>    5.3509    0.0000 </r>
       <r>    6.0658    0.0000 </r>
       <r>    6.5956    0.0000 </r>
       <r>    7.1576    0.0000 </r>
       <r>    8.2261    0.0000 </r>
      </set>
      <set comment="kpoint 60">
       <r>  -21.3664    1.0000 </r>
       <r>   -9.3591    1.0000 </r>
       <r>   -6.8254    1.0000 </r>
       <r>   -6.1402    1.0000 </r>
       <r>    1.6468    0.0000 </r>
       <r>    2.5630    0.0000 </r>
       <r>    3.0660    0.0000 </r>
       <r>    4.9838    0.0000 </r>
       <r>    5.7132    0.0000 </r>
       <r>    6.5714    0.0000 </r>
       <r>    7.5552    0.0000 </r>
       <r>    7.9017    0.0000 </r>
      </set>
      <set comment="kpoint 61">
       <r>  -21.5582    1.0000 </r>
       <r>   -9.5878    1.0000 </r>
       <r>   -6.2967    1.0000 </r>
       <r>   -5.7096    1.0000 </r>
       <r>    1.3851    0.0000 </r>
       <r>    2.2999    0.0000 </r>
       <r>    2.7997    0.0000 </r>
       <r>    4.7225    0.0000 </r>
       <r>    5.4561    0.0000 </r>
       <r>    6.4006    0.0000 </r>
       <r>    7.1838    0.0000 </r>
       <r>    8.4641    0.0000 </r>
      </set>
      <set comment="kpoint 62">
       <r>  -21.6720    1.0000 </r>
       <r>   -9.7239    1.0000 </r>
       <r>   -5.9252    1.0000 </r>
       <r>   -5.4683    1.0000 </r>
       <r>    1.2299    0.0000 </r>
       <r>    2.1438    0.0000 </r>
       <r>    2.6418    0.0000 </r>
       <r>    4.5674    0.0000 </r>
       <r>    5.3031    0.0000 </r>
       <r>    6.2200    0.0000 </r>
       <r>    7.0064    0.0000 </r>
       <r>    8.4420    0.0000 </r>
      </set>
      <set comment="kpoint 63">
       <r>  -21.7076    1.0000 </r>
[...]
       <r>   10.1153    0.0000 </r>
       <r>   11.2271    0.0000 </r>
       <r>   11.8048    0.0000 </r>
      </set>
      <set comment="kpoint 294">
       <r>  -17.5680    1.0000 </r>
       <r>  -13.0640    1.0000 </r>
       <r>  -10.7625    1.0000 </r>
       <r>   -5.0559    1.0000 </r>
       <r>    0.6097    0.0000 </r>
       <r>    6.9663    0.0000 </r>
       <r>    7.7492    0.0000 </r>
       <r>    8.5325    0.0000 </r>
       <r>    9.2771    0.0000 </r>
       <r>    9.8363    0.0000 </r>
       <r>   11.0486    0.0000 </r>
       <r>   11.6006    0.0000 </r>
      </set>
      <set comment="kpoint 295">
       <r>  -17.6228    1.0000 </r>
       <r>  -12.6227    1.0000 </r>
       <r>  -11.2165    1.0000 </r>
       <r>   -5.0905    1.0000 </r>
       <r>    0.7311    0.0000 </r>
       <r>    6.8872    0.0000 </r>
       <r>    7.6402    0.0000 </r>
       <r>    8.4536    0.0000 </r>
       <r>    9.7062    0.0000 </r>
       <r>   10.2785    0.0000 </r>
       <r>   11.0126    0.0000 </r>
       <r>   11.2652    0.0000 </r>
      </set>
      <set comment="kpoint 296">
       <r>  -17.6066    1.0000 </r>
       <r>  -12.8084    1.0000 </r>
       <r>  -11.0231    1.0000 </r>
       <r>   -5.0818    1.0000 </r>
       <r>    0.6877    0.0000 </r>
       <r>    6.9115    0.0000 </r>
       <r>    7.6761    0.0000 </r>
       <r>    8.4782    0.0000 </r>
       <r>    9.7506    0.0000 </r>
       <r>    9.8840    0.0000 </r>
       <r>   11.0005    0.0000 </r>
       <r>   11.5266    0.0000 </r>
      </set>
      <set comment="kpoint 297">
       <r>  -17.5201    1.0000 </r>
       <r>  -13.3844    1.0000 </r>
       <r>  -10.4225    1.0000 </r>
       <r>   -5.0315    1.0000 </r>
       <r>    0.4935    0.0000 </r>
       <r>    7.0382    0.0000 </r>
       <r>    7.8504    0.0000 </r>
       <r>    8.5864    0.0000 </r>
       <r>    8.8025    0.0000 </r>
       <r>    9.9598    0.0000 </r>
       <r>   11.1180    0.0000 </r>
       <r>   11.7005    0.0000 </r>
      </set>
      <set comment="kpoint 298">
       <r>  -17.3663    1.0000 </r>
       <r>  -14.0108    1.0000 </r>
       <r>   -9.7721    1.0000 </r>
       <r>   -4.9483    1.0000 </r>
       <r>    0.2063    0.0000 </r>
       <r>    7.2474    0.0000 </r>
       <r>    7.7162    0.0000 </r>
       <r>    8.1406    0.0000 </r>
       <r>    8.8632    0.0000 </r>
       <r>   10.2943    0.0000 </r>
       <r>   11.3265    0.0000 </r>
       <r>   11.5583    0.0000 </r>
      </set>
      <set comment="kpoint 299">
       <r>  -17.1535    1.0000 </r>
       <r>  -14.6010    1.0000 </r>
       <r>   -9.1874    1.0000 </r>
       <r>   -4.8489    1.0000 </r>
       <r>   -0.0996    0.0000 </r>
       <r>    6.7476    0.0000 </r>
       <r>    7.6381    0.0000 </r>
       <r>    8.5286    0.0000 </r>
       <r>    9.2107    0.0000 </r>
       <r>   10.6979    0.0000 </r>
       <r>   10.7585    0.0000 </r>
       <r>   11.6412    0.0000 </r>
      </set>
      <set comment="kpoint 300">
       <r>  -16.9042    1.0000 </r>
       <r>  -15.1094    1.0000 </r>
       <r>   -8.7421    1.0000 </r>
       <r>   -4.7575    1.0000 </r>
       <r>   -0.3534    0.0000 </r>
       <r>    6.0825    0.0000 </r>
       <r>    8.0694    0.0000 </r>
       <r>    9.0051    0.0000 </r>
       <r>    9.6652    0.0000 </r>
       <r>    9.9821    0.0000 </r>
       <r>   10.8132    0.0000 </r>
       <r>   11.3901    0.0000 </r>
      </set>
      <set comment="kpoint 301">
       <r>  -16.6930    1.0000 </r>
       <r>  -15.4520    1.0000 </r>
       <r>   -8.4993    1.0000 </r>
       <r>   -4.7019    1.0000 </r>
       <r>   -0.4974    0.0000 </r>
       <r>    5.7250    0.0000 </r>
       <r>    8.6025    0.0000 </r>
       <r>    9.2611    0.0000 </r>
       <r>    9.5586    0.0000 </r>
       <r>   10.2151    0.0000 </r>
       <r>   10.2349    0.0000 </r>
       <r>   10.9060    0.0000 </r>
      </set>
     </set>
    </set>
   </array>
  </eigenvalues>
  <separator name="orbital magnetization" >
   <v name="MAGDIPOLOUT">      0.00000000      0.00000000      0.00000000</v>
  </separator>
  <dos>
   <i name="efermi">     -2.29872301 </i>
   <total>
    <array>
     <dimension dim="1">gridpoints</dimension>
     <dimension dim="2">spin</dimension>
     <field>energy</field>
     <field>total</field>
     <field>integrated</field>
     <set>
      <set comment="spin 1">
       <r>   -23.5991     0.0000     0.0000 </r>
       <r>   -23.4693     0.0000     0.0000 </r>
       <r>   -23.3394     0.0000     0.0000 </r>
       <r>   -23.2096     0.0000     0.0000 </r>
       <r>   -23.0798     0.0000     0.0000 </r>
       <r>   -22.9499     0.0000     0.0000 </r>
       <r>   -22.8201     0.0000     0.0000 </r>
       <r>   -22.6903     0.0000     0.0000 </r>
       <r>   -22.5604     0.0000     0.0000 </r>
       <r>   -22.4306     0.0000     0.0000 </r>
       <r>   -22.3008     0.0000     0.0000 </r>
       <r>   -22.1709     0.0000     0.0000 </r>
       <r>   -22.0411     0.0000     0.0000 </r>
       <r>   -21.9113     0.0000     0.0000 </r>
       <r>   -21.7815     0.1335     0.0173 </r>
       <r>   -21.6516     0.3378     0.0612 </r>
       <r>   -21.5218     0.3158     0.1022 </r>
       <r>   -21.3920     0.1642     0.1236 </r>
       <r>   -21.2621     0.4598     0.1833 </r>
       <r>   -21.1323     0.1547     0.2034 </r>
       <r>   -21.0025     0.4415     0.2607 </r>
       <r>   -20.8726     0.1836     0.2846 </r>
       <r>   -20.7428     0.3342     0.3280 </r>
       <r>   -20.6130     0.4109     0.3813 </r>
       <r>   -20.4831     0.1695     0.4033 </r>
       <r>   -20.3533     0.3320     0.4464 </r>
       <r>   -20.2235     0.4366     0.5031 </r>
       <r>   -20.0937     0.2418     0.5346 </r>
       <r>   -19.9638     0.1456     0.5535 </r>
       <r>   -19.8340     0.5788     0.6287 </r>
       <r>   -19.7042     0.2646     0.6631 </r>
       <r>   -19.5743     0.2059     0.6899 </r>
       <r>   -19.4445     0.2167     0.7181 </r>
       <r>   -19.3147     0.5310     0.7871 </r>
       <r>   -19.1848     0.3280     0.8298 </r>
       <r>   -19.0550     0.1087     0.8439 </r>
       <r>   -18.9252     0.3506     0.8895 </r>
       <r>   -18.7953     0.4974     0.9540 </r>
       <r>   -18.6655     0.3122     0.9946 </r>
       <r>   -18.5357     0.2717     1.0299 </r>
       <r>   -18.4059     0.1266     1.0464 </r>
       <r>   -18.2760     0.4030     1.0988 </r>
       <r>   -18.1462     0.5490     1.1701 </r>
       <r>   -18.0164     0.2024     1.1963 </r>
       <r>   -17.8865     0.2825     1.2330 </r>
       <r>   -17.7567     0.2450     1.2649 </r>
       <r>   -17.6269     0.2986     1.3036 </r>
       <r>   -17.4970     0.5264     1.3720 </r>
       <r>   -17.3672     0.3688     1.4198 </r>
       <r>   -17.2374     0.2434     1.4514 </r>
       <r>   -17.1075     0.2935     1.4895 </r>
       <r>   -16.9777     0.3115     1.5300 </r>
       <r>   -16.8479     0.5334     1.5994 </r>
       <r>   -16.7181     0.4586     1.6589 </r>
       <r>   -16.5882     0.3197     1.7005 </r>
       <r>   -16.4584     0.2950     1.7388 </r>
       <r>   -16.3286     0.3523     1.7845 </r>
       <r>   -16.1987     0.4219     1.8393 </r>
       <r>   -16.0689     0.3635     1.8866 </r>
       <r>   -15.9391     0.1025     1.9000 </r>
       <r>   -15.8092     0.0526     1.9068 </r>
       <r>   -15.6794     0.1531     1.9267 </r>
       <r>   -15.5496     0.2860     1.9639 </r>
       <r>   -15.4197     0.2712     1.9991 </r>
       <r>   -15.2899     0.2968     2.0377 </r>
       <r>   -15.1601     0.2624     2.0718 </r>
       <r>   -15.0303     0.3774     2.1208 </r>
       <r>   -14.9004     0.2382     2.1517 </r>
       <r>   -14.7706     0.3560     2.1980 </r>
       <r>   -14.6408     0.4602     2.2577 </r>
       <r>   -14.5109     0.3591     2.3044 </r>
       <r>   -14.3811     0.4434     2.3620 </r>
       <r>   -14.2513     0.5214     2.4297 </r>
       <r>   -14.1214     0.3618     2.4766 </r>
       <r>   -13.9916     0.1996     2.5026 </r>
       <r>   -13.8618     0.4269     2.5581 </r>
       <r>   -13.7319     0.3053     2.5978 </r>
       <r>   -13.6021     0.3895     2.6483 </r>
       <r>   -13.4723     0.1506     2.6679 </r>
       <r>   -13.3425     0.4114     2.7213 </r>
       <r>   -13.2126     0.3303     2.7642 </r>
       <r>   -13.0828     0.1834     2.7881 </r>
       <r>   -12.9530     0.2382     2.8190 </r>
       <r>   -12.8231     0.2769     2.8549 </r>
       <r>   -12.6933     0.4728     2.9163 </r>
       <r>   -12.5635     0.3588     2.9629 </r>
       <r>   -12.4336     0.2533     2.9959 </r>
       <r>   -12.3038     0.3920     3.0467 </r>
       <r>   -12.1740     0.3298     3.0896 </r>
       <r>   -12.0441     0.4680     3.1503 </r>
       <r>   -11.9143     0.2392     3.1814 </r>
       <r>   -11.7845     0.4125     3.2350 </r>
       <r>   -11.6547     0.4570     3.2943 </r>
       <r>   -11.5248     0.2072     3.3212 </r>
       <r>   -11.3950     0.3356     3.3648 </r>
       <r>   -11.2652     0.6409     3.4481 </r>
       <r>   -11.1353     0.4760     3.5099 </r>
       <r>   -11.0055     0.1411     3.5283 </r>
       <r>   -10.8757     0.2394     3.5594 </r>
       <r>   -10.7458     0.5998     3.6373 </r>
       <r>   -10.6160     0.5208     3.7050 </r>
       <r>   -10.4862     0.3711     3.7532 </r>
       <r>   -10.3563     0.2857     3.7903 </r>
       <r>   -10.2265     0.5242     3.8583 </r>
       <r>   -10.0967     0.4801     3.9207 </r>
       <r>    -9.9669     0.3365     3.9645 </r>
       <r>    -9.8370     0.6426     4.0479 </r>
       <r>    -9.7072     0.8923     4.1638 </r>
       <r>    -9.5774     0.6998     4.2546 </r>
       <r>    -9.4475     0.5808     4.3301 </r>
       <r>    -9.3177     0.6302     4.4120 </r>
       <r>    -9.1879     1.0395     4.5471 </r>
       <r>    -9.0580     0.7107     4.6394 </r>
       <r>    -8.9282     1.2395     4.8004 </r>
       <r>    -8.7984     0.6317     4.8826 </r>
       <r>    -8.6685     0.8180     4.9888 </r>
       <r>    -8.5387     1.1397     5.1368 </r>
       <r>    -8.4089     1.2025     5.2929 </r>
       <r>    -8.2791     0.6736     5.3806 </r>
       <r>    -8.1492     0.8918     5.4964 </r>
       <r>    -8.0194     0.9686     5.6222 </r>
       <r>    -7.8896     0.4857     5.6854 </r>
       <r>    -7.7597     0.6098     5.7647 </r>
       <r>    -7.6299     1.0071     5.8955 </r>
       <r>    -7.5001     0.8082     6.0004 </r>
       <r>    -7.3702     0.3844     6.0505 </r>
       <r>    -7.2404     0.5947     6.1277 </r>
       <r>    -7.1106     0.6281     6.2092 </r>
       <r>    -6.9807     0.7967     6.3127 </r>
       <r>    -6.8509     0.6235     6.3938 </r>
       <r>    -6.7211     0.4935     6.4579 </r>
       <r>    -6.5913     0.6402     6.5410 </r>
       <r>    -6.4614     0.4497     6.5994 </r>
       <r>    -6.3316     0.6585     6.6849 </r>
       <r>    -6.2018     0.7218     6.7787 </r>
       <r>    -6.0719     0.5488     6.8500 </r>
       <r>    -5.9421     0.2663     6.8845 </r>
       <r>    -5.8123     0.6089     6.9636 </r>
       <r>    -5.6824     0.9259     7.0838 </r>
       <r>    -5.5526     0.4087     7.1369 </r>
       <r>    -5.4228     0.5393     7.2070 </r>
       <r>    -5.2929     0.3103     7.2473 </r>
       <r>    -5.1631     0.5289     7.3160 </r>
       <r>    -5.0333     0.5735     7.3905 </r>
       <r>    -4.9035     0.4478     7.4486 </r>
       <r>    -4.7736     0.3994     7.5005 </r>
       <r>    -4.6438     0.3086     7.5406 </r>
       <r>    -4.5140     0.4578     7.6000 </r>
       <r>    -4.3841     0.4565     7.6593 </r>
       <r>    -4.2543     0.7984     7.7630 </r>
       <r>    -4.1245     0.0351     7.7676 </r>
       <r>    -3.9946     0.1528     7.7875 </r>
       <r>    -3.8648     0.2548     7.8205 </r>
       <r>    -3.7350     0.2700     7.8556 </r>
       <r>    -3.6051     0.3524     7.9013 </r>
       <r>    -3.4753     0.0508     7.9080 </r>
       <r>    -3.3455     0.0928     7.9200 </r>
       <r>    -3.2157     0.0795     7.9303 </r>
       <r>    -3.0858     0.1873     7.9546 </r>
       <r>    -2.9560     0.1551     7.9748 </r>
       <r>    -2.8262     0.0402     7.9800 </r>
       <r>    -2.6963     0.0002     7.9800 </r>
       <r>    -2.5665     0.1024     7.9933 </r>
       <r>    -2.4367     0.0370     7.9981 </r>
       <r>    -2.3068     0.0143     8.0000 </r>
       <r>    -2.1770     0.0000     8.0000 </r>
       <r>    -2.0472     0.0000     8.0000 </r>
       <r>    -1.9173     0.0497     8.0065 </r>
       <r>    -1.7875     0.0078     8.0075 </r>
       <r>    -1.6577     0.0966     8.0200 </r>
       <r>    -1.5279     0.0000     8.0200 </r>
       <r>    -1.3980     0.1027     8.0333 </r>
       <r>    -1.2682     0.1819     8.0570 </r>
       <r>    -1.1384     0.1583     8.0776 </r>
       <r>    -1.0085     0.0918     8.0895 </r>
       <r>    -0.8787     0.0807     8.1000 </r>
       <r>    -0.7489     0.3918     8.1509 </r>
       <r>    -0.6190     0.4309     8.2069 </r>
       <r>    -0.4892     0.6317     8.2890 </r>
       <r>    -0.3594     0.5021     8.3542 </r>
       <r>    -0.2295     0.2920     8.3921 </r>
       <r>    -0.0997     0.4839     8.4549 </r>
       <r>     0.0301     0.4584     8.5145 </r>
       <r>     0.1599     0.3886     8.5650 </r>
       <r>     0.2898     0.2517     8.5976 </r>
       <r>     0.4196     0.2481     8.6299 </r>
       <r>     0.5494     0.1946     8.6551 </r>
       <r>     0.6793     0.3807     8.7046 </r>
       <r>     0.8091     0.3375     8.7484 </r>
       <r>     0.9389     0.1442     8.7671 </r>
       <r>     1.0688     0.4763     8.8290 </r>
       <r>     1.1986     0.3804     8.8784 </r>
       <r>     1.3284     0.3720     8.9267 </r>
       <r>     1.4583     0.4508     8.9852 </r>
       <r>     1.5881     0.5624     9.0583 </r>
       <r>     1.7179     0.5031     9.1236 </r>
       <r>     1.8477     0.3919     9.1746 </r>
       <r>     1.9776     0.3370     9.2183 </r>
       <r>     2.1074     0.7220     9.3121 </r>
       <r>     2.2372     0.7023     9.4033 </r>
       <r>     2.3671     0.6585     9.4888 </r>
       <r>     2.4969     0.7034     9.5803 </r>
       <r>     2.6267     0.9325     9.7013 </r>
       <r>     2.7566     0.9534     9.8253 </r>
       <r>     2.8864     0.5840     9.9013 </r>
       <r>     3.0162     0.7462     9.9981 </r>
       <r>     3.1461     1.2521    10.1608 </r>
       <r>     3.2759     0.5317    10.2299 </r>
       <r>     3.4057     0.8625    10.3419 </r>
       <r>     3.5355     0.9488    10.4651 </r>
       <r>     3.6654     1.0167    10.5972 </r>
       <r>     3.7952     0.6435    10.6808 </r>
       <r>     3.9250     0.7846    10.7827 </r>
       <r>     4.0549     0.9732    10.9091 </r>
       <r>     4.1847     0.8222    11.0159 </r>
       <r>     4.3145     0.6167    11.0959 </r>
       <r>     4.4444     1.0163    11.2280 </r>
       <r>     4.5742     1.1146    11.3729 </r>
       <r>     4.7040     0.9797    11.5003 </r>
       <r>     4.8339     1.0342    11.6347 </r>
       <r>     4.9637     0.9671    11.7602 </r>
       <r>     5.0935     1.4119    11.9436 </r>
       <r>     5.2233     1.6314    12.1554 </r>
       <r>     5.3532     1.4424    12.3428 </r>
       <r>     5.4830     1.8206    12.5792 </r>
       <r>     5.6128     1.1143    12.7239 </r>
       <r>     5.7427     1.2717    12.8891 </r>
       <r>     5.8725     2.4260    13.2041 </r>
       <r>     6.0023     1.2507    13.3670 </r>
       <r>     6.1322     2.6195    13.7073 </r>
       <r>     6.2620     1.9546    13.9617 </r>
       <r>     6.3918     2.6762    14.3092 </r>
       <r>     6.5217     1.8610    14.5512 </r>
       <r>     6.6515     2.0932    14.8233 </r>
       <r>     6.7813     1.6921    15.0431 </r>
       <r>     6.9111     2.0171    15.3051 </r>
       <r>     7.0410     2.2226    15.5939 </r>
       <r>     7.1708     1.7305    15.8187 </r>
       <r>     7.3006     1.4716    16.0098 </r>
       <r>     7.4305     1.4945    16.2040 </r>
       <r>     7.5603     1.5475    16.4051 </r>
       <r>     7.6901     1.9606    16.6600 </r>
       <r>     7.8200     1.6786    16.8781 </r>
       <r>     7.9498     1.8573    17.1194 </r>
       <r>     8.0796     1.4825    17.3122 </r>
       <r>     8.2095     1.2464    17.4741 </r>
       <r>     8.3393     1.7825    17.7057 </r>
       <r>     8.4691     2.5569    18.0376 </r>
       <r>     8.5989     1.8544    18.2785 </r>
       <r>     8.7288     2.0757    18.5481 </r>
       <r>     8.8586     1.4271    18.7334 </r>
       <r>     8.9884     1.6069    18.9422 </r>
       <r>     9.1183     1.6033    19.1508 </r>
       <r>     9.2481     1.8762    19.3945 </r>
       <r>     9.3779     1.5020    19.5897 </r>
       <r>     9.5078     1.1416    19.7380 </r>
       <r>     9.6376     1.7528    19.9657 </r>
       <r>     9.7674     1.5449    20.1666 </r>
       <r>     9.8973     1.5760    20.3713 </r>
       <r>    10.0271     1.5626    20.5743 </r>
       <r>    10.1569     1.4245    20.7593 </r>
       <r>    10.2867     1.8449    20.9992 </r>
       <r>    10.4166     1.6204    21.2099 </r>
       <r>    10.5464     1.7070    21.4316 </r>
       <r>    10.6762     1.6583    21.6472 </r>
       <r>    10.8061     2.2831    21.9439 </r>
       <r>    10.9359     1.6524    22.1586 </r>
       <r>    11.0657     1.3888    22.3390 </r>
       <r>    11.1956     1.2505    22.5014 </r>
       <r>    11.3254     1.4887    22.6949 </r>
       <r>    11.4552     1.1176    22.8401 </r>
       <r>    11.5851     1.4800    23.0324 </r>
       <r>    11.7149     1.3475    23.2080 </r>
       <r>    11.8447     1.3270    23.3803 </r>
       <r>    11.9745     1.1373    23.5281 </r>
       <r>    12.1044     0.9028    23.6454 </r>
       <r>    12.2342     0.5618    23.7183 </r>
       <r>    12.3640     0.3210    23.7600 </r>
       <r>    12.4939     0.3305    23.8030 </r>
       <r>    12.6237     0.5039    23.8685 </r>
       <r>    12.7535     0.2205    23.8972 </r>
       <r>    12.8834     0.3257    23.9395 </r>
       <r>    13.0132     0.1937    23.9646 </r>
       <r>    13.1430     0.1184    23.9800 </r>
       <r>    13.2729     0.0000    23.9800 </r>
       <r>    13.4027     0.0114    23.9815 </r>
       <r>    13.5325     0.0913    23.9933 </r>
       <r>    13.6623     0.0513    24.0000 </r>
       <r>    13.7922     0.0000    24.0000 </r>
       <r>    13.9220     0.0000    24.0000 </r>
       <r>    14.0518     0.0000    24.0000 </r>
       <r>    14.1817     0.0000    24.0000 </r>
       <r>    14.3115     0.0000    24.0000 </r>
       <r>    14.4413     0.0000    24.0000 </r>
       <r>    14.5712     0.0000    24.0000 </r>
       <r>    14.7010     0.0000    24.0000 </r>
       <r>    14.8308     0.0000    24.0000 </r>
       <r>    14.9607     0.0000    24.0000 </r>
       <r>    15.0905     0.0000    24.0000 </r>
       <r>    15.2203     0.0000    24.0000 </r>
       <r>    15.3501     0.0000    24.0000 </r>
      </set>
     </set>
    </array>
   </total>
  </dos>
 </calculation>
 <structure name="finalpos" >
  <crystal>
   <varray name="basis" >
    <v>       2.43992900      -0.02792500       0.00000000 </v>
    <v>      -1.24414800       2.15118600       0.00000000 </v>
    <v>       0.00000000       0.00000000      15.00000000 </v>
   </varray>
   <i name="volume">     78.20997409 </i>
   <varray name="rec_basis" >
    <v>       0.41257896       0.23861688       0.00000000 </v>
    <v>       0.00535577       0.46795739       0.00000000 </v>
    <v>       0.00000000       0.00000000       0.06666667 </v>
   </varray>
  </crystal>
  <varray name="positions" >
   <v>       0.00083726       0.00038706       0.50000000 </v>
   <v>       0.33249574       0.66627994       0.50000000 </v>
  </varray>
 </structure>
</modeling>
