<?xml version="1.0" encoding="ISO-8859-1"?>
<modeling>
 <generator>
  <i name="program" type="string">vasp </i>
  <i name="version" type="string">5.4.1  </i>
  <i name="subversion" type="string">24Jun15 (build Nov 20 2020 10:29:34) complex                          parallel </i>
  <i name="platform" type="string">IFC91_ompi </i>
  <i name="date" type="string">2021 09 09 </i>
  <i name="time" type="string">13:44:02 </i>
 </generator>
 <incar>
  <i type="string" name="PREC">a</i>
  <i type="string" name="ALGO"> Normal</i>
  <i type="int" name="ISPIN">     1</i>
  <i type="int" name="ICHARG">     2</i>
  <i type="int" name="NELM">   250</i>
  <i type="int" name="NELMDL">    -5</i>
  <i type="int" name="NELMIN">     6</i>
  <i type="int" name="IBRION">     2</i>
  <i name="EDIFF">      0.00001000</i>
  <i name="EDIFFG">     -0.01000000</i>
  <i type="int" name="NSW">   200</i>
  <i type="int" name="ISIF">     2</i>
  <i name="ENCUT">    520.00000000</i>
  <i name="POTIM">      0.30000000</i>
  <i type="logical" name="LREAL"> F  </i>
  <i type="int" name="ISMEAR">     0</i>
  <i name="SIGMA">      0.02000000</i>
  <i type="logical" name="LWAVE"> F  </i>
  <i type="logical" name="LCHARG"> F  </i>
  <i type="logical" name="LAECHG"> F  </i>
  <v type="int" name="KPOINT_BSE">    -1     0     0     0</v>
  <i type="int" name="NELM">   250</i>
 </incar>
 <kpoints>
  <generation param="Gamma">
   <v type="int" name="divisions">      21       15        1 </v>
   <v name="usershift">      0.00000000       0.00000000       0.00000000 </v>
   <v name="genvec1">      0.04761905       0.00000000       0.00000000 </v>
   <v name="genvec2">      0.00000000       0.06666667       0.00000000 </v>
   <v name="genvec3">     -0.00000000       0.00000000       1.00000000 </v>
   <v name="shift">      0.00000000       0.00000000       0.00000000 </v>
  </generation>
  <varray name="kpointlist" >
   <v>       0.00000000       0.00000000       0.00000000 </v>
   <v>       0.04761905       0.00000000       0.00000000 </v>
   <v>       0.09523810       0.00000000       0.00000000 </v>
   <v>       0.14285714      -0.00000000       0.00000000 </v>
   <v>       0.19047619      -0.00000000       0.00000000 </v>
   <v>       0.23809524       0.00000000       0.00000000 </v>
   <v>       0.28571429       0.00000000       0.00000000 </v>
   <v>       0.33333333       0.00000000       0.00000000 </v>
   <v>       0.38095238      -0.00000000       0.00000000 </v>
   <v>       0.42857143      -0.00000000       0.00000000 </v>
   <v>       0.47619048       0.00000000       0.00000000 </v>
   <v>      -0.00000000       0.06666667       0.00000000 </v>
   <v>       0.04761905       0.06666667       0.00000000 </v>
   <v>       0.09523810       0.06666667       0.00000000 </v>
   <v>       0.14285714       0.06666667       0.00000000 </v>
   <v>       0.19047619       0.06666667       0.00000000 </v>
   <v>       0.23809524       0.06666667       0.00000000 </v>
   <v>       0.28571429       0.06666667       0.00000000 </v>
   <v>       0.33333333       0.06666667       0.00000000 </v>
   <v>       0.38095238       0.06666667       0.00000000 </v>
   <v>       0.42857143       0.06666667       0.00000000 </v>
   <v>       0.47619048       0.06666667       0.00000000 </v>
   <v>      -0.47619048       0.06666667       0.00000000 </v>
   <v>      -0.42857143       0.06666667       0.00000000 </v>
   <v>      -0.38095238       0.06666667       0.00000000 </v>
   <v>      -0.33333333       0.06666667       0.00000000 </v>
   <v>      -0.28571429       0.06666667       0.00000000 </v>
   <v>      -0.23809524       0.06666667       0.00000000 </v>
   <v>      -0.19047619       0.06666667       0.00000000 </v>
   <v>      -0.14285714       0.06666667       0.00000000 </v>
   <v>      -0.09523810       0.06666667       0.00000000 </v>
   <v>      -0.04761905       0.06666667       0.00000000 </v>
   <v>       0.00000000       0.13333333       0.00000000 </v>
   <v>       0.04761905       0.13333333       0.00000000 </v>
   <v>       0.09523810       0.13333333       0.00000000 </v>
   <v>       0.14285714       0.13333333       0.00000000 </v>
   <v>       0.19047619       0.13333333       0.00000000 </v>
   <v>       0.23809524       0.13333333       0.00000000 </v>
   <v>       0.28571429       0.13333333       0.00000000 </v>
   <v>       0.33333333       0.13333333       0.00000000 </v>
   <v>       0.38095238       0.13333333       0.00000000 </v>
   <v>       0.42857143       0.13333333       0.00000000 </v>
   <v>       0.47619048       0.13333333       0.00000000 </v>
   <v>      -0.47619048       0.13333333       0.00000000 </v>
   <v>      -0.42857143       0.13333333       0.00000000 </v>
   <v>      -0.38095238       0.13333333       0.00000000 </v>
   <v>      -0.33333333       0.13333333       0.00000000 </v>
   <v>      -0.28571429       0.13333333       0.00000000 </v>
   <v>      -0.23809524       0.13333333       0.00000000 </v>
   <v>      -0.19047619       0.13333333       0.00000000 </v>
   <v>      -0.14285714       0.13333333       0.00000000 </v>
   <v>      -0.09523810       0.13333333       0.00000000 </v>
   <v>      -0.04761905       0.13333333       0.00000000 </v>
   <v>      -0.00000000       0.20000000       0.00000000 </v>
   <v>       0.04761905       0.20000000       0.00000000 </v>
   <v>       0.09523810       0.20000000       0.00000000 </v>
   <v>       0.14285714       0.20000000       0.00000000 </v>
   <v>       0.19047619       0.20000000       0.00000000 </v>
   <v>       0.23809524       0.20000000       0.00000000 </v>
   <v>       0.28571429       0.20000000       0.00000000 </v>
   <v>       0.33333333       0.20000000       0.00000000 </v>
   <v>       0.38095238       0.20000000       0.00000000 </v>
   <v>       0.42857143       0.20000000       0.00000000 </v>
   <v>       0.47619048       0.20000000       0.00000000 </v>
   <v>      -0.47619048       0.20000000       0.00000000 </v>
   <v>      -0.42857143       0.20000000       0.00000000 </v>
   <v>      -0.38095238       0.20000000       0.00000000 </v>
   <v>      -0.33333333       0.20000000       0.00000000 </v>
   <v>      -0.28571429       0.20000000       0.00000000 </v>
   <v>      -0.23809524       0.20000000       0.00000000 </v>
   <v>      -0.19047619       0.20000000       0.00000000 </v>
   <v>      -0.14285714       0.20000000       0.00000000 </v>
   <v>      -0.09523810       0.20000000       0.00000000 </v>
   <v>      -0.04761905       0.20000000       0.00000000 </v>
   <v>       0.00000000       0.26666667       0.00000000 </v>
   <v>       0.04761905       0.26666667       0.00000000 </v>
   <v>       0.09523810       0.26666667       0.00000000 </v>
   <v>       0.14285714       0.26666667       0.00000000 </v>
   <v>       0.19047619       0.26666667       0.00000000 </v>
   <v>       0.23809524       0.26666667       0.00000000 </v>
   <v>       0.28571429       0.26666667       0.00000000 </v>
   <v>       0.33333333       0.26666667       0.00000000 </v>
   <v>       0.38095238       0.26666667       0.00000000 </v>
   <v>       0.42857143       0.26666667       0.00000000 </v>
   <v>       0.47619048       0.26666667       0.00000000 </v>
   <v>      -0.47619048       0.26666667       0.00000000 </v>
   <v>      -0.42857143       0.26666667       0.00000000 </v>
   <v>      -0.38095238       0.26666667       0.00000000 </v>
   <v>      -0.33333333       0.26666667       0.00000000 </v>
   <v>      -0.28571429       0.26666667       0.00000000 </v>
   <v>      -0.23809524       0.26666667       0.00000000 </v>
   <v>      -0.19047619       0.26666667       0.00000000 </v>
   <v>      -0.14285714       0.26666667       0.00000000 </v>
   <v>      -0.09523810       0.26666667       0.00000000 </v>
   <v>      -0.04761905       0.26666667       0.00000000 </v>
   <v>       0.00000000       0.33333333       0.00000000 </v>
   <v>       0.04761905       0.33333333       0.00000000 </v>
   <v>       0.09523810       0.33333333       0.00000000 </v>
   <v>       0.14285714       0.33333333       0.00000000 </v>
   <v>       0.19047619       0.33333333       0.00000000 </v>
   <v>       0.23809524       0.33333333       0.00000000 </v>
   <v>       0.28571429       0.33333333       0.00000000 </v>
   <v>       0.33333333       0.33333333       0.00000000 </v>
   <v>       0.38095238       0.33333333       0.00000000 </v>
   <v>       0.42857143       0.33333333       0.00000000 </v>
   <v>       0.47619048       0.33333333       0.00000000 </v>
   <v>      -0.47619048       0.33333333       0.00000000 </v>
   <v>      -0.42857143       0.33333333       0.00000000 </v>
   <v>      -0.38095238       0.33333333       0.00000000 </v>
   <v>      -0.33333333       0.33333333       0.00000000 </v>
   <v>      -0.28571429       0.33333333       0.00000000 </v>
   <v>      -0.23809524       0.33333333       0.00000000 </v>
   <v>      -0.19047619       0.33333333       0.00000000 </v>
   <v>      -0.14285714       0.33333333       0.00000000 </v>
   <v>      -0.09523810       0.33333333       0.00000000 </v>
   <v>      -0.04761905       0.33333333       0.00000000 </v>
   <v>      -0.00000000       0.40000000       0.00000000 </v>
   <v>       0.04761905       0.40000000       0.00000000 </v>
   <v>       0.09523810       0.40000000       0.00000000 </v>
   <v>       0.14285714       0.40000000       0.00000000 </v>
   <v>       0.19047619       0.40000000       0.00000000 </v>
   <v>       0.23809524       0.40000000       0.00000000 </v>
   <v>       0.28571429       0.40000000       0.00000000 </v>
   <v>       0.33333333       0.40000000       0.00000000 </v>
   <v>       0.38095238       0.40000000       0.00000000 </v>
   <v>       0.42857143       0.40000000       0.00000000 </v>
   <v>       0.47619048       0.40000000       0.00000000 </v>
   <v>      -0.47619048       0.40000000       0.00000000 </v>
   <v>      -0.42857143       0.40000000       0.00000000 </v>
   <v>      -0.38095238       0.40000000       0.00000000 </v>
   <v>      -0.33333333       0.40000000       0.00000000 </v>
   <v>      -0.28571429       0.40000000       0.00000000 </v>
   <v>      -0.23809524       0.40000000       0.00000000 </v>
   <v>      -0.19047619       0.40000000       0.00000000 </v>
   <v>      -0.14285714       0.40000000       0.00000000 </v>
   <v>      -0.09523810       0.40000000       0.00000000 </v>
   <v>      -0.04761905       0.40000000       0.00000000 </v>
   <v>       0.00000000       0.46666667       0.00000000 </v>
   <v>       0.04761905       0.46666667       0.00000000 </v>
   <v>       0.09523810       0.46666667       0.00000000 </v>
   <v>       0.14285714       0.46666667       0.00000000 </v>
   <v>       0.19047619       0.46666667       0.00000000 </v>
   <v>       0.23809524       0.46666667       0.00000000 </v>
   <v>       0.28571429       0.46666667       0.00000000 </v>
   <v>       0.33333333       0.46666667       0.00000000 </v>
   <v>       0.38095238       0.46666667       0.00000000 </v>
   <v>       0.42857143       0.46666667       0.00000000 </v>
   <v>       0.47619048       0.46666667       0.00000000 </v>
   <v>      -0.47619048       0.46666667       0.00000000 </v>
   <v>      -0.42857143       0.46666667       0.00000000 </v>
   <v>      -0.38095238       0.46666667       0.00000000 </v>
   <v>      -0.33333333       0.46666667       0.00000000 </v>
   <v>      -0.28571429       0.46666667       0.00000000 </v>
   <v>      -0.23809524       0.46666667       0.00000000 </v>
   <v>      -0.19047619       0.46666667       0.00000000 </v>
   <v>      -0.14285714       0.46666667       0.00000000 </v>
   <v>      -0.09523810       0.46666667       0.00000000 </v>
   <v>      -0.04761905       0.46666667       0.00000000 </v>
  </varray>
  <varray name="weights" >
   <v>       0.00317460 </v>
   <v>       0.00634921 </v>
   <v>       0.00634921 </v>
   <v>       0.00634921 </v>
   <v>       0.00634921 </v>
   <v>       0.00634921 </v>
   <v>       0.00634921 </v>
   <v>       0.00634921 </v>
   <v>       0.00634921 </v>
   <v>       0.00634921 </v>
   <v>       0.00634921 </v>
   <v>       0.00634921 </v>
   <v>       0.00634921 </v>
   <v>       0.00634921 </v>
   <v>       0.00634921 </v>
   <v>       0.00634921 </v>
   <v>       0.00634921 </v>
   <v>       0.00634921 </v>
   <v>       0.00634921 </v>
   <v>       0.00634921 </v>
   <v>       0.00634921 </v>
   <v>       0.00634921 </v>
   <v>       0.00634921 </v>
   <v>       0.00634921 </v>
   <v>       0.00634921 </v>
   <v>       0.00634921 </v>
   <v>       0.00634921 </v>
   <v>       0.00634921 </v>
   <v>       0.00634921 </v>
   <v>       0.00634921 </v>
   <v>       0.00634921 </v>
   <v>       0.00634921 </v>
   <v>       0.00634921 </v>
   <v>       0.00634921 </v>
   <v>       0.00634921 </v>
   <v>       0.00634921 </v>
   <v>       0.00634921 </v>
   <v>       0.00634921 </v>
   <v>       0.00634921 </v>
   <v>       0.00634921 </v>
   <v>       0.00634921 </v>
   <v>       0.00634921 </v>
   <v>       0.00634921 </v>
   <v>       0.00634921 </v>
   <v>       0.00634921 </v>
   <v>       0.00634921 </v>
   <v>       0.00634921 </v>
   <v>       0.00634921 </v>
   <v>       0.00634921 </v>
   <v>       0.00634921 </v>
   <v>       0.00634921 </v>
   <v>       0.00634921 </v>
   <v>       0.00634921 </v>
   <v>       0.00634921 </v>
   <v>       0.00634921 </v>
   <v>       0.00634921 </v>
   <v>       0.00634921 </v>
   <v>       0.00634921 </v>
   <v>       0.00634921 </v>
   <v>       0.00634921 </v>
   <v>       0.00634921 </v>
   <v>       0.00634921 </v>
   <v>       0.00634921 </v>
   <v>       0.00634921 </v>
   <v>       0.00634921 </v>
   <v>       0.00634921 </v>
   <v>       0.00634921 </v>
   <v>       0.00634921 </v>
   <v>       0.00634921 </v>
   <v>       0.00634921 </v>
   <v>       0.00634921 </v>
   <v>       0.00634921 </v>
   <v>       0.00634921 </v>
   <v>       0.00634921 </v>
   <v>       0.00634921 </v>
   <v>       0.00634921 </v>
   <v>       0.00634921 </v>
   <v>       0.00634921 </v>
   <v>       0.00634921 </v>
   <v>       0.00634921 </v>
   <v>       0.00634921 </v>
   <v>       0.00634921 </v>
   <v>       0.00634921 </v>
   <v>       0.00634921 </v>
   <v>       0.00634921 </v>
   <v>       0.00634921 </v>
   <v>       0.00634921 </v>
   <v>       0.00634921 </v>
   <v>       0.00634921 </v>
   <v>       0.00634921 </v>
   <v>       0.00634921 </v>
   <v>       0.00634921 </v>
   <v>       0.00634921 </v>
   <v>       0.00634921 </v>
   <v>       0.00634921 </v>
   <v>       0.00634921 </v>
   <v>       0.00634921 </v>
   <v>       0.00634921 </v>
   <v>       0.00634921 </v>
   <v>       0.00634921 </v>
   <v>       0.00634921 </v>
   <v>       0.00634921 </v>
   <v>       0.00634921 </v>
   <v>       0.00634921 </v>
   <v>       0.00634921 </v>
   <v>       0.00634921 </v>
   <v>       0.00634921 </v>
   <v>       0.00634921 </v>
   <v>       0.00634921 </v>
   <v>       0.00634921 </v>
   <v>       0.00634921 </v>
   <v>       0.00634921 </v>
   <v>       0.00634921 </v>
   <v>       0.00634921 </v>
   <v>       0.00634921 </v>
   <v>       0.00634921 </v>
   <v>       0.00634921 </v>
   <v>       0.00634921 </v>
   <v>       0.00634921 </v>
   <v>       0.00634921 </v>
   <v>       0.00634921 </v>
   <v>       0.00634921 </v>
   <v>       0.00634921 </v>
   <v>       0.00634921 </v>
   <v>       0.00634921 </v>
   <v>       0.00634921 </v>
   <v>       0.00634921 </v>
   <v>       0.00634921 </v>
   <v>       0.00634921 </v>
   <v>       0.00634921 </v>
   <v>       0.00634921 </v>
   <v>       0.00634921 </v>
   <v>       0.00634921 </v>
   <v>       0.00634921 </v>
   <v>       0.00634921 </v>
   <v>       0.00634921 </v>
   <v>       0.00634921 </v>
   <v>       0.00634921 </v>
   <v>       0.00634921 </v>
   <v>       0.00634921 </v>
   <v>       0.00634921 </v>
   <v>       0.00634921 </v>
   <v>       0.00634921 </v>
   <v>       0.00634921 </v>
   <v>       0.00634921 </v>
   <v>       0.00634921 </v>
   <v>       0.00634921 </v>
   <v>       0.00634921 </v>
   <v>       0.00634921 </v>
   <v>       0.00634921 </v>
   <v>       0.00634921 </v>
   <v>       0.00634921 </v>
   <v>       0.00634921 </v>
   <v>       0.00634921 </v>
   <v>       0.00634921 </v>
   <v>       0.00634921 </v>
   <v>       0.00634921 </v>
   <v>       0.00634921 </v>
  </varray>
 </kpoints>
 <parameters>
  <separator name="general" >
   <i type="string" name="SYSTEM">unknown system</i>
   <i type="logical" name="LCOMPAT"> F  </i>
  </separator>
  <separator name="electronic" >
   <i type="string" name="PREC">a</i>
   <i name="ENMAX">    520.00000000</i>
   <i name="ENAUG">    342.92400000</i>
   <i name="EDIFF">      0.00001000</i>
   <i type="int" name="IALGO">    38</i>
   <i type="int" name="IWAVPR">    11</i>
   <i type="int" name="NBANDS">    16</i>
   <i name="NELECT">     20.00000000</i>
   <i type="int" name="TURBO">     0</i>
   <i type="int" name="IRESTART">     0</i>
   <i type="int" name="NREBOOT">     0</i>
   <i type="int" name="NMIN">     0</i>
   <i name="EREF">      0.00000000</i>
   <separator name="electronic smearing" >
    <i type="int" name="ISMEAR">     0</i>
    <i name="SIGMA">      0.02000000</i>
    <i name="KSPACING">      0.50000000</i>
    <i type="logical" name="KGAMMA"> T  </i>
   </separator>
   <separator name="electronic projectors" >
    <i type="logical" name="LREAL"> F  </i>
    <v name="ROPT">      0.00000000</v>
    <i type="int" name="LMAXPAW">  -100</i>
    <i type="int" name="LMAXMIX">     2</i>
    <i type="logical" name="NLSPLINE"> F  </i>
   </separator>
   <separator name="electronic startup" >
    <i type="int" name="ISTART">     0</i>
    <i type="int" name="ICHARG">     2</i>
    <i type="int" name="INIWAV">     1</i>
   </separator>
   <separator name="electronic spin" >
    <i type="int" name="ISPIN">     1</i>
    <i type="logical" name="LNONCOLLINEAR"> F  </i>
    <v name="MAGMOM">      1.00000000      1.00000000      1.00000000      1.00000000</v>
    <i name="NUPDOWN">     -1.00000000</i>
    <i type="logical" name="LSORBIT"> F  </i>
    <v name="SAXIS">      0.00000000      0.00000000      1.00000000</v>
    <i type="logical" name="LSPIRAL"> F  </i>
    <v name="QSPIRAL">      0.00000000      0.00000000      0.00000000</v>
    <i type="logical" name="LZEROZ"> F  </i>
   </separator>
   <separator name="electronic exchange-correlation" >
    <i type="logical" name="LASPH"> F  </i>
    <i type="logical" name="LMETAGGA"> F  </i>
   </separator>
   <separator name="electronic convergence" >
    <i type="int" name="NELM">   250</i>
    <i type="int" name="NELMDL">    -5</i>
    <i type="int" name="NELMIN">     6</i>
    <i name="ENINI">    520.00000000</i>
    <separator name="electronic convergence detail" >
     <i type="logical" name="LDIAG"> T  </i>
     <i type="logical" name="LSUBROT"> F  </i>
     <i name="WEIMIN">      0.00100000</i>
     <i name="EBREAK">      0.00000016</i>
     <i name="DEPER">      0.30000000</i>
     <i type="int" name="NRMM">     4</i>
     <i name="TIME">      0.40000000</i>
    </separator>
   </separator>
   <separator name="electronic mixer" >
    <i name="AMIX">      0.40000000</i>
    <i name="BMIX">      1.00000000</i>
    <i name="AMIN">      0.10000000</i>
    <i name="AMIX_MAG">      1.60000000</i>
    <i name="BMIX_MAG">      1.00000000</i>
    <separator name="electronic mixer details" >
     <i type="int" name="IMIX">     4</i>
     <i type="logical" name="MIXFIRST"> F  </i>
     <i type="int" name="MAXMIX">   -45</i>
     <i name="WC">    100.00000000</i>
     <i type="int" name="INIMIX">     1</i>
     <i type="int" name="MIXPRE">     1</i>
     <i type="int" name="MREMOVE">     5</i>
    </separator>
   </separator>
   <separator name="electronic dipolcorrection" >
    <i type="logical" name="LDIPOL"> F  </i>
    <i type="logical" name="LMONO"> F  </i>
    <i type="int" name="IDIPOL">     0</i>
    <i name="EPSILON">      1.00000000</i>
    <v name="DIPOL">   -100.00000000   -100.00000000   -100.00000000</v>
    <i name="EFIELD">      0.00000000</i>
   </separator>
  </separator>
  <separator name="grids" >
   <i type="int" name="NGX">    28</i>
   <i type="int" name="NGY">    36</i>
   <i type="int" name="NGZ">   150</i>
   <i type="int" name="NGXF">    56</i>
   <i type="int" name="NGYF">    72</i>
   <i type="int" name="NGZF">   300</i>
   <i type="logical" name="ADDGRID"> F  </i>
  </separator>
  <separator name="ionic" >
   <i type="int" name="NSW">   200</i>
   <i type="int" name="IBRION">     2</i>
   <i type="int" name="ISIF">     2</i>
   <i name="PSTRESS">      0.00000000</i>
   <i name="EDIFFG">     -0.01000000</i>
   <i type="int" name="NFREE">     1</i>
   <i name="POTIM">      0.30000000</i>
   <i name="SMASS">     -3.00000000</i>
   <i name="SCALEE">      1.00000000</i>
  </separator>
  <separator name="ionic md" >
   <i name="TEBEG">      0.00010000</i>
   <i name="TEEND">      0.00010000</i>
   <i type="int" name="NBLOCK">     1</i>
   <i type="int" name="KBLOCK">   200</i>
   <i type="int" name="NPACO">   256</i>
   <i name="APACO">     16.00000000</i>
  </separator>
  <separator name="symmetry" >
   <i type="int" name="ISYM">     2</i>
   <i name="SYMPREC">      0.00001000</i>
  </separator>
  <separator name="dos" >
   <i type="logical" name="LORBIT"> F  </i>
   <v name="RWIGS">     -1.00000000</v>
   <i type="int" name="NEDOS">   301</i>
   <i name="EMIN">     10.00000000</i>
   <i name="EMAX">    -10.00000000</i>
   <i name="EFERMI">      0.00000000</i>
  </separator>
  <separator name="writing" >
   <i type="int" name="NWRITE">     2</i>
   <i type="logical" name="LWAVE"> F  </i>
   <i type="logical" name="LCHARG"> F  </i>
   <i type="logical" name="LPARD"> F  </i>
   <i type="logical" name="LVTOT"> F  </i>
   <i type="logical" name="LVHAR"> F  </i>
   <i type="logical" name="LELF"> F  </i>
   <i type="logical" name="LOPTICS"> F  </i>
   <v name="STM">      0.00000000      0.00000000      0.00000000      0.00000000      0.00000000      0.00000000      0.00000000</v>
  </separator>
  <separator name="performance" >
   <i type="int" name="NPAR">     4</i>
   <i type="int" name="NSIM">     4</i>
   <i type="int" name="NBLK">    -1</i>
   <i type="logical" name="LPLANE"> T  </i>
   <i type="logical" name="LSCALAPACK"> T  </i>
   <i type="logical" name="LSCAAWARE"> F  </i>
   <i type="logical" name="LSCALU"> F  </i>
   <i type="logical" name="LASYNC"> F  </i>
   <i type="logical" name="LORBITALREAL"> F  </i>
  </separator>
  <separator name="miscellaneous" >
   <i type="int" name="IDIOT">     3</i>
   <i type="logical" name="LMUSIC"> F  </i>
   <v name="POMASS">     30.97400000</v>
   <v name="DARWINR">      0.00000000</v>
   <v name="DARWINV">      1.00000000</v>
   <i type="logical" name="LCORR"> T  </i>
  </separator>
  <i type="logical" name="GGA_COMPAT"> T  </i>
  <i type="logical" name="LBERRY"> F  </i>
  <i type="int" name="ICORELEVEL">     0</i>
  <i type="logical" name="LDAU"> F  </i>
  <i type="int" name="I_CONSTRAINED_M">     0</i>
  <separator name="electronic exchange-correlation" >
   <i type="string" name="GGA">--</i>
   <i type="int" name="VOSKOWN">     0</i>
   <i type="logical" name="LHFCALC"> F  </i>
   <i type="string" name="PRECFOCK"></i>
   <i type="logical" name="LSYMGRAD"> F  </i>
   <i type="logical" name="LHFONE"> F  </i>
   <i type="logical" name="LRHFCALC"> F  </i>
   <i type="logical" name="LTHOMAS"> F  </i>
   <i type="logical" name="LMODELHF"> F  </i>
   <i name="ENCUT4O">     -1.00000000</i>
   <i type="int" name="EXXOEP">     0</i>
   <i type="int" name="FOURORBIT">     0</i>
   <i name="AEXX">      0.00000000</i>
   <i name="HFALPHA">      0.00000000</i>
   <i name="MCALPHA">      0.00000000</i>
   <i name="ALDAX">      1.00000000</i>
   <i name="AGGAX">      1.00000000</i>
   <i name="ALDAC">      1.00000000</i>
   <i name="AGGAC">      1.00000000</i>
   <i type="int" name="NKREDX">     1</i>
   <i type="int" name="NKREDY">     1</i>
   <i type="int" name="NKREDZ">     1</i>
   <i type="logical" name="SHIFTRED"> F  </i>
   <i type="logical" name="ODDONLY"> F  </i>
   <i type="logical" name="EVENONLY"> F  </i>
   <i type="int" name="LMAXFOCK">     0</i>
   <i type="int" name="NMAXFOCKAE">     0</i>
   <i type="logical" name="LFOCKAEDFT"> F  </i>
   <i name="HFSCREEN">      0.00000000</i>
   <i name="HFSCREENC">      0.00000000</i>
   <i type="int" name="NBANDSGWLOW">     0</i>
  </separator>
  <separator name="vdW DFT" >
   <i type="logical" name="LUSE_VDW"> F  </i>
   <i name="Zab_VDW">     -0.84910000</i>
   <i name="PARAM1">      0.12340000</i>
   <i name="PARAM2">      1.00000000</i>
   <i name="PARAM3">      0.00000000</i>
  </separator>
  <separator name="model GW" >
   <i type="int" name="MODEL_GW">     0</i>
   <i name="MODEL_EPS0">     46.12519069</i>
   <i name="MODEL_ALPHA">      1.00000000</i>
  </separator>
  <separator name="linear response parameters" >
   <i type="logical" name="LEPSILON"> F  </i>
   <i type="logical" name="LRPA"> F  </i>
   <i type="logical" name="LNABLA"> F  </i>
   <i type="logical" name="LVEL"> F  </i>
   <i type="int" name="KINTER">     0</i>
   <i name="CSHIFT">      0.10000000</i>
   <i name="OMEGAMAX">     -1.00000000</i>
   <i name="DEG_THRESHOLD">      0.00200000</i>
  </separator>
  <separator name="orbital magnetization" >
   <i type="logical" name="NUCIND"> F  </i>
   <v name="MAGPOS">      0.00000000      0.00000000      0.00000000</v>
   <i type="logical" name="LNICSALL"> T  </i>
   <i type="logical" name="ORBITALMAG"> F  </i>
   <i type="logical" name="LMAGBLOCH"> F  </i>
   <i type="logical" name="LCHIMAG"> F  </i>
   <i type="logical" name="LGAUGE"> T  </i>
   <i type="int" name="MAGATOM">     0</i>
   <v name="MAGDIPOL">      0.00000000      0.00000000      0.00000000</v>
   <v name="AVECCONST">      0.00000000      0.00000000      0.00000000</v>
  </separator>
  <separator name="response functions" >
   <i type="logical" name="LADDER"> F  </i>
   <i type="logical" name="LFXC"> F  </i>
   <i type="logical" name="LHARTREE"> T  </i>
   <i type="int" name="IBSE">     0</i>
   <v type="int" name="KPOINT">    -1     0     0     0</v>
   <i type="logical" name="LTCTE"> F  </i>
   <i type="logical" name="LTETE"> F  </i>
   <i type="logical" name="LTRIPLET"> F  </i>
   <i type="logical" name="LFXCEPS"> F  </i>
   <i type="logical" name="LFXHEG"> F  </i>
   <i type="int" name="NATURALO">     0</i>
   <i type="logical" name="L2ORDER"> F  </i>
   <i type="logical" name="LUSEW"> F  </i>
   <i name="ENCUTGW">     -2.00000000</i>
   <i name="ENCUTGWSOFT">     -2.00000000</i>
   <i name="ENCUTLF">     -1.00000000</i>
   <i type="int" name="LMAXMP2">    -1</i>
   <i name="SCISSOR">      0.00000000</i>
   <i type="int" name="NOMEGA">     0</i>
   <i type="int" name="NOMEGAR">     0</i>
   <i type="int" name="NBANDSGW">    -1</i>
   <i type="int" name="NBANDSO">    -1</i>
   <i type="int" name="NBANDSV">    -1</i>
   <i type="int" name="NELM">   250</i>
   <i type="int" name="NELMHF">     1</i>
   <i type="int" name="DIM">     3</i>
   <i type="int" name="ANTIRES">     0</i>
   <i name="OMEGAMAX">    -30.00000000</i>
   <i name="OMEGAMIN">    -30.00000000</i>
   <i name="OMEGATL">   -200.00000000</i>
   <i type="int" name="OMEGAGRID">     0</i>
   <i name="CSHIFT">     -0.10000000</i>
   <i type="logical" name="SELFENERGY"> F  </i>
   <i type="logical" name="LSPECTRAL"> F  </i>
   <i type="logical" name="LSPECTRALGW"> F  </i>
   <i type="logical" name="LSINGLES"> F  </i>
   <i type="logical" name="LFERMIGW"> F  </i>
   <i type="logical" name="ODDONLYGW"> F  </i>
   <i type="logical" name="EVENONLYGW"> F  </i>
   <i type="int" name="NKREDLFX">     1</i>
   <i type="int" name="NKREDLFY">     1</i>
   <i type="int" name="NKREDLFZ">     1</i>
   <i type="int" name="MAXMEM">  1800</i>
   <i type="int" name="TELESCOPE">     0</i>
   <i type="int" name="TAUPAR">     1</i>
   <i type="int" name="OMEGAPAR">    -1</i>
   <i name="LAMBDA">      1.00000000</i>
  </separator>
  <separator name="External order field" >
   <i name="OFIELD_KAPPA">      0.00000000</i>
   <v name="OFIELD_K">      0.00000000      0.00000000      0.00000000</v>
   <i name="OFIELD_Q6_NEAR">      0.00000000</i>
   <i name="OFIELD_Q6_FAR">      0.00000000</i>
   <i name="OFIELD_A">      0.00000000</i>
  </separator>
 </parameters>
 <atominfo>
  <atoms>       4 </atoms>
  <types>       1 </types>
  <array name="atoms" >
   <dimension dim="1">ion</dimension>
   <field type="string">element</field>
   <field type="int">atomtype</field>
   <set>
    <rc><c>P </c><c>   1</c></rc>
    <rc><c>P </c><c>   1</c></rc>
    <rc><c>P </c><c>   1</c></rc>
    <rc><c>P </c><c>   1</c></rc>
   </set>
  </array>
  <array name="atomtypes" >
   <dimension dim="1">type</dimension>
   <field type="int">atomspertype</field>
   <field type="string">element</field>
   <field>mass</field>
   <field>valence</field>
   <field type="string">pseudopotential</field>
   <set>
    <rc><c>   4</c><c>P </c><c>     30.97400000</c><c>      5.00000000</c><c>  PAW_PBE P 06Sep2000                   </c></rc>
   </set>
  </array>
 </atominfo>
 <structure name="initialpos" >
  <crystal>
   <varray name="basis" >
    <v>       3.32175000       0.02463800       0.00000000 </v>
    <v>       0.03454700       4.62322200      -0.00005300 </v>
    <v>       0.00000000       0.00000000      20.02439000 </v>
   </varray>
   <i name="volume">    307.50127124 </i>
   <varray name="rec_basis" >
    <v>       0.30106282      -0.00224969       0.00000000 </v>
    <v>      -0.00160442       0.21631136       0.00000000 </v>
    <v>      -0.00000000       0.00000057       0.04993910 </v>
   </varray>
  </crystal>
  <varray name="positions" >
   <v>       0.50000000       0.91077300       0.55252100 </v>
   <v>       0.50000000       0.08922700       0.44747900 </v>
   <v>       0.00000000       0.41076900       0.44747900 </v>
   <v>       0.00000000       0.58923100       0.55252100 </v>
  </varray>
 </structure>
 <calculation>
  <scstep>
   <time name="dav">    1.50    1.50</time>
   <time name="total">    1.53    1.53</time>
   <energy>
    <i name="alphaZ">      5.21676230 </i>
    <i name="ewald">   1845.57324808 </i>
    <i name="hartreedc">  -2439.47331974 </i>
    <i name="XCdc">     12.95846156 </i>
    <i name="pawpsdc">    559.04011960 </i>
    <i name="pawaedc">   -526.39432044 </i>
    <i name="eentropy">     -0.00047568 </i>
    <i name="bandstr">    -27.82695859 </i>
    <i name="atom">    704.16778566 </i>
    <i name="e_fr_energy">    133.26130276 </i>
    <i name="e_wo_entrp">    133.26177844 </i>
    <i name="e_0_energy">    133.26154060 </i>
   </energy>
  </scstep>
  <scstep>
   <time name="dav">    1.98    1.98</time>
   <time name="total">    1.98    1.99</time>
   <energy>
    <i name="e_fr_energy">     -6.08909424 </i>
    <i name="e_wo_entrp">     -6.08909424 </i>
    <i name="e_0_energy">     -6.08909424 </i>
   </energy>
  </scstep>
  <scstep>
   <time name="dav">    1.84    1.84</time>
   <time name="total">    1.84    1.84</time>
   <energy>
    <i name="e_fr_energy">    -21.33092626 </i>
    <i name="e_wo_entrp">    -21.33092626 </i>
    <i name="e_0_energy">    -21.33092626 </i>
   </energy>
  </scstep>
  <scstep>
   <time name="dav">    1.87    1.87</time>
   <time name="total">    1.87    1.87</time>
   <energy>
    <i name="e_fr_energy">    -21.64317239 </i>
    <i name="e_wo_entrp">    -21.64317239 </i>
    <i name="e_0_energy">    -21.64317239 </i>
   </energy>
  </scstep>
  <scstep>
   <time name="dav">    2.01    2.01</time>
   <time name="total">    2.10    2.10</time>
   <energy>
    <i name="e_fr_energy">    -21.65371516 </i>
    <i name="e_wo_entrp">    -21.65371516 </i>
    <i name="e_0_energy">    -21.65371516 </i>
   </energy>
  </scstep>
  <scstep>
   <time name="dav">    1.81    1.81</time>
   <time name="total">    1.93    1.93</time>
   <energy>
    <i name="e_fr_energy">    -21.51567599 </i>
    <i name="e_wo_entrp">    -21.51567599 </i>
    <i name="e_0_energy">    -21.51567599 </i>
   </energy>
  </scstep>
  <scstep>
   <time name="dav">    1.75    1.75</time>
   <time name="total">    1.86    1.86</time>
   <energy>
    <i name="e_fr_energy">    -21.44923263 </i>
    <i name="e_wo_entrp">    -21.44923263 </i>
    <i name="e_0_energy">    -21.44923263 </i>
   </energy>
  </scstep>
  <scstep>
   <time name="dav">    1.80    1.81</time>
   <time name="total">    1.92    1.92</time>
   <energy>
    <i name="e_fr_energy">    -21.44872608 </i>
    <i name="e_wo_entrp">    -21.44872608 </i>
    <i name="e_0_energy">    -21.44872608 </i>
   </energy>
  </scstep>
  <scstep>
   <time name="dav">    2.14    2.14</time>
   <time name="total">    2.25    2.25</time>
   <energy>
    <i name="e_fr_energy">    -21.44858284 </i>
    <i name="e_wo_entrp">    -21.44858284 </i>
    <i name="e_0_energy">    -21.44858284 </i>
   </energy>
  </scstep>
  <scstep>
   <time name="dav">    1.82    1.82</time>
   <time name="total">    1.93    1.93</time>
   <energy>
    <i name="e_fr_energy">    -21.44843713 </i>
    <i name="e_wo_entrp">    -21.44843713 </i>
    <i name="e_0_energy">    -21.44843713 </i>
   </energy>
  </scstep>
  <scstep>
   <time name="dav">    1.82    1.82</time>
   <time name="total">    1.93    1.93</time>
   <energy>
    <i name="e_fr_energy">    -21.44835036 </i>
    <i name="e_wo_entrp">    -21.44835036 </i>
    <i name="e_0_energy">    -21.44835036 </i>
   </energy>
  </scstep>
  <scstep>
   <time name="dav">    1.63    1.63</time>
   <time name="total">    1.74    1.75</time>
   <energy>
    <i name="e_fr_energy">    -21.44873720 </i>
    <i name="e_wo_entrp">    -21.44873720 </i>
    <i name="e_0_energy">    -21.44873720 </i>
   </energy>
  </scstep>
  <scstep>
   <time name="dav">    1.63    1.63</time>
   <time name="total">    1.74    1.74</time>
   <energy>
    <i name="e_fr_energy">    -21.44882960 </i>
    <i name="e_wo_entrp">    -21.44882960 </i>
    <i name="e_0_energy">    -21.44882960 </i>
   </energy>
  </scstep>
  <scstep>
   <time name="dav">    1.50    1.50</time>
   <time name="total">    1.61    1.61</time>
   <energy>
    <i name="e_fr_energy">    -21.44895573 </i>
    <i name="e_wo_entrp">    -21.44895573 </i>
    <i name="e_0_energy">    -21.44895573 </i>
   </energy>
  </scstep>
  <scstep>
   <time name="dav">    1.55    1.56</time>
   <time name="total">    1.67    1.67</time>
   <energy>
    <i name="e_fr_energy">    -21.44899053 </i>
    <i name="e_wo_entrp">    -21.44899053 </i>
    <i name="e_0_energy">    -21.44899053 </i>
   </energy>
  </scstep>
  <scstep>
   <time name="dav">    1.48    1.48</time>
   <time name="total">    1.59    1.59</time>
   <energy>
    <i name="e_fr_energy">    -21.44902028 </i>
    <i name="e_wo_entrp">    -21.44902028 </i>
    <i name="e_0_energy">    -21.44902028 </i>
   </energy>
  </scstep>
  <scstep>
   <time name="dav">    1.47    1.48</time>
   <time name="total">    1.50    1.50</time>
   <energy>
    <i name="alphaZ">      5.21676230 </i>
    <i name="ewald">   1845.57324808 </i>
    <i name="hartreedc">  -2454.49097551 </i>
    <i name="XCdc">     14.01393825 </i>
    <i name="pawpsdc">   2070.47714464 </i>
    <i name="pawaedc">  -2038.15884916 </i>
    <i name="eentropy">     -0.00000000 </i>
    <i name="bandstr">   -168.24807702 </i>
    <i name="atom">    704.16778566 </i>
    <i name="e_fr_energy">    -21.44902276 </i>
    <i name="e_wo_entrp">    -21.44902276 </i>
    <i name="e_0_energy">    -21.44902276 </i>
   </energy>
  </scstep>
  <structure>
   <crystal>
    <varray name="basis" >
     <v>       3.32175000       0.02463800       0.00000000 </v>
     <v>       0.03454700       4.62322200      -0.00005300 </v>
     <v>       0.00000000       0.00000000      20.02439000 </v>
    </varray>
    <i name="volume">    307.50127124 </i>
    <varray name="rec_basis" >
     <v>       0.30106282      -0.00224969       0.00000000 </v>
     <v>      -0.00160442       0.21631136       0.00000000 </v>
     <v>      -0.00000000       0.00000057       0.04993910 </v>
    </varray>
   </crystal>
   <varray name="positions" >
    <v>       0.50000000       0.91077300       0.55252100 </v>
    <v>       0.50000000       0.08922700       0.44747900 </v>
    <v>       0.00000000       0.41076900       0.44747900 </v>
    <v>       0.00000000       0.58923100       0.55252100 </v>
   </varray>
  </structure>
  <varray name="forces" >
   <v>      -0.18394499      -0.01840107      -0.01290851 </v>
   <v>       0.18394499       0.01840107       0.01290851 </v>
   <v>      -0.18394378      -0.01843277       0.01291177 </v>
   <v>       0.18394378       0.01843277      -0.01291177 </v>
  </varray>
  <varray name="stress" >
   <v>      -3.61088268      -4.08954880       0.00002997 </v>
   <v>      -4.08954878      -0.94438479       0.00035771 </v>
   <v>       0.00002992       0.00035773      -0.34727253 </v>
  </varray>
  <energy>
   <i name="e_fr_energy">    -21.44902276 </i>
   <i name="e_wo_entrp">    -21.44902276 </i>
   <i name="e_0_energy">     -0.00000000 </i>
  </energy>
  <time name="totalsc">   31.75   31.80</time>
 </calculation>
 <calculation>
  <scstep>
   <time name="dav">    1.55    1.55</time>
   <time name="total">    1.66    1.67</time>
   <energy>
    <i name="alphaZ">      5.21676230 </i>
    <i name="ewald">   1845.96528610 </i>
    <i name="hartreedc">  -2454.86420539 </i>
    <i name="XCdc">     14.01805035 </i>
    <i name="pawpsdc">   2070.19225734 </i>
    <i name="pawaedc">  -2037.87400525 </i>
    <i name="eentropy">     -0.00000000 </i>
    <i name="bandstr">   -168.27347969 </i>
    <i name="atom">    704.16778566 </i>
    <i name="e_fr_energy">    -21.45154858 </i>
    <i name="e_wo_entrp">    -21.45154858 </i>
    <i name="e_0_energy">    -21.45154858 </i>
   </energy>
  </scstep>
  <scstep>
   <time name="dav">    1.86    1.86</time>
   <time name="total">    1.97    1.98</time>
   <energy>
    <i name="e_fr_energy">    -21.45191467 </i>
    <i name="e_wo_entrp">    -21.45191467 </i>
    <i name="e_0_energy">    -21.45191467 </i>
   </energy>
  </scstep>
  <scstep>
   <time name="dav">    1.95    1.95</time>
   <time name="total">    2.06    2.06</time>
   <energy>
    <i name="e_fr_energy">    -21.45189615 </i>
    <i name="e_wo_entrp">    -21.45189615 </i>
    <i name="e_0_energy">    -21.45189615 </i>
   </energy>
  </scstep>
  <scstep>
   <time name="dav">    1.63    1.63</time>
   <time name="total">    1.74    1.74</time>
   <energy>
    <i name="e_fr_energy">    -21.45189319 </i>
    <i name="e_wo_entrp">    -21.45189319 </i>
    <i name="e_0_energy">    -21.45189319 </i>
   </energy>
  </scstep>
  <scstep>
   <time name="dav">    1.27    1.27</time>
   <time name="total">    1.38    1.38</time>
   <energy>
    <i name="e_fr_energy">    -21.45189472 </i>
    <i name="e_wo_entrp">    -21.45189472 </i>
    <i name="e_0_energy">    -21.45189472 </i>
   </energy>
  </scstep>
  <scstep>
   <time name="dav">    1.25    1.25</time>
   <time name="total">    1.27    1.28</time>
   <energy>
    <i name="alphaZ">      5.21676230 </i>
    <i name="ewald">   1845.96528610 </i>
    <i name="hartreedc">  -2454.86698007 </i>
    <i name="XCdc">     14.01810542 </i>
    <i name="pawpsdc">   2071.96641445 </i>
    <i name="pawaedc">  -2039.64870351 </i>
    <i name="eentropy">     -0.00000000 </i>
    <i name="bandstr">   -168.27056580 </i>
    <i name="atom">    704.16778566 </i>
    <i name="e_fr_energy">    -21.45189543 </i>
    <i name="e_wo_entrp">    -21.45189543 </i>
    <i name="e_0_energy">    -21.45189543 </i>
   </energy>
  </scstep>
  <structure>
   <crystal>
    <varray name="basis" >
     <v>       3.32175000       0.02463800       0.00000000 </v>
     <v>       0.03454700       4.62322200      -0.00005300 </v>
     <v>       0.00000000       0.00000000      20.02439000 </v>
    </varray>
    <i name="volume">    307.50127124 </i>
    <varray name="rec_basis" >
     <v>       0.30106282      -0.00224969       0.00000000 </v>
     <v>      -0.00160442       0.21631136       0.00000000 </v>
     <v>      -0.00000000       0.00000057       0.04993910 </v>
    </varray>
   </crystal>
   <varray name="positions" >
    <v>       0.49839822       0.91066633       0.55250234 </v>
    <v>       0.50160178       0.08933367       0.44749766 </v>
    <v>      -0.00160177       0.41066213       0.44749766 </v>
    <v>       0.00160177       0.58933787       0.55250234 </v>
   </varray>
  </structure>
  <varray name="forces" >
   <v>      -0.07922701      -0.01349488      -0.00954712 </v>
   <v>       0.07922701       0.01349488       0.00954712 </v>
   <v>      -0.07922571      -0.01352134       0.00954820 </v>
   <v>       0.07922571       0.01352134      -0.00954820 </v>
  </varray>
  <varray name="stress" >
   <v>      -3.64869675      -2.71622918       0.00001524 </v>
   <v>      -2.71622912      -0.83506116       0.00029712 </v>
   <v>       0.00001526       0.00029717      -0.28329907 </v>
  </varray>
  <energy>
   <i name="e_fr_energy">    -21.45189543 </i>
   <i name="e_wo_entrp">    -21.45189543 </i>
   <i name="e_0_energy">     -0.00000000 </i>
  </energy>
  <time name="totalsc">   10.87   10.89</time>
 </calculation>
 <calculation>
  <scstep>
   <time name="dav">    1.55    1.55</time>
   <time name="total">    1.66    1.66</time>
   <energy>
    <i name="alphaZ">      5.21676230 </i>
    <i name="ewald">   1846.27435461 </i>
    <i name="hartreedc">  -2455.14811866 </i>
    <i name="XCdc">     14.02134476 </i>
    <i name="pawpsdc">   2071.98187507 </i>
    <i name="pawaedc">  -2039.66415955 </i>
    <i name="eentropy">     -0.00000000 </i>
    <i name="bandstr">   -168.30220180 </i>
    <i name="atom">    704.16778566 </i>
    <i name="e_fr_energy">    -21.45235761 </i>
    <i name="e_wo_entrp">    -21.45235761 </i>
    <i name="e_0_energy">    -21.45235761 </i>
   </energy>
  </scstep>
  <scstep>
   <time name="dav">    1.83    1.83</time>
   <time name="total">    1.95    1.95</time>
   <energy>
    <i name="e_fr_energy">    -21.45257628 </i>
    <i name="e_wo_entrp">    -21.45257628 </i>
    <i name="e_0_energy">    -21.45257628 </i>
   </energy>
  </scstep>
  <scstep>
   <time name="dav">    1.96    1.96</time>
   <time name="total">    2.07    2.07</time>
   <energy>
    <i name="e_fr_energy">    -21.45256475 </i>
    <i name="e_wo_entrp">    -21.45256475 </i>
    <i name="e_0_energy">    -21.45256475 </i>
   </energy>
  </scstep>
  <scstep>
   <time name="dav">    1.38    1.38</time>
   <time name="total">    1.49    1.49</time>
   <energy>
    <i name="e_fr_energy">    -21.45256235 </i>
    <i name="e_wo_entrp">    -21.45256235 </i>
    <i name="e_0_energy">    -21.45256235 </i>
   </energy>
  </scstep>
  <scstep>
   <time name="dav">    1.20    1.20</time>
   <time name="total">    1.32    1.32</time>
   <energy>
    <i name="e_fr_energy">    -21.45256293 </i>
    <i name="e_wo_entrp">    -21.45256293 </i>
    <i name="e_0_energy">    -21.45256293 </i>
   </energy>
  </scstep>
  <scstep>
   <time name="dav">    1.17    1.17</time>
   <time name="total">    1.19    1.19</time>
   <energy>
    <i name="alphaZ">      5.21676230 </i>
    <i name="ewald">   1846.27435461 </i>
    <i name="hartreedc">  -2455.14868687 </i>
    <i name="XCdc">     14.02150781 </i>
    <i name="pawpsdc">   2073.64566180 </i>
    <i name="pawaedc">  -2041.32850726 </i>
    <i name="eentropy">     -0.00000000 </i>
    <i name="bandstr">   -168.30144117 </i>
    <i name="atom">    704.16778566 </i>
    <i name="e_fr_energy">    -21.45256311 </i>
    <i name="e_wo_entrp">    -21.45256311 </i>
    <i name="e_0_energy">    -21.45256311 </i>
   </energy>
  </scstep>
  <structure>
   <crystal>
    <varray name="basis" >
     <v>       3.32175000       0.02463800       0.00000000 </v>
     <v>       0.03454700       4.62322200      -0.00005300 </v>
     <v>       0.00000000       0.00000000      20.02439000 </v>
    </varray>
    <i name="volume">    307.50127124 </i>
    <varray name="rec_basis" >
     <v>       0.30106282      -0.00224969       0.00000000 </v>
     <v>      -0.00160442       0.21631136       0.00000000 </v>
     <v>      -0.00000000       0.00000057       0.04993910 </v>
    </varray>
   </crystal>
   <varray name="positions" >
    <v>       0.49716400       0.91058414       0.55248796 </v>
    <v>       0.50283600       0.08941586       0.44751204 </v>
    <v>      -0.00283598       0.41057978       0.44751204 </v>
    <v>       0.00283598       0.58942022       0.55248796 </v>
   </varray>
  </structure>
  <varray name="forces" >
   <v>       0.00159401      -0.00761688      -0.00711044 </v>
   <v>      -0.00159401       0.00761688       0.00711044 </v>
   <v>       0.00159507      -0.00763938       0.00711002 </v>
   <v>      -0.00159507       0.00763938      -0.00711002 </v>
  </varray>
  <varray name="stress" >
   <v>      -3.65232284      -1.65941601       0.00000610 </v>
   <v>      -1.65941603      -0.71468042       0.00025188 </v>
   <v>       0.00000607       0.00025187      -0.22939552 </v>
  </varray>
  <energy>
   <i name="e_fr_energy">    -21.45256311 </i>
   <i name="e_wo_entrp">    -21.45256311 </i>
   <i name="e_0_energy">     -0.00000000 </i>
  </energy>
  <time name="totalsc">   10.45   10.47</time>
 </calculation>
 <calculation>
  <scstep>
   <time name="dav">    1.20    1.20</time>
   <time name="total">    1.31    1.31</time>
   <energy>
    <i name="alphaZ">      5.21676230 </i>
    <i name="ewald">   1846.27308536 </i>
    <i name="hartreedc">  -2455.14679610 </i>
    <i name="XCdc">     14.02148312 </i>
    <i name="pawpsdc">   2073.66391655 </i>
    <i name="pawaedc">  -2041.34675840 </i>
    <i name="eentropy">     -0.00000000 </i>
    <i name="bandstr">   -168.30204176 </i>
    <i name="atom">    704.16778566 </i>
    <i name="e_fr_energy">    -21.45256326 </i>
    <i name="e_wo_entrp">    -21.45256326 </i>
    <i name="e_0_energy">    -21.45256326 </i>
   </energy>
  </scstep>
  <scstep>
   <time name="dav">    1.12    1.12</time>
   <time name="total">    1.23    1.23</time>
   <energy>
    <i name="e_fr_energy">    -21.45256333 </i>
    <i name="e_wo_entrp">    -21.45256333 </i>
    <i name="e_0_energy">    -21.45256333 </i>
   </energy>
  </scstep>
  <scstep>
   <time name="dav">    1.06    1.06</time>
   <time name="total">    1.17    1.17</time>
   <energy>
    <i name="e_fr_energy">    -21.45256334 </i>
    <i name="e_wo_entrp">    -21.45256334 </i>
    <i name="e_0_energy">    -21.45256334 </i>
   </energy>
  </scstep>
  <scstep>
   <time name="dav">    1.13    1.13</time>
   <time name="total">    1.24    1.24</time>
   <energy>
    <i name="e_fr_energy">    -21.45256341 </i>
    <i name="e_wo_entrp">    -21.45256341 </i>
    <i name="e_0_energy">    -21.45256341 </i>
   </energy>
  </scstep>
  <scstep>
   <time name="dav">    1.11    1.11</time>
   <time name="total">    1.22    1.23</time>
   <energy>
    <i name="e_fr_energy">    -21.45256345 </i>
    <i name="e_wo_entrp">    -21.45256345 </i>
    <i name="e_0_energy">    -21.45256345 </i>
   </energy>
  </scstep>
  <scstep>
   <time name="dav">    1.05    1.05</time>
   <time name="total">    1.07    1.07</time>
   <energy>
    <i name="alphaZ">      5.21676230 </i>
    <i name="ewald">   1846.27308536 </i>
    <i name="hartreedc">  -2455.14630654 </i>
    <i name="XCdc">     14.02147143 </i>
    <i name="pawpsdc">   2073.66438231 </i>
    <i name="pawaedc">  -2041.34721911 </i>
    <i name="eentropy">     -0.00000000 </i>
    <i name="bandstr">   -168.30252487 </i>
    <i name="atom">    704.16778566 </i>
    <i name="e_fr_energy">    -21.45256344 </i>
    <i name="e_wo_entrp">    -21.45256344 </i>
    <i name="e_0_energy">    -21.45256344 </i>
   </energy>
  </scstep>
  <structure>
   <crystal>
    <varray name="basis" >
     <v>       3.32175000       0.02463800       0.00000000 </v>
     <v>       0.03454700       4.62322200      -0.00005300 </v>
     <v>       0.00000000       0.00000000      20.02439000 </v>
    </varray>
    <i name="volume">    307.50127124 </i>
    <varray name="rec_basis" >
     <v>       0.30106282      -0.00224969       0.00000000 </v>
     <v>      -0.00160442       0.21631136       0.00000000 </v>
     <v>      -0.00000000       0.00000057       0.04993910 </v>
    </varray>
   </crystal>
   <varray name="positions" >
    <v>       0.49716902       0.91058447       0.55248802 </v>
    <v>       0.50283098       0.08941553       0.44751198 </v>
    <v>      -0.00283096       0.41058012       0.44751199 </v>
    <v>       0.00283096       0.58941988       0.55248801 </v>
   </varray>
  </structure>
  <varray name="forces" >
   <v>       0.00131592      -0.00764434      -0.00712873 </v>
   <v>      -0.00131592       0.00764434       0.00712873 </v>
   <v>       0.00131696      -0.00766686       0.00712827 </v>
   <v>      -0.00131696       0.00766686      -0.00712827 </v>
  </varray>
  <varray name="stress" >
   <v>      -3.65207591      -1.66762510       0.00000611 </v>
   <v>      -1.66762507      -0.71484755       0.00025228 </v>
   <v>       0.00000614       0.00025220      -0.22775305 </v>
  </varray>
  <energy>
   <i name="e_fr_energy">    -21.45256344 </i>
   <i name="e_wo_entrp">    -21.45256344 </i>
   <i name="e_0_energy">     -0.00000000 </i>
  </energy>
  <time name="totalsc">    8.02    8.04</time>
 </calculation>
 <calculation>
  <scstep>
   <time name="dav">    1.48    1.48</time>
   <time name="total">    1.59    1.59</time>
   <energy>
    <i name="alphaZ">      5.21676230 </i>
    <i name="ewald">   1846.53043300 </i>
    <i name="hartreedc">  -2455.37898952 </i>
    <i name="XCdc">     14.02413222 </i>
    <i name="pawpsdc">   2073.66497153 </i>
    <i name="pawaedc">  -2041.34780809 </i>
    <i name="eentropy">     -0.00000000 </i>
    <i name="bandstr">   -168.32985985 </i>
    <i name="atom">    704.16778566 </i>
    <i name="e_fr_energy">    -21.45257274 </i>
    <i name="e_wo_entrp">    -21.45257274 </i>
    <i name="e_0_energy">    -21.45257274 </i>
   </energy>
  </scstep>
  <scstep>
   <time name="dav">    1.41    1.41</time>
   <time name="total">    1.52    1.53</time>
   <energy>
    <i name="e_fr_energy">    -21.45257465 </i>
    <i name="e_wo_entrp">    -21.45257465 </i>
    <i name="e_0_energy">    -21.45257465 </i>
   </energy>
  </scstep>
  <scstep>
   <time name="dav">    1.09    1.09</time>
   <time name="total">    1.20    1.20</time>
   <energy>
    <i name="e_fr_energy">    -21.45257495 </i>
    <i name="e_wo_entrp">    -21.45257495 </i>
    <i name="e_0_energy">    -21.45257495 </i>
   </energy>
  </scstep>
  <scstep>
   <time name="dav">    1.10    1.10</time>
   <time name="total">    1.21    1.21</time>
   <energy>
    <i name="e_fr_energy">    -21.45257513 </i>
    <i name="e_wo_entrp">    -21.45257513 </i>
    <i name="e_0_energy">    -21.45257513 </i>
   </energy>
  </scstep>
  <scstep>
   <time name="dav">    1.12    1.12</time>
   <time name="total">    1.23    1.23</time>
   <energy>
    <i name="e_fr_energy">    -21.45257523 </i>
    <i name="e_wo_entrp">    -21.45257523 </i>
    <i name="e_0_energy">    -21.45257523 </i>
   </energy>
  </scstep>
  <scstep>
   <time name="dav">    1.08    1.08</time>
   <time name="total">    1.10    1.10</time>
   <energy>
    <i name="alphaZ">      5.21676230 </i>
    <i name="ewald">   1846.53043300 </i>
    <i name="hartreedc">  -2455.37872536 </i>
    <i name="XCdc">     14.02435422 </i>
    <i name="pawpsdc">   2075.06791319 </i>
    <i name="pawaedc">  -2042.75130035 </i>
    <i name="eentropy">     -0.00000000 </i>
    <i name="bandstr">   -168.32979790 </i>
    <i name="atom">    704.16778566 </i>
    <i name="e_fr_energy">    -21.45257523 </i>
    <i name="e_wo_entrp">    -21.45257523 </i>
    <i name="e_0_energy">    -21.45257523 </i>
   </energy>
  </scstep>
  <structure>
   <crystal>
    <varray name="basis" >
     <v>       3.32175000       0.02463800       0.00000000 </v>
     <v>       0.03454700       4.62322200      -0.00005300 </v>
     <v>       0.00000000       0.00000000      20.02439000 </v>
    </varray>
    <i name="volume">    307.50127124 </i>
    <varray name="rec_basis" >
     <v>       0.30106282      -0.00224969       0.00000000 </v>
     <v>      -0.00160442       0.21631136       0.00000000 </v>
     <v>      -0.00000000       0.00000057       0.04993910 </v>
    </varray>
   </crystal>
   <varray name="positions" >
    <v>       0.49717635       0.91052876       0.55247606 </v>
    <v>       0.50282365       0.08947124       0.44752394 </v>
    <v>      -0.00282362       0.41052424       0.44752395 </v>
    <v>       0.00282362       0.58947576       0.55247605 </v>
   </varray>
  </structure>
  <varray name="forces" >
   <v>       0.00075099      -0.00276352      -0.00438711 </v>
   <v>      -0.00075099       0.00276352       0.00438711 </v>
   <v>       0.00075186      -0.00278162       0.00438658 </v>
   <v>      -0.00075186       0.00278162      -0.00438658 </v>
  </varray>
  <varray name="stress" >
   <v>      -3.62333061      -1.67659793       0.00000791 </v>
   <v>      -1.67659791      -0.62640976       0.00020491 </v>
   <v>       0.00000787       0.00020489      -0.16927777 </v>
  </varray>
  <energy>
   <i name="e_fr_energy">    -21.45257523 </i>
   <i name="e_wo_entrp">    -21.45257523 </i>
   <i name="e_0_energy">     -0.00000000 </i>
  </energy>
  <time name="totalsc">    8.56    8.58</time>
  <eigenvalues>
   <array>
    <dimension dim="1">band</dimension>
    <dimension dim="2">kpoint</dimension>
    <dimension dim="3">spin</dimension>
    <field>eigene</field>
    <field>occ</field>
    <set>
     <set comment="spin 1">
      <set comment="kpoint 1">
       <r>  -17.2029    1.0000 </r>
       <r>  -14.7340    1.0000 </r>
       <r>  -11.4653    1.0000 </r>
       <r>   -7.9169    1.0000 </r>
       <r>   -6.9890    1.0000 </r>
       <r>   -6.7458    1.0000 </r>
       <r>   -5.6864    1.0000 </r>
       <r>   -4.1042    1.0000 </r>
       <r>   -3.9055    1.0000 </r>
       <r>   -2.2966    1.0000 </r>
       <r>   -1.3537    0.0000 </r>
       <r>   -0.7391    0.0000 </r>
       <r>    0.2579    0.0000 </r>
       <r>    0.9469    0.0000 </r>
       <r>    2.1323    0.0000 </r>
       <r>    2.2869    0.0000 </r>
      </set>
      <set comment="kpoint 2">
       <r>  -17.1764    1.0000 </r>
       <r>  -14.7063    1.0000 </r>
       <r>  -11.4759    1.0000 </r>
       <r>   -7.8968    1.0000 </r>
       <r>   -7.0108    1.0000 </r>
       <r>   -6.7225    1.0000 </r>
       <r>   -5.8534    1.0000 </r>
       <r>   -4.2790    1.0000 </r>
       <r>   -3.8954    1.0000 </r>
       <r>   -2.2981    1.0000 </r>
       <r>   -1.3289    0.0000 </r>
       <r>   -0.5026    0.0000 </r>
       <r>    0.4820    0.0000 </r>
       <r>    0.7982    0.0000 </r>
       <r>    2.1599    0.0000 </r>
       <r>    2.3166    0.0000 </r>
      </set>
      <set comment="kpoint 3">
       <r>  -17.0968    1.0000 </r>
       <r>  -14.6230    1.0000 </r>
       <r>  -11.5132    1.0000 </r>
       <r>   -7.8373    1.0000 </r>
       <r>   -7.0967    1.0000 </r>
       <r>   -6.6531    1.0000 </r>
       <r>   -6.2613    1.0000 </r>
       <r>   -4.6795    1.0000 </r>
       <r>   -3.8686    1.0000 </r>
       <r>   -2.3209    1.0000 </r>
       <r>   -1.2550    0.0000 </r>
       <r>    0.1327    0.0000 </r>
       <r>    0.3718    0.0000 </r>
       <r>    1.0886    0.0000 </r>
       <r>    2.2379    0.0000 </r>
       <r>    2.4054    0.0000 </r>
      </set>
      <set comment="kpoint 4">
       <r>  -16.9646    1.0000 </r>
       <r>  -14.4844    1.0000 </r>
       <r>  -11.5929    1.0000 </r>
       <r>   -7.7408    1.0000 </r>
       <r>   -7.3070    1.0000 </r>
       <r>   -6.7502    1.0000 </r>
       <r>   -6.5358    1.0000 </r>
       <r>   -5.0804    1.0000 </r>
       <r>   -3.8371    1.0000 </r>
       <r>   -2.3852    1.0000 </r>
       <r>   -1.1331    0.0000 </r>
       <r>   -0.1141    0.0000 </r>
       <r>    1.0229    0.0000 </r>
       <r>    1.7017    0.0000 </r>
       <r>    2.2999    0.0000 </r>
       <r>    2.5530    0.0000 </r>
      </set>
      <set comment="kpoint 5">
       <r>  -16.7804    1.0000 </r>
       <r>  -14.2907    1.0000 </r>
       <r>  -11.7390    1.0000 </r>
       <r>   -7.7018    1.0000 </r>
       <r>   -7.6120    1.0000 </r>
       <r>   -7.1921    1.0000 </r>
       <r>   -6.3795    1.0000 </r>
       <r>   -5.3227    1.0000 </r>
       <r>   -3.8239    1.0000 </r>
       <r>   -2.5014    1.0000 </r>
       <r>   -0.9666    0.0000 </r>
       <r>   -0.5831    0.0000 </r>
       <r>    1.7497    0.0000 </r>
       <r>    1.9043    0.0000 </r>
       <r>    2.0249    0.0000 </r>
       <r>    2.6737    0.0000 </r>
      </set>
      <set comment="kpoint 6">
       <r>  -16.5452    1.0000 </r>
       <r>  -14.0425    1.0000 </r>
       <r>  -11.9747    1.0000 </r>
       <r>   -8.2593    1.0000 </r>
       <r>   -7.5185    1.0000 </r>
       <r>   -7.4591    1.0000 </r>
       <r>   -6.1838    1.0000 </r>
       <r>   -5.3829    1.0000 </r>
       <r>   -3.8623    1.0000 </r>
       <r>   -2.6772    1.0000 </r>
       <r>   -0.9443    0.0000 </r>
       <r>   -0.7631    0.0000 </r>
       <r>    1.2107    0.0000 </r>
       <r>    1.3382    0.0000 </r>
       <r>    2.5153    0.0000 </r>
       <r>    2.9237    0.0000 </r>
      </set>
      <set comment="kpoint 7">
       <r>  -16.2603    1.0000 </r>
       <r>  -13.7403    1.0000 </r>
       <r>  -12.3085    1.0000 </r>
       <r>   -8.9020    1.0000 </r>
       <r>   -7.6965    1.0000 </r>
       <r>   -7.2963    1.0000 </r>
       <r>   -5.9563    1.0000 </r>
       <r>   -5.3224    1.0000 </r>
       <r>   -3.9783    1.0000 </r>
       <r>   -2.9145    1.0000 </r>
       <r>   -1.1331    0.0000 </r>
       <r>   -0.5463    0.0000 </r>
       <r>    0.5825    0.0000 </r>
       <r>    0.8111    0.0000 </r>
       <r>    2.1022    0.0000 </r>
       <r>    3.2601    0.0000 </r>
      </set>
      <set comment="kpoint 8">
       <r>  -15.9278    1.0000 </r>
       <r>  -13.3850    1.0000 </r>
       <r>  -12.7259    1.0000 </r>
       <r>   -9.5694    1.0000 </r>
       <r>   -7.7304    1.0000 </r>
       <r>   -7.1472    1.0000 </r>
       <r>   -5.7076    1.0000 </r>
       <r>   -5.2030    1.0000 </r>
       <r>   -4.1542    1.0000 </r>
       <r>   -3.2038    1.0000 </r>
       <r>   -1.1307    0.0000 </r>
       <r>   -0.4150    0.0000 </r>
       <r>   -0.0017    0.0000 </r>
       <r>    0.4589    0.0000 </r>
       <r>    1.6071    0.0000 </r>
       <r>    2.9764    0.0000 </r>
      </set>
      <set comment="kpoint 9">
       <r>  -15.5503    1.0000 </r>
       <r>  -13.2002    1.0000 </r>
       <r>  -12.9756    1.0000 </r>
       <r>  -10.2283    1.0000 </r>
       <r>   -7.6491    1.0000 </r>
       <r>   -7.0479    1.0000 </r>
       <r>   -5.4548    1.0000 </r>
       <r>   -5.0736    1.0000 </r>
       <r>   -4.3201    1.0000 </r>
       <r>   -3.5240    1.0000 </r>
       <r>   -0.9666    0.0000 </r>
       <r>   -0.5653    0.0000 </r>
       <r>   -0.4896    0.0000 </r>
       <r>    0.5039    0.0000 </r>
       <r>    1.1064    0.0000 </r>
       <r>    2.5714    0.0000 </r>
      </set>
      <set comment="kpoint 10">
       <r>  -15.1316    1.0000 </r>
       <r>  -13.6967    1.0000 </r>
       <r>  -12.5180    1.0000 </r>
       <r>  -10.8608    1.0000 </r>
       <r>   -7.4918    1.0000 </r>
       <r>   -7.0385    1.0000 </r>
       <r>   -5.2238    1.0000 </r>
       <r>   -4.9798    1.0000 </r>
       <r>   -4.3919    1.0000 </r>
       <r>   -3.8442    1.0000 </r>
       <r>   -0.8560    0.0000 </r>
       <r>   -0.8341    0.0000 </r>
       <r>   -0.6662    0.0000 </r>
       <r>    0.6028    0.0000 </r>
       <r>    0.8217    0.0000 </r>
       <r>    2.1205    0.0000 </r>
      </set>
      <set comment="kpoint 11">
       <r>  -14.6772    1.0000 </r>
       <r>  -14.1950    1.0000 </r>
       <r>  -12.0106    1.0000 </r>
       <r>  -11.4569    1.0000 </r>
       <r>   -7.3028    1.0000 </r>
       <r>   -7.1337    1.0000 </r>
       <r>   -5.0491    1.0000 </r>
       <r>   -4.9642    1.0000 </r>
       <r>   -4.3231    1.0000 </r>
       <r>   -4.1258    1.0000 </r>
       <r>   -1.0273    0.0000 </r>
       <r>   -1.0138    0.0000 </r>
       <r>   -0.3002    0.0000 </r>
       <r>    0.1328    0.0000 </r>
       <r>    1.2188    0.0000 </r>
       <r>    1.6611    0.0000 </r>
      </set>
      <set comment="kpoint 12">
       <r>  -17.1815    1.0000 </r>
       <r>  -14.7648    1.0000 </r>
       <r>  -11.4716    1.0000 </r>
       <r>   -8.0768    1.0000 </r>
       <r>   -6.8878    1.0000 </r>
       <r>   -6.6554    1.0000 </r>
       <r>   -5.6700    1.0000 </r>
       <r>   -4.1196    1.0000 </r>
       <r>   -3.8125    1.0000 </r>
       <r>   -2.4906    1.0000 </r>
       <r>   -1.1738    0.0000 </r>
       <r>   -0.7218    0.0000 </r>
       <r>    0.2116    0.0000 </r>
       <r>    0.9328    0.0000 </r>
       <r>    2.1895    0.0000 </r>
       <r>    2.3171    0.0000 </r>
      </set>
      <set comment="kpoint 13">
       <r>  -17.1557    1.0000 </r>
       <r>  -14.7364    1.0000 </r>
       <r>  -11.4788    1.0000 </r>
       <r>   -8.0588    1.0000 </r>
       <r>   -6.9024    1.0000 </r>
       <r>   -6.6514    1.0000 </r>
       <r>   -5.8195    1.0000 </r>
       <r>   -4.3067    1.0000 </r>
       <r>   -3.8067    1.0000 </r>
       <r>   -2.4846    1.0000 </r>
       <r>   -1.1555    0.0000 </r>
       <r>   -0.4902    0.0000 </r>
       <r>    0.4158    0.0000 </r>
       <r>    0.8138    0.0000 </r>
       <r>    2.2144    0.0000 </r>
       <r>    2.3456    0.0000 </r>
      </set>
      <set comment="kpoint 14">
       <r>  -17.0769    1.0000 </r>
       <r>  -14.6529    1.0000 </r>
       <r>  -11.5100    1.0000 </r>
       <r>   -8.0142    1.0000 </r>
       <r>   -6.9643    1.0000 </r>
       <r>   -6.6561    1.0000 </r>
       <r>   -6.1590    1.0000 </r>
       <r>   -4.7205    1.0000 </r>
       <r>   -3.7919    1.0000 </r>
       <r>   -2.4893    1.0000 </r>
       <r>   -1.0982    0.0000 </r>
       <r>    0.1409    0.0000 </r>
       <r>    0.3322    0.0000 </r>
       <r>    1.0999    0.0000 </r>
       <r>    2.2872    0.0000 </r>
       <r>    2.4331    0.0000 </r>
      </set>
      <set comment="kpoint 15">
       <r>  -16.9456    1.0000 </r>
       <r>  -14.5146    1.0000 </r>
       <r>  -11.5811    1.0000 </r>
       <r>   -7.9655    1.0000 </r>
       <r>   -7.1172    1.0000 </r>
       <r>   -6.8776    1.0000 </r>
       <r>   -6.3195    1.0000 </r>
       <r>   -5.1315    1.0000 </r>
       <r>   -3.7812    1.0000 </r>
       <r>   -2.5258    1.0000 </r>
       <r>   -1.0014    0.0000 </r>
       <r>   -0.1214    0.0000 </r>
       <r>    1.0251    0.0000 </r>
       <r>    1.7343    0.0000 </r>
       <r>    2.2586    0.0000 </r>
       <r>    2.5067    0.0000 </r>
      </set>
      <set comment="kpoint 16">
       <r>  -16.7623    1.0000 </r>
       <r>  -14.3220    1.0000 </r>
       <r>  -11.7166    1.0000 </r>
       <r>   -8.0140    1.0000 </r>
       <r>   -7.3314    1.0000 </r>
       <r>   -7.2679    1.0000 </r>
       <r>   -6.2294    1.0000 </r>
       <r>   -5.3756    1.0000 </r>
       <r>   -3.7971    1.0000 </r>
       <r>   -2.6100    1.0000 </r>
       <r>   -0.8632    0.0000 </r>
       <r>   -0.5583    0.0000 </r>
       <r>    1.6555    0.0000 </r>
       <r>    1.8688    0.0000 </r>
       <r>    2.0935    0.0000 </r>
       <r>    2.6352    0.0000 </r>
      </set>
      <set comment="kpoint 17">
       <r>  -16.5281    1.0000 </r>
       <r>  -14.0761    1.0000 </r>
       <r>  -11.9408    1.0000 </r>
       <r>   -8.3758    1.0000 </r>
       <r>   -7.5817    1.0000 </r>
       <r>   -7.3759    1.0000 </r>
       <r>   -6.0638    1.0000 </r>
       <r>   -5.4334    1.0000 </r>
       <r>   -3.8684    1.0000 </r>
       <r>   -2.7546    1.0000 </r>
       <r>   -0.8821    0.0000 </r>
       <r>   -0.6871    0.0000 </r>
       <r>    1.1051    0.0000 </r>
       <r>    1.3599    0.0000 </r>
       <r>    2.6269    0.0000 </r>
       <r>    3.0015    0.0000 </r>
      </set>
      <set comment="kpoint 18">
       <r>  -16.2444    1.0000 </r>
       <r>  -13.7795    1.0000 </r>
       <r>  -12.2618    1.0000 </r>
       <r>   -8.9611    1.0000 </r>
       <r>   -7.7537    1.0000 </r>
       <r>   -7.2706    1.0000 </r>
       <r>   -5.8620    1.0000 </r>
       <r>   -5.3774    1.0000 </r>
       <r>   -4.0065    1.0000 </r>
       <r>   -2.9633    1.0000 </r>
       <r>   -1.0369    0.0000 </r>
       <r>   -0.4979    0.0000 </r>
       <r>    0.5908    0.0000 </r>
       <r>    0.7317    0.0000 </r>
       <r>    2.3321    0.0000 </r>
       <r>    3.1861    0.0000 </r>
      </set>
      <set comment="kpoint 19">
       <r>  -15.9133    1.0000 </r>
       <r>  -13.4440    1.0000 </r>
       <r>  -12.6554    1.0000 </r>
       <r>   -9.6084    1.0000 </r>
       <r>   -7.7815    1.0000 </r>
       <r>   -7.1387    1.0000 </r>
       <r>   -5.6440    1.0000 </r>
       <r>   -5.2802    1.0000 </r>
       <r>   -4.1724    1.0000 </r>
       <r>   -3.2252    1.0000 </r>
       <r>   -1.0158    0.0000 </r>
       <r>   -0.4274    0.0000 </r>
       <r>    0.1382    0.0000 </r>
       <r>    0.2925    0.0000 </r>
       <r>    1.8821    0.0000 </r>
       <r>    2.9127    0.0000 </r>
      </set>
      <set comment="kpoint 20">
       <r>  -15.5376    1.0000 </r>
       <r>  -13.2741    1.0000 </r>
       <r>  -12.8883    1.0000 </r>
       <r>  -10.2576    1.0000 </r>
       <r>   -7.6922    1.0000 </r>
       <r>   -7.0463    1.0000 </r>
       <r>   -5.4338    1.0000 </r>
       <r>   -5.1980    1.0000 </r>
       <r>   -4.2823    1.0000 </r>
       <r>   -3.5139    1.0000 </r>
       <r>   -0.8599    0.0000 </r>
       <r>   -0.6573    0.0000 </r>
       <r>   -0.3565    0.0000 </r>
       <r>    0.4087    0.0000 </r>
       <r>    1.4101    0.0000 </r>
       <r>    2.5171    0.0000 </r>
      </set>
      <set comment="kpoint 21">
       <r>  -15.1215    1.0000 </r>
       <r>  -13.6893    1.0000 </r>
       <r>  -12.5119    1.0000 </r>
       <r>  -10.8837    1.0000 </r>
       <r>   -7.5248    1.0000 </r>
       <r>   -7.0462    1.0000 </r>
       <r>   -5.2652    1.0000 </r>
       <r>   -5.1464    1.0000 </r>
       <r>   -4.2800    1.0000 </r>
       <r>   -3.7920    1.0000 </r>
       <r>   -0.9377    0.0000 </r>
       <r>   -0.8264    0.0000 </r>
       <r>   -0.4920    0.0000 </r>
       <r>    0.6366    0.0000 </r>
       <r>    1.0237    0.0000 </r>
       <r>    2.0780    0.0000 </r>
      </set>
      <set comment="kpoint 22">
       <r>  -14.6710    1.0000 </r>
       <r>  -14.1759    1.0000 </r>
       <r>  -12.0170    1.0000 </r>
       <r>  -11.4738    1.0000 </r>
       <r>   -7.3245    1.0000 </r>
       <r>   -7.1569    1.0000 </r>
       <r>   -5.1724    1.0000 </r>
       <r>   -5.1048    1.0000 </r>
       <r>   -4.1881    1.0000 </r>
       <r>   -4.0214    1.0000 </r>
       <r>   -1.1030    0.0000 </r>
       <r>   -1.0085    0.0000 </r>
       <r>   -0.1679    0.0000 </r>
       <r>    0.3641    0.0000 </r>
       <r>    1.2263    0.0000 </r>
       <r>    1.6378    0.0000 </r>
      </set>
      <set comment="kpoint 23">
       <r>  -14.6543    1.0000 </r>
       <r>  -14.1961    1.0000 </r>
       <r>  -12.0193    1.0000 </r>
       <r>  -11.4688    1.0000 </r>
       <r>   -7.3424    1.0000 </r>
       <r>   -7.1457    1.0000 </r>
       <r>   -5.1557    1.0000 </r>
       <r>   -5.1020    1.0000 </r>
       <r>   -4.1845    1.0000 </r>
       <r>   -4.0298    1.0000 </r>
       <r>   -1.0967    0.0000 </r>
       <r>   -1.0239    0.0000 </r>
       <r>   -0.0458    0.0000 </r>
       <r>    0.2191    0.0000 </r>
       <r>    1.2387    0.0000 </r>
       <r>    1.6463    0.0000 </r>
      </set>
      <set comment="kpoint 24">
       <r>  -15.1072    1.0000 </r>
       <r>  -13.7157    1.0000 </r>
       <r>  -12.5085    1.0000 </r>
       <r>  -10.8772    1.0000 </r>
       <r>   -7.5442    1.0000 </r>
       <r>   -7.0469    1.0000 </r>
       <r>   -5.1897    1.0000 </r>
       <r>   -5.1702    1.0000 </r>
       <r>   -4.2794    1.0000 </r>
       <r>   -3.8011    1.0000 </r>
       <r>   -0.9286    0.0000 </r>
       <r>   -0.8616    0.0000 </r>
       <r>   -0.3826    0.0000 </r>
       <r>    0.4905    0.0000 </r>
       <r>    1.0362    0.0000 </r>
       <r>    2.0964    0.0000 </r>
      </set>
      <set comment="kpoint 25">
       <r>  -15.5253    1.0000 </r>
       <r>  -13.3193    1.0000 </r>
       <r>  -12.8667    1.0000 </r>
       <r>  -10.2502    1.0000 </r>
       <r>   -7.7099    1.0000 </r>
       <r>   -7.0591    1.0000 </r>
       <r>   -5.3633    1.0000 </r>
       <r>   -5.2016    1.0000 </r>
       <r>   -4.2754    1.0000 </r>
       <r>   -3.5219    1.0000 </r>
       <r>   -0.8528    0.0000 </r>
       <r>   -0.5852    0.0000 </r>
       <r>   -0.3820    0.0000 </r>
       <r>    0.3620    0.0000 </r>
       <r>    1.3305    0.0000 </r>
       <r>    2.5400    0.0000 </r>
      </set>
      <set comment="kpoint 26">
       <r>  -15.9028    1.0000 </r>
       <r>  -13.4664    1.0000 </r>
       <r>  -12.6567    1.0000 </r>
       <r>   -9.6009    1.0000 </r>
       <r>   -7.7955    1.0000 </r>
       <r>   -7.1587    1.0000 </r>
       <r>   -5.5830    1.0000 </r>
       <r>   -5.2762    1.0000 </r>
       <r>   -4.1511    1.0000 </r>
       <r>   -3.2333    1.0000 </r>
       <r>   -0.9825    0.0000 </r>
       <r>   -0.3920    0.0000 </r>
       <r>    0.0622    0.0000 </r>
       <r>    0.3202    0.0000 </r>
       <r>    1.7751    0.0000 </r>
       <r>    2.9373    0.0000 </r>
      </set>
      <set comment="kpoint 27">
       <r>  -16.2355    1.0000 </r>
       <r>  -13.7925    1.0000 </r>
       <r>  -12.2724    1.0000 </r>
       <r>   -8.9546    1.0000 </r>
       <r>   -7.7629    1.0000 </r>
       <r>   -7.2922    1.0000 </r>
       <r>   -5.8125    1.0000 </r>
       <r>   -5.3711    1.0000 </r>
       <r>   -3.9723    1.0000 </r>
       <r>   -2.9734    1.0000 </r>
       <r>   -1.0072    0.0000 </r>
       <r>   -0.4960    0.0000 </r>
       <r>    0.6376    0.0000 </r>
       <r>    0.6775    0.0000 </r>
       <r>    2.2189    0.0000 </r>
       <r>    3.2218    0.0000 </r>
      </set>
      <set comment="kpoint 28">
       <r>  -16.5208    1.0000 </r>
       <r>  -14.0852    1.0000 </r>
       <r>  -11.9539    1.0000 </r>
       <r>   -8.3732    1.0000 </r>
       <r>   -7.5851    1.0000 </r>
       <r>   -7.3939    1.0000 </r>
       <r>   -6.0275    1.0000 </r>
       <r>   -5.4249    1.0000 </r>
       <r>   -3.8284    1.0000 </r>
       <r>   -2.7676    1.0000 </r>
       <r>   -0.8570    0.0000 </r>
       <r>   -0.6864    0.0000 </r>
       <r>    1.2103    0.0000 </r>
       <r>    1.2540    0.0000 </r>
       <r>    2.5531    0.0000 </r>
       <r>    3.0230    0.0000 </r>
      </set>
      <set comment="kpoint 29">
       <r>  -16.7565    1.0000 </r>
       <r>  -14.3287    1.0000 </r>
       <r>  -11.7296    1.0000 </r>
       <r>   -8.0212    1.0000 </r>
       <r>   -7.3394    1.0000 </r>
       <r>   -7.2627    1.0000 </r>
       <r>   -6.2099    1.0000 </r>
       <r>   -5.3636    1.0000 </r>
       <r>   -3.7591    1.0000 </r>
       <r>   -2.6251    1.0000 </r>
       <r>   -0.8590    0.0000 </r>
       <r>   -0.5335    0.0000 </r>
       <r>    1.7357    0.0000 </r>
       <r>    1.7606    0.0000 </r>
       <r>    2.1498    0.0000 </r>
       <r>    2.6433    0.0000 </r>
      </set>
      <set comment="kpoint 30">
       <r>  -16.9412    1.0000 </r>
       <r>  -14.5194    1.0000 </r>
       <r>  -11.5920    1.0000 </r>
       <r>   -7.9769    1.0000 </r>
       <r>   -7.1201    1.0000 </r>
       <r>   -6.8518    1.0000 </r>
       <r>   -6.3291    1.0000 </r>
       <r>   -5.1163    1.0000 </r>
       <r>   -3.7505    1.0000 </r>
       <r>   -2.5409    1.0000 </r>
       <r>   -0.9949    0.0000 </r>
       <r>   -0.0916    0.0000 </r>
       <r>    1.0412    0.0000 </r>
       <r>    1.6599    0.0000 </r>
       <r>    2.3267    0.0000 </r>
       <r>    2.5700    0.0000 </r>
      </set>
      <set comment="kpoint 31">
       <r>  -17.0740    1.0000 </r>
       <r>  -14.6560    1.0000 </r>
       <r>  -11.5178    1.0000 </r>
       <r>   -8.0230    1.0000 </r>
       <r>   -6.9665    1.0000 </r>
       <r>   -6.6135    1.0000 </r>
       <r>   -6.1932    1.0000 </r>
       <r>   -4.7053    1.0000 </r>
       <r>   -3.7711    1.0000 </r>
       <r>   -2.5017    1.0000 </r>
       <r>   -1.0914    0.0000 </r>
       <r>    0.1559    0.0000 </r>
       <r>    0.3818    0.0000 </r>
       <r>    1.0295    0.0000 </r>
       <r>    2.2925    0.0000 </r>
       <r>    2.4375    0.0000 </r>
      </set>
      <set comment="kpoint 32">
       <r>  -17.1543    1.0000 </r>
       <r>  -14.7379    1.0000 </r>
       <r>  -11.4828    1.0000 </r>
       <r>   -8.0635    1.0000 </r>
       <r>   -6.9036    1.0000 </r>
       <r>   -6.6328    1.0000 </r>
       <r>   -5.8354    1.0000 </r>
       <r>   -4.2960    1.0000 </r>
       <r>   -3.7970    1.0000 </r>
       <r>   -2.4916    1.0000 </r>
       <r>   -1.1507    0.0000 </r>
       <r>   -0.4817    0.0000 </r>
       <r>    0.4489    0.0000 </r>
       <r>    0.7712    0.0000 </r>
       <r>    2.2171    0.0000 </r>
       <r>    2.3478    0.0000 </r>
      </set>
      <set comment="kpoint 33">
       <r>  -17.1176    1.0000 </r>
       <r>  -14.8566    1.0000 </r>
       <r>  -11.4789    1.0000 </r>
       <r>   -8.4333    1.0000 </r>
       <r>   -6.6868    1.0000 </r>
       <r>   -6.3972    1.0000 </r>
       <r>   -5.6210    1.0000 </r>
       <r>   -4.1660    1.0000 </r>
       <r>   -3.5630    1.0000 </r>
       <r>   -2.8809    1.0000 </r>
       <r>   -0.8211    0.0000 </r>
       <r>   -0.6705    0.0000 </r>
       <r>    0.0771    0.0000 </r>
       <r>    0.8993    0.0000 </r>
       <r>    2.3538    0.0000 </r>
       <r>    2.4071    0.0000 </r>
      </set>
      <set comment="kpoint 34">
       <r>  -17.0926    1.0000 </r>
       <r>  -14.8279    1.0000 </r>
       <r>  -11.4813    1.0000 </r>
       <r>   -8.4178    1.0000 </r>
       <r>   -6.6915    1.0000 </r>
       <r>   -6.4382    1.0000 </r>
       <r>   -5.7278    1.0000 </r>
       <r>   -4.3686    1.0000 </r>
       <r>   -3.5684    1.0000 </r>
       <r>   -2.8696    1.0000 </r>
       <r>   -0.8088    0.0000 </r>
       <r>   -0.4435    0.0000 </r>
       <r>    0.2815    0.0000 </r>
       <r>    0.8058    0.0000 </r>
       <r>    2.3743    0.0000 </r>
       <r>    2.4344    0.0000 </r>
      </set>
      <set comment="kpoint 35">
       <r>  -17.0147    1.0000 </r>
       <r>  -14.7451    1.0000 </r>
       <r>  -11.5004    1.0000 </r>
       <r>   -8.3846    1.0000 </r>
       <r>   -6.7243    1.0000 </r>
       <r>   -6.6041    1.0000 </r>
       <r>   -5.9159    1.0000 </r>
       <r>   -4.8111    1.0000 </r>
       <r>   -3.5810    1.0000 </r>
       <r>   -2.8557    1.0000 </r>
       <r>   -0.7694    0.0000 </r>
       <r>    0.1809    0.0000 </r>
       <r>    0.2967    0.0000 </r>
       <r>    1.0512    0.0000 </r>
       <r>    2.4339    0.0000 </r>
       <r>    2.5201    0.0000 </r>
      </set>
      <set comment="kpoint 36">
       <r>  -16.8844    1.0000 </r>
       <r>  -14.6088    1.0000 </r>
       <r>  -11.5521    1.0000 </r>
       <r>   -8.3567    1.0000 </r>
       <r>   -6.9716    1.0000 </r>
       <r>   -6.8361    1.0000 </r>
       <r>   -5.9519    1.0000 </r>
       <r>   -5.2481    1.0000 </r>
       <r>   -3.6197    1.0000 </r>
       <r>   -2.8561    1.0000 </r>
       <r>   -0.7030    0.0000 </r>
       <r>   -0.0794    0.0000 </r>
       <r>    1.0408    0.0000 </r>
       <r>    1.7244    0.0000 </r>
       <r>    1.9784    0.0000 </r>
       <r>    2.5452    0.0000 </r>
      </set>
      <set comment="kpoint 37">
       <r>  -16.7024    1.0000 </r>
       <r>  -14.4201    1.0000 </r>
       <r>  -11.6616    1.0000 </r>
       <r>   -8.4002    1.0000 </r>
       <r>   -7.3850    1.0000 </r>
       <r>   -7.0536    1.0000 </r>
       <r>   -5.8724    1.0000 </r>
       <r>   -5.4965    1.0000 </r>
       <r>   -3.7064    1.0000 </r>
       <r>   -2.8877    1.0000 </r>
       <r>   -0.6084    0.0000 </r>
       <r>   -0.4319    0.0000 </r>
       <r>    1.2721    0.0000 </r>
       <r>    2.0533    0.0000 </r>
       <r>    2.1740    0.0000 </r>
       <r>    2.6661    0.0000 </r>
      </set>
      <set comment="kpoint 38">
       <r>  -16.4697    1.0000 </r>
       <r>  -14.1816    1.0000 </r>
       <r>  -11.8553    1.0000 </r>
       <r>   -8.6427    1.0000 </r>
       <r>   -7.7093    1.0000 </r>
       <r>   -7.2283    1.0000 </r>
       <r>   -5.7408    1.0000 </r>
       <r>   -5.5473    1.0000 </r>
       <r>   -3.8557    1.0000 </r>
       <r>   -2.9673    1.0000 </r>
       <r>   -0.6621    0.0000 </r>
       <r>   -0.4861    0.0000 </r>
       <r>    0.7289    0.0000 </r>
       <r>    1.6583    0.0000 </r>
       <r>    2.7173    0.0000 </r>
       <r>    3.0589    0.0000 </r>
      </set>
      <set comment="kpoint 39">
       <r>  -16.1881    1.0000 </r>
       <r>  -13.8999    1.0000 </r>
       <r>  -12.1427    1.0000 </r>
       <r>   -9.1207    1.0000 </r>
       <r>   -7.8871    1.0000 </r>
       <r>   -7.2321    1.0000 </r>
       <r>   -5.5884    1.0000 </r>
       <r>   -5.5051    1.0000 </r>
       <r>   -4.0448    1.0000 </r>
       <r>   -3.1035    1.0000 </r>
       <r>   -0.7362    0.0000 </r>
       <r>   -0.3634    0.0000 </r>
       <r>    0.2475    0.0000 </r>
       <r>    1.0518    0.0000 </r>
       <r>    2.6143    0.0000 </r>
       <r>    3.0332    0.0000 </r>
      </set>
      <set comment="kpoint 40">
       <r>  -15.8596    1.0000 </r>
       <r>  -13.6002    1.0000 </r>
       <r>  -12.4886    1.0000 </r>
       <r>   -9.7160    1.0000 </r>
       <r>   -7.9127    1.0000 </r>
       <r>   -7.1395    1.0000 </r>
       <r>   -5.4657    1.0000 </r>
       <r>   -5.4443    1.0000 </r>
       <r>   -4.1963    1.0000 </r>
       <r>   -3.2854    1.0000 </r>
       <r>   -0.6694    0.0000 </r>
       <r>   -0.4662    0.0000 </r>
       <r>    0.0997    0.0000 </r>
       <r>    0.4546    0.0000 </r>
       <r>    2.3265    0.0000 </r>
       <r>    2.7642    0.0000 </r>
      </set>
      <set comment="kpoint 41">
       <r>  -15.4877    1.0000 </r>
       <r>  -13.4327    1.0000 </r>
       <r>  -12.7138    1.0000 </r>
       <r>  -10.3382    1.0000 </r>
       <r>   -7.8122    1.0000 </r>
       <r>   -7.0541    1.0000 </r>
       <r>   -5.4760    1.0000 </r>
       <r>   -5.3457    1.0000 </r>
       <r>   -4.2228    1.0000 </r>
       <r>   -3.4809    1.0000 </r>
       <r>   -0.7930    0.0000 </r>
       <r>   -0.5371    0.0000 </r>
       <r>   -0.0280    0.0000 </r>
       <r>    0.3064    0.0000 </r>
       <r>    1.9376    0.0000 </r>
       <r>    2.3900    0.0000 </r>
      </set>
      <set comment="kpoint 42">
       <r>  -15.0773    1.0000 </r>
       <r>  -13.6973    1.0000 </r>
       <r>  -12.4870    1.0000 </r>
       <r>  -10.9464    1.0000 </r>
       <r>   -7.6248    1.0000 </r>
       <r>   -7.0635    1.0000 </r>
       <r>   -5.4793    1.0000 </r>
       <r>   -5.3292    1.0000 </r>
       <r>   -4.1248    1.0000 </r>
       <r>   -3.6563    1.0000 </r>
       <r>   -1.0486    0.0000 </r>
       <r>   -0.6706    0.0000 </r>
       <r>   -0.0590    0.0000 </r>
       <r>    0.5781    0.0000 </r>
       <r>    1.5337    0.0000 </r>
       <r>    1.9823    0.0000 </r>
[...]
       <r>    3.2558    0.0000 </r>
       <r>    3.4251    0.0000 </r>
      </set>
      <set comment="kpoint 153">
       <r>  -15.3129    1.0000 </r>
       <r>  -15.1185    1.0000 </r>
       <r>  -10.9556    1.0000 </r>
       <r>  -10.6100    1.0000 </r>
       <r>   -7.9297    1.0000 </r>
       <r>   -7.7827    1.0000 </r>
       <r>   -5.3180    1.0000 </r>
       <r>   -5.0335    1.0000 </r>
       <r>   -3.8410    1.0000 </r>
       <r>   -3.7708    1.0000 </r>
       <r>    0.3086    0.0000 </r>
       <r>    0.6115    0.0000 </r>
       <r>    1.0593    0.0000 </r>
       <r>    1.4269    0.0000 </r>
       <r>    3.2318    0.0000 </r>
       <r>    3.3593    0.0000 </r>
      </set>
      <set comment="kpoint 154">
       <r>  -15.5827    1.0000 </r>
       <r>  -15.3733    1.0000 </r>
       <r>  -10.7883    1.0000 </r>
       <r>  -10.4474    1.0000 </r>
       <r>   -7.6353    1.0000 </r>
       <r>   -7.4579    1.0000 </r>
       <r>   -5.1687    1.0000 </r>
       <r>   -4.8705    1.0000 </r>
       <r>   -3.7409    1.0000 </r>
       <r>   -3.7348    1.0000 </r>
       <r>    0.3025    0.0000 </r>
       <r>    0.5305    0.0000 </r>
       <r>    1.1733    0.0000 </r>
       <r>    1.5530    0.0000 </r>
       <r>    2.9384    0.0000 </r>
       <r>    3.2218    0.0000 </r>
      </set>
      <set comment="kpoint 155">
       <r>  -15.8099    1.0000 </r>
       <r>  -15.5884    1.0000 </r>
       <r>  -10.7335    1.0000 </r>
       <r>  -10.4049    1.0000 </r>
       <r>   -7.1466    1.0000 </r>
       <r>   -6.9365    1.0000 </r>
       <r>   -5.1630    1.0000 </r>
       <r>   -4.8518    1.0000 </r>
       <r>   -3.6313    1.0000 </r>
       <r>   -3.5411    1.0000 </r>
       <r>    0.3829    0.0000 </r>
       <r>    0.5009    0.0000 </r>
       <r>    1.1944    0.0000 </r>
       <r>    1.5697    0.0000 </r>
       <r>    2.3210    0.0000 </r>
       <r>    2.5805    0.0000 </r>
      </set>
      <set comment="kpoint 156">
       <r>  -15.9904    1.0000 </r>
       <r>  -15.7586    1.0000 </r>
       <r>  -10.7437    1.0000 </r>
       <r>  -10.4249    1.0000 </r>
       <r>   -6.5333    1.0000 </r>
       <r>   -6.2987    1.0000 </r>
       <r>   -5.2187    1.0000 </r>
       <r>   -4.8982    1.0000 </r>
       <r>   -3.5576    1.0000 </r>
       <r>   -3.3548    1.0000 </r>
       <r>    0.4799    0.0000 </r>
       <r>    0.4964    0.0000 </r>
       <r>    1.1229    0.0000 </r>
       <r>    1.3919    0.0000 </r>
       <r>    1.7675    0.0000 </r>
       <r>    1.8455    0.0000 </r>
      </set>
      <set comment="kpoint 157">
       <r>  -16.1219    1.0000 </r>
       <r>  -15.8807    1.0000 </r>
       <r>  -10.7757    1.0000 </r>
       <r>  -10.4622    1.0000 </r>
       <r>   -5.8760    1.0000 </r>
       <r>   -5.6379    1.0000 </r>
       <r>   -5.2753    1.0000 </r>
       <r>   -4.9533    1.0000 </r>
       <r>   -3.5791    1.0000 </r>
       <r>   -3.2651    1.0000 </r>
       <r>    0.2370    0.0000 </r>
       <r>    0.3357    0.0000 </r>
       <r>    1.0928    0.0000 </r>
       <r>    1.1240    0.0000 </r>
       <r>    1.4553    0.0000 </r>
       <r>    1.6165    0.0000 </r>
      </set>
      <set comment="kpoint 158">
       <r>  -16.2029    1.0000 </r>
       <r>  -15.9529    1.0000 </r>
       <r>  -10.8038    1.0000 </r>
       <r>  -10.4915    1.0000 </r>
       <r>   -5.3466    1.0000 </r>
       <r>   -5.2824    1.0000 </r>
       <r>   -5.0398    1.0000 </r>
       <r>   -4.9916    1.0000 </r>
       <r>   -3.7108    1.0000 </r>
       <r>   -3.2965    1.0000 </r>
       <r>   -0.1658    0.0000 </r>
       <r>   -0.0757    0.0000 </r>
       <r>    1.1459    0.0000 </r>
       <r>    1.1833    0.0000 </r>
       <r>    1.3900    0.0000 </r>
       <r>    1.5535    0.0000 </r>
      </set>
     </set>
    </set>
   </array>
  </eigenvalues>
  <separator name="orbital magnetization" >
   <v name="MAGDIPOLOUT">      0.00000000      0.00000000      0.00000000</v>
  </separator>
  <dos>
   <i name="efermi">     -2.16883702 </i>
   <total>
    <array>
     <dimension dim="1">gridpoints</dimension>
     <dimension dim="2">spin</dimension>
     <field>energy</field>
     <field>total</field>
     <field>integrated</field>
     <set>
      <set comment="spin 1">
       <r>   -18.2463     0.0000     0.0000 </r>
       <r>   -18.1698     0.0000     0.0000 </r>
       <r>   -18.0933     0.0000     0.0000 </r>
       <r>   -18.0168     0.0000     0.0000 </r>
       <r>   -17.9402     0.0000     0.0000 </r>
       <r>   -17.8637     0.0000     0.0000 </r>
       <r>   -17.7872     0.0000     0.0000 </r>
       <r>   -17.7107     0.0000     0.0000 </r>
       <r>   -17.6342     0.0000     0.0000 </r>
       <r>   -17.5577     0.0000     0.0000 </r>
       <r>   -17.4812     0.0000     0.0000 </r>
       <r>   -17.4046     0.0000     0.0000 </r>
       <r>   -17.3281     0.0000     0.0000 </r>
       <r>   -17.2516     0.0000     0.0000 </r>
       <r>   -17.1751     0.3076     0.0235 </r>
       <r>   -17.0986     0.7817     0.0833 </r>
       <r>   -17.0221     0.7751     0.1427 </r>
       <r>   -16.9456     1.0057     0.2196 </r>
       <r>   -16.8690     0.8718     0.2863 </r>
       <r>   -16.7925     0.5810     0.3308 </r>
       <r>   -16.7160     1.1070     0.4155 </r>
       <r>   -16.6395     0.8798     0.4828 </r>
       <r>   -16.5630     0.8807     0.5502 </r>
       <r>   -16.4865     0.5905     0.5953 </r>
       <r>   -16.4100     1.4256     0.7044 </r>
       <r>   -16.3335     0.6430     0.7536 </r>
       <r>   -16.2569     0.5064     0.7924 </r>
       <r>   -16.1804     1.6498     0.9186 </r>
       <r>   -16.1039     0.5468     0.9604 </r>
       <r>   -16.0274     0.9094     1.0300 </r>
       <r>   -15.9509     0.8319     1.0937 </r>
       <r>   -15.8744     1.0813     1.1764 </r>
       <r>   -15.7979     1.1445     1.2640 </r>
       <r>   -15.7213     0.9572     1.3372 </r>
       <r>   -15.6448     0.6029     1.3834 </r>
       <r>   -15.5683     1.2523     1.4792 </r>
       <r>   -15.4918     1.0194     1.5572 </r>
       <r>   -15.4153     1.1949     1.6486 </r>
       <r>   -15.3388     1.0492     1.7289 </r>
       <r>   -15.2623     1.0353     1.8081 </r>
       <r>   -15.1857     0.9634     1.8818 </r>
       <r>   -15.1092     1.0802     1.9645 </r>
       <r>   -15.0327     1.6731     2.0925 </r>
       <r>   -14.9562     1.3873     2.1986 </r>
       <r>   -14.8797     0.8131     2.2608 </r>
       <r>   -14.8032     1.5701     2.3810 </r>
       <r>   -14.7267     1.9589     2.5309 </r>
       <r>   -14.6501     1.2697     2.6280 </r>
       <r>   -14.5736     2.0232     2.7828 </r>
       <r>   -14.4971     1.5370     2.9004 </r>
       <r>   -14.4206     0.9495     2.9731 </r>
       <r>   -14.3441     0.9193     3.0434 </r>
       <r>   -14.2676     1.6204     3.1674 </r>
       <r>   -14.1911     1.0859     3.2505 </r>
       <r>   -14.1146     1.7705     3.3859 </r>
       <r>   -14.0380     1.8478     3.5273 </r>
       <r>   -13.9615     1.0304     3.6062 </r>
       <r>   -13.8850     0.5921     3.6515 </r>
       <r>   -13.8085     0.6448     3.7008 </r>
       <r>   -13.7320     1.1160     3.7862 </r>
       <r>   -13.6555     0.9826     3.8614 </r>
       <r>   -13.5790     0.4717     3.8975 </r>
       <r>   -13.5024     0.0543     3.9016 </r>
       <r>   -13.4259     0.5529     3.9439 </r>
       <r>   -13.3494     0.2368     3.9620 </r>
       <r>   -13.2729     0.2528     3.9814 </r>
       <r>   -13.1964     0.1782     3.9950 </r>
       <r>   -13.1199     0.0652     4.0000 </r>
       <r>   -13.0434     0.0000     4.0000 </r>
       <r>   -12.9668     0.1214     4.0093 </r>
       <r>   -12.8903     0.1260     4.0189 </r>
       <r>   -12.8138     0.2505     4.0381 </r>
       <r>   -12.7373     0.0436     4.0414 </r>
       <r>   -12.6608     0.5761     4.0855 </r>
       <r>   -12.5843     0.2101     4.1016 </r>
       <r>   -12.5078     0.6094     4.1482 </r>
       <r>   -12.4312     1.0811     4.2309 </r>
       <r>   -12.3547     0.2962     4.2536 </r>
       <r>   -12.2782     0.9463     4.3260 </r>
       <r>   -12.2017     0.7170     4.3809 </r>
       <r>   -12.1252     0.8538     4.4462 </r>
       <r>   -12.0487     2.0502     4.6031 </r>
       <r>   -11.9722     1.5825     4.7241 </r>
       <r>   -11.8957     1.0882     4.8074 </r>
       <r>   -11.8191     0.7396     4.8640 </r>
       <r>   -11.7426     1.2587     4.9603 </r>
       <r>   -11.6661     1.3802     5.0659 </r>
       <r>   -11.5896     0.8498     5.1309 </r>
       <r>   -11.5131     2.7830     5.3439 </r>
       <r>   -11.4366     3.9275     5.6444 </r>
       <r>   -11.3601     1.4547     5.7557 </r>
       <r>   -11.2835     0.9217     5.8262 </r>
       <r>   -11.2070     2.0327     5.9817 </r>
       <r>   -11.1305     0.4034     6.0126 </r>
       <r>   -11.0540     1.0923     6.0962 </r>
       <r>   -10.9775     1.4116     6.2042 </r>
       <r>   -10.9010     0.9748     6.2788 </r>
       <r>   -10.8245     0.8091     6.3407 </r>
       <r>   -10.7479     1.3443     6.4435 </r>
       <r>   -10.6714     0.5319     6.4842 </r>
       <r>   -10.5949     0.9282     6.5553 </r>
       <r>   -10.5184     0.0709     6.5607 </r>
       <r>   -10.4419     1.3034     6.6604 </r>
       <r>   -10.3654     0.9334     6.7318 </r>
       <r>   -10.2889     0.7346     6.7880 </r>
       <r>   -10.2123     0.6319     6.8364 </r>
       <r>   -10.1358     0.2050     6.8521 </r>
       <r>   -10.0593     1.4714     6.9647 </r>
       <r>    -9.9828     0.5257     7.0049 </r>
       <r>    -9.9063     0.3220     7.0295 </r>
       <r>    -9.8298     0.3182     7.0539 </r>
       <r>    -9.7533     0.0314     7.0563 </r>
       <r>    -9.6768     1.4524     7.1674 </r>
       <r>    -9.6002     1.2114     7.2601 </r>
       <r>    -9.5237     0.2932     7.2825 </r>
       <r>    -9.4472     0.0001     7.2825 </r>
       <r>    -9.3707     0.0489     7.2863 </r>
       <r>    -9.2942     0.8906     7.3544 </r>
       <r>    -9.2177     1.1064     7.4391 </r>
       <r>    -9.1412     0.1259     7.4487 </r>
       <r>    -9.0646     0.3175     7.4730 </r>
       <r>    -8.9881     0.0947     7.4803 </r>
       <r>    -8.9116     0.6102     7.5269 </r>
       <r>    -8.8351     0.6767     7.5787 </r>
       <r>    -8.7586     0.9373     7.6504 </r>
       <r>    -8.6821     0.0055     7.6509 </r>
       <r>    -8.6056     0.3296     7.6761 </r>
       <r>    -8.5290     0.0015     7.6762 </r>
       <r>    -8.4525     0.0204     7.6778 </r>
       <r>    -8.3760     1.3155     7.7784 </r>
       <r>    -8.2995     0.4900     7.8159 </r>
       <r>    -8.2230     0.1649     7.8285 </r>
       <r>    -8.1465     0.5505     7.8706 </r>
       <r>    -8.0700     1.5777     7.9914 </r>
       <r>    -7.9934     2.9377     8.2161 </r>
       <r>    -7.9169     1.4506     8.3271 </r>
       <r>    -7.8404     1.9586     8.4770 </r>
       <r>    -7.7639     2.6791     8.6820 </r>
       <r>    -7.6874     2.3906     8.8649 </r>
       <r>    -7.6109     1.5447     8.9831 </r>
       <r>    -7.5344     1.6812     9.1117 </r>
       <r>    -7.4579     2.3110     9.2885 </r>
       <r>    -7.3813     2.2845     9.4633 </r>
       <r>    -7.3048     2.2963     9.6390 </r>
       <r>    -7.2283     3.9698     9.9428 </r>
       <r>    -7.1518     2.9163    10.1659 </r>
       <r>    -7.0753     3.6112    10.4422 </r>
       <r>    -6.9988     2.1431    10.6062 </r>
       <r>    -6.9223     1.6174    10.7299 </r>
       <r>    -6.8457     1.2383    10.8247 </r>
       <r>    -6.7692     1.2561    10.9208 </r>
       <r>    -6.6927     1.7295    11.0531 </r>
       <r>    -6.6162     2.0419    11.2094 </r>
       <r>    -6.5397     1.1483    11.2972 </r>
       <r>    -6.4632     2.0362    11.4530 </r>
       <r>    -6.3867     1.2692    11.5501 </r>
       <r>    -6.3101     1.5956    11.6722 </r>
       <r>    -6.2336     1.0186    11.7502 </r>
       <r>    -6.1571     2.7620    11.9615 </r>
       <r>    -6.0806     1.5004    12.0763 </r>
       <r>    -6.0041     1.3679    12.1810 </r>
       <r>    -5.9276     2.0816    12.3402 </r>
       <r>    -5.8511     1.5941    12.4622 </r>
       <r>    -5.7745     2.4694    12.6511 </r>
       <r>    -5.6980     1.7018    12.7814 </r>
       <r>    -5.6215     4.8799    13.1547 </r>
       <r>    -5.5450     2.8169    13.3703 </r>
       <r>    -5.4685     4.0069    13.6768 </r>
       <r>    -5.3920     3.4482    13.9407 </r>
       <r>    -5.3155     3.5978    14.2160 </r>
       <r>    -5.2390     3.0711    14.4510 </r>
       <r>    -5.1624     3.1505    14.6920 </r>
       <r>    -5.0859     2.9873    14.9206 </r>
       <r>    -5.0094     1.4887    15.0345 </r>
       <r>    -4.9329     2.4455    15.2216 </r>
       <r>    -4.8564     1.7702    15.3570 </r>
       <r>    -4.7799     1.4121    15.4651 </r>
       <r>    -4.7034     0.8848    15.5328 </r>
       <r>    -4.6268     1.0180    15.6107 </r>
       <r>    -4.5503     1.8514    15.7523 </r>
       <r>    -4.4738     1.1295    15.8388 </r>
       <r>    -4.3973     0.6568    15.8890 </r>
       <r>    -4.3208     0.9055    15.9583 </r>
       <r>    -4.2443     1.5577    16.0775 </r>
       <r>    -4.1678     2.2001    16.2458 </r>
       <r>    -4.0912     2.7218    16.4541 </r>
       <r>    -4.0147     2.2158    16.6236 </r>
       <r>    -3.9382     2.6852    16.8291 </r>
       <r>    -3.8617     2.0116    16.9830 </r>
       <r>    -3.7852     4.7749    17.3483 </r>
       <r>    -3.7087     4.6156    17.7015 </r>
       <r>    -3.6322     2.8664    17.9208 </r>
       <r>    -3.5556     3.2469    18.1692 </r>
       <r>    -3.4791     3.8503    18.4638 </r>
       <r>    -3.4026     3.0914    18.7004 </r>
       <r>    -3.3261     3.1113    18.9384 </r>
       <r>    -3.2496     3.8381    19.2321 </r>
       <r>    -3.1731     1.8808    19.3760 </r>
       <r>    -3.0966     0.5786    19.4203 </r>
       <r>    -3.0201     0.4692    19.4562 </r>
       <r>    -2.9435     1.8952    19.6012 </r>
       <r>    -2.8670     1.4979    19.7158 </r>
       <r>    -2.7905     0.9798    19.7908 </r>
       <r>    -2.7140     0.3283    19.8159 </r>
       <r>    -2.6375     0.2010    19.8313 </r>
       <r>    -2.5610     0.3104    19.8550 </r>
       <r>    -2.4845     1.0266    19.9336 </r>
       <r>    -2.4079     0.2962    19.9562 </r>
       <r>    -2.3314     0.1970    19.9713 </r>
       <r>    -2.2549     0.3746    20.0000 </r>
       <r>    -2.1784     0.0003    20.0000 </r>
       <r>    -2.1019     0.0000    20.0000 </r>
       <r>    -2.0254     0.0000    20.0000 </r>
       <r>    -1.9489     0.0000    20.0000 </r>
       <r>    -1.8723     0.0000    20.0000 </r>
       <r>    -1.7958     0.0000    20.0000 </r>
       <r>    -1.7193     0.0000    20.0000 </r>
       <r>    -1.6428     0.0000    20.0000 </r>
       <r>    -1.5663     0.0000    20.0000 </r>
       <r>    -1.4898     0.0000    20.0000 </r>
       <r>    -1.4133     0.0000    20.0000 </r>
       <r>    -1.3367     0.1216    20.0093 </r>
       <r>    -1.2602     0.1861    20.0236 </r>
       <r>    -1.1837     0.1535    20.0353 </r>
       <r>    -1.1072     1.2620    20.1319 </r>
       <r>    -1.0307     1.4020    20.2391 </r>
       <r>    -0.9542     2.0059    20.3926 </r>
       <r>    -0.8777     1.3328    20.4946 </r>
       <r>    -0.8012     2.4704    20.6836 </r>
       <r>    -0.7246     1.5826    20.8047 </r>
       <r>    -0.6481     2.4735    20.9939 </r>
       <r>    -0.5716     1.6482    21.1201 </r>
       <r>    -0.4951     2.2799    21.2945 </r>
       <r>    -0.4186     3.3325    21.5495 </r>
       <r>    -0.3421     2.8037    21.7640 </r>
       <r>    -0.2656     2.8611    21.9829 </r>
       <r>    -0.1890     2.0625    22.1407 </r>
       <r>    -0.1125     2.9271    22.3647 </r>
       <r>    -0.0360     3.4443    22.6282 </r>
       <r>     0.0405     2.4396    22.8149 </r>
       <r>     0.1170     3.3819    23.0737 </r>
       <r>     0.1935     3.1951    23.3181 </r>
       <r>     0.2700     3.8405    23.6120 </r>
       <r>     0.3466     4.6035    23.9642 </r>
       <r>     0.4231     5.1253    24.3564 </r>
       <r>     0.4996     4.9906    24.7382 </r>
       <r>     0.5761     2.2151    24.9077 </r>
       <r>     0.6526     3.8579    25.2029 </r>
       <r>     0.7291     2.4636    25.3914 </r>
       <r>     0.8056     4.8108    25.7595 </r>
       <r>     0.8822     3.9477    26.0615 </r>
       <r>     0.9587     2.8886    26.2825 </r>
       <r>     1.0352     3.0536    26.5162 </r>
       <r>     1.1117     2.9464    26.7416 </r>
       <r>     1.1882     2.4767    26.9311 </r>
       <r>     1.2647     2.5436    27.1258 </r>
       <r>     1.3412     2.2383    27.2970 </r>
       <r>     1.4177     2.3715    27.4785 </r>
       <r>     1.4943     2.7971    27.6925 </r>
       <r>     1.5708     1.8946    27.8374 </r>
       <r>     1.6473     2.6705    28.0418 </r>
       <r>     1.7238     2.0836    28.2012 </r>
       <r>     1.8003     2.5158    28.3937 </r>
       <r>     1.8768     2.8074    28.6085 </r>
       <r>     1.9533     2.0617    28.7663 </r>
       <r>     2.0299     1.8978    28.9115 </r>
       <r>     2.1064     1.5456    29.0297 </r>
       <r>     2.1829     2.7782    29.2423 </r>
       <r>     2.2594     2.3807    29.4244 </r>
       <r>     2.3359     3.1115    29.6625 </r>
       <r>     2.4124     2.3030    29.8387 </r>
       <r>     2.4889     2.7840    30.0517 </r>
       <r>     2.5655     3.2498    30.3004 </r>
       <r>     2.6420     3.8442    30.5945 </r>
       <r>     2.7185     2.7284    30.8033 </r>
       <r>     2.7950     1.8432    30.9443 </r>
       <r>     2.8715     1.5758    31.0649 </r>
       <r>     2.9480     2.6786    31.2698 </r>
       <r>     3.0245     1.3099    31.3701 </r>
       <r>     3.1011     1.9346    31.5181 </r>
       <r>     3.1776     0.7961    31.5790 </r>
       <r>     3.2541     2.2745    31.7530 </r>
       <r>     3.3306     1.2230    31.8466 </r>
       <r>     3.4071     0.9128    31.9165 </r>
       <r>     3.4836     0.4320    31.9495 </r>
       <r>     3.5601     0.4423    31.9833 </r>
       <r>     3.6366     0.0558    31.9876 </r>
       <r>     3.7132     0.1618    32.0000 </r>
       <r>     3.7897     0.0000    32.0000 </r>
       <r>     3.8662     0.0000    32.0000 </r>
       <r>     3.9427     0.0000    32.0000 </r>
       <r>     4.0192     0.0000    32.0000 </r>
       <r>     4.0957     0.0000    32.0000 </r>
       <r>     4.1722     0.0000    32.0000 </r>
       <r>     4.2488     0.0000    32.0000 </r>
       <r>     4.3253     0.0000    32.0000 </r>
       <r>     4.4018     0.0000    32.0000 </r>
       <r>     4.4783     0.0000    32.0000 </r>
       <r>     4.5548     0.0000    32.0000 </r>
       <r>     4.6313     0.0000    32.0000 </r>
       <r>     4.7078     0.0000    32.0000 </r>
      </set>
     </set>
    </array>
   </total>
  </dos>
 </calculation>
 <structure name="finalpos" >
  <crystal>
   <varray name="basis" >
    <v>       3.32175000       0.02463800       0.00000000 </v>
    <v>       0.03454700       4.62322200      -0.00005300 </v>
    <v>       0.00000000       0.00000000      20.02439000 </v>
   </varray>
   <i name="volume">    307.50127124 </i>
   <varray name="rec_basis" >
    <v>       0.30106282      -0.00224969       0.00000000 </v>
    <v>      -0.00160442       0.21631136       0.00000000 </v>
    <v>      -0.00000000       0.00000057       0.04993910 </v>
   </varray>
  </crystal>
  <varray name="positions" >
   <v>       0.49717635       0.91052876       0.55247606 </v>
   <v>       0.50282365       0.08947124       0.44752394 </v>
   <v>      -0.00282362       0.41052424       0.44752395 </v>
   <v>       0.00282362       0.58947576       0.55247605 </v>
  </varray>
 </structure>
</modeling>
