 running on   48 total cores
 distrk:  each k-point on   48 cores,    1 groups
 distr:  one band on    8 cores,    6 groups
 using from now: INCAR     
 vasp.5.4.1 24Jun15 (build Nov 20 2020 10:29:34) complex                        
  
 POSCAR found type information on POSCAR  C 
 POSCAR found :  1 types and       2 ions
 scaLAPACK will be used

 ----------------------------------------------------------------------------- 
|                                                                             |
|  ADVICE TO THIS USER RUNNING 'VASP/VAMP'   (HEAR YOUR MASTER'S VOICE ...):  |
|                                                                             |
|      You have a (more or less) 'small supercell' and for smaller cells      |
|      it is recommended  to use the reciprocal-space projection scheme!      |
|      The real space optimization is not  efficient for small cells and it   |
|      is also less accurate ...                                              |
|      Therefore set LREAL=.FALSE. in the  INCAR file                         |
|                                                                             |
 ----------------------------------------------------------------------------- 

 LDA part: xc-table for Pade appr. of Perdew
 POSCAR, INCAR and KPOINTS ok, starting setup
 WARNING: small aliasing (wrap around) errors must be expected
 FFT: planning ...
 WAVECAR not read
 entering main loop
       N       E                     dE             d eps       ncg     rms          rms(c)
DAV:   1     0.377719644382E+02    0.37772E+02   -0.37897E+03  1476   0.499E+02
DAV:   2    -0.181450640745E+02   -0.55917E+02   -0.49253E+02  1956   0.102E+02
DAV:   3    -0.198393992108E+02   -0.16943E+01   -0.16943E+01  2196   0.244E+01
DAV:   4    -0.198463295539E+02   -0.69303E-02   -0.69303E-02  2100   0.153E+00
DAV:   5    -0.198463357676E+02   -0.62137E-05   -0.62139E-05  2112   0.519E-02    0.661E+00
DAV:   6    -0.188279630779E+02    0.10184E+01   -0.99318E-01  1764   0.481E+00    0.389E+00
DAV:   7    -0.184366324066E+02    0.39133E+00   -0.12907E+00  2148   0.537E+00    0.102E+00
DAV:   8    -0.184280556974E+02    0.85767E-02   -0.10354E-02  2016   0.672E-01    0.960E-02
DAV:   9    -0.184260903060E+02    0.19654E-02   -0.12830E-03  1908   0.139E-01    0.751E-02
DAV:  10    -0.184241239518E+02    0.19664E-02   -0.31367E-03  1668   0.184E-01    0.409E-02
DAV:  11    -0.184244206697E+02   -0.29672E-03   -0.17265E-04  1620   0.593E-02    0.671E-02
DAV:  12    -0.184246182366E+02   -0.19757E-03   -0.34689E-05  1704   0.298E-02    0.107E-02
DAV:  13    -0.184253740243E+02   -0.75579E-03   -0.20713E-04  1632   0.377E-02    0.589E-03
DAV:  14    -0.184254259110E+02   -0.51887E-04   -0.57702E-07  1980   0.288E-03    0.295E-03
DAV:  15    -0.184255356684E+02   -0.10976E-03   -0.92284E-06  1548   0.760E-03    0.936E-04
DAV:  16    -0.184255434191E+02   -0.77507E-05   -0.18716E-07  1620   0.160E-03
   1 F= -.18425543E+02 E0= -.18425504E+02  d E =-.783596E-04
