<?xml version="1.0" encoding="ISO-8859-1"?>
<modeling>
 <generator>
  <i name="program" type="string">vasp </i>
  <i name="version" type="string">5.4.1  </i>
  <i name="subversion" type="string">24Jun15 (build Nov 20 2020 10:29:34) complex                          parallel </i>
  <i name="platform" type="string">IFC91_ompi </i>
  <i name="date" type="string">2021 09 14 </i>
  <i name="time" type="string">00:24:00 </i>
 </generator>
 <incar>
  <i type="int" name="ISTART">     1</i>
  <i type="string" name="PREC">a</i>
  <i type="string" name="ALGO"> Normal</i>
  <i type="int" name="ISPIN">     1</i>
  <i type="int" name="ICHARG">     2</i>
  <i type="int" name="NELM">   250</i>
  <i type="int" name="NELMDL">    -5</i>
  <i type="int" name="NELMIN">     6</i>
  <i type="int" name="IBRION">     2</i>
  <i name="EDIFF">      0.00001000</i>
  <i name="EDIFFG">     -0.00500000</i>
  <i type="int" name="NSW">     0</i>
  <i type="int" name="ISIF">     2</i>
  <i name="ENCUT">    520.00000000</i>
  <i name="POTIM">      0.25000000</i>
  <v name="MAGMOM">      0.60000000      0.60000000</v>
  <i type="string" name="LREAL"> Auto</i>
  <i type="int" name="ISMEAR">     0</i>
  <i name="SIGMA">      0.02000000</i>
  <i type="logical" name="LWAVE"> F  </i>
  <i type="logical" name="LCHARG"> F  </i>
  <i type="logical" name="LVHAR"> F  </i>
  <v type="int" name="KPOINT_BSE">    -1     0     0     0</v>
  <i type="int" name="NELM">   250</i>
 </incar>
 <kpoints>
  <generation param="Gamma">
   <v type="int" name="divisions">      24       24        1 </v>
   <v name="usershift">      0.00000000       0.00000000       0.00000000 </v>
   <v name="genvec1">      0.04166667       0.00000000       0.00000000 </v>
   <v name="genvec2">      0.00000000       0.04166667       0.00000000 </v>
   <v name="genvec3">      0.00000000       0.00000000       1.00000000 </v>
   <v name="shift">      0.00000000       0.00000000       0.00000000 </v>
  </generation>
  <varray name="kpointlist" >
   <v>       0.00000000       0.00000000       0.00000000 </v>
   <v>       0.04166667       0.00000000       0.00000000 </v>
   <v>       0.08333333       0.00000000       0.00000000 </v>
   <v>       0.12500000       0.00000000       0.00000000 </v>
   <v>       0.16666667       0.00000000       0.00000000 </v>
   <v>       0.20833333       0.00000000       0.00000000 </v>
   <v>       0.25000000       0.00000000       0.00000000 </v>
   <v>       0.29166667       0.00000000       0.00000000 </v>
   <v>       0.33333333       0.00000000       0.00000000 </v>
   <v>       0.37500000       0.00000000       0.00000000 </v>
   <v>       0.41666667       0.00000000       0.00000000 </v>
   <v>       0.45833333       0.00000000       0.00000000 </v>
   <v>       0.50000000       0.00000000       0.00000000 </v>
   <v>       0.04166667       0.04166667       0.00000000 </v>
   <v>       0.08333333       0.04166667       0.00000000 </v>
   <v>       0.12500000       0.04166667       0.00000000 </v>
   <v>       0.16666667       0.04166667       0.00000000 </v>
   <v>       0.20833333       0.04166667       0.00000000 </v>
   <v>       0.25000000       0.04166667       0.00000000 </v>
   <v>       0.29166667       0.04166667       0.00000000 </v>
   <v>       0.33333333       0.04166667       0.00000000 </v>
   <v>       0.37500000       0.04166667       0.00000000 </v>
   <v>       0.41666667       0.04166667       0.00000000 </v>
   <v>       0.45833333       0.04166667       0.00000000 </v>
   <v>       0.08333333       0.08333333       0.00000000 </v>
   <v>       0.12500000       0.08333333       0.00000000 </v>
   <v>       0.16666667       0.08333333       0.00000000 </v>
   <v>       0.20833333       0.08333333       0.00000000 </v>
   <v>       0.25000000       0.08333333       0.00000000 </v>
   <v>       0.29166667       0.08333333       0.00000000 </v>
   <v>       0.33333333       0.08333333       0.00000000 </v>
   <v>       0.37500000       0.08333333       0.00000000 </v>
   <v>       0.41666667       0.08333333       0.00000000 </v>
   <v>       0.45833333       0.08333333       0.00000000 </v>
   <v>       0.12500000       0.12500000       0.00000000 </v>
   <v>       0.16666667       0.12500000       0.00000000 </v>
   <v>       0.20833333       0.12500000       0.00000000 </v>
   <v>       0.25000000       0.12500000       0.00000000 </v>
   <v>       0.29166667       0.12500000       0.00000000 </v>
   <v>       0.33333333       0.12500000       0.00000000 </v>
   <v>       0.37500000       0.12500000       0.00000000 </v>
   <v>       0.41666667       0.12500000       0.00000000 </v>
   <v>       0.16666667       0.16666667       0.00000000 </v>
   <v>       0.20833333       0.16666667       0.00000000 </v>
   <v>       0.25000000       0.16666667       0.00000000 </v>
   <v>       0.29166667       0.16666667       0.00000000 </v>
   <v>       0.33333333       0.16666667       0.00000000 </v>
   <v>       0.37500000       0.16666667       0.00000000 </v>
   <v>       0.41666667       0.16666667       0.00000000 </v>
   <v>       0.20833333       0.20833333       0.00000000 </v>
   <v>       0.25000000       0.20833333       0.00000000 </v>
   <v>       0.29166667       0.20833333       0.00000000 </v>
   <v>       0.33333333       0.20833333       0.00000000 </v>
   <v>       0.37500000       0.20833333       0.00000000 </v>
   <v>       0.25000000       0.25000000       0.00000000 </v>
   <v>       0.29166667       0.25000000       0.00000000 </v>
   <v>       0.33333333       0.25000000       0.00000000 </v>
   <v>       0.37500000       0.25000000       0.00000000 </v>
   <v>       0.29166667       0.29166667       0.00000000 </v>
   <v>       0.33333333       0.29166667       0.00000000 </v>
   <v>       0.33333333       0.33333333       0.00000000 </v>
  </varray>
  <varray name="weights" >
   <v>       0.00173611 </v>
   <v>       0.01041667 </v>
   <v>       0.01041667 </v>
   <v>       0.01041667 </v>
   <v>       0.01041667 </v>
   <v>       0.01041667 </v>
   <v>       0.01041667 </v>
   <v>       0.01041667 </v>
   <v>       0.01041667 </v>
   <v>       0.01041667 </v>
   <v>       0.01041667 </v>
   <v>       0.01041667 </v>
   <v>       0.00520833 </v>
   <v>       0.01041667 </v>
   <v>       0.02083333 </v>
   <v>       0.02083333 </v>
   <v>       0.02083333 </v>
   <v>       0.02083333 </v>
   <v>       0.02083333 </v>
   <v>       0.02083333 </v>
   <v>       0.02083333 </v>
   <v>       0.02083333 </v>
   <v>       0.02083333 </v>
   <v>       0.02083333 </v>
   <v>       0.01041667 </v>
   <v>       0.02083333 </v>
   <v>       0.02083333 </v>
   <v>       0.02083333 </v>
   <v>       0.02083333 </v>
   <v>       0.02083333 </v>
   <v>       0.02083333 </v>
   <v>       0.02083333 </v>
   <v>       0.02083333 </v>
   <v>       0.01041667 </v>
   <v>       0.01041667 </v>
   <v>       0.02083333 </v>
   <v>       0.02083333 </v>
   <v>       0.02083333 </v>
   <v>       0.02083333 </v>
   <v>       0.02083333 </v>
   <v>       0.02083333 </v>
   <v>       0.02083333 </v>
   <v>       0.01041667 </v>
   <v>       0.02083333 </v>
   <v>       0.02083333 </v>
   <v>       0.02083333 </v>
   <v>       0.02083333 </v>
   <v>       0.02083333 </v>
   <v>       0.01041667 </v>
   <v>       0.01041667 </v>
   <v>       0.02083333 </v>
   <v>       0.02083333 </v>
   <v>       0.02083333 </v>
   <v>       0.02083333 </v>
   <v>       0.01041667 </v>
   <v>       0.02083333 </v>
   <v>       0.02083333 </v>
   <v>       0.01041667 </v>
   <v>       0.01041667 </v>
   <v>       0.02083333 </v>
   <v>       0.00347222 </v>
  </varray>
 </kpoints>
 <parameters>
  <separator name="general" >
   <i type="string" name="SYSTEM">unknown system</i>
   <i type="logical" name="LCOMPAT"> F  </i>
  </separator>
  <separator name="electronic" >
   <i type="string" name="PREC">a</i>
   <i name="ENMAX">    520.00000000</i>
   <i name="ENAUG">    644.87300000</i>
   <i name="EDIFF">      0.00001000</i>
   <i type="int" name="IALGO">    38</i>
   <i type="int" name="IWAVPR">    10</i>
   <i type="int" name="NBANDS">    12</i>
   <i name="NELECT">      8.00000000</i>
   <i type="int" name="TURBO">     0</i>
   <i type="int" name="IRESTART">     0</i>
   <i type="int" name="NREBOOT">     0</i>
   <i type="int" name="NMIN">     0</i>
   <i name="EREF">      0.00000000</i>
   <separator name="electronic smearing" >
    <i type="int" name="ISMEAR">     0</i>
    <i name="SIGMA">      0.02000000</i>
    <i name="KSPACING">      0.50000000</i>
    <i type="logical" name="KGAMMA"> T  </i>
   </separator>
   <separator name="electronic projectors" >
    <i type="logical" name="LREAL"> T  </i>
    <v name="ROPT">     -0.00025000</v>
    <i type="int" name="LMAXPAW">  -100</i>
    <i type="int" name="LMAXMIX">     2</i>
    <i type="logical" name="NLSPLINE"> F  </i>
   </separator>
   <separator name="electronic startup" >
    <i type="int" name="ISTART">     0</i>
    <i type="int" name="ICHARG">     2</i>
    <i type="int" name="INIWAV">     1</i>
   </separator>
   <separator name="electronic spin" >
    <i type="int" name="ISPIN">     1</i>
    <i type="logical" name="LNONCOLLINEAR"> F  </i>
    <v name="MAGMOM">      0.60000000      0.60000000</v>
    <i name="NUPDOWN">     -1.00000000</i>
    <i type="logical" name="LSORBIT"> F  </i>
    <v name="SAXIS">      0.00000000      0.00000000      1.00000000</v>
    <i type="logical" name="LSPIRAL"> F  </i>
    <v name="QSPIRAL">      0.00000000      0.00000000      0.00000000</v>
    <i type="logical" name="LZEROZ"> F  </i>
   </separator>
   <separator name="electronic exchange-correlation" >
    <i type="logical" name="LASPH"> F  </i>
    <i type="logical" name="LMETAGGA"> F  </i>
   </separator>
   <separator name="electronic convergence" >
    <i type="int" name="NELM">   250</i>
    <i type="int" name="NELMDL">    -5</i>
    <i type="int" name="NELMIN">     6</i>
    <i name="ENINI">    520.00000000</i>
    <separator name="electronic convergence detail" >
     <i type="logical" name="LDIAG"> T  </i>
     <i type="logical" name="LSUBROT"> F  </i>
     <i name="WEIMIN">      0.00000000</i>
     <i name="EBREAK">      0.00000021</i>
     <i name="DEPER">      0.30000000</i>
     <i type="int" name="NRMM">     4</i>
     <i name="TIME">      0.40000000</i>
    </separator>
   </separator>
   <separator name="electronic mixer" >
    <i name="AMIX">      0.40000000</i>
    <i name="BMIX">      1.00000000</i>
    <i name="AMIN">      0.10000000</i>
    <i name="AMIX_MAG">      1.60000000</i>
    <i name="BMIX_MAG">      1.00000000</i>
    <separator name="electronic mixer details" >
     <i type="int" name="IMIX">     4</i>
     <i type="logical" name="MIXFIRST"> F  </i>
     <i type="int" name="MAXMIX">   -45</i>
     <i name="WC">    100.00000000</i>
     <i type="int" name="INIMIX">     1</i>
     <i type="int" name="MIXPRE">     1</i>
     <i type="int" name="MREMOVE">     5</i>
    </separator>
   </separator>
   <separator name="electronic dipolcorrection" >
    <i type="logical" name="LDIPOL"> F  </i>
    <i type="logical" name="LMONO"> F  </i>
    <i type="int" name="IDIPOL">     0</i>
    <i name="EPSILON">      1.00000000</i>
    <v name="DIPOL">   -100.00000000   -100.00000000   -100.00000000</v>
    <i name="EFIELD">      0.00000000</i>
   </separator>
  </separator>
  <separator name="grids" >
   <i type="int" name="NGX">    18</i>
   <i type="int" name="NGY">    18</i>
   <i type="int" name="NGZ">   112</i>
   <i type="int" name="NGXF">    36</i>
   <i type="int" name="NGYF">    36</i>
   <i type="int" name="NGZF">   224</i>
   <i type="logical" name="ADDGRID"> F  </i>
  </separator>
  <separator name="ionic" >
   <i type="int" name="NSW">     0</i>
   <i type="int" name="IBRION">    -1</i>
   <i type="int" name="ISIF">     2</i>
   <i name="PSTRESS">      0.00000000</i>
   <i name="EDIFFG">     -0.00500000</i>
   <i type="int" name="NFREE">     1</i>
   <i name="POTIM">      0.25000000</i>
   <i name="SMASS">     -3.00000000</i>
   <i name="SCALEE">      1.00000000</i>
  </separator>
  <separator name="ionic md" >
   <i name="TEBEG">      0.00010000</i>
   <i name="TEEND">      0.00010000</i>
   <i type="int" name="NBLOCK">     1</i>
   <i type="int" name="KBLOCK">     1</i>
   <i type="int" name="NPACO">   256</i>
   <i name="APACO">     16.00000000</i>
  </separator>
  <separator name="symmetry" >
   <i type="int" name="ISYM">     2</i>
   <i name="SYMPREC">      0.00001000</i>
  </separator>
  <separator name="dos" >
   <i type="logical" name="LORBIT"> F  </i>
   <v name="RWIGS">     -1.00000000</v>
   <i type="int" name="NEDOS">   301</i>
   <i name="EMIN">     10.00000000</i>
   <i name="EMAX">    -10.00000000</i>
   <i name="EFERMI">      0.00000000</i>
  </separator>
  <separator name="writing" >
   <i type="int" name="NWRITE">     2</i>
   <i type="logical" name="LWAVE"> F  </i>
   <i type="logical" name="LCHARG"> F  </i>
   <i type="logical" name="LPARD"> F  </i>
   <i type="logical" name="LVTOT"> F  </i>
   <i type="logical" name="LVHAR"> F  </i>
   <i type="logical" name="LELF"> F  </i>
   <i type="logical" name="LOPTICS"> F  </i>
   <v name="STM">      0.00000000      0.00000000      0.00000000      0.00000000      0.00000000      0.00000000      0.00000000</v>
  </separator>
  <separator name="performance" >
   <i type="int" name="NPAR">     6</i>
   <i type="int" name="NSIM">     4</i>
   <i type="int" name="NBLK">    -1</i>
   <i type="logical" name="LPLANE"> T  </i>
   <i type="logical" name="LSCALAPACK"> T  </i>
   <i type="logical" name="LSCAAWARE"> F  </i>
   <i type="logical" name="LSCALU"> F  </i>
   <i type="logical" name="LASYNC"> F  </i>
   <i type="logical" name="LORBITALREAL"> F  </i>
  </separator>
  <separator name="miscellaneous" >
   <i type="int" name="IDIOT">     3</i>
   <i type="logical" name="LMUSIC"> F  </i>
   <v name="POMASS">     12.01100000</v>
   <v name="DARWINR">      0.00000000</v>
   <v name="DARWINV">      1.00000000</v>
   <i type="logical" name="LCORR"> T  </i>
  </separator>
  <i type="logical" name="GGA_COMPAT"> T  </i>
  <i type="logical" name="LBERRY"> F  </i>
  <i type="int" name="ICORELEVEL">     0</i>
  <i type="logical" name="LDAU"> F  </i>
  <i type="int" name="I_CONSTRAINED_M">     0</i>
  <separator name="electronic exchange-correlation" >
   <i type="string" name="GGA">--</i>
   <i type="int" name="VOSKOWN">     0</i>
   <i type="logical" name="LHFCALC"> F  </i>
   <i type="string" name="PRECFOCK"></i>
   <i type="logical" name="LSYMGRAD"> F  </i>
   <i type="logical" name="LHFONE"> F  </i>
   <i type="logical" name="LRHFCALC"> F  </i>
   <i type="logical" name="LTHOMAS"> F  </i>
   <i type="logical" name="LMODELHF"> F  </i>
   <i name="ENCUT4O">     -1.00000000</i>
   <i type="int" name="EXXOEP">     0</i>
   <i type="int" name="FOURORBIT">     0</i>
   <i name="AEXX">      0.00000000</i>
   <i name="HFALPHA">      0.00000000</i>
   <i name="MCALPHA">      0.00000000</i>
   <i name="ALDAX">      1.00000000</i>
   <i name="AGGAX">      1.00000000</i>
   <i name="ALDAC">      1.00000000</i>
   <i name="AGGAC">      1.00000000</i>
   <i type="int" name="NKREDX">     1</i>
   <i type="int" name="NKREDY">     1</i>
   <i type="int" name="NKREDZ">     1</i>
   <i type="logical" name="SHIFTRED"> F  </i>
   <i type="logical" name="ODDONLY"> F  </i>
   <i type="logical" name="EVENONLY"> F  </i>
   <i type="int" name="LMAXFOCK">     0</i>
   <i type="int" name="NMAXFOCKAE">     0</i>
   <i type="logical" name="LFOCKAEDFT"> F  </i>
   <i name="HFSCREEN">      0.00000000</i>
   <i name="HFSCREENC">      0.00000000</i>
   <i type="int" name="NBANDSGWLOW">     0</i>
  </separator>
  <separator name="vdW DFT" >
   <i type="logical" name="LUSE_VDW"> F  </i>
   <i name="Zab_VDW">     -0.84910000</i>
   <i name="PARAM1">      0.12340000</i>
   <i name="PARAM2">      1.00000000</i>
   <i name="PARAM3">      0.00000000</i>
  </separator>
  <separator name="model GW" >
   <i type="int" name="MODEL_GW">     0</i>
   <i name="MODEL_EPS0">     23.14419972</i>
   <i name="MODEL_ALPHA">      1.00000000</i>
  </separator>
  <separator name="linear response parameters" >
   <i type="logical" name="LEPSILON"> F  </i>
   <i type="logical" name="LRPA"> F  </i>
   <i type="logical" name="LNABLA"> F  </i>
   <i type="logical" name="LVEL"> F  </i>
   <i type="int" name="KINTER">     0</i>
   <i name="CSHIFT">      0.10000000</i>
   <i name="OMEGAMAX">     -1.00000000</i>
   <i name="DEG_THRESHOLD">      0.00200000</i>
  </separator>
  <separator name="orbital magnetization" >
   <i type="logical" name="NUCIND"> F  </i>
   <v name="MAGPOS">      0.00000000      0.00000000      0.00000000</v>
   <i type="logical" name="LNICSALL"> T  </i>
   <i type="logical" name="ORBITALMAG"> F  </i>
   <i type="logical" name="LMAGBLOCH"> F  </i>
   <i type="logical" name="LCHIMAG"> F  </i>
   <i type="logical" name="LGAUGE"> T  </i>
   <i type="int" name="MAGATOM">     0</i>
   <v name="MAGDIPOL">      0.00000000      0.00000000      0.00000000</v>
   <v name="AVECCONST">      0.00000000      0.00000000      0.00000000</v>
  </separator>
  <separator name="response functions" >
   <i type="logical" name="LADDER"> F  </i>
   <i type="logical" name="LFXC"> F  </i>
   <i type="logical" name="LHARTREE"> T  </i>
   <i type="int" name="IBSE">     0</i>
   <v type="int" name="KPOINT">    -1     0     0     0</v>
   <i type="logical" name="LTCTE"> F  </i>
   <i type="logical" name="LTETE"> F  </i>
   <i type="logical" name="LTRIPLET"> F  </i>
   <i type="logical" name="LFXCEPS"> F  </i>
   <i type="logical" name="LFXHEG"> F  </i>
   <i type="int" name="NATURALO">     0</i>
   <i type="logical" name="L2ORDER"> F  </i>
   <i type="logical" name="LUSEW"> F  </i>
   <i name="ENCUTGW">     -2.00000000</i>
   <i name="ENCUTGWSOFT">     -2.00000000</i>
   <i name="ENCUTLF">     -1.00000000</i>
   <i type="int" name="LMAXMP2">    -1</i>
   <i name="SCISSOR">      0.00000000</i>
   <i type="int" name="NOMEGA">     0</i>
   <i type="int" name="NOMEGAR">     0</i>
   <i type="int" name="NBANDSGW">    -1</i>
   <i type="int" name="NBANDSO">    -1</i>
   <i type="int" name="NBANDSV">    -1</i>
   <i type="int" name="NELM">   250</i>
   <i type="int" name="NELMHF">     1</i>
   <i type="int" name="DIM">     3</i>
   <i type="int" name="ANTIRES">     0</i>
   <i name="OMEGAMAX">    -30.00000000</i>
   <i name="OMEGAMIN">    -30.00000000</i>
   <i name="OMEGATL">   -200.00000000</i>
   <i type="int" name="OMEGAGRID">     0</i>
   <i name="CSHIFT">     -0.10000000</i>
   <i type="logical" name="SELFENERGY"> F  </i>
   <i type="logical" name="LSPECTRAL"> F  </i>
   <i type="logical" name="LSPECTRALGW"> F  </i>
   <i type="logical" name="LSINGLES"> F  </i>
   <i type="logical" name="LFERMIGW"> F  </i>
   <i type="logical" name="ODDONLYGW"> F  </i>
   <i type="logical" name="EVENONLYGW"> F  </i>
   <i type="int" name="NKREDLFX">     1</i>
   <i type="int" name="NKREDLFY">     1</i>
   <i type="int" name="NKREDLFZ">     1</i>
   <i type="int" name="MAXMEM">  1800</i>
   <i type="int" name="TELESCOPE">     0</i>
   <i type="int" name="TAUPAR">     1</i>
   <i type="int" name="OMEGAPAR">    -1</i>
   <i name="LAMBDA">      1.00000000</i>
  </separator>
  <separator name="External order field" >
   <i name="OFIELD_KAPPA">      0.00000000</i>
   <v name="OFIELD_K">      0.00000000      0.00000000      0.00000000</v>
   <i name="OFIELD_Q6_NEAR">      0.00000000</i>
   <i name="OFIELD_Q6_FAR">      0.00000000</i>
   <i name="OFIELD_A">      0.00000000</i>
  </separator>
 </parameters>
 <atominfo>
  <atoms>       2 </atoms>
  <types>       1 </types>
  <array name="atoms" >
   <dimension dim="1">ion</dimension>
   <field type="string">element</field>
   <field type="int">atomtype</field>
   <set>
    <rc><c>C </c><c>   1</c></rc>
    <rc><c>C </c><c>   1</c></rc>
   </set>
  </array>
  <array name="atomtypes" >
   <dimension dim="1">type</dimension>
   <field type="int">atomspertype</field>
   <field type="string">element</field>
   <field>mass</field>
   <field>valence</field>
   <field type="string">pseudopotential</field>
   <set>
    <rc><c>   2</c><c>C </c><c>     12.01100000</c><c>      4.00000000</c><c>  PAW_PBE C 08Apr2002                   </c></rc>
   </set>
  </array>
 </atominfo>
 <structure name="initialpos" >
  <crystal>
   <varray name="basis" >
    <v>       2.43696700       0.00000000       0.00000000 </v>
    <v>      -1.21848300       2.11047400       0.00000000 </v>
    <v>       0.00000000       0.00000000      15.00000000 </v>
   </varray>
   <i name="volume">     77.14733239 </i>
   <varray name="rec_basis" >
    <v>       0.41034614       0.23691351       0.00000000 </v>
    <v>       0.00000000       0.47382721       0.00000000 </v>
    <v>       0.00000000       0.00000000       0.06666667 </v>
   </varray>
  </crystal>
  <varray name="positions" >
   <v>       0.00000000       0.00000000       0.50000000 </v>
   <v>       0.33333300       0.66666700       0.50000000 </v>
  </varray>
 </structure>
 <calculation>
  <scstep>
   <time name="dav">    0.17    0.17</time>
   <time name="total">    0.18    0.18</time>
   <energy>
    <i name="alphaZ">      4.25921226 </i>
    <i name="ewald">    863.17891370 </i>
    <i name="hartreedc">  -1080.13827181 </i>
    <i name="XCdc">     26.52055679 </i>
    <i name="pawpsdc">    217.04409276 </i>
    <i name="pawaedc">   -218.18290438 </i>
    <i name="eentropy">     -0.00022532 </i>
    <i name="bandstr">    -69.20719620 </i>
    <i name="atom">    294.29778662 </i>
    <i name="e_fr_energy">     37.77196444 </i>
    <i name="e_wo_entrp">     37.77218975 </i>
    <i name="e_0_energy">     37.77207710 </i>
   </energy>
  </scstep>
  <scstep>
   <time name="dav">    0.23    0.23</time>
   <time name="total">    0.23    0.23</time>
   <energy>
    <i name="e_fr_energy">    -18.14506407 </i>
    <i name="e_wo_entrp">    -18.14506407 </i>
    <i name="e_0_energy">    -18.14506407 </i>
   </energy>
  </scstep>
  <scstep>
   <time name="dav">    0.26    0.26</time>
   <time name="total">    0.26    0.26</time>
   <energy>
    <i name="e_fr_energy">    -19.83939921 </i>
    <i name="e_wo_entrp">    -19.83932089 </i>
    <i name="e_0_energy">    -19.83936005 </i>
   </energy>
  </scstep>
  <scstep>
   <time name="dav">    0.25    0.25</time>
   <time name="total">    0.25    0.25</time>
   <energy>
    <i name="e_fr_energy">    -19.84632955 </i>
    <i name="e_wo_entrp">    -19.84625119 </i>
    <i name="e_0_energy">    -19.84629037 </i>
   </energy>
  </scstep>
  <scstep>
   <time name="dav">    0.25    0.25</time>
   <time name="total">    0.26    0.27</time>
   <energy>
    <i name="e_fr_energy">    -19.84633577 </i>
    <i name="e_wo_entrp">    -19.84625741 </i>
    <i name="e_0_energy">    -19.84629659 </i>
   </energy>
  </scstep>
  <scstep>
   <time name="dav">    0.21    0.21</time>
   <time name="total">    0.23    0.23</time>
   <energy>
    <i name="e_fr_energy">    -18.82796308 </i>
    <i name="e_wo_entrp">    -18.82788472 </i>
    <i name="e_0_energy">    -18.82792390 </i>
   </energy>
  </scstep>
  <scstep>
   <time name="dav">    0.25    0.25</time>
   <time name="total">    0.27    0.27</time>
   <energy>
    <i name="e_fr_energy">    -18.43663241 </i>
    <i name="e_wo_entrp">    -18.43655405 </i>
    <i name="e_0_energy">    -18.43659323 </i>
   </energy>
  </scstep>
  <scstep>
   <time name="dav">    0.23    0.23</time>
   <time name="total">    0.25    0.25</time>
   <energy>
    <i name="e_fr_energy">    -18.42805570 </i>
    <i name="e_wo_entrp">    -18.42797734 </i>
    <i name="e_0_energy">    -18.42801652 </i>
   </energy>
  </scstep>
  <scstep>
   <time name="dav">    0.22    0.22</time>
   <time name="total">    0.24    0.24</time>
   <energy>
    <i name="e_fr_energy">    -18.42609031 </i>
    <i name="e_wo_entrp">    -18.42601195 </i>
    <i name="e_0_energy">    -18.42605113 </i>
   </energy>
  </scstep>
  <scstep>
   <time name="dav">    0.20    0.20</time>
   <time name="total">    0.21    0.21</time>
   <energy>
    <i name="e_fr_energy">    -18.42412395 </i>
    <i name="e_wo_entrp">    -18.42404559 </i>
    <i name="e_0_energy">    -18.42408477 </i>
   </energy>
  </scstep>
  <scstep>
   <time name="dav">    0.19    0.19</time>
   <time name="total">    0.20    0.21</time>
   <energy>
    <i name="e_fr_energy">    -18.42442067 </i>
    <i name="e_wo_entrp">    -18.42434231 </i>
    <i name="e_0_energy">    -18.42438149 </i>
   </energy>
  </scstep>
  <scstep>
   <time name="dav">    0.20    0.20</time>
   <time name="total">    0.21    0.21</time>
   <energy>
    <i name="e_fr_energy">    -18.42461824 </i>
    <i name="e_wo_entrp">    -18.42453988 </i>
    <i name="e_0_energy">    -18.42457906 </i>
   </energy>
  </scstep>
  <scstep>
   <time name="dav">    0.18    0.18</time>
   <time name="total">    0.20    0.20</time>
   <energy>
    <i name="e_fr_energy">    -18.42537402 </i>
    <i name="e_wo_entrp">    -18.42529566 </i>
    <i name="e_0_energy">    -18.42533484 </i>
   </energy>
  </scstep>
  <scstep>
   <time name="dav">    0.24    0.24</time>
   <time name="total">    0.25    0.25</time>
   <energy>
    <i name="e_fr_energy">    -18.42542591 </i>
    <i name="e_wo_entrp">    -18.42534755 </i>
    <i name="e_0_energy">    -18.42538673 </i>
   </energy>
  </scstep>
  <scstep>
   <time name="dav">    0.18    0.18</time>
   <time name="total">    0.20    0.20</time>
   <energy>
    <i name="e_fr_energy">    -18.42553567 </i>
    <i name="e_wo_entrp">    -18.42545731 </i>
    <i name="e_0_energy">    -18.42549649 </i>
   </energy>
  </scstep>
  <scstep>
   <time name="dav">    0.18    0.18</time>
   <time name="total">    0.19    0.19</time>
   <energy>
    <i name="alphaZ">      4.25921226 </i>
    <i name="ewald">    863.17891370 </i>
    <i name="hartreedc">  -1115.41166937 </i>
    <i name="XCdc">     27.75980434 </i>
    <i name="pawpsdc">    882.64300499 </i>
    <i name="pawaedc">   -884.02957634 </i>
    <i name="eentropy">     -0.00007836 </i>
    <i name="bandstr">    -91.12294126 </i>
    <i name="atom">    294.29778662 </i>
    <i name="e_fr_energy">    -18.42554342 </i>
    <i name="e_wo_entrp">    -18.42546506 </i>
    <i name="e_0_energy">    -18.42550424 </i>
   </energy>
  </scstep>
  <structure>
   <crystal>
    <varray name="basis" >
     <v>       2.43696700       0.00000000       0.00000000 </v>
     <v>      -1.21848300       2.11047400       0.00000000 </v>
     <v>       0.00000000       0.00000000      15.00000000 </v>
    </varray>
    <i name="volume">     77.14733239 </i>
    <varray name="rec_basis" >
     <v>       0.41034614       0.23691351       0.00000000 </v>
     <v>       0.00000000       0.47382721       0.00000000 </v>
     <v>       0.00000000       0.00000000       0.06666667 </v>
    </varray>
   </crystal>
   <varray name="positions" >
    <v>       0.00000000       0.00000000       0.50000000 </v>
    <v>       0.33333300       0.66666700       0.50000000 </v>
   </varray>
  </structure>
  <varray name="forces" >
   <v>      -0.00000000       0.00000000       0.00000000 </v>
   <v>       0.00000000       0.00000000       0.00000000 </v>
  </varray>
  <varray name="stress" >
   <v>      37.39375019       0.00000886       0.00000000 </v>
   <v>       0.00000886      37.39370305       0.00000000 </v>
   <v>       0.00000000      -0.00000000      -0.16559575 </v>
  </varray>
  <energy>
   <i name="e_fr_energy">    -18.42554342 </i>
   <i name="e_wo_entrp">    -18.42550424 </i>
   <i name="e_0_energy">     -0.00007836 </i>
  </energy>
  <time name="totalsc">    3.79    3.82</time>
  <eigenvalues>
   <array>
    <dimension dim="1">band</dimension>
    <dimension dim="2">kpoint</dimension>
    <dimension dim="3">spin</dimension>
    <field>eigene</field>
    <field>occ</field>
    <set>
     <set comment="spin 1">
      <set comment="kpoint 1">
       <r>  -21.9194    1.0000 </r>
       <r>   -9.9776    1.0000 </r>
       <r>   -5.1322    1.0000 </r>
       <r>   -5.1321    1.0000 </r>
       <r>    1.0265    0.0000 </r>
       <r>    1.9408    0.0000 </r>
       <r>    2.4408    0.0000 </r>
       <r>    4.3648    0.0000 </r>
       <r>    5.1065    0.0000 </r>
       <r>    6.4364    0.0000 </r>
       <r>    6.4365    0.0000 </r>
       <r>    8.2497    0.0000 </r>
      </set>
      <set comment="kpoint 2">
       <r>  -21.8774    1.0000 </r>
       <r>   -9.9271    1.0000 </r>
       <r>   -5.3037    1.0000 </r>
       <r>   -5.2248    1.0000 </r>
       <r>    1.0836    0.0000 </r>
       <r>    1.9984    0.0000 </r>
       <r>    2.4989    0.0000 </r>
       <r>    4.4220    0.0000 </r>
       <r>    5.1624    0.0000 </r>
       <r>    6.4630    0.0000 </r>
       <r>    6.6216    0.0000 </r>
       <r>    8.3054    0.0000 </r>
      </set>
      <set comment="kpoint 3">
       <r>  -21.7518    1.0000 </r>
       <r>   -9.7761    1.0000 </r>
       <r>   -5.7927    1.0000 </r>
       <r>   -5.4835    1.0000 </r>
       <r>    1.2546    0.0000 </r>
       <r>    2.1710    0.0000 </r>
       <r>    2.6732    0.0000 </r>
       <r>    4.5937    0.0000 </r>
       <r>    5.3300    0.0000 </r>
       <r>    6.5165    0.0000 </r>
       <r>    7.1566    0.0000 </r>
       <r>    8.4719    0.0000 </r>
      </set>
      <set comment="kpoint 4">
       <r>  -21.5428    1.0000 </r>
       <r>   -9.5255    1.0000 </r>
       <r>   -6.5356    1.0000 </r>
       <r>   -5.8612    1.0000 </r>
       <r>    1.5398    0.0000 </r>
       <r>    2.4585    0.0000 </r>
       <r>    2.9638    0.0000 </r>
       <r>    4.8793    0.0000 </r>
       <r>    5.6078    0.0000 </r>
       <r>    6.5464    0.0000 </r>
       <r>    7.9906    0.0000 </r>
       <r>    8.4492    0.0000 </r>
      </set>
      <set comment="kpoint 5">
       <r>  -21.2509    1.0000 </r>
       <r>   -9.1770    1.0000 </r>
       <r>   -7.4585    1.0000 </r>
       <r>   -6.3042    1.0000 </r>
       <r>    1.9389    0.0000 </r>
       <r>    2.8601    0.0000 </r>
       <r>    3.3706    0.0000 </r>
       <r>    5.2774    0.0000 </r>
       <r>    5.9842    0.0000 </r>
       <r>    6.5303    0.0000 </r>
       <r>    7.5614    0.0000 </r>
       <r>    9.1386    0.0000 </r>
      </set>
      <set comment="kpoint 6">
       <r>  -20.8771    1.0000 </r>
       <r>   -8.7334    1.0000 </r>
       <r>   -8.4961    1.0000 </r>
       <r>   -6.7663    1.0000 </r>
       <r>    2.4516    0.0000 </r>
       <r>    3.3741    0.0000 </r>
       <r>    3.8935    0.0000 </r>
       <r>    5.7768    0.0000 </r>
       <r>    6.2901    0.0000 </r>
       <r>    6.5355    0.0000 </r>
       <r>    6.6381    0.0000 </r>
       <r>    9.6328    0.0000 </r>
      </set>
      <set comment="kpoint 7">
       <r>  -20.4224    1.0000 </r>
       <r>   -9.5971    1.0000 </r>
       <r>   -8.1994    1.0000 </r>
       <r>   -7.2129    1.0000 </r>
       <r>    3.0773    0.0000 </r>
       <r>    3.9907    0.0000 </r>
       <r>    4.5320    0.0000 </r>
       <r>    5.3671    0.0000 </r>
       <r>    6.2209    0.0000 </r>
       <r>    6.4414    0.0000 </r>
       <r>    7.1962    0.0000 </r>
       <r>   10.2308    0.0000 </r>
      </set>
      <set comment="kpoint 8">
       <r>  -19.8885    1.0000 </r>
       <r>  -10.7231    1.0000 </r>
       <r>   -7.6194    1.0000 </r>
       <r>   -7.5821    1.0000 </r>
       <r>    3.8147    0.0000 </r>
       <r>    4.0929    0.0000 </r>
       <r>    4.8192    0.0000 </r>
       <r>    5.2835    0.0000 </r>
       <r>    6.0842    0.0000 </r>
       <r>    7.1701    0.0000 </r>
       <r>    7.9240    0.0000 </r>
       <r>   10.9257    0.0000 </r>
      </set>
      <set comment="kpoint 9">
       <r>  -19.2780    1.0000 </r>
       <r>  -11.8457    1.0000 </r>
       <r>   -7.9690    1.0000 </r>
       <r>   -6.8940    1.0000 </r>
       <r>    2.9272    0.0000 </r>
       <r>    4.6600    0.0000 </r>
       <r>    5.6349    0.0000 </r>
       <r>    5.9116    0.0000 </r>
       <r>    6.1886    0.0000 </r>
       <r>    8.0157    0.0000 </r>
       <r>    8.7714    0.0000 </r>
       <r>   11.7024    0.0000 </r>
      </set>
      <set comment="kpoint 10">
       <r>  -18.5945    1.0000 </r>
       <r>  -12.9432    1.0000 </r>
       <r>   -8.2504    1.0000 </r>
       <r>   -6.1587    1.0000 </r>
       <r>    1.7666    0.0000 </r>
       <r>    5.5602    0.0000 </r>
       <r>    5.8664    0.0000 </r>
       <r>    6.5962    0.0000 </r>
       <r>    7.1554    0.0000 </r>
       <r>    8.9678    0.0000 </r>
       <r>    9.7314    0.0000 </r>
       <r>   12.5114    0.0000 </r>
      </set>
      <set comment="kpoint 11">
       <r>  -17.8460    1.0000 </r>
       <r>  -13.9951    1.0000 </r>
       <r>   -8.4560    1.0000 </r>
       <r>   -5.4262    1.0000 </r>
       <r>    0.7140    0.0000 </r>
       <r>    5.6786    0.0000 </r>
       <r>    6.7219    0.0000 </r>
       <r>    7.6676    0.0000 </r>
       <r>    8.2556    0.0000 </r>
       <r>   10.0171    0.0000 </r>
       <r>   10.7990    0.0000 </r>
       <r>   11.8926    0.0000 </r>
      </set>
      <set comment="kpoint 12">
       <r>  -17.0606    1.0000 </r>
       <r>  -14.9655    1.0000 </r>
       <r>   -8.5811    1.0000 </r>
       <r>   -4.8126    1.0000 </r>
       <r>   -0.0975    0.0000 </r>
       <r>    5.6270    0.0000 </r>
       <r>    7.8852    0.0000 </r>
       <r>    8.8393    0.0000 </r>
       <r>    9.4711    0.0000 </r>
       <r>   10.5044    0.0000 </r>
       <r>   11.0847    0.0000 </r>
       <r>   11.5358    0.0000 </r>
      </set>
      <set comment="kpoint 13">
       <r>  -16.5132    1.0000 </r>
       <r>  -15.5750    1.0000 </r>
       <r>   -8.6231    1.0000 </r>
       <r>   -4.5507    1.0000 </r>
       <r>   -0.4264    0.0000 </r>
       <r>    5.6080    0.0000 </r>
       <r>    9.0794    0.0000 </r>
       <r>    9.2283    0.0000 </r>
       <r>    9.9961    0.0000 </r>
       <r>   10.2120    0.0000 </r>
       <r>   10.7898    0.0000 </r>
       <r>   10.8129    0.0000 </r>
      </set>
      <set comment="kpoint 14">
       <r>  -21.7937    1.0000 </r>
       <r>   -9.8264    1.0000 </r>
       <r>   -5.6243    1.0000 </r>
       <r>   -5.4103    1.0000 </r>
       <r>    1.1976    0.0000 </r>
       <r>    2.1135    0.0000 </r>
       <r>    2.6151    0.0000 </r>
       <r>    4.5365    0.0000 </r>
       <r>    5.2742    0.0000 </r>
       <r>    6.5271    0.0000 </r>
       <r>    6.9557    0.0000 </r>
       <r>    8.4166    0.0000 </r>
      </set>
      <set comment="kpoint 15">
       <r>  -21.6263    1.0000 </r>
       <r>   -9.6255    1.0000 </r>
       <r>   -6.2184    1.0000 </r>
       <r>   -5.7505    1.0000 </r>
       <r>    1.4257    0.0000 </r>
       <r>    2.3436    0.0000 </r>
       <r>    2.8476    0.0000 </r>
       <r>    4.7651    0.0000 </r>
       <r>    5.4978    0.0000 </r>
       <r>    6.6202    0.0000 </r>
       <r>    7.5751    0.0000 </r>
       <r>    8.6367    0.0000 </r>
      </set>
      <set comment="kpoint 16">
       <r>  -21.3759    1.0000 </r>
       <r>   -9.3259    1.0000 </r>
       <r>   -7.0296    1.0000 </r>
       <r>   -6.1831    1.0000 </r>
       <r>    1.7680    0.0000 </r>
       <r>    2.6882    0.0000 </r>
       <r>    3.1963    0.0000 </r>
       <r>    5.1073    0.0000 </r>
       <r>    5.8303    0.0000 </r>
       <r>    6.6674    0.0000 </r>
       <r>    7.9388    0.0000 </r>
       <r>    8.4500    0.0000 </r>
      </set>
      <set comment="kpoint 17">
       <r>  -21.0430    1.0000 </r>
       <r>   -8.9298    1.0000 </r>
       <r>   -7.9928    1.0000 </r>
       <r>   -6.6531    1.0000 </r>
       <r>    2.2240    0.0000 </r>
       <r>    3.1464    0.0000 </r>
       <r>    3.6613    0.0000 </r>
       <r>    5.5600    0.0000 </r>
       <r>    6.2460    0.0000 </r>
       <r>    6.6665    0.0000 </r>
       <r>    6.9842    0.0000 </r>
       <r>    9.4109    0.0000 </r>
      </set>
      <set comment="kpoint 18">
       <r>  -20.6288    1.0000 </r>
       <r>   -9.0501    1.0000 </r>
       <r>   -8.4407    1.0000 </r>
       <r>   -7.1197    1.0000 </r>
       <r>    2.7934    0.0000 </r>
       <r>    3.7146    0.0000 </r>
       <r>    4.2422    0.0000 </r>
       <r>    5.8500    0.0000 </r>
       <r>    6.1846    0.0000 </r>
       <r>    6.4371    0.0000 </r>
       <r>    6.9404    0.0000 </r>
       <r>    9.9555    0.0000 </r>
      </set>
      <set comment="kpoint 19">
       <r>  -20.1345    1.0000 </r>
       <r>  -10.1554    1.0000 </r>
       <r>   -7.8643    1.0000 </r>
       <r>   -7.5544    1.0000 </r>
       <r>    3.4754    0.0000 </r>
       <r>    4.3317    0.0000 </r>
       <r>    4.7952    0.0000 </r>
       <r>    4.9383    0.0000 </r>
       <r>    6.3331    0.0000 </r>
       <r>    6.8280    0.0000 </r>
       <r>    7.5889    0.0000 </r>
       <r>   10.5993    0.0000 </r>
      </set>
      <set comment="kpoint 20">
       <r>  -19.5623    1.0000 </r>
       <r>  -11.2745    1.0000 </r>
       <r>   -7.9376    1.0000 </r>
       <r>   -7.2099    1.0000 </r>
       <r>    3.4943    0.0000 </r>
       <r>    4.2680    0.0000 </r>
       <r>    5.2379    0.0000 </r>
       <r>    5.7426    0.0000 </r>
       <r>    6.2032    0.0000 </r>
       <r>    7.6170    0.0000 </r>
       <r>    8.3763    0.0000 </r>
       <r>   11.3302    0.0000 </r>
      </set>
      <set comment="kpoint 21">
       <r>  -18.9150    1.0000 </r>
       <r>  -12.3812    1.0000 </r>
       <r>   -8.2564    1.0000 </r>
       <r>   -6.4945    1.0000 </r>
       <r>    2.3203    0.0000 </r>
       <r>    5.1643    0.0000 </r>
       <r>    6.0539    0.0000 </r>
       <r>    6.1390    0.0000 </r>
       <r>    6.6957    0.0000 </r>
       <r>    8.5147    0.0000 </r>
       <r>    9.2799    0.0000 </r>
       <r>   12.1168    0.0000 </r>
      </set>
      <set comment="kpoint 22">
       <r>  -18.1982    1.0000 </r>
       <r>  -13.4547    1.0000 </r>
       <r>   -8.5018    1.0000 </r>
       <r>   -5.7514    1.0000 </r>
       <r>    1.2083    0.0000 </r>
       <r>    5.8768    0.0000 </r>
       <r>    6.2503    0.0000 </r>
       <r>    7.1551    0.0000 </r>
       <r>    7.7344    0.0000 </r>
       <r>    9.5127    0.0000 </r>
       <r>   10.2938    0.0000 </r>
       <r>   12.5653    0.0000 </r>
      </set>
      <set comment="kpoint 23">
       <r>  -17.4253    1.0000 </r>
       <r>  -14.4705    1.0000 </r>
       <r>   -8.6682    1.0000 </r>
       <r>   -5.0562    1.0000 </r>
       <r>    0.2570    0.0000 </r>
       <r>    5.8383    0.0000 </r>
       <r>    7.3311    0.0000 </r>
       <r>    8.2745    0.0000 </r>
       <r>    8.8924    0.0000 </r>
       <r>   10.5891    0.0000 </r>
       <r>   11.2157    0.0000 </r>
       <r>   11.4249    0.0000 </r>
      </set>
      <set comment="kpoint 24">
       <r>  -16.6722    1.0000 </r>
       <r>  -15.3466    1.0000 </r>
       <r>   -8.7523    1.0000 </r>
       <r>   -4.5819    1.0000 </r>
       <r>   -0.3482    0.0000 </r>
       <r>    5.8018    0.0000 </r>
       <r>    8.5445    0.0000 </r>
       <r>    9.4795    0.0000 </r>
       <r>    9.8580    0.0000 </r>
       <r>   10.1680    0.0000 </r>
       <r>   10.7701    0.0000 </r>
       <r>   11.5492    0.0000 </r>
      </set>
      <set comment="kpoint 25">
       <r>  -21.4176    1.0000 </r>
       <r>   -9.3757    1.0000 </r>
       <r>   -6.8407    1.0000 </r>
       <r>   -6.1862    1.0000 </r>
       <r>    1.7110    0.0000 </r>
       <r>    2.6308    0.0000 </r>
       <r>    3.1383    0.0000 </r>
       <r>    5.0505    0.0000 </r>
       <r>    5.7783    0.0000 </r>
       <r>    6.8316    0.0000 </r>
       <r>    8.0718    0.0000 </r>
       <r>    8.1071    0.0000 </r>
      </set>
      <set comment="kpoint 26">
       <r>  -21.1262    1.0000 </r>
       <r>   -9.0283    1.0000 </r>
       <r>   -7.6390    1.0000 </r>
       <r>   -6.6996    1.0000 </r>
       <r>    2.1104    0.0000 </r>
       <r>    3.0323    0.0000 </r>
       <r>    3.5452    0.0000 </r>
       <r>    5.4488    0.0000 </r>
       <r>    6.1681    0.0000 </r>
       <r>    7.0012    0.0000 </r>
       <r>    7.2305    0.0000 </r>
       <r>    8.8103    0.0000 </r>
      </set>
      <set comment="kpoint 27">
       <r>  -20.7529    1.0000 </r>
       <r>   -8.5861    1.0000 </r>
       <r>   -8.5801    1.0000 </r>
       <r>   -7.2165    1.0000 </r>
       <r>    2.6233    0.0000 </r>
       <r>    3.5464    0.0000 </r>
       <r>    4.0684    0.0000 </r>
       <r>    5.9458    0.0000 </r>
       <r>    6.2615    0.0000 </r>
       <r>    6.6401    0.0000 </r>
       <r>    7.0715    0.0000 </r>
       <r>    9.7843    0.0000 </r>
      </set>
      <set comment="kpoint 28">
       <r>  -20.2991    1.0000 </r>
       <r>   -9.6144    1.0000 </r>
       <r>   -8.0537    1.0000 </r>
       <r>   -7.6989    1.0000 </r>
       <r>    3.2493    0.0000 </r>
       <r>    4.1636    0.0000 </r>
       <r>    4.7075    0.0000 </r>
       <r>    5.1649    0.0000 </r>
       <r>    6.5925    0.0000 </r>
       <r>    6.8705    0.0000 </r>
       <r>    7.3951    0.0000 </r>
       <r>   10.3702    0.0000 </r>
      </set>
      <set comment="kpoint 29">
       <r>  -19.7664    1.0000 </r>
       <r>  -10.6958    1.0000 </r>
       <r>   -8.1274    1.0000 </r>
       <r>   -7.4381    1.0000 </r>
       <r>    3.9782    0.0000 </r>
       <r>    3.9873    0.0000 </r>
       <r>    4.9487    0.0000 </r>
       <r>    5.4615    0.0000 </r>
       <r>    6.7842    0.0000 </r>
       <r>    7.3242    0.0000 </r>
       <r>    8.0993    0.0000 </r>
       <r>   11.0413    0.0000 </r>
      </set>
      <set comment="kpoint 30">
       <r>  -19.1573    1.0000 </r>
       <r>  -11.7886    1.0000 </r>
       <r>   -8.4900    1.0000 </r>
       <r>   -6.7516    1.0000 </r>
       <r>    2.8300    0.0000 </r>
       <r>    4.8352    0.0000 </r>
       <r>    5.7874    0.0000 </r>
       <r>    6.3206    0.0000 </r>
       <r>    6.6711    0.0000 </r>
       <r>    8.1635    0.0000 </r>
       <r>    8.9421    0.0000 </r>
       <r>   11.7650    0.0000 </r>
      </set>
      <set comment="kpoint 31">
       <r>  -18.4759    1.0000 </r>
       <r>  -12.8657    1.0000 </r>
       <r>   -8.7789    1.0000 </r>
       <r>   -6.0168    1.0000 </r>
       <r>    1.7008    0.0000 </r>
       <r>    5.7840    0.0000 </r>
       <r>    6.5377    0.0000 </r>
       <r>    6.7450    0.0000 </r>
       <r>    7.3315    0.0000 </r>
       <r>    9.1017    0.0000 </r>
       <r>    9.8993    0.0000 </r>
       <r>   12.4281    0.0000 </r>
      </set>
      <set comment="kpoint 32">
       <r>  -17.7303    1.0000 </r>
       <r>  -13.9035    1.0000 </r>
       <r>   -8.9887    1.0000 </r>
       <r>   -5.2825    1.0000 </r>
       <r>    0.6692    0.0000 </r>
       <r>    6.3956    0.0000 </r>
       <r>    6.9014    0.0000 </r>
       <r>    7.8052    0.0000 </r>
       <r>    8.4291    0.0000 </r>
       <r>   10.1189    0.0000 </r>
       <r>   10.9626    0.0000 </r>
       <r>   11.9590    0.0000 </r>
      </set>
      <set comment="kpoint 33">
       <r>  -16.9490    1.0000 </r>
       <r>  -14.8638    1.0000 </r>
       <r>   -9.1159    1.0000 </r>
       <r>   -4.6632    1.0000 </r>
       <r>   -0.1343    0.0000 </r>
       <r>    6.3569    0.0000 </r>
       <r>    8.0478    0.0000 </r>
       <r>    8.9506    0.0000 </r>
       <r>    9.6432    0.0000 </r>
       <r>   10.6370    0.0000 </r>
       <r>   11.0421    0.0000 </r>
       <r>   11.6773    0.0000 </r>
      </set>
      <set comment="kpoint 34">
       <r>  -16.4065    1.0000 </r>
       <r>  -15.4664    1.0000 </r>
       <r>   -9.1585    1.0000 </r>
       <r>   -4.3966    1.0000 </r>
       <r>   -0.4633    0.0000 </r>
       <r>    6.3386    0.0000 </r>
       <r>    9.2281    0.0000 </r>
       <r>    9.3865    0.0000 </r>
       <r>    9.9736    0.0000 </r>
       <r>   10.3853    0.0000 </r>
       <r>   10.9588    0.0000 </r>
       <r>   10.9840    0.0000 </r>
      </set>
      <set comment="kpoint 35">
       <r>  -20.7943    1.0000 </r>
       <r>   -8.6347    1.0000 </r>
       <r>   -8.3611    1.0000 </r>
       <r>   -7.3142    1.0000 </r>
       <r>    2.5667    0.0000 </r>
       <r>    3.4901    0.0000 </r>
       <r>    4.0105    0.0000 </r>
       <r>    5.9027    0.0000 </r>
       <r>    6.3699    0.0000 </r>
       <r>    6.6180    0.0000 </r>
       <r>    7.4030    0.0000 </r>
       <r>    9.1738    0.0000 </r>
      </set>
      <set comment="kpoint 36">
       <r>  -20.3815    1.0000 </r>
       <r>   -9.2127    1.0000 </r>
       <r>   -8.1489    1.0000 </r>
       <r>   -7.9138    1.0000 </r>
       <r>    3.1363    0.0000 </r>
       <r>    4.0593    0.0000 </r>
       <r>    4.5919    0.0000 </r>
       <r>    5.3968    0.0000 </r>
       <r>    6.4686    0.0000 </r>
       <r>    7.1605    0.0000 </r>
       <r>    7.6651    0.0000 </r>
       <r>    9.7722    0.0000 </r>
      </set>
      <set comment="kpoint 37">
       <r>  -19.8892    1.0000 </r>
       <r>  -10.1768    1.0000 </r>
       <r>   -8.4366    1.0000 </r>
       <r>   -7.5761    1.0000 </r>
       <r>    3.8186    0.0000 </r>
       <r>    4.3234    0.0000 </r>
       <r>    4.7627    0.0000 </r>
       <r>    5.2891    0.0000 </r>
       <r>    7.1427    0.0000 </r>
       <r>    7.5488    0.0000 </r>
       <r>    7.9830    0.0000 </r>
       <r>   10.8567    0.0000 </r>
      </set>
      <set comment="kpoint 38">
       <r>  -19.3196    1.0000 </r>
       <r>  -11.2057    1.0000 </r>
       <r>   -8.8709    1.0000 </r>
       <r>   -6.9254    1.0000 </r>
       <r>    3.2380    0.0000 </r>
       <r>    4.6121    0.0000 </r>
       <r>    5.5440    0.0000 </r>
       <r>    6.1013    0.0000 </r>
       <r>    7.5189    0.0000 </r>
       <r>    7.9212    0.0000 </r>
       <r>    8.7242    0.0000 </r>
       <r>   11.5017    0.0000 </r>
      </set>
      <set comment="kpoint 39">
       <r>  -18.6760    1.0000 </r>
       <r>  -12.2547    1.0000 </r>
       <r>   -9.2182    1.0000 </r>
       <r>   -6.2125    1.0000 </r>
       <r>    2.1368    0.0000 </r>
       <r>    5.5146    0.0000 </r>
       <r>    6.4420    0.0000 </r>
       <r>    7.0215    0.0000 </r>
       <r>    7.4242    0.0000 </r>
       <r>    8.7944    0.0000 </r>
       <r>    9.6187    0.0000 </r>
       <r>   12.0659    0.0000 </r>
      </set>
      <set comment="kpoint 40">
       <r>  -17.9640    1.0000 </r>
       <r>  -13.2901    1.0000 </r>
       <r>   -9.4793    1.0000 </r>
       <r>   -5.4688    1.0000 </r>
       <r>    1.0817    0.0000 </r>
       <r>    6.5179    0.0000 </r>
       <r>    7.3104    0.0000 </r>
       <r>    7.4381    0.0000 </r>
       <r>    8.0842    0.0000 </r>
       <r>    9.7373    0.0000 </r>
       <r>   10.6254    0.0000 </r>
       <r>   12.2765    0.0000 </r>
      </set>
      <set comment="kpoint 41">
       <r>  -17.1981    1.0000 </r>
       <r>  -14.2800    1.0000 </r>
       <r>   -9.6540    1.0000 </r>
       <r>   -4.7658    1.0000 </r>
       <r>    0.1614    0.0000 </r>
       <r>    7.1946    0.0000 </r>
       <r>    7.6736    0.0000 </r>
       <r>    8.5111    0.0000 </r>
       <r>    9.2381    0.0000 </r>
       <r>   10.6479    0.0000 </r>
       <r>   11.4156    0.0000 </r>
       <r>   11.7496    0.0000 </r>
      </set>
      <set comment="kpoint 42">
       <r>  -16.4549    1.0000 </r>
       <r>  -15.1375    1.0000 </r>
       <r>   -9.7415    1.0000 </r>
       <r>   -4.2773    1.0000 </r>
       <r>   -0.4388    0.0000 </r>
       <r>    7.1719    0.0000 </r>
       <r>    8.8597    0.0000 </r>
       <r>    9.5718    0.0000 </r>
       <r>   10.1452    0.0000 </r>
       <r>   10.5107    0.0000 </r>
       <r>   10.8064    0.0000 </r>
       <r>   11.8833    0.0000 </r>
      </set>
      <set comment="kpoint 43">
       <r>  -19.9302    1.0000 </r>
       <r>   -9.9230    1.0000 </r>
       <r>   -8.6250    1.0000 </r>
       <r>   -7.6222    1.0000 </r>
       <r>    3.7622    0.0000 </r>
       <r>    4.4648    0.0000 </r>
       <r>    4.6838    0.0000 </r>
       <r>    5.2314    0.0000 </r>
       <r>    7.0806    0.0000 </r>
       <r>    7.7780    0.0000 </r>
       <r>    8.2695    0.0000 </r>
       <r>    9.9290    0.0000 </r>
      </set>
      <set comment="kpoint 44">
       <r>  -19.4010    1.0000 </r>
       <r>  -10.7529    1.0000 </r>
       <r>   -9.2355    1.0000 </r>
       <r>   -7.0130    1.0000 </r>
       <r>    3.4719    0.0000 </r>
       <r>    4.4999    0.0000 </r>
       <r>    5.4165    0.0000 </r>
       <r>    5.9866    0.0000 </r>
       <r>    7.7962    0.0000 </r>
       <r>    8.3571    0.0000 </r>
       <r>    8.7135    0.0000 </r>
       <r>   10.4864    0.0000 </r>
      </set>
      <set comment="kpoint 45">
       <r>  -18.7967    1.0000 </r>
       <r>  -11.6875    1.0000 </r>
       <r>   -9.7053    1.0000 </r>
       <r>   -6.3322    1.0000 </r>
       <r>    2.4465    0.0000 </r>
       <r>    5.3477    0.0000 </r>
       <r>    6.2528    0.0000 </r>
       <r>    6.8568    0.0000 </r>
       <r>    8.4579    0.0000 </r>
       <r>    8.6014    0.0000 </r>
       <r>    9.4620    0.0000 </r>
       <r>   11.3421    0.0000 </r>
      </set>
      <set comment="kpoint 46">
       <r>  -18.1217    1.0000 </r>
       <r>  -12.6702    1.0000 </r>
       <r>  -10.0503    1.0000 </r>
       <r>   -5.6003    1.0000 </r>
       <r>    1.4249    0.0000 </r>
       <r>    6.3026    0.0000 </r>
       <r>    7.1811    0.0000 </r>
       <r>    7.8380    0.0000 </r>
       <r>    8.3908    0.0000 </r>
       <r>    9.4619    0.0000 </r>
       <r>   10.4018    0.0000 </r>
       <r>   11.9338    0.0000 </r>
      </set>
      <set comment="kpoint 47">
       <r>  -17.3850    1.0000 </r>
       <r>  -13.6498    1.0000 </r>
       <r>  -10.2887    1.0000 </r>
       <r>   -4.8605    1.0000 </r>
       <r>    0.4653    0.0000 </r>
       <r>    7.3567    0.0000 </r>
       <r>    8.1712    0.0000 </r>
       <r>    8.2960    0.0000 </r>
       <r>    8.9518    0.0000 </r>
       <r>   10.2660    0.0000 </r>
       <r>   11.4432    0.0000 </r>
       <r>   11.9425    0.0000 </r>
      </set>
      <set comment="kpoint 48">
       <r>  -16.6162    1.0000 </r>
       <r>  -14.5724    1.0000 </r>
       <r>  -10.4294    1.0000 </r>
       <r>   -4.2210    1.0000 </r>
       <r>   -0.3117    0.0000 </r>
       <r>    8.1995    0.0000 </r>
       <r>    8.5490    0.0000 </r>
       <r>    9.1184    0.0000 </r>
       <r>   10.1584    0.0000 </r>
       <r>   10.7522    0.0000 </r>
       <r>   10.9965    0.0000 </r>
       <r>   12.1563    0.0000 </r>
      </set>
      <set comment="kpoint 49">
       <r>  -16.0867    1.0000 </r>
       <r>  -15.1543    1.0000 </r>
       <r>  -10.4760    1.0000 </r>
       <r>   -3.9359    1.0000 </r>
       <r>   -0.6435    0.0000 </r>
       <r>    8.1991    0.0000 </r>
       <r>    9.6058    0.0000 </r>
       <r>    9.6614    0.0000 </r>
       <r>    9.8533    0.0000 </r>
       <r>   10.9050    0.0000 </r>
       <r>   11.4626    0.0000 </r>
       <r>   11.4955    0.0000 </r>
      </set>
      <set comment="kpoint 50">
       <r>  -18.8370    1.0000 </r>
       <r>  -11.3973    1.0000 </r>
       <r>   -9.9728    1.0000 </r>
       <r>   -6.3725    1.0000 </r>
       <r>    2.5601    0.0000 </r>
       <r>    5.2918    0.0000 </r>
       <r>    6.1878    0.0000 </r>
       <r>    6.7996    0.0000 </r>
       <r>    8.5350    0.0000 </r>
       <r>    9.1344    0.0000 </r>
       <r>    9.5137    0.0000 </r>
       <r>   10.5163    0.0000 </r>
      </set>
      <set comment="kpoint 51">
       <r>  -18.2010    1.0000 </r>
       <r>  -12.1693    1.0000 </r>
       <r>  -10.5372    1.0000 </r>
       <r>   -5.6681    1.0000 </r>
       <r>    1.6235    0.0000 </r>
       <r>    6.1915    0.0000 </r>
       <r>    7.0463    0.0000 </r>
       <r>    7.7270    0.0000 </r>
       <r>    9.3144    0.0000 </r>
       <r>    9.5004    0.0000 </r>
       <r>   10.3105    0.0000 </r>
       <r>   11.0953    0.0000 </r>
      </set>
      <set comment="kpoint 52">
       <r>  -17.4997    1.0000 </r>
       <r>  -13.0447    1.0000 </r>
       <r>  -10.9128    1.0000 </r>
       <r>   -4.9255    1.0000 </r>
       <r>    0.6958    0.0000 </r>
       <r>    7.1943    0.0000 </r>
       <r>    7.9489    0.0000 </r>
       <r>    8.7660    0.0000 </r>
       <r>    9.4824    0.0000 </r>
       <r>   10.0017    0.0000 </r>
       <r>   11.2702    0.0000 </r>
       <r>   11.7449    0.0000 </r>
      </set>
      <set comment="kpoint 53">
       <r>  -16.7483    1.0000 </r>
       <r>  -13.9457    1.0000 </r>
       <r>  -11.1404    1.0000 </r>
       <r>   -4.2049    1.0000 </r>
       <r>   -0.1545    0.0000 </r>
       <r>    8.2891    0.0000 </r>
       <r>    8.7570    0.0000 </r>
       <r>    9.4014    0.0000 </r>
       <r>    9.9319    0.0000 </r>
       <r>   10.4747    0.0000 </r>
       <r>   11.6214    0.0000 </r>
       <r>   12.2407    0.0000 </r>
      </set>
      <set comment="kpoint 54">
       <r>  -16.0235    1.0000 </r>
       <r>  -14.7538    1.0000 </r>
       <r>  -11.2487    1.0000 </r>
       <r>   -3.6754    1.0000 </r>
       <r>   -0.7510    0.0000 </r>
       <r>    9.1840    0.0000 </r>
       <r>    9.3036    0.0000 </r>
       <r>    9.5119    0.0000 </r>
       <r>   10.6744    0.0000 </r>
       <r>   11.0788    0.0000 </r>
       <r>   11.1931    0.0000 </r>
       <r>   12.5368    0.0000 </r>
      </set>
      <set comment="kpoint 55">
       <r>  -17.5382    1.0000 </r>
       <r>  -12.7220    1.0000 </r>
       <r>  -11.2446    1.0000 </r>
       <r>   -4.9485    1.0000 </r>
       <r>    0.7825    0.0000 </r>
       <r>    7.1389    0.0000 </r>
       <r>    7.8701    0.0000 </r>
       <r>    8.7106    0.0000 </r>
       <r>    9.9067    0.0000 </r>
       <r>   10.4172    0.0000 </r>
       <r>   11.0014    0.0000 </r>
       <r>   11.2754    0.0000 </r>
      </set>
      <set comment="kpoint 56">
       <r>  -16.8184    1.0000 </r>
       <r>  -13.4148    1.0000 </r>
       <r>  -11.7173    1.0000 </r>
       <r>   -4.2042    1.0000 </r>
       <r>   -0.0485    0.0000 </r>
       <r>    8.1807    0.0000 </r>
       <r>    8.5505    0.0000 </r>
       <r>    9.8034    0.0000 </r>
       <r>   10.3049    0.0000 </r>
       <r>   10.5675    0.0000 </r>
       <r>   11.4811    0.0000 </r>
       <r>   12.1863    0.0000 </r>
      </set>
      <set comment="kpoint 57">
       <r>  -16.0715    1.0000 </r>
       <r>  -14.1908    1.0000 </r>
       <r>  -11.9628    1.0000 </r>
       <r>   -3.5179    1.0000 </r>
       <r>   -0.7874    0.0000 </r>
       <r>    8.8320    0.0000 </r>
       <r>    9.2931    0.0000 </r>
       <r>   10.4837    0.0000 </r>
       <r>   10.9942    0.0000 </r>
       <r>   11.0096    0.0000 </r>
       <r>   11.3979    0.0000 </r>
       <r>   12.9987    0.0000 </r>
      </set>
      <set comment="kpoint 58">
       <r>  -15.5548    1.0000 </r>
       <r>  -14.7255    1.0000 </r>
       <r>  -12.0376    1.0000 </r>
       <r>   -3.1740    1.0000 </r>
       <r>   -1.1490    0.0000 </r>
       <r>    8.8696    0.0000 </r>
       <r>   10.3207    0.0000 </r>
       <r>   10.3533    0.0000 </r>
       <r>   10.6762    0.0000 </r>
       <r>   11.7699    0.0000 </r>
       <r>   12.2809    0.0000 </r>
       <r>   12.3377    0.0000 </r>
      </set>
      <set comment="kpoint 59">
       <r>  -16.0954    1.0000 </r>
       <r>  -13.8660    1.0000 </r>
       <r>  -12.3322    1.0000 </r>
       <r>   -3.4661    1.0000 </r>
       <r>   -0.7928    0.0000 </r>
       <r>    8.7012    0.0000 </r>
       <r>    9.2399    0.0000 </r>
       <r>   10.9366    0.0000 </r>
       <r>   10.9467    0.0000 </r>
       <r>   11.2649    0.0000 </r>
       <r>   11.4292    0.0000 </r>
       <r>   13.0862    0.0000 </r>
      </set>
      <set comment="kpoint 60">
       <r>  -15.3951    1.0000 </r>
       <r>  -14.4361    1.0000 </r>
       <r>  -12.6381    1.0000 </r>
       <r>   -2.8173    1.0000 </r>
       <r>   -1.4420    0.0000 </r>
       <r>    8.6419    0.0000 </r>
       <r>   10.2998    0.0000 </r>
       <r>   11.0950    0.0000 </r>
       <r>   11.4230    0.0000 </r>
       <r>   11.9588    0.0000 </r>
       <r>   12.2045    0.0000 </r>
       <r>   13.4196    0.0000 </r>
      </set>
      <set comment="kpoint 61">
       <r>  -14.8131    1.0000 </r>
       <r>  -14.8130    1.0000 </r>
       <r>  -12.9261    1.0000 </r>
       <r>   -2.1207    0.5004 </r>
       <r>   -2.1207    0.4996 </r>
       <r>    8.5504    0.0000 </r>
       <r>   11.0047    0.0000 </r>
       <r>   11.0047    0.0000 </r>
       <r>   11.5320    0.0000 </r>
       <r>   12.9774    0.0000 </r>
       <r>   12.9992    0.0000 </r>
       <r>   13.3212    0.0000 </r>
      </set>
     </set>
    </set>
   </array>
  </eigenvalues>
  <separator name="orbital magnetization" >
   <v name="MAGDIPOLOUT">      0.00000000      0.00000000      0.00000000</v>
  </separator>
  <dos>
   <i name="efermi">     -2.12069641 </i>
   <total>
    <array>
     <dimension dim="1">gridpoints</dimension>
     <dimension dim="2">spin</dimension>
     <field>energy</field>
     <field>total</field>
     <field>integrated</field>
     <set>
      <set comment="spin 1">
       <r>   -23.6863     0.0000     0.0000 </r>
       <r>   -23.5567     0.0000     0.0000 </r>
       <r>   -23.4272     0.0000     0.0000 </r>
       <r>   -23.2976     0.0000     0.0000 </r>
       <r>   -23.1680     0.0000     0.0000 </r>
       <r>   -23.0384     0.0000     0.0000 </r>
       <r>   -22.9089     0.0000     0.0000 </r>
       <r>   -22.7793     0.0000     0.0000 </r>
       <r>   -22.6497     0.0000     0.0000 </r>
       <r>   -22.5201     0.0000     0.0000 </r>
       <r>   -22.3905     0.0000     0.0000 </r>
       <r>   -22.2610     0.0000     0.0000 </r>
       <r>   -22.1314     0.0000     0.0000 </r>
       <r>   -22.0018     0.0000     0.0000 </r>
       <r>   -21.8722     0.1302     0.0169 </r>
       <r>   -21.7427     0.3373     0.0606 </r>
       <r>   -21.6131     0.3070     0.1004 </r>
       <r>   -21.4835     0.2169     0.1285 </r>
       <r>   -21.3539     0.4629     0.1885 </r>
       <r>   -21.2244     0.1753     0.2112 </r>
       <r>   -21.0948     0.3222     0.2529 </r>
       <r>   -20.9652     0.3215     0.2951 </r>
       <r>   -20.8356     0.1608     0.3160 </r>
       <r>   -20.7061     0.4819     0.3785 </r>
       <r>   -20.5765     0.3215     0.4201 </r>
       <r>   -20.4469     0.0067     0.4210 </r>
       <r>   -20.3173     0.5073     0.4867 </r>
       <r>   -20.1878     0.2899     0.5243 </r>
       <r>   -20.0582     0.3215     0.5660 </r>
       <r>   -19.9286     0.0890     0.5775 </r>
       <r>   -19.7990     0.5575     0.6497 </r>
       <r>   -19.6694     0.3182     0.6910 </r>
       <r>   -19.5399     0.3034     0.7303 </r>
       <r>   -19.4103     0.1006     0.7433 </r>
       <r>   -19.2807     0.6277     0.8247 </r>
       <r>   -19.1511     0.3077     0.8646 </r>
       <r>   -19.0216     0.1067     0.8785 </r>
       <r>   -18.8920     0.3050     0.9180 </r>
       <r>   -18.7624     0.4965     0.9823 </r>
       <r>   -18.6328     0.3217     1.0243 </r>
       <r>   -18.5033     0.1687     1.0462 </r>
       <r>   -18.3737     0.3131     1.0868 </r>
       <r>   -18.2441     0.0006     1.0869 </r>
       <r>   -18.1145     0.8658     1.1991 </r>
       <r>   -17.9850     0.1207     1.2147 </r>
       <r>   -17.8554     0.3401     1.2588 </r>
       <r>   -17.7258     0.3207     1.3003 </r>
       <r>   -17.5962     0.1207     1.3160 </r>
       <r>   -17.4666     0.4797     1.3781 </r>
       <r>   -17.3371     0.6424     1.4618 </r>
       <r>   -17.2075     0.0814     1.4724 </r>
       <r>   -17.0779     0.2578     1.5058 </r>
       <r>   -16.9483     0.3095     1.5459 </r>
       <r>   -16.8188     0.3127     1.5864 </r>
       <r>   -16.6892     0.5225     1.6541 </r>
       <r>   -16.5596     0.6061     1.7326 </r>
       <r>   -16.4300     0.3970     1.7841 </r>
       <r>   -16.3005     0.1657     1.8056 </r>
       <r>   -16.1709     0.0000     1.8056 </r>
       <r>   -16.0413     0.6711     1.8925 </r>
       <r>   -15.9117     0.2935     1.9306 </r>
       <r>   -15.7822     0.0000     1.9306 </r>
       <r>   -15.6526     0.0000     1.9306 </r>
       <r>   -15.5230     0.2392     1.9615 </r>
       <r>   -15.3934     0.3369     2.0055 </r>
       <r>   -15.2638     0.4670     2.0660 </r>
       <r>   -15.1343     0.3377     2.1097 </r>
       <r>   -15.0047     0.1451     2.1285 </r>
       <r>   -14.8751     0.2284     2.1581 </r>
       <r>   -14.7455     0.6051     2.2365 </r>
       <r>   -14.6160     0.2383     2.2674 </r>
       <r>   -14.4864     0.3631     2.3144 </r>
       <r>   -14.3568     0.6013     2.3924 </r>
       <r>   -14.2272     0.3231     2.4342 </r>
       <r>   -14.0977     0.3200     2.4757 </r>
       <r>   -13.9681     0.1745     2.4983 </r>
       <r>   -13.8385     0.7860     2.6002 </r>
       <r>   -13.7089     0.0042     2.6007 </r>
       <r>   -13.5794     0.3216     2.6424 </r>
       <r>   -13.4498     0.2064     2.6691 </r>
       <r>   -13.3202     0.4421     2.7264 </r>
       <r>   -13.1906     0.3162     2.7674 </r>
       <r>   -13.0611     0.0400     2.7725 </r>
       <r>   -12.9315     0.4283     2.8280 </r>
       <r>   -12.8019     0.3892     2.8785 </r>
       <r>   -12.6723     0.3051     2.9180 </r>
       <r>   -12.5427     0.4988     2.9826 </r>
       <r>   -12.4132     0.0039     2.9831 </r>
       <r>   -12.2836     0.4850     3.0460 </r>
       <r>   -12.1540     0.5913     3.1226 </r>
       <r>   -12.0244     0.1775     3.1456 </r>
       <r>   -11.8949     0.3500     3.1910 </r>
       <r>   -11.7653     0.4665     3.2514 </r>
       <r>   -11.6357     0.6589     3.3368 </r>
       <r>   -11.5061     0.0000     3.3368 </r>
       <r>   -11.3766     0.1494     3.3562 </r>
       <r>   -11.2470     0.5715     3.4302 </r>
       <r>   -11.1174     0.8703     3.5430 </r>
       <r>   -10.9878     0.0166     3.5451 </r>
       <r>   -10.8583     0.3215     3.5868 </r>
       <r>   -10.7287     0.3664     3.6343 </r>
       <r>   -10.5991     0.4375     3.6910 </r>
       <r>   -10.4695     0.4311     3.7468 </r>
       <r>   -10.3399     0.3728     3.7951 </r>
       <r>   -10.2104     0.3244     3.8372 </r>
       <r>   -10.0808     0.6453     3.9208 </r>
       <r>    -9.9512     0.5038     3.9861 </r>
       <r>    -9.8216     0.4234     4.0409 </r>
       <r>    -9.6921     0.8078     4.1456 </r>
       <r>    -9.5625     1.1802     4.2985 </r>
       <r>    -9.4329     0.4815     4.3611 </r>
       <r>    -9.3033     0.4646     4.4213 </r>
       <r>    -9.1738     1.0985     4.5637 </r>
       <r>    -9.0442     0.7804     4.6649 </r>
       <r>    -8.9146     0.9864     4.7927 </r>
       <r>    -8.7850     0.4773     4.8546 </r>
       <r>    -8.6555     0.9710     4.9804 </r>
       <r>    -8.5259     1.2687     5.1448 </r>
       <r>    -8.3963     1.5890     5.3507 </r>
       <r>    -8.2667     0.2542     5.3838 </r>
       <r>    -8.1371     0.8833     5.4982 </r>
       <r>    -8.0076     0.6782     5.5861 </r>
       <r>    -7.8780     1.1286     5.7324 </r>
       <r>    -7.7484     0.2684     5.7674 </r>
       <r>    -7.6188     0.7979     5.8708 </r>
       <r>    -7.4893     0.9730     5.9968 </r>
       <r>    -7.3597     0.4800     6.0590 </r>
       <r>    -7.2301     0.2574     6.0924 </r>
       <r>    -7.1005     1.0007     6.2221 </r>
       <r>    -6.9710     0.6709     6.3090 </r>
       <r>    -6.8414     0.5595     6.3815 </r>
       <r>    -6.7118     0.6273     6.4628 </r>
       <r>    -6.5822     0.5809     6.5382 </r>
       <r>    -6.4527     0.4818     6.6006 </r>
       <r>    -6.3231     0.4136     6.6543 </r>
       <r>    -6.1935     0.9553     6.7781 </r>
       <r>    -6.0639     0.5606     6.8507 </r>
       <r>    -5.9344     0.3214     6.8924 </r>
       <r>    -5.8048     0.1924     6.9173 </r>
       <r>    -5.6752     0.8712     7.0302 </r>
       <r>    -5.5456     0.7050     7.1215 </r>
       <r>    -5.4160     0.6601     7.2071 </r>
       <r>    -5.2865     0.4116     7.2604 </r>
       <r>    -5.1569     0.3774     7.3093 </r>
       <r>    -5.0273     0.3664     7.3568 </r>
       <r>    -4.8977     0.4823     7.4193 </r>
       <r>    -4.7682     0.6286     7.5007 </r>
       <r>    -4.6386     0.4902     7.5643 </r>
       <r>    -4.5090     0.4150     7.6180 </r>
       <r>    -4.3794     0.1426     7.6365 </r>
       <r>    -4.2499     0.3384     7.6804 </r>
       <r>    -4.1203     0.9661     7.8056 </r>
       <r>    -3.9907     0.0000     7.8056 </r>
       <r>    -3.8611     0.1608     7.8264 </r>
       <r>    -3.7316     0.0000     7.8264 </r>
       <r>    -3.6020     0.3215     7.8681 </r>
       <r>    -3.4724     0.3743     7.9166 </r>
       <r>    -3.3428     0.1079     7.9306 </r>
       <r>    -3.2132     0.0004     7.9306 </r>
       <r>    -3.0837     0.1603     7.9514 </r>
       <r>    -2.9541     0.0000     7.9514 </r>
       <r>    -2.8245     0.0977     7.9640 </r>
       <r>    -2.6949     0.2238     7.9931 </r>
       <r>    -2.5654     0.0000     7.9931 </r>
       <r>    -2.4358     0.0000     7.9931 </r>
       <r>    -2.3062     0.0000     7.9931 </r>
       <r>    -2.1766     0.0000     7.9931 </r>
       <r>    -2.0471     0.1072     8.0069 </r>
       <r>    -1.9175     0.0000     8.0069 </r>
       <r>    -1.7879     0.0000     8.0069 </r>
       <r>    -1.6583     0.0000     8.0069 </r>
       <r>    -1.5288     0.0000     8.0069 </r>
       <r>    -1.3992     0.3212     8.0486 </r>
       <r>    -1.2696     0.0000     8.0486 </r>
       <r>    -1.1400     0.1184     8.0640 </r>
       <r>    -1.0105     0.0423     8.0694 </r>
       <r>    -0.8809     0.0000     8.0694 </r>
       <r>    -0.7513     0.6383     8.1522 </r>
       <r>    -0.6217     0.3145     8.1932 </r>
       <r>    -0.4921     0.0132     8.1949 </r>
       <r>    -0.3626     0.6094     8.2738 </r>
       <r>    -0.2330     0.5931     8.3507 </r>
       <r>    -0.1034     0.6929     8.4405 </r>
       <r>     0.0262     0.4278     8.4965 </r>
       <r>     0.1557     0.1105     8.5109 </r>
       <r>     0.2853     0.5253     8.5789 </r>
       <r>     0.4149     0.0074     8.5799 </r>
       <r>     0.5445     0.3215     8.6215 </r>
       <r>     0.6740     0.2237     8.6505 </r>
       <r>     0.8036     0.7301     8.7451 </r>
       <r>     0.9332     0.0108     8.7465 </r>
       <r>     1.0628     0.0670     8.7552 </r>
       <r>     1.1923     0.5407     8.8253 </r>
       <r>     1.3219     0.5444     8.8958 </r>
       <r>     1.4515     0.6225     8.9765 </r>
       <r>     1.5811     0.1815     9.0000 </r>
       <r>     1.7107     0.6435     9.0834 </r>
       <r>     1.8402     0.6423     9.1667 </r>
       <r>     1.9698     0.1882     9.1911 </r>
       <r>     2.0994     0.2552     9.2244 </r>
       <r>     2.2290     1.0720     9.3633 </r>
       <r>     2.3585     0.7124     9.4556 </r>
       <r>     2.4881     0.7481     9.5527 </r>
       <r>     2.6177     0.6807     9.6411 </r>
       <r>     2.7473     0.8943     9.7570 </r>
       <r>     2.8768     1.0999     9.8995 </r>
       <r>     3.0064     0.3574     9.9458 </r>
       <r>     3.1360     0.7738    10.0461 </r>
       <r>     3.2656     1.4177    10.2298 </r>
       <r>     3.3951     0.3524    10.2755 </r>
       <r>     3.5247     1.1806    10.4285 </r>
       <r>     3.6543     0.7044    10.5199 </r>
       <r>     3.7839     0.6985    10.6104 </r>
       <r>     3.9135     0.6359    10.6928 </r>
       <r>     4.0430     1.0275    10.8259 </r>
       <r>     4.1726     0.9897    10.9544 </r>
       <r>     4.3022     0.7519    11.0518 </r>
       <r>     4.4318     0.7655    11.1513 </r>
       <r>     4.5613     0.8392    11.2601 </r>
       <r>     4.6909     1.1152    11.4046 </r>
       <r>     4.8205     1.4191    11.5888 </r>
       <r>     4.9501     0.9501    11.7119 </r>
       <r>     5.0796     0.3801    11.7612 </r>
       <r>     5.2092     1.1623    11.9118 </r>
       <r>     5.3388     1.6371    12.1240 </r>
       <r>     5.4684     1.6013    12.3315 </r>
       <r>     5.5979     1.6288    12.5425 </r>
       <r>     5.7275     0.7073    12.6344 </r>
       <r>     5.8571     2.4559    12.9526 </r>
       <r>     5.9867     1.4483    13.1403 </r>
       <r>     6.1162     1.0020    13.2702 </r>
       <r>     6.2458     2.5360    13.5991 </r>
       <r>     6.3754     2.5748    13.9328 </r>
       <r>     6.5050     1.8349    14.1707 </r>
       <r>     6.6346     2.5443    14.5006 </r>
       <r>     6.7641     2.1626    14.7809 </r>
       <r>     6.8937     1.6872    14.9996 </r>
       <r>     7.0233     1.5419    15.1996 </r>
       <r>     7.1529     1.7543    15.4270 </r>
       <r>     7.2824     2.5813    15.7615 </r>
       <r>     7.4120     2.0753    16.0304 </r>
       <r>     7.5416     1.0676    16.1687 </r>
       <r>     7.6712     1.8001    16.4020 </r>
       <r>     7.8007     1.4739    16.5930 </r>
       <r>     7.9303     1.4356    16.7790 </r>
       <r>     8.0599     1.6085    16.9874 </r>
       <r>     8.1895     1.9336    17.2380 </r>
       <r>     8.3190     1.9203    17.4868 </r>
       <r>     8.4486     1.7821    17.7178 </r>
       <r>     8.5782     2.4955    18.0414 </r>
       <r>     8.7078     1.2904    18.2090 </r>
       <r>     8.8374     2.3758    18.5168 </r>
       <r>     8.9669     1.9377    18.7679 </r>
       <r>     9.0965     0.3897    18.8184 </r>
       <r>     9.2261     1.5167    19.0150 </r>
       <r>     9.3557     1.8155    19.2503 </r>
       <r>     9.4852     2.0124    19.5111 </r>
       <r>     9.6148     1.9510    19.7639 </r>
       <r>     9.7444     1.2199    19.9220 </r>
       <r>     9.8740     1.5270    20.1199 </r>
       <r>    10.0035     1.7449    20.3460 </r>
       <r>    10.1331     0.6527    20.4306 </r>
       <r>    10.2627     1.3147    20.6009 </r>
       <r>    10.3923     2.2906    20.8980 </r>
       <r>    10.5218     1.9277    21.1478 </r>
       <r>    10.6514     1.9056    21.3952 </r>
       <r>    10.7810     1.2642    21.5590 </r>
       <r>    10.9106     1.1259    21.7049 </r>
       <r>    11.0402     2.6728    22.0512 </r>
       <r>    11.1697     1.4900    22.2451 </r>
       <r>    11.2993     1.2604    22.4084 </r>
       <r>    11.4289     1.7747    22.6386 </r>
       <r>    11.5585     2.0489    22.9047 </r>
       <r>    11.6880     0.6883    22.9939 </r>
       <r>    11.8176     1.3336    23.1667 </r>
       <r>    11.9472     1.0815    23.3068 </r>
       <r>    12.0768     0.9383    23.4284 </r>
       <r>    12.2063     1.1896    23.5825 </r>
       <r>    12.3359     1.0433    23.7177 </r>
       <r>    12.4655     0.4086    23.7707 </r>
       <r>    12.5951     0.7982    23.8743 </r>
       <r>    12.7246     0.0056    23.8750 </r>
       <r>    12.8542     0.0000    23.8750 </r>
       <r>    12.9838     0.0904    23.8867 </r>
       <r>    13.1134     0.4948    23.9508 </r>
       <r>    13.2429     0.0044    23.9514 </r>
       <r>    13.3725     0.0537    23.9584 </r>
       <r>    13.5021     0.3214    24.0000 </r>
       <r>    13.6317     0.0000    24.0000 </r>
       <r>    13.7613     0.0000    24.0000 </r>
       <r>    13.8908     0.0000    24.0000 </r>
       <r>    14.0204     0.0000    24.0000 </r>
       <r>    14.1500     0.0000    24.0000 </r>
       <r>    14.2796     0.0000    24.0000 </r>
       <r>    14.4091     0.0000    24.0000 </r>
       <r>    14.5387     0.0000    24.0000 </r>
       <r>    14.6683     0.0000    24.0000 </r>
       <r>    14.7979     0.0000    24.0000 </r>
       <r>    14.9274     0.0000    24.0000 </r>
       <r>    15.0570     0.0000    24.0000 </r>
       <r>    15.1866     0.0000    24.0000 </r>
      </set>
     </set>
    </array>
   </total>
  </dos>
 </calculation>
 <structure name="finalpos" >
  <crystal>
   <varray name="basis" >
    <v>       2.43696700       0.00000000       0.00000000 </v>
    <v>      -1.21848300       2.11047400       0.00000000 </v>
    <v>       0.00000000       0.00000000      15.00000000 </v>
   </varray>
   <i name="volume">     77.14733239 </i>
   <varray name="rec_basis" >
    <v>       0.41034614       0.23691351       0.00000000 </v>
    <v>       0.00000000       0.47382721       0.00000000 </v>
    <v>       0.00000000       0.00000000       0.06666667 </v>
   </varray>
  </crystal>
  <varray name="positions" >
   <v>       0.00000000       0.00000000       0.50000000 </v>
   <v>       0.33333300       0.66666700       0.50000000 </v>
  </varray>
 </structure>
</modeling>
