<?xml version="1.0" encoding="ISO-8859-1"?>
<modeling>
 <generator>
  <i name="program" type="string">vasp </i>
  <i name="version" type="string">5.4.1  </i>
  <i name="subversion" type="string">24Jun15 (build Nov 20 2020 10:29:34) complex                          parallel </i>
  <i name="platform" type="string">IFC91_ompi </i>
  <i name="date" type="string">2021 09 09 </i>
  <i name="time" type="string">15:22:48 </i>
 </generator>
 <incar>
  <i type="string" name="PREC">a</i>
  <i type="string" name="ALGO"> Normal</i>
  <i type="int" name="ISPIN">     1</i>
  <i type="int" name="ICHARG">     2</i>
  <i type="int" name="NELM">   250</i>
  <i type="int" name="NELMDL">    -5</i>
  <i type="int" name="NELMIN">     6</i>
  <i type="int" name="IBRION">     2</i>
  <i name="EDIFF">      0.00001000</i>
  <i name="EDIFFG">     -0.01000000</i>
  <i type="int" name="NSW">   200</i>
  <i type="int" name="ISIF">     2</i>
  <i name="ENCUT">    520.00000000</i>
  <i name="POTIM">      0.30000000</i>
  <i type="logical" name="LREAL"> F  </i>
  <i type="int" name="ISMEAR">     0</i>
  <i name="SIGMA">      0.02000000</i>
  <i type="logical" name="LWAVE"> F  </i>
  <i type="logical" name="LCHARG"> F  </i>
  <i type="logical" name="LAECHG"> F  </i>
  <v type="int" name="KPOINT_BSE">    -1     0     0     0</v>
  <i type="int" name="NELM">   250</i>
 </incar>
 <kpoints>
  <generation param="Gamma">
   <v type="int" name="divisions">      21       15        1 </v>
   <v name="usershift">      0.00000000       0.00000000       0.00000000 </v>
   <v name="genvec1">      0.04761905       0.00000000       0.00000000 </v>
   <v name="genvec2">      0.00000000       0.06666667       0.00000000 </v>
   <v name="genvec3">      0.00000000      -0.00000000       1.00000000 </v>
   <v name="shift">      0.00000000       0.00000000       0.00000000 </v>
  </generation>
  <varray name="kpointlist" >
   <v>       0.00000000       0.00000000       0.00000000 </v>
   <v>       0.04761905       0.00000000       0.00000000 </v>
   <v>       0.09523810       0.00000000       0.00000000 </v>
   <v>       0.14285714       0.00000000       0.00000000 </v>
   <v>       0.19047619       0.00000000       0.00000000 </v>
   <v>       0.23809524       0.00000000       0.00000000 </v>
   <v>       0.28571429       0.00000000       0.00000000 </v>
   <v>       0.33333333       0.00000000       0.00000000 </v>
   <v>       0.38095238       0.00000000       0.00000000 </v>
   <v>       0.42857143       0.00000000       0.00000000 </v>
   <v>       0.47619048       0.00000000       0.00000000 </v>
   <v>       0.00000000       0.06666667       0.00000000 </v>
   <v>       0.04761905       0.06666667       0.00000000 </v>
   <v>       0.09523810       0.06666667       0.00000000 </v>
   <v>       0.14285714       0.06666667       0.00000000 </v>
   <v>       0.19047619       0.06666667       0.00000000 </v>
   <v>       0.23809524       0.06666667       0.00000000 </v>
   <v>       0.28571429       0.06666667       0.00000000 </v>
   <v>       0.33333333       0.06666667       0.00000000 </v>
   <v>       0.38095238       0.06666667       0.00000000 </v>
   <v>       0.42857143       0.06666667       0.00000000 </v>
   <v>       0.47619048       0.06666667       0.00000000 </v>
   <v>      -0.47619048       0.06666667       0.00000000 </v>
   <v>      -0.42857143       0.06666667       0.00000000 </v>
   <v>      -0.38095238       0.06666667       0.00000000 </v>
   <v>      -0.33333333       0.06666667       0.00000000 </v>
   <v>      -0.28571429       0.06666667       0.00000000 </v>
   <v>      -0.23809524       0.06666667       0.00000000 </v>
   <v>      -0.19047619       0.06666667       0.00000000 </v>
   <v>      -0.14285714       0.06666667       0.00000000 </v>
   <v>      -0.09523810       0.06666667       0.00000000 </v>
   <v>      -0.04761905       0.06666667       0.00000000 </v>
   <v>       0.00000000       0.13333333       0.00000000 </v>
   <v>       0.04761905       0.13333333       0.00000000 </v>
   <v>       0.09523810       0.13333333       0.00000000 </v>
   <v>       0.14285714       0.13333333       0.00000000 </v>
   <v>       0.19047619       0.13333333       0.00000000 </v>
   <v>       0.23809524       0.13333333       0.00000000 </v>
   <v>       0.28571429       0.13333333       0.00000000 </v>
   <v>       0.33333333       0.13333333       0.00000000 </v>
   <v>       0.38095238       0.13333333       0.00000000 </v>
   <v>       0.42857143       0.13333333       0.00000000 </v>
   <v>       0.47619048       0.13333333       0.00000000 </v>
   <v>      -0.47619048       0.13333333       0.00000000 </v>
   <v>      -0.42857143       0.13333333       0.00000000 </v>
   <v>      -0.38095238       0.13333333       0.00000000 </v>
   <v>      -0.33333333       0.13333333       0.00000000 </v>
   <v>      -0.28571429       0.13333333       0.00000000 </v>
   <v>      -0.23809524       0.13333333       0.00000000 </v>
   <v>      -0.19047619       0.13333333       0.00000000 </v>
   <v>      -0.14285714       0.13333333       0.00000000 </v>
   <v>      -0.09523810       0.13333333       0.00000000 </v>
   <v>      -0.04761905       0.13333333       0.00000000 </v>
   <v>       0.00000000       0.20000000       0.00000000 </v>
   <v>       0.04761905       0.20000000       0.00000000 </v>
   <v>       0.09523810       0.20000000       0.00000000 </v>
   <v>       0.14285714       0.20000000       0.00000000 </v>
   <v>       0.19047619       0.20000000       0.00000000 </v>
   <v>       0.23809524       0.20000000       0.00000000 </v>
   <v>       0.28571429       0.20000000       0.00000000 </v>
   <v>       0.33333333       0.20000000       0.00000000 </v>
   <v>       0.38095238       0.20000000       0.00000000 </v>
   <v>       0.42857143       0.20000000       0.00000000 </v>
   <v>       0.47619048       0.20000000       0.00000000 </v>
   <v>      -0.47619048       0.20000000       0.00000000 </v>
   <v>      -0.42857143       0.20000000       0.00000000 </v>
   <v>      -0.38095238       0.20000000       0.00000000 </v>
   <v>      -0.33333333       0.20000000       0.00000000 </v>
   <v>      -0.28571429       0.20000000       0.00000000 </v>
   <v>      -0.23809524       0.20000000       0.00000000 </v>
   <v>      -0.19047619       0.20000000       0.00000000 </v>
   <v>      -0.14285714       0.20000000       0.00000000 </v>
   <v>      -0.09523810       0.20000000       0.00000000 </v>
   <v>      -0.04761905       0.20000000       0.00000000 </v>
   <v>       0.00000000       0.26666667       0.00000000 </v>
   <v>       0.04761905       0.26666667       0.00000000 </v>
   <v>       0.09523810       0.26666667       0.00000000 </v>
   <v>       0.14285714       0.26666667       0.00000000 </v>
   <v>       0.19047619       0.26666667       0.00000000 </v>
   <v>       0.23809524       0.26666667       0.00000000 </v>
   <v>       0.28571429       0.26666667       0.00000000 </v>
   <v>       0.33333333       0.26666667       0.00000000 </v>
   <v>       0.38095238       0.26666667       0.00000000 </v>
   <v>       0.42857143       0.26666667       0.00000000 </v>
   <v>       0.47619048       0.26666667       0.00000000 </v>
   <v>      -0.47619048       0.26666667       0.00000000 </v>
   <v>      -0.42857143       0.26666667       0.00000000 </v>
   <v>      -0.38095238       0.26666667       0.00000000 </v>
   <v>      -0.33333333       0.26666667       0.00000000 </v>
   <v>      -0.28571429       0.26666667       0.00000000 </v>
   <v>      -0.23809524       0.26666667       0.00000000 </v>
   <v>      -0.19047619       0.26666667       0.00000000 </v>
   <v>      -0.14285714       0.26666667       0.00000000 </v>
   <v>      -0.09523810       0.26666667       0.00000000 </v>
   <v>      -0.04761905       0.26666667       0.00000000 </v>
   <v>       0.00000000       0.33333333       0.00000000 </v>
   <v>       0.04761905       0.33333333       0.00000000 </v>
   <v>       0.09523810       0.33333333       0.00000000 </v>
   <v>       0.14285714       0.33333333       0.00000000 </v>
   <v>       0.19047619       0.33333333       0.00000000 </v>
   <v>       0.23809524       0.33333333       0.00000000 </v>
   <v>       0.28571429       0.33333333       0.00000000 </v>
   <v>       0.33333333       0.33333333       0.00000000 </v>
   <v>       0.38095238       0.33333333       0.00000000 </v>
   <v>       0.42857143       0.33333333       0.00000000 </v>
   <v>       0.47619048       0.33333333       0.00000000 </v>
   <v>      -0.47619048       0.33333333       0.00000000 </v>
   <v>      -0.42857143       0.33333333       0.00000000 </v>
   <v>      -0.38095238       0.33333333       0.00000000 </v>
   <v>      -0.33333333       0.33333333       0.00000000 </v>
   <v>      -0.28571429       0.33333333       0.00000000 </v>
   <v>      -0.23809524       0.33333333       0.00000000 </v>
   <v>      -0.19047619       0.33333333       0.00000000 </v>
   <v>      -0.14285714       0.33333333       0.00000000 </v>
   <v>      -0.09523810       0.33333333       0.00000000 </v>
   <v>      -0.04761905       0.33333333       0.00000000 </v>
   <v>       0.00000000       0.40000000       0.00000000 </v>
   <v>       0.04761905       0.40000000       0.00000000 </v>
   <v>       0.09523810       0.40000000       0.00000000 </v>
   <v>       0.14285714       0.40000000       0.00000000 </v>
   <v>       0.19047619       0.40000000       0.00000000 </v>
   <v>       0.23809524       0.40000000       0.00000000 </v>
   <v>       0.28571429       0.40000000       0.00000000 </v>
   <v>       0.33333333       0.40000000       0.00000000 </v>
   <v>       0.38095238       0.40000000       0.00000000 </v>
   <v>       0.42857143       0.40000000       0.00000000 </v>
   <v>       0.47619048       0.40000000       0.00000000 </v>
   <v>      -0.47619048       0.40000000       0.00000000 </v>
   <v>      -0.42857143       0.40000000       0.00000000 </v>
   <v>      -0.38095238       0.40000000       0.00000000 </v>
   <v>      -0.33333333       0.40000000       0.00000000 </v>
   <v>      -0.28571429       0.40000000       0.00000000 </v>
   <v>      -0.23809524       0.40000000       0.00000000 </v>
   <v>      -0.19047619       0.40000000       0.00000000 </v>
   <v>      -0.14285714       0.40000000       0.00000000 </v>
   <v>      -0.09523810       0.40000000       0.00000000 </v>
   <v>      -0.04761905       0.40000000       0.00000000 </v>
   <v>       0.00000000       0.46666667       0.00000000 </v>
   <v>       0.04761905       0.46666667       0.00000000 </v>
   <v>       0.09523810       0.46666667       0.00000000 </v>
   <v>       0.14285714       0.46666667       0.00000000 </v>
   <v>       0.19047619       0.46666667       0.00000000 </v>
   <v>       0.23809524       0.46666667       0.00000000 </v>
   <v>       0.28571429       0.46666667       0.00000000 </v>
   <v>       0.33333333       0.46666667       0.00000000 </v>
   <v>       0.38095238       0.46666667       0.00000000 </v>
   <v>       0.42857143       0.46666667       0.00000000 </v>
   <v>       0.47619048       0.46666667       0.00000000 </v>
   <v>      -0.47619048       0.46666667       0.00000000 </v>
   <v>      -0.42857143       0.46666667       0.00000000 </v>
   <v>      -0.38095238       0.46666667       0.00000000 </v>
   <v>      -0.33333333       0.46666667       0.00000000 </v>
   <v>      -0.28571429       0.46666667       0.00000000 </v>
   <v>      -0.23809524       0.46666667       0.00000000 </v>
   <v>      -0.19047619       0.46666667       0.00000000 </v>
   <v>      -0.14285714       0.46666667       0.00000000 </v>
   <v>      -0.09523810       0.46666667       0.00000000 </v>
   <v>      -0.04761905       0.46666667       0.00000000 </v>
  </varray>
  <varray name="weights" >
   <v>       0.00317460 </v>
   <v>       0.00634921 </v>
   <v>       0.00634921 </v>
   <v>       0.00634921 </v>
   <v>       0.00634921 </v>
   <v>       0.00634921 </v>
   <v>       0.00634921 </v>
   <v>       0.00634921 </v>
   <v>       0.00634921 </v>
   <v>       0.00634921 </v>
   <v>       0.00634921 </v>
   <v>       0.00634921 </v>
   <v>       0.00634921 </v>
   <v>       0.00634921 </v>
   <v>       0.00634921 </v>
   <v>       0.00634921 </v>
   <v>       0.00634921 </v>
   <v>       0.00634921 </v>
   <v>       0.00634921 </v>
   <v>       0.00634921 </v>
   <v>       0.00634921 </v>
   <v>       0.00634921 </v>
   <v>       0.00634921 </v>
   <v>       0.00634921 </v>
   <v>       0.00634921 </v>
   <v>       0.00634921 </v>
   <v>       0.00634921 </v>
   <v>       0.00634921 </v>
   <v>       0.00634921 </v>
   <v>       0.00634921 </v>
   <v>       0.00634921 </v>
   <v>       0.00634921 </v>
   <v>       0.00634921 </v>
   <v>       0.00634921 </v>
   <v>       0.00634921 </v>
   <v>       0.00634921 </v>
   <v>       0.00634921 </v>
   <v>       0.00634921 </v>
   <v>       0.00634921 </v>
   <v>       0.00634921 </v>
   <v>       0.00634921 </v>
   <v>       0.00634921 </v>
   <v>       0.00634921 </v>
   <v>       0.00634921 </v>
   <v>       0.00634921 </v>
   <v>       0.00634921 </v>
   <v>       0.00634921 </v>
   <v>       0.00634921 </v>
   <v>       0.00634921 </v>
   <v>       0.00634921 </v>
   <v>       0.00634921 </v>
   <v>       0.00634921 </v>
   <v>       0.00634921 </v>
   <v>       0.00634921 </v>
   <v>       0.00634921 </v>
   <v>       0.00634921 </v>
   <v>       0.00634921 </v>
   <v>       0.00634921 </v>
   <v>       0.00634921 </v>
   <v>       0.00634921 </v>
   <v>       0.00634921 </v>
   <v>       0.00634921 </v>
   <v>       0.00634921 </v>
   <v>       0.00634921 </v>
   <v>       0.00634921 </v>
   <v>       0.00634921 </v>
   <v>       0.00634921 </v>
   <v>       0.00634921 </v>
   <v>       0.00634921 </v>
   <v>       0.00634921 </v>
   <v>       0.00634921 </v>
   <v>       0.00634921 </v>
   <v>       0.00634921 </v>
   <v>       0.00634921 </v>
   <v>       0.00634921 </v>
   <v>       0.00634921 </v>
   <v>       0.00634921 </v>
   <v>       0.00634921 </v>
   <v>       0.00634921 </v>
   <v>       0.00634921 </v>
   <v>       0.00634921 </v>
   <v>       0.00634921 </v>
   <v>       0.00634921 </v>
   <v>       0.00634921 </v>
   <v>       0.00634921 </v>
   <v>       0.00634921 </v>
   <v>       0.00634921 </v>
   <v>       0.00634921 </v>
   <v>       0.00634921 </v>
   <v>       0.00634921 </v>
   <v>       0.00634921 </v>
   <v>       0.00634921 </v>
   <v>       0.00634921 </v>
   <v>       0.00634921 </v>
   <v>       0.00634921 </v>
   <v>       0.00634921 </v>
   <v>       0.00634921 </v>
   <v>       0.00634921 </v>
   <v>       0.00634921 </v>
   <v>       0.00634921 </v>
   <v>       0.00634921 </v>
   <v>       0.00634921 </v>
   <v>       0.00634921 </v>
   <v>       0.00634921 </v>
   <v>       0.00634921 </v>
   <v>       0.00634921 </v>
   <v>       0.00634921 </v>
   <v>       0.00634921 </v>
   <v>       0.00634921 </v>
   <v>       0.00634921 </v>
   <v>       0.00634921 </v>
   <v>       0.00634921 </v>
   <v>       0.00634921 </v>
   <v>       0.00634921 </v>
   <v>       0.00634921 </v>
   <v>       0.00634921 </v>
   <v>       0.00634921 </v>
   <v>       0.00634921 </v>
   <v>       0.00634921 </v>
   <v>       0.00634921 </v>
   <v>       0.00634921 </v>
   <v>       0.00634921 </v>
   <v>       0.00634921 </v>
   <v>       0.00634921 </v>
   <v>       0.00634921 </v>
   <v>       0.00634921 </v>
   <v>       0.00634921 </v>
   <v>       0.00634921 </v>
   <v>       0.00634921 </v>
   <v>       0.00634921 </v>
   <v>       0.00634921 </v>
   <v>       0.00634921 </v>
   <v>       0.00634921 </v>
   <v>       0.00634921 </v>
   <v>       0.00634921 </v>
   <v>       0.00634921 </v>
   <v>       0.00634921 </v>
   <v>       0.00634921 </v>
   <v>       0.00634921 </v>
   <v>       0.00634921 </v>
   <v>       0.00634921 </v>
   <v>       0.00634921 </v>
   <v>       0.00634921 </v>
   <v>       0.00634921 </v>
   <v>       0.00634921 </v>
   <v>       0.00634921 </v>
   <v>       0.00634921 </v>
   <v>       0.00634921 </v>
   <v>       0.00634921 </v>
   <v>       0.00634921 </v>
   <v>       0.00634921 </v>
   <v>       0.00634921 </v>
   <v>       0.00634921 </v>
   <v>       0.00634921 </v>
   <v>       0.00634921 </v>
   <v>       0.00634921 </v>
   <v>       0.00634921 </v>
   <v>       0.00634921 </v>
  </varray>
 </kpoints>
 <parameters>
  <separator name="general" >
   <i type="string" name="SYSTEM">unknown system</i>
   <i type="logical" name="LCOMPAT"> F  </i>
  </separator>
  <separator name="electronic" >
   <i type="string" name="PREC">a</i>
   <i name="ENMAX">    520.00000000</i>
   <i name="ENAUG">    342.92400000</i>
   <i name="EDIFF">      0.00001000</i>
   <i type="int" name="IALGO">    38</i>
   <i type="int" name="IWAVPR">    11</i>
   <i type="int" name="NBANDS">    16</i>
   <i name="NELECT">     20.00000000</i>
   <i type="int" name="TURBO">     0</i>
   <i type="int" name="IRESTART">     0</i>
   <i type="int" name="NREBOOT">     0</i>
   <i type="int" name="NMIN">     0</i>
   <i name="EREF">      0.00000000</i>
   <separator name="electronic smearing" >
    <i type="int" name="ISMEAR">     0</i>
    <i name="SIGMA">      0.02000000</i>
    <i name="KSPACING">      0.50000000</i>
    <i type="logical" name="KGAMMA"> T  </i>
   </separator>
   <separator name="electronic projectors" >
    <i type="logical" name="LREAL"> F  </i>
    <v name="ROPT">      0.00000000</v>
    <i type="int" name="LMAXPAW">  -100</i>
    <i type="int" name="LMAXMIX">     2</i>
    <i type="logical" name="NLSPLINE"> F  </i>
   </separator>
   <separator name="electronic startup" >
    <i type="int" name="ISTART">     0</i>
    <i type="int" name="ICHARG">     2</i>
    <i type="int" name="INIWAV">     1</i>
   </separator>
   <separator name="electronic spin" >
    <i type="int" name="ISPIN">     1</i>
    <i type="logical" name="LNONCOLLINEAR"> F  </i>
    <v name="MAGMOM">      1.00000000      1.00000000      1.00000000      1.00000000</v>
    <i name="NUPDOWN">     -1.00000000</i>
    <i type="logical" name="LSORBIT"> F  </i>
    <v name="SAXIS">      0.00000000      0.00000000      1.00000000</v>
    <i type="logical" name="LSPIRAL"> F  </i>
    <v name="QSPIRAL">      0.00000000      0.00000000      0.00000000</v>
    <i type="logical" name="LZEROZ"> F  </i>
   </separator>
   <separator name="electronic exchange-correlation" >
    <i type="logical" name="LASPH"> F  </i>
    <i type="logical" name="LMETAGGA"> F  </i>
   </separator>
   <separator name="electronic convergence" >
    <i type="int" name="NELM">   250</i>
    <i type="int" name="NELMDL">    -5</i>
    <i type="int" name="NELMIN">     6</i>
    <i name="ENINI">    520.00000000</i>
    <separator name="electronic convergence detail" >
     <i type="logical" name="LDIAG"> T  </i>
     <i type="logical" name="LSUBROT"> F  </i>
     <i name="WEIMIN">      0.00100000</i>
     <i name="EBREAK">      0.00000016</i>
     <i name="DEPER">      0.30000000</i>
     <i type="int" name="NRMM">     4</i>
     <i name="TIME">      0.40000000</i>
    </separator>
   </separator>
   <separator name="electronic mixer" >
    <i name="AMIX">      0.40000000</i>
    <i name="BMIX">      1.00000000</i>
    <i name="AMIN">      0.10000000</i>
    <i name="AMIX_MAG">      1.60000000</i>
    <i name="BMIX_MAG">      1.00000000</i>
    <separator name="electronic mixer details" >
     <i type="int" name="IMIX">     4</i>
     <i type="logical" name="MIXFIRST"> F  </i>
     <i type="int" name="MAXMIX">   -45</i>
     <i name="WC">    100.00000000</i>
     <i type="int" name="INIMIX">     1</i>
     <i type="int" name="MIXPRE">     1</i>
     <i type="int" name="MREMOVE">     5</i>
    </separator>
   </separator>
   <separator name="electronic dipolcorrection" >
    <i type="logical" name="LDIPOL"> F  </i>
    <i type="logical" name="LMONO"> F  </i>
    <i type="int" name="IDIPOL">     0</i>
    <i name="EPSILON">      1.00000000</i>
    <v name="DIPOL">   -100.00000000   -100.00000000   -100.00000000</v>
    <i name="EFIELD">      0.00000000</i>
   </separator>
  </separator>
  <separator name="grids" >
   <i type="int" name="NGX">    28</i>
   <i type="int" name="NGY">    36</i>
   <i type="int" name="NGZ">   150</i>
   <i type="int" name="NGXF">    56</i>
   <i type="int" name="NGYF">    72</i>
   <i type="int" name="NGZF">   300</i>
   <i type="logical" name="ADDGRID"> F  </i>
  </separator>
  <separator name="ionic" >
   <i type="int" name="NSW">   200</i>
   <i type="int" name="IBRION">     2</i>
   <i type="int" name="ISIF">     2</i>
   <i name="PSTRESS">      0.00000000</i>
   <i name="EDIFFG">     -0.01000000</i>
   <i type="int" name="NFREE">     1</i>
   <i name="POTIM">      0.30000000</i>
   <i name="SMASS">     -3.00000000</i>
   <i name="SCALEE">      1.00000000</i>
  </separator>
  <separator name="ionic md" >
   <i name="TEBEG">      0.00010000</i>
   <i name="TEEND">      0.00010000</i>
   <i type="int" name="NBLOCK">     1</i>
   <i type="int" name="KBLOCK">   200</i>
   <i type="int" name="NPACO">   256</i>
   <i name="APACO">     16.00000000</i>
  </separator>
  <separator name="symmetry" >
   <i type="int" name="ISYM">     2</i>
   <i name="SYMPREC">      0.00001000</i>
  </separator>
  <separator name="dos" >
   <i type="logical" name="LORBIT"> F  </i>
   <v name="RWIGS">     -1.00000000</v>
   <i type="int" name="NEDOS">   301</i>
   <i name="EMIN">     10.00000000</i>
   <i name="EMAX">    -10.00000000</i>
   <i name="EFERMI">      0.00000000</i>
  </separator>
  <separator name="writing" >
   <i type="int" name="NWRITE">     2</i>
   <i type="logical" name="LWAVE"> F  </i>
   <i type="logical" name="LCHARG"> F  </i>
   <i type="logical" name="LPARD"> F  </i>
   <i type="logical" name="LVTOT"> F  </i>
   <i type="logical" name="LVHAR"> F  </i>
   <i type="logical" name="LELF"> F  </i>
   <i type="logical" name="LOPTICS"> F  </i>
   <v name="STM">      0.00000000      0.00000000      0.00000000      0.00000000      0.00000000      0.00000000      0.00000000</v>
  </separator>
  <separator name="performance" >
   <i type="int" name="NPAR">     4</i>
   <i type="int" name="NSIM">     4</i>
   <i type="int" name="NBLK">    -1</i>
   <i type="logical" name="LPLANE"> T  </i>
   <i type="logical" name="LSCALAPACK"> T  </i>
   <i type="logical" name="LSCAAWARE"> F  </i>
   <i type="logical" name="LSCALU"> F  </i>
   <i type="logical" name="LASYNC"> F  </i>
   <i type="logical" name="LORBITALREAL"> F  </i>
  </separator>
  <separator name="miscellaneous" >
   <i type="int" name="IDIOT">     3</i>
   <i type="logical" name="LMUSIC"> F  </i>
   <v name="POMASS">     30.97400000</v>
   <v name="DARWINR">      0.00000000</v>
   <v name="DARWINV">      1.00000000</v>
   <i type="logical" name="LCORR"> T  </i>
  </separator>
  <i type="logical" name="GGA_COMPAT"> T  </i>
  <i type="logical" name="LBERRY"> F  </i>
  <i type="int" name="ICORELEVEL">     0</i>
  <i type="logical" name="LDAU"> F  </i>
  <i type="int" name="I_CONSTRAINED_M">     0</i>
  <separator name="electronic exchange-correlation" >
   <i type="string" name="GGA">--</i>
   <i type="int" name="VOSKOWN">     0</i>
   <i type="logical" name="LHFCALC"> F  </i>
   <i type="string" name="PRECFOCK"></i>
   <i type="logical" name="LSYMGRAD"> F  </i>
   <i type="logical" name="LHFONE"> F  </i>
   <i type="logical" name="LRHFCALC"> F  </i>
   <i type="logical" name="LTHOMAS"> F  </i>
   <i type="logical" name="LMODELHF"> F  </i>
   <i name="ENCUT4O">     -1.00000000</i>
   <i type="int" name="EXXOEP">     0</i>
   <i type="int" name="FOURORBIT">     0</i>
   <i name="AEXX">      0.00000000</i>
   <i name="HFALPHA">      0.00000000</i>
   <i name="MCALPHA">      0.00000000</i>
   <i name="ALDAX">      1.00000000</i>
   <i name="AGGAX">      1.00000000</i>
   <i name="ALDAC">      1.00000000</i>
   <i name="AGGAC">      1.00000000</i>
   <i type="int" name="NKREDX">     1</i>
   <i type="int" name="NKREDY">     1</i>
   <i type="int" name="NKREDZ">     1</i>
   <i type="logical" name="SHIFTRED"> F  </i>
   <i type="logical" name="ODDONLY"> F  </i>
   <i type="logical" name="EVENONLY"> F  </i>
   <i type="int" name="LMAXFOCK">     0</i>
   <i type="int" name="NMAXFOCKAE">     0</i>
   <i type="logical" name="LFOCKAEDFT"> F  </i>
   <i name="HFSCREEN">      0.00000000</i>
   <i name="HFSCREENC">      0.00000000</i>
   <i type="int" name="NBANDSGWLOW">     0</i>
  </separator>
  <separator name="vdW DFT" >
   <i type="logical" name="LUSE_VDW"> F  </i>
   <i name="Zab_VDW">     -0.84910000</i>
   <i name="PARAM1">      0.12340000</i>
   <i name="PARAM2">      1.00000000</i>
   <i name="PARAM3">      0.00000000</i>
  </separator>
  <separator name="model GW" >
   <i type="int" name="MODEL_GW">     0</i>
   <i name="MODEL_EPS0">     46.70393462</i>
   <i name="MODEL_ALPHA">      1.00000000</i>
  </separator>
  <separator name="linear response parameters" >
   <i type="logical" name="LEPSILON"> F  </i>
   <i type="logical" name="LRPA"> F  </i>
   <i type="logical" name="LNABLA"> F  </i>
   <i type="logical" name="LVEL"> F  </i>
   <i type="int" name="KINTER">     0</i>
   <i name="CSHIFT">      0.10000000</i>
   <i name="OMEGAMAX">     -1.00000000</i>
   <i name="DEG_THRESHOLD">      0.00200000</i>
  </separator>
  <separator name="orbital magnetization" >
   <i type="logical" name="NUCIND"> F  </i>
   <v name="MAGPOS">      0.00000000      0.00000000      0.00000000</v>
   <i type="logical" name="LNICSALL"> T  </i>
   <i type="logical" name="ORBITALMAG"> F  </i>
   <i type="logical" name="LMAGBLOCH"> F  </i>
   <i type="logical" name="LCHIMAG"> F  </i>
   <i type="logical" name="LGAUGE"> T  </i>
   <i type="int" name="MAGATOM">     0</i>
   <v name="MAGDIPOL">      0.00000000      0.00000000      0.00000000</v>
   <v name="AVECCONST">      0.00000000      0.00000000      0.00000000</v>
  </separator>
  <separator name="response functions" >
   <i type="logical" name="LADDER"> F  </i>
   <i type="logical" name="LFXC"> F  </i>
   <i type="logical" name="LHARTREE"> T  </i>
   <i type="int" name="IBSE">     0</i>
   <v type="int" name="KPOINT">    -1     0     0     0</v>
   <i type="logical" name="LTCTE"> F  </i>
   <i type="logical" name="LTETE"> F  </i>
   <i type="logical" name="LTRIPLET"> F  </i>
   <i type="logical" name="LFXCEPS"> F  </i>
   <i type="logical" name="LFXHEG"> F  </i>
   <i type="int" name="NATURALO">     0</i>
   <i type="logical" name="L2ORDER"> F  </i>
   <i type="logical" name="LUSEW"> F  </i>
   <i name="ENCUTGW">     -2.00000000</i>
   <i name="ENCUTGWSOFT">     -2.00000000</i>
   <i name="ENCUTLF">     -1.00000000</i>
   <i type="int" name="LMAXMP2">    -1</i>
   <i name="SCISSOR">      0.00000000</i>
   <i type="int" name="NOMEGA">     0</i>
   <i type="int" name="NOMEGAR">     0</i>
   <i type="int" name="NBANDSGW">    -1</i>
   <i type="int" name="NBANDSO">    -1</i>
   <i type="int" name="NBANDSV">    -1</i>
   <i type="int" name="NELM">   250</i>
   <i type="int" name="NELMHF">     1</i>
   <i type="int" name="DIM">     3</i>
   <i type="int" name="ANTIRES">     0</i>
   <i name="OMEGAMAX">    -30.00000000</i>
   <i name="OMEGAMIN">    -30.00000000</i>
   <i name="OMEGATL">   -200.00000000</i>
   <i type="int" name="OMEGAGRID">     0</i>
   <i name="CSHIFT">     -0.10000000</i>
   <i type="logical" name="SELFENERGY"> F  </i>
   <i type="logical" name="LSPECTRAL"> F  </i>
   <i type="logical" name="LSPECTRALGW"> F  </i>
   <i type="logical" name="LSINGLES"> F  </i>
   <i type="logical" name="LFERMIGW"> F  </i>
   <i type="logical" name="ODDONLYGW"> F  </i>
   <i type="logical" name="EVENONLYGW"> F  </i>
   <i type="int" name="NKREDLFX">     1</i>
   <i type="int" name="NKREDLFY">     1</i>
   <i type="int" name="NKREDLFZ">     1</i>
   <i type="int" name="MAXMEM">  1800</i>
   <i type="int" name="TELESCOPE">     0</i>
   <i type="int" name="TAUPAR">     1</i>
   <i type="int" name="OMEGAPAR">    -1</i>
   <i name="LAMBDA">      1.00000000</i>
  </separator>
  <separator name="External order field" >
   <i name="OFIELD_KAPPA">      0.00000000</i>
   <v name="OFIELD_K">      0.00000000      0.00000000      0.00000000</v>
   <i name="OFIELD_Q6_NEAR">      0.00000000</i>
   <i name="OFIELD_Q6_FAR">      0.00000000</i>
   <i name="OFIELD_A">      0.00000000</i>
  </separator>
 </parameters>
 <atominfo>
  <atoms>       4 </atoms>
  <types>       1 </types>
  <array name="atoms" >
   <dimension dim="1">ion</dimension>
   <field type="string">element</field>
   <field type="int">atomtype</field>
   <set>
    <rc><c>P </c><c>   1</c></rc>
    <rc><c>P </c><c>   1</c></rc>
    <rc><c>P </c><c>   1</c></rc>
    <rc><c>P </c><c>   1</c></rc>
   </set>
  </array>
  <array name="atomtypes" >
   <dimension dim="1">type</dimension>
   <field type="int">atomspertype</field>
   <field type="string">element</field>
   <field>mass</field>
   <field>valence</field>
   <field type="string">pseudopotential</field>
   <set>
    <rc><c>   4</c><c>P </c><c>     30.97400000</c><c>      5.00000000</c><c>  PAW_PBE P 06Sep2000                   </c></rc>
   </set>
  </array>
 </atominfo>
 <structure name="initialpos" >
  <crystal>
   <varray name="basis" >
    <v>       3.33001300       0.00000000       0.00000000 </v>
    <v>       0.00000000       4.66935600      -0.00005300 </v>
    <v>       0.00000000       0.00000000      20.02439000 </v>
   </varray>
   <i name="volume">    311.35956414 </i>
   <varray name="rec_basis" >
    <v>       0.30029913       0.00000000       0.00000000 </v>
    <v>       0.00000000       0.21416230       0.00000000 </v>
    <v>       0.00000000       0.00000057       0.04993910 </v>
   </varray>
  </crystal>
  <varray name="positions" >
   <v>       0.50000000       0.91077300       0.55252100 </v>
   <v>       0.50000000       0.08922700       0.44747900 </v>
   <v>       0.00000000       0.41076900       0.44747900 </v>
   <v>       0.00000000       0.58923100       0.55252100 </v>
  </varray>
 </structure>
 <calculation>
  <scstep>
   <time name="dav">    1.49    1.50</time>
   <time name="total">    1.52    1.52</time>
   <energy>
    <i name="alphaZ">      5.15211744 </i>
    <i name="ewald">   1816.79940745 </i>
    <i name="hartreedc">  -2410.87596535 </i>
    <i name="XCdc">     12.84940253 </i>
    <i name="pawpsdc">    559.04011960 </i>
    <i name="pawaedc">   -526.39432044 </i>
    <i name="eentropy">     -0.00057987 </i>
    <i name="bandstr">    -28.41624253 </i>
    <i name="atom">    704.16778566 </i>
    <i name="e_fr_energy">    132.32172449 </i>
    <i name="e_wo_entrp">    132.32230436 </i>
    <i name="e_0_energy">    132.32201443 </i>
   </energy>
  </scstep>
  <scstep>
   <time name="dav">    2.00    2.00</time>
   <time name="total">    2.00    2.00</time>
   <energy>
    <i name="e_fr_energy">     -6.28627336 </i>
    <i name="e_wo_entrp">     -6.28627336 </i>
    <i name="e_0_energy">     -6.28627336 </i>
   </energy>
  </scstep>
  <scstep>
   <time name="dav">    1.85    1.85</time>
   <time name="total">    1.85    1.86</time>
   <energy>
    <i name="e_fr_energy">    -21.32531421 </i>
    <i name="e_wo_entrp">    -21.32531421 </i>
    <i name="e_0_energy">    -21.32531421 </i>
   </energy>
  </scstep>
  <scstep>
   <time name="dav">    1.86    1.86</time>
   <time name="total">    1.86    1.86</time>
   <energy>
    <i name="e_fr_energy">    -21.63360837 </i>
    <i name="e_wo_entrp">    -21.63360837 </i>
    <i name="e_0_energy">    -21.63360837 </i>
   </energy>
  </scstep>
  <scstep>
   <time name="dav">    1.98    1.98</time>
   <time name="total">    2.08    2.08</time>
   <energy>
    <i name="e_fr_energy">    -21.64289492 </i>
    <i name="e_wo_entrp">    -21.64289492 </i>
    <i name="e_0_energy">    -21.64289492 </i>
   </energy>
  </scstep>
  <scstep>
   <time name="dav">    1.80    1.80</time>
   <time name="total">    1.92    1.92</time>
   <energy>
    <i name="e_fr_energy">    -21.51109229 </i>
    <i name="e_wo_entrp">    -21.51109229 </i>
    <i name="e_0_energy">    -21.51109229 </i>
   </energy>
  </scstep>
  <scstep>
   <time name="dav">    1.74    1.74</time>
   <time name="total">    1.85    1.86</time>
   <energy>
    <i name="e_fr_energy">    -21.44700521 </i>
    <i name="e_wo_entrp">    -21.44700521 </i>
    <i name="e_0_energy">    -21.44700521 </i>
   </energy>
  </scstep>
  <scstep>
   <time name="dav">    1.81    1.81</time>
   <time name="total">    1.92    1.92</time>
   <energy>
    <i name="e_fr_energy">    -21.44662660 </i>
    <i name="e_wo_entrp">    -21.44662660 </i>
    <i name="e_0_energy">    -21.44662660 </i>
   </energy>
  </scstep>
  <scstep>
   <time name="dav">    2.11    2.11</time>
   <time name="total">    2.23    2.23</time>
   <energy>
    <i name="e_fr_energy">    -21.44649162 </i>
    <i name="e_wo_entrp">    -21.44649162 </i>
    <i name="e_0_energy">    -21.44649162 </i>
   </energy>
  </scstep>
  <scstep>
   <time name="dav">    1.82    1.82</time>
   <time name="total">    1.94    1.94</time>
   <energy>
    <i name="e_fr_energy">    -21.44637184 </i>
    <i name="e_wo_entrp">    -21.44637184 </i>
    <i name="e_0_energy">    -21.44637184 </i>
   </energy>
  </scstep>
  <scstep>
   <time name="dav">    1.80    1.80</time>
   <time name="total">    1.91    1.91</time>
   <energy>
    <i name="e_fr_energy">    -21.44630157 </i>
    <i name="e_wo_entrp">    -21.44630157 </i>
    <i name="e_0_energy">    -21.44630157 </i>
   </energy>
  </scstep>
  <scstep>
   <time name="dav">    1.63    1.63</time>
   <time name="total">    1.74    1.75</time>
   <energy>
    <i name="e_fr_energy">    -21.44667268 </i>
    <i name="e_wo_entrp">    -21.44667268 </i>
    <i name="e_0_energy">    -21.44667268 </i>
   </energy>
  </scstep>
  <scstep>
   <time name="dav">    1.61    1.61</time>
   <time name="total">    1.72    1.72</time>
   <energy>
    <i name="e_fr_energy">    -21.44676743 </i>
    <i name="e_wo_entrp">    -21.44676743 </i>
    <i name="e_0_energy">    -21.44676743 </i>
   </energy>
  </scstep>
  <scstep>
   <time name="dav">    1.50    1.50</time>
   <time name="total">    1.61    1.62</time>
   <energy>
    <i name="e_fr_energy">    -21.44688817 </i>
    <i name="e_wo_entrp">    -21.44688817 </i>
    <i name="e_0_energy">    -21.44688817 </i>
   </energy>
  </scstep>
  <scstep>
   <time name="dav">    1.55    1.55</time>
   <time name="total">    1.67    1.67</time>
   <energy>
    <i name="e_fr_energy">    -21.44691504 </i>
    <i name="e_wo_entrp">    -21.44691504 </i>
    <i name="e_0_energy">    -21.44691504 </i>
   </energy>
  </scstep>
  <scstep>
   <time name="dav">    1.48    1.48</time>
   <time name="total">    1.59    1.59</time>
   <energy>
    <i name="e_fr_energy">    -21.44694376 </i>
    <i name="e_wo_entrp">    -21.44694376 </i>
    <i name="e_0_energy">    -21.44694376 </i>
   </energy>
  </scstep>
  <scstep>
   <time name="dav">    1.47    1.47</time>
   <time name="total">    1.49    1.50</time>
   <energy>
    <i name="alphaZ">      5.15211744 </i>
    <i name="ewald">   1816.79940745 </i>
    <i name="hartreedc">  -2425.42359875 </i>
    <i name="XCdc">     13.88685588 </i>
    <i name="pawpsdc">   2018.72335584 </i>
    <i name="pawaedc">  -1986.38660059 </i>
    <i name="eentropy">     -0.00000000 </i>
    <i name="bandstr">   -168.36626918 </i>
    <i name="atom">    704.16778566 </i>
    <i name="e_fr_energy">    -21.44694625 </i>
    <i name="e_wo_entrp">    -21.44694625 </i>
    <i name="e_0_energy">    -21.44694625 </i>
   </energy>
  </scstep>
  <structure>
   <crystal>
    <varray name="basis" >
     <v>       3.33001300       0.00000000       0.00000000 </v>
     <v>       0.00000000       4.66935600      -0.00005300 </v>
     <v>       0.00000000       0.00000000      20.02439000 </v>
    </varray>
    <i name="volume">    311.35956414 </i>
    <varray name="rec_basis" >
     <v>       0.30029913       0.00000000       0.00000000 </v>
     <v>       0.00000000       0.21416230       0.00000000 </v>
     <v>       0.00000000       0.00000057       0.04993910 </v>
    </varray>
   </crystal>
   <varray name="positions" >
    <v>       0.50000000       0.91077300       0.55252100 </v>
    <v>       0.50000000       0.08922700       0.44747900 </v>
    <v>       0.00000000       0.41076900       0.44747900 </v>
    <v>       0.00000000       0.58923100       0.55252100 </v>
   </varray>
  </structure>
  <varray name="forces" >
   <v>      -0.00000012      -0.17254548      -0.04112226 </v>
   <v>       0.00000012       0.17254548       0.04112226 </v>
   <v>       0.00000015      -0.17257387       0.04112921 </v>
   <v>      -0.00000015       0.17257387      -0.04112921 </v>
  </varray>
  <varray name="stress" >
   <v>      -6.37275600       0.00000009      -0.00000054 </v>
   <v>       0.00000010      -4.74181821       0.00036221 </v>
   <v>      -0.00000062       0.00036221      -0.95355918 </v>
  </varray>
  <energy>
   <i name="e_fr_energy">    -21.44694625 </i>
   <i name="e_wo_entrp">    -21.44694625 </i>
   <i name="e_0_energy">     -0.00000000 </i>
  </energy>
  <time name="totalsc">   31.69   31.74</time>
 </calculation>
 <calculation>
  <scstep>
   <time name="dav">    1.60    1.60</time>
   <time name="total">    1.71    1.71</time>
   <energy>
    <i name="alphaZ">      5.15211744 </i>
    <i name="ewald">   1818.60511776 </i>
    <i name="hartreedc">  -2426.94508989 </i>
    <i name="XCdc">     13.91697844 </i>
    <i name="pawpsdc">   2018.45829199 </i>
    <i name="pawaedc">  -1986.12157187 </i>
    <i name="eentropy">     -0.00000000 </i>
    <i name="bandstr">   -168.68288949 </i>
    <i name="atom">    704.16778566 </i>
    <i name="e_fr_energy">    -21.44925994 </i>
    <i name="e_wo_entrp">    -21.44925994 </i>
    <i name="e_0_energy">    -21.44925994 </i>
   </energy>
  </scstep>
  <scstep>
   <time name="dav">    1.91    1.91</time>
   <time name="total">    2.02    2.02</time>
   <energy>
    <i name="e_fr_energy">    -21.44960138 </i>
    <i name="e_wo_entrp">    -21.44960138 </i>
    <i name="e_0_energy">    -21.44960138 </i>
   </energy>
  </scstep>
  <scstep>
   <time name="dav">    1.99    1.99</time>
   <time name="total">    2.10    2.11</time>
   <energy>
    <i name="e_fr_energy">    -21.44960135 </i>
    <i name="e_wo_entrp">    -21.44960135 </i>
    <i name="e_0_energy">    -21.44960135 </i>
   </energy>
  </scstep>
  <scstep>
   <time name="dav">    1.47    1.47</time>
   <time name="total">    1.58    1.58</time>
   <energy>
    <i name="e_fr_energy">    -21.44960333 </i>
    <i name="e_wo_entrp">    -21.44960333 </i>
    <i name="e_0_energy">    -21.44960333 </i>
   </energy>
  </scstep>
  <scstep>
   <time name="dav">    1.27    1.27</time>
   <time name="total">    1.38    1.38</time>
   <energy>
    <i name="e_fr_energy">    -21.44960393 </i>
    <i name="e_wo_entrp">    -21.44960393 </i>
    <i name="e_0_energy">    -21.44960393 </i>
   </energy>
  </scstep>
  <scstep>
   <time name="dav">    1.20    1.20</time>
   <time name="total">    1.22    1.22</time>
   <energy>
    <i name="alphaZ">      5.15211744 </i>
    <i name="ewald">   1818.60511776 </i>
    <i name="hartreedc">  -2426.95558828 </i>
    <i name="XCdc">     13.92017025 </i>
    <i name="pawpsdc">   2036.93333031 </i>
    <i name="pawaedc">  -2004.60346631 </i>
    <i name="eentropy">     -0.00000000 </i>
    <i name="bandstr">   -168.66907133 </i>
    <i name="atom">    704.16778566 </i>
    <i name="e_fr_energy">    -21.44960449 </i>
    <i name="e_wo_entrp">    -21.44960449 </i>
    <i name="e_0_energy">    -21.44960449 </i>
   </energy>
  </scstep>
  <structure>
   <crystal>
    <varray name="basis" >
     <v>       3.33001300       0.00000000       0.00000000 </v>
     <v>       0.00000000       4.66935600      -0.00005300 </v>
     <v>       0.00000000       0.00000000      20.02439000 </v>
    </varray>
    <i name="volume">    311.35956414 </i>
    <varray name="rec_basis" >
     <v>       0.30029913       0.00000000       0.00000000 </v>
     <v>       0.00000000       0.21416230       0.00000000 </v>
     <v>       0.00000000       0.00000057       0.04993910 </v>
    </varray>
   </crystal>
   <varray name="positions" >
    <v>       0.50000000       0.90970338       0.55246155 </v>
    <v>       0.50000000       0.09029662       0.44753845 </v>
    <v>       0.00000000       0.40969921       0.44753845 </v>
    <v>      -0.00000000       0.59030079       0.55246155 </v>
   </varray>
  </structure>
  <varray name="forces" >
   <v>      -0.00000002      -0.07189584      -0.03953381 </v>
   <v>       0.00000002       0.07189584       0.03953381 </v>
   <v>      -0.00000004      -0.07191949       0.03953537 </v>
   <v>       0.00000004       0.07191949      -0.03953537 </v>
  </varray>
  <varray name="stress" >
   <v>      -5.97415889       0.00000142      -0.00000000 </v>
   <v>       0.00000141      -3.26412506       0.00029411 </v>
   <v>      -0.00000001       0.00029413      -0.94897711 </v>
  </varray>
  <energy>
   <i name="e_fr_energy">    -21.44960449 </i>
   <i name="e_wo_entrp">    -21.44960449 </i>
   <i name="e_0_energy">     -0.00000000 </i>
  </energy>
  <time name="totalsc">   10.80   10.83</time>
 </calculation>
 <calculation>
  <scstep>
   <time name="dav">    1.58    1.58</time>
   <time name="total">    1.69    1.69</time>
   <energy>
    <i name="alphaZ">      5.15211744 </i>
    <i name="ewald">   1820.06350078 </i>
    <i name="hartreedc">  -2428.16644104 </i>
    <i name="XCdc">     13.94437486 </i>
    <i name="pawpsdc">   2037.11920473 </i>
    <i name="pawaedc">  -2004.78928054 </i>
    <i name="eentropy">     -0.00000000 </i>
    <i name="bandstr">   -168.94129326 </i>
    <i name="atom">    704.16778566 </i>
    <i name="e_fr_energy">    -21.45003136 </i>
    <i name="e_wo_entrp">    -21.45003136 </i>
    <i name="e_0_energy">    -21.45003136 </i>
   </energy>
  </scstep>
  <scstep>
   <time name="dav">    1.91    1.91</time>
   <time name="total">    2.02    2.02</time>
   <energy>
    <i name="e_fr_energy">    -21.45025582 </i>
    <i name="e_wo_entrp">    -21.45025582 </i>
    <i name="e_0_energy">    -21.45025582 </i>
   </energy>
  </scstep>
  <scstep>
   <time name="dav">    1.93    1.93</time>
   <time name="total">    2.04    2.04</time>
   <energy>
    <i name="e_fr_energy">    -21.45025527 </i>
    <i name="e_wo_entrp">    -21.45025527 </i>
    <i name="e_0_energy">    -21.45025527 </i>
   </energy>
  </scstep>
  <scstep>
   <time name="dav">    1.39    1.39</time>
   <time name="total">    1.50    1.50</time>
   <energy>
    <i name="e_fr_energy">    -21.45025638 </i>
    <i name="e_wo_entrp">    -21.45025638 </i>
    <i name="e_0_energy">    -21.45025638 </i>
   </energy>
  </scstep>
  <scstep>
   <time name="dav">    1.23    1.23</time>
   <time name="total">    1.34    1.34</time>
   <energy>
    <i name="e_fr_energy">    -21.45025643 </i>
    <i name="e_wo_entrp">    -21.45025643 </i>
    <i name="e_0_energy">    -21.45025643 </i>
   </energy>
  </scstep>
  <scstep>
   <time name="dav">    1.17    1.17</time>
   <time name="total">    1.18    1.19</time>
   <energy>
    <i name="alphaZ">      5.15211744 </i>
    <i name="ewald">   1820.06350078 </i>
    <i name="hartreedc">  -2428.16714763 </i>
    <i name="XCdc">     13.94694145 </i>
    <i name="pawpsdc">   2052.27938016 </i>
    <i name="pawaedc">  -2019.95507161 </i>
    <i name="eentropy">     -0.00000000 </i>
    <i name="bandstr">   -168.93776298 </i>
    <i name="atom">    704.16778566 </i>
    <i name="e_fr_energy">    -21.45025674 </i>
    <i name="e_wo_entrp">    -21.45025674 </i>
    <i name="e_0_energy">    -21.45025674 </i>
   </energy>
  </scstep>
  <structure>
   <crystal>
    <varray name="basis" >
     <v>       3.33001300       0.00000000       0.00000000 </v>
     <v>       0.00000000       4.66935600      -0.00005300 </v>
     <v>       0.00000000       0.00000000      20.02439000 </v>
    </varray>
    <i name="volume">    311.35956414 </i>
    <varray name="rec_basis" >
     <v>       0.30029913       0.00000000       0.00000000 </v>
     <v>       0.00000000       0.21416230       0.00000000 </v>
     <v>       0.00000000       0.00000057       0.04993910 </v>
    </varray>
   </crystal>
   <varray name="positions" >
    <v>       0.50000000       0.90884234       0.55241370 </v>
    <v>       0.50000000       0.09115766       0.44758630 </v>
    <v>       0.00000000       0.40883802       0.44758631 </v>
    <v>      -0.00000000       0.59116198       0.55241369 </v>
   </varray>
  </structure>
  <varray name="forces" >
   <v>       0.00000007       0.01065346      -0.03865016 </v>
   <v>      -0.00000007      -0.01065346       0.03865016 </v>
   <v>      -0.00000003       0.01063351       0.03864781 </v>
   <v>       0.00000003      -0.01063351      -0.03864781 </v>
  </varray>
  <varray name="stress" >
   <v>      -5.62970629       0.00000140       0.00000073 </v>
   <v>       0.00000146      -2.05948476       0.00023921 </v>
   <v>       0.00000072       0.00023917      -0.92706994 </v>
  </varray>
  <energy>
   <i name="e_fr_energy">    -21.45025674 </i>
   <i name="e_wo_entrp">    -21.45025674 </i>
   <i name="e_0_energy">     -0.00000000 </i>
  </energy>
  <time name="totalsc">   10.57   10.58</time>
 </calculation>
 <calculation>
  <scstep>
   <time name="dav">    1.46    1.46</time>
   <time name="total">    1.57    1.57</time>
   <energy>
    <i name="alphaZ">      5.15211744 </i>
    <i name="ewald">   1821.30656528 </i>
    <i name="hartreedc">  -2429.33623524 </i>
    <i name="XCdc">     13.95523316 </i>
    <i name="pawpsdc">   2052.44523624 </i>
    <i name="pawaedc">  -2020.12088792 </i>
    <i name="eentropy">     -0.00000000 </i>
    <i name="bandstr">   -169.02019951 </i>
    <i name="atom">    704.16778566 </i>
    <i name="e_fr_energy">    -21.45038489 </i>
    <i name="e_wo_entrp">    -21.45038489 </i>
    <i name="e_0_energy">    -21.45038489 </i>
   </energy>
  </scstep>
  <scstep>
   <time name="dav">    1.81    1.81</time>
   <time name="total">    1.92    1.92</time>
   <energy>
    <i name="e_fr_energy">    -21.45041917 </i>
    <i name="e_wo_entrp">    -21.45041917 </i>
    <i name="e_0_energy">    -21.45041917 </i>
   </energy>
  </scstep>
  <scstep>
   <time name="dav">    1.30    1.30</time>
   <time name="total">    1.41    1.41</time>
   <energy>
    <i name="e_fr_energy">    -21.45041867 </i>
    <i name="e_wo_entrp">    -21.45041867 </i>
    <i name="e_0_energy">    -21.45041867 </i>
   </energy>
  </scstep>
  <scstep>
   <time name="dav">    1.19    1.19</time>
   <time name="total">    1.30    1.30</time>
   <energy>
    <i name="e_fr_energy">    -21.45041940 </i>
    <i name="e_wo_entrp">    -21.45041940 </i>
    <i name="e_0_energy">    -21.45041940 </i>
   </energy>
  </scstep>
  <scstep>
   <time name="dav">    1.17    1.17</time>
   <time name="total">    1.28    1.28</time>
   <energy>
    <i name="e_fr_energy">    -21.45041949 </i>
    <i name="e_wo_entrp">    -21.45041949 </i>
    <i name="e_0_energy">    -21.45041949 </i>
   </energy>
  </scstep>
  <scstep>
   <time name="dav">    1.15    1.15</time>
   <time name="total">    1.17    1.17</time>
   <energy>
    <i name="alphaZ">      5.15211744 </i>
    <i name="ewald">   1821.30656528 </i>
    <i name="hartreedc">  -2429.33053967 </i>
    <i name="XCdc">     13.95572391 </i>
    <i name="pawpsdc">   2056.48753733 </i>
    <i name="pawaedc">  -2024.16456250 </i>
    <i name="eentropy">     -0.00000000 </i>
    <i name="bandstr">   -169.02504714 </i>
    <i name="atom">    704.16778566 </i>
    <i name="e_fr_energy">    -21.45041969 </i>
    <i name="e_wo_entrp">    -21.45041969 </i>
    <i name="e_0_energy">    -21.45041969 </i>
   </energy>
  </scstep>
  <structure>
   <crystal>
    <varray name="basis" >
     <v>       3.33001300       0.00000000       0.00000000 </v>
     <v>       0.00000000       4.66935600      -0.00005300 </v>
     <v>       0.00000000       0.00000000      20.02439000 </v>
    </varray>
    <i name="volume">    311.35956414 </i>
    <varray name="rec_basis" >
     <v>       0.30029913       0.00000000       0.00000000 </v>
     <v>       0.00000000       0.21416230       0.00000000 </v>
     <v>       0.00000000       0.00000057       0.04993910 </v>
    </varray>
   </crystal>
   <varray name="positions" >
    <v>       0.50000000       0.90884584       0.55234477 </v>
    <v>       0.50000000       0.09115416       0.44765523 </v>
    <v>       0.00000000       0.40884137       0.44765523 </v>
    <v>      -0.00000000       0.59115863       0.55234477 </v>
   </varray>
  </structure>
  <varray name="forces" >
   <v>       0.00000003       0.00585411      -0.01882069 </v>
   <v>      -0.00000003      -0.00585411       0.01882069 </v>
   <v>      -0.00000013       0.00583795       0.01881926 </v>
   <v>       0.00000013      -0.00583795      -0.01881926 </v>
  </varray>
  <varray name="stress" >
   <v>      -5.59969802       0.00000005       0.00000071 </v>
   <v>       0.00000002      -1.98916833       0.00019738 </v>
   <v>       0.00000069       0.00019737      -0.48625742 </v>
  </varray>
  <energy>
   <i name="e_fr_energy">    -21.45041969 </i>
   <i name="e_wo_entrp">    -21.45041969 </i>
   <i name="e_0_energy">     -0.00000000 </i>
  </energy>
  <time name="totalsc">    9.43    9.45</time>
 </calculation>
 <calculation>
  <scstep>
   <time name="dav">    1.45    1.45</time>
   <time name="total">    1.57    1.57</time>
   <energy>
    <i name="alphaZ">      5.15211744 </i>
    <i name="ewald">   1822.48771415 </i>
    <i name="hartreedc">  -2430.44204781 </i>
    <i name="XCdc">     13.96360467 </i>
    <i name="pawpsdc">   2056.60359148 </i>
    <i name="pawaedc">  -2024.28059158 </i>
    <i name="eentropy">     -0.00000000 </i>
    <i name="bandstr">   -169.10261515 </i>
    <i name="atom">    704.16778566 </i>
    <i name="e_fr_energy">    -21.45044113 </i>
    <i name="e_wo_entrp">    -21.45044113 </i>
    <i name="e_0_energy">    -21.45044113 </i>
   </energy>
  </scstep>
  <scstep>
   <time name="dav">    1.83    1.83</time>
   <time name="total">    1.94    1.94</time>
   <energy>
    <i name="e_fr_energy">    -21.45047228 </i>
    <i name="e_wo_entrp">    -21.45047228 </i>
    <i name="e_0_energy">    -21.45047228 </i>
   </energy>
  </scstep>
  <scstep>
   <time name="dav">    1.29    1.29</time>
   <time name="total">    1.40    1.40</time>
   <energy>
    <i name="e_fr_energy">    -21.45047175 </i>
    <i name="e_wo_entrp">    -21.45047175 </i>
    <i name="e_0_energy">    -21.45047175 </i>
   </energy>
  </scstep>
  <scstep>
   <time name="dav">    1.19    1.19</time>
   <time name="total">    1.30    1.30</time>
   <energy>
    <i name="e_fr_energy">    -21.45047224 </i>
    <i name="e_wo_entrp">    -21.45047224 </i>
    <i name="e_0_energy">    -21.45047224 </i>
   </energy>
  </scstep>
  <scstep>
   <time name="dav">    1.15    1.15</time>
   <time name="total">    1.26    1.26</time>
   <energy>
    <i name="e_fr_energy">    -21.45047221 </i>
    <i name="e_wo_entrp">    -21.45047221 </i>
    <i name="e_0_energy">    -21.45047221 </i>
   </energy>
  </scstep>
  <scstep>
   <time name="dav">    1.13    1.13</time>
   <time name="total">    1.15    1.15</time>
   <energy>
    <i name="alphaZ">      5.15211744 </i>
    <i name="ewald">   1822.48771415 </i>
    <i name="hartreedc">  -2430.44092952 </i>
    <i name="XCdc">     13.96413036 </i>
    <i name="pawpsdc">   2060.34909599 </i>
    <i name="pawaedc">  -2028.02741863 </i>
    <i name="eentropy">     -0.00000000 </i>
    <i name="bandstr">   -169.10296774 </i>
    <i name="atom">    704.16778566 </i>
    <i name="e_fr_energy">    -21.45047229 </i>
    <i name="e_wo_entrp">    -21.45047229 </i>
    <i name="e_0_energy">    -21.45047229 </i>
   </energy>
  </scstep>
  <structure>
   <crystal>
    <varray name="basis" >
     <v>       3.33001300       0.00000000       0.00000000 </v>
     <v>       0.00000000       4.66935600      -0.00005300 </v>
     <v>       0.00000000       0.00000000      20.02439000 </v>
    </varray>
    <i name="volume">    311.35956414 </i>
    <varray name="rec_basis" >
     <v>       0.30029913       0.00000000       0.00000000 </v>
     <v>       0.00000000       0.21416230       0.00000000 </v>
     <v>       0.00000000       0.00000057       0.04993910 </v>
    </varray>
   </crystal>
   <varray name="positions" >
    <v>       0.50000000       0.90884917       0.55227929 </v>
    <v>       0.50000000       0.09115083       0.44772071 </v>
    <v>       0.00000000       0.40884455       0.44772071 </v>
    <v>      -0.00000000       0.59115545       0.55227929 </v>
   </varray>
  </structure>
  <varray name="forces" >
   <v>       0.00000004       0.00118897       0.00006624 </v>
   <v>      -0.00000004      -0.00118897      -0.00006624 </v>
   <v>      -0.00000013       0.00117636      -0.00006662 </v>
   <v>       0.00000013      -0.00117636       0.00006662 </v>
  </varray>
  <varray name="stress" >
   <v>      -5.56506192      -0.00000003       0.00000071 </v>
   <v>      -0.00000008      -1.92454264       0.00015765 </v>
   <v>       0.00000068       0.00015759      -0.07670260 </v>
  </varray>
  <energy>
   <i name="e_fr_energy">    -21.45047229 </i>
   <i name="e_wo_entrp">    -21.45047229 </i>
   <i name="e_0_energy">     -0.00000000 </i>
  </energy>
  <time name="totalsc">    9.33    9.35</time>
  <eigenvalues>
   <array>
    <dimension dim="1">band</dimension>
    <dimension dim="2">kpoint</dimension>
    <dimension dim="3">spin</dimension>
    <field>eigene</field>
    <field>occ</field>
    <set>
     <set comment="spin 1">
      <set comment="kpoint 1">
       <r>  -17.2036    1.0000 </r>
       <r>  -14.7620    1.0000 </r>
       <r>  -11.5621    1.0000 </r>
       <r>   -7.9340    1.0000 </r>
       <r>   -7.0703    1.0000 </r>
       <r>   -6.7450    1.0000 </r>
       <r>   -5.7399    1.0000 </r>
       <r>   -4.1751    1.0000 </r>
       <r>   -3.8960    1.0000 </r>
       <r>   -2.3499    1.0000 </r>
       <r>   -1.3501    0.0000 </r>
       <r>   -0.8105    0.0000 </r>
       <r>    0.1616    0.0000 </r>
       <r>    0.8213    0.0000 </r>
       <r>    2.0974    0.0000 </r>
       <r>    2.2778    0.0000 </r>
      </set>
      <set comment="kpoint 2">
       <r>  -17.1772    1.0000 </r>
       <r>  -14.7343    1.0000 </r>
       <r>  -11.5721    1.0000 </r>
       <r>   -7.9142    1.0000 </r>
       <r>   -7.0919    1.0000 </r>
       <r>   -6.7219    1.0000 </r>
       <r>   -5.9062    1.0000 </r>
       <r>   -4.3495    1.0000 </r>
       <r>   -3.8871    1.0000 </r>
       <r>   -2.3519    1.0000 </r>
       <r>   -1.3257    0.0000 </r>
       <r>   -0.5750    0.0000 </r>
       <r>    0.3961    0.0000 </r>
       <r>    0.6646    0.0000 </r>
       <r>    2.1246    0.0000 </r>
       <r>    2.3072    0.0000 </r>
      </set>
      <set comment="kpoint 3">
       <r>  -17.0982    1.0000 </r>
       <r>  -14.6515    1.0000 </r>
       <r>  -11.6072    1.0000 </r>
       <r>   -7.8559    1.0000 </r>
       <r>   -7.1769    1.0000 </r>
       <r>   -6.6530    1.0000 </r>
       <r>   -6.3134    1.0000 </r>
       <r>   -4.7487    1.0000 </r>
       <r>   -3.8640    1.0000 </r>
       <r>   -2.3750    1.0000 </r>
       <r>   -1.2529    0.0000 </r>
       <r>    0.0571    0.0000 </r>
       <r>    0.2757    0.0000 </r>
       <r>    0.9719    0.0000 </r>
       <r>    2.2010    0.0000 </r>
       <r>    2.3954    0.0000 </r>
      </set>
      <set comment="kpoint 4">
       <r>  -16.9670    1.0000 </r>
       <r>  -14.5136    1.0000 </r>
       <r>  -11.6829    1.0000 </r>
       <r>   -7.7614    1.0000 </r>
       <r>   -7.3846    1.0000 </r>
       <r>   -6.8000    1.0000 </r>
       <r>   -6.5396    1.0000 </r>
       <r>   -5.1494    1.0000 </r>
       <r>   -3.8396    1.0000 </r>
       <r>   -2.4382    1.0000 </r>
       <r>   -1.1334    0.0000 </r>
       <r>   -0.2024    0.0000 </r>
       <r>    0.9422    0.0000 </r>
       <r>    1.5913    0.0000 </r>
       <r>    2.2471    0.0000 </r>
       <r>    2.5418    0.0000 </r>
      </set>
      <set comment="kpoint 5">
       <r>  -16.7842    1.0000 </r>
       <r>  -14.3209    1.0000 </r>
       <r>  -11.8224    1.0000 </r>
       <r>   -7.7744    1.0000 </r>
       <r>   -7.6356    1.0000 </r>
       <r>   -7.2459    1.0000 </r>
       <r>   -6.3843    1.0000 </r>
       <r>   -5.3932    1.0000 </r>
       <r>   -3.8377    1.0000 </r>
       <r>   -2.5520    1.0000 </r>
       <r>   -0.9708    0.0000 </r>
       <r>   -0.6548    0.0000 </r>
       <r>    1.6630    0.0000 </r>
       <r>    1.8304    0.0000 </r>
       <r>    1.9377    0.0000 </r>
       <r>    2.6349    0.0000 </r>
      </set>
      <set comment="kpoint 6">
       <r>  -16.5508    1.0000 </r>
       <r>  -14.0740    1.0000 </r>
       <r>  -12.0489    1.0000 </r>
       <r>   -8.3260    1.0000 </r>
       <r>   -7.5781    1.0000 </r>
       <r>   -7.4873    1.0000 </r>
       <r>   -6.1914    1.0000 </r>
       <r>   -5.4554    1.0000 </r>
       <r>   -3.8912    1.0000 </r>
       <r>   -2.7242    1.0000 </r>
       <r>   -0.9943    0.0000 </r>
       <r>   -0.7744    0.0000 </r>
       <r>    1.1439    0.0000 </r>
       <r>    1.2696    0.0000 </r>
       <r>    2.4542    0.0000 </r>
       <r>    2.8851    0.0000 </r>
      </set>
      <set comment="kpoint 7">
       <r>  -16.2682    1.0000 </r>
       <r>  -13.7733    1.0000 </r>
       <r>  -12.3719    1.0000 </r>
       <r>   -8.9633    1.0000 </r>
       <r>   -7.7634    1.0000 </r>
       <r>   -7.3311    1.0000 </r>
       <r>   -5.9677    1.0000 </r>
       <r>   -5.3960    1.0000 </r>
       <r>   -4.0217    1.0000 </r>
       <r>   -2.9569    1.0000 </r>
       <r>   -1.1605    0.0000 </r>
       <r>   -0.5731    0.0000 </r>
       <r>    0.5259    0.0000 </r>
       <r>    0.7589    0.0000 </r>
       <r>    2.0615    0.0000 </r>
       <r>    3.2085    0.0000 </r>
      </set>
      <set comment="kpoint 8">
       <r>  -15.9384    1.0000 </r>
       <r>  -13.4196    1.0000 </r>
       <r>  -12.7788    1.0000 </r>
       <r>   -9.6261    1.0000 </r>
       <r>   -7.8047    1.0000 </r>
       <r>   -7.1913    1.0000 </r>
       <r>   -5.7242    1.0000 </r>
       <r>   -5.2761    1.0000 </r>
       <r>   -4.2050    1.0000 </r>
       <r>   -3.2416    1.0000 </r>
       <r>   -1.1405    0.0000 </r>
       <r>   -0.4778    0.0000 </r>
       <r>   -0.0532    0.0000 </r>
       <r>    0.4446    0.0000 </r>
       <r>    1.5780    0.0000 </r>
       <r>    2.9502    0.0000 </r>
      </set>
      <set comment="kpoint 9">
       <r>  -15.5641    1.0000 </r>
       <r>  -13.2418    1.0000 </r>
       <r>  -13.0140    1.0000 </r>
       <r>  -10.2808    1.0000 </r>
       <r>   -7.7295    1.0000 </r>
       <r>   -7.1044    1.0000 </r>
       <r>   -5.4783    1.0000 </r>
       <r>   -5.1439    1.0000 </r>
       <r>   -4.3686    1.0000 </r>
       <r>   -3.5575    1.0000 </r>
       <r>   -0.9647    0.0000 </r>
       <r>   -0.6502    0.0000 </r>
       <r>   -0.5417    0.0000 </r>
       <r>    0.5157    0.0000 </r>
       <r>    1.0866    0.0000 </r>
       <r>    2.5545    0.0000 </r>
      </set>
      <set comment="kpoint 10">
       <r>  -15.1494    1.0000 </r>
       <r>  -13.7312    1.0000 </r>
       <r>  -12.5579    1.0000 </r>
       <r>  -10.9096    1.0000 </r>
       <r>   -7.5758    1.0000 </r>
       <r>   -7.1083    1.0000 </r>
       <r>   -5.2563    1.0000 </r>
       <r>   -5.0443    1.0000 </r>
       <r>   -4.4324    1.0000 </r>
       <r>   -3.8747    1.0000 </r>
       <r>   -0.9127    0.0000 </r>
       <r>   -0.8978    0.0000 </r>
       <r>   -0.6741    0.0000 </r>
       <r>    0.5986    0.0000 </r>
       <r>    0.8243    0.0000 </r>
       <r>    2.1110    0.0000 </r>
      </set>
      <set comment="kpoint 11">
       <r>  -14.6996    1.0000 </r>
       <r>  -14.2229    1.0000 </r>
       <r>  -12.0531    1.0000 </r>
       <r>  -11.5024    1.0000 </r>
       <r>   -7.3870    1.0000 </r>
       <r>   -7.2135    1.0000 </r>
       <r>   -5.0927    1.0000 </r>
       <r>   -5.0193    1.0000 </r>
       <r>   -4.3562    1.0000 </r>
       <r>   -4.1557    1.0000 </r>
       <r>   -1.0837    0.0000 </r>
       <r>   -1.0814    0.0000 </r>
       <r>   -0.3011    0.0000 </r>
       <r>    0.1298    0.0000 </r>
       <r>    1.2204    0.0000 </r>
       <r>    1.6575    0.0000 </r>
      </set>
      <set comment="kpoint 12">
       <r>  -17.1827    1.0000 </r>
       <r>  -14.7942    1.0000 </r>
       <r>  -11.5620    1.0000 </r>
       <r>   -8.1025    1.0000 </r>
       <r>   -6.9532    1.0000 </r>
       <r>   -6.6602    1.0000 </r>
       <r>   -5.7239    1.0000 </r>
       <r>   -4.1911    1.0000 </r>
       <r>   -3.8124    1.0000 </r>
       <r>   -2.5357    1.0000 </r>
       <r>   -1.1766    0.0000 </r>
       <r>   -0.7935    0.0000 </r>
       <r>    0.1144    0.0000 </r>
       <r>    0.8118    0.0000 </r>
       <r>    2.1526    0.0000 </r>
       <r>    2.3071    0.0000 </r>
      </set>
      <set comment="kpoint 13">
       <r>  -17.1564    1.0000 </r>
       <r>  -14.7667    1.0000 </r>
       <r>  -11.5708    1.0000 </r>
       <r>   -8.0877    1.0000 </r>
       <r>   -6.9681    1.0000 </r>
       <r>   -6.6469    1.0000 </r>
       <r>   -5.8809    1.0000 </r>
       <r>   -4.3708    1.0000 </r>
       <r>   -3.8039    1.0000 </r>
       <r>   -2.5340    1.0000 </r>
       <r>   -1.1558    0.0000 </r>
       <r>   -0.5589    0.0000 </r>
       <r>    0.3424    0.0000 </r>
       <r>    0.6668    0.0000 </r>
       <r>    2.1786    0.0000 </r>
       <r>    2.3365    0.0000 </r>
      </set>
      <set comment="kpoint 14">
       <r>  -17.0774    1.0000 </r>
       <r>  -14.6845    1.0000 </r>
       <r>  -11.6022    1.0000 </r>
       <r>   -8.0479    1.0000 </r>
       <r>   -7.0291    1.0000 </r>
       <r>   -6.6426    1.0000 </r>
       <r>   -6.2259    1.0000 </r>
       <r>   -4.7796    1.0000 </r>
       <r>   -3.7875    1.0000 </r>
       <r>   -2.5426    1.0000 </r>
       <r>   -1.0977    0.0000 </r>
       <r>    0.0722    0.0000 </r>
       <r>    0.2649    0.0000 </r>
       <r>    0.9478    0.0000 </r>
       <r>    2.2511    0.0000 </r>
       <r>    2.4245    0.0000 </r>
      </set>
      <set comment="kpoint 15">
       <r>  -16.9463    1.0000 </r>
       <r>  -14.5478    1.0000 </r>
       <r>  -11.6716    1.0000 </r>
       <r>   -8.0075    1.0000 </r>
       <r>   -7.1766    1.0000 </r>
       <r>   -6.8967    1.0000 </r>
       <r>   -6.3507    1.0000 </r>
       <r>   -5.1885    1.0000 </r>
       <r>   -3.7781    1.0000 </r>
       <r>   -2.5813    1.0000 </r>
       <r>   -1.0018    0.0000 </r>
       <r>   -0.1901    0.0000 </r>
       <r>    0.9518    0.0000 </r>
       <r>    1.5841    0.0000 </r>
       <r>    2.2308    0.0000 </r>
       <r>    2.4868    0.0000 </r>
      </set>
      <set comment="kpoint 16">
       <r>  -16.7637    1.0000 </r>
       <r>  -14.3572    1.0000 </r>
       <r>  -11.8025    1.0000 </r>
       <r>   -8.0706    1.0000 </r>
       <r>   -7.3768    1.0000 </r>
       <r>   -7.3082    1.0000 </r>
       <r>   -6.2390    1.0000 </r>
       <r>   -5.4343    1.0000 </r>
       <r>   -3.7996    1.0000 </r>
       <r>   -2.6650    1.0000 </r>
       <r>   -0.8671    0.0000 </r>
       <r>   -0.6140    0.0000 </r>
       <r>    1.6239    0.0000 </r>
       <r>    1.7202    0.0000 </r>
       <r>    2.0348    0.0000 </r>
       <r>    2.6024    0.0000 </r>
      </set>
      <set comment="kpoint 17">
       <r>  -16.5306    1.0000 </r>
       <r>  -14.1139    1.0000 </r>
       <r>  -12.0184    1.0000 </r>
       <r>   -8.4381    1.0000 </r>
       <r>   -7.6336    1.0000 </r>
       <r>   -7.4155    1.0000 </r>
       <r>   -6.0650    1.0000 </r>
       <r>   -5.4956    1.0000 </r>
       <r>   -3.8813    1.0000 </r>
       <r>   -2.8067    1.0000 </r>
       <r>   -0.9189    0.0000 </r>
       <r>   -0.6986    0.0000 </r>
       <r>    1.0949    0.0000 </r>
       <r>    1.2323    0.0000 </r>
       <r>    2.5366    0.0000 </r>
       <r>    2.9574    0.0000 </r>
      </set>
      <set comment="kpoint 18">
       <r>  -16.2484    1.0000 </r>
       <r>  -13.8211    1.0000 </r>
       <r>  -12.3279    1.0000 </r>
       <r>   -9.0193    1.0000 </r>
       <r>   -7.8164    1.0000 </r>
       <r>   -7.3159    1.0000 </r>
       <r>   -5.8588    1.0000 </r>
       <r>   -5.4425    1.0000 </r>
       <r>   -4.0317    1.0000 </r>
       <r>   -3.0108    1.0000 </r>
       <r>   -1.0532    0.0000 </r>
       <r>   -0.5240    0.0000 </r>
       <r>    0.5890    0.0000 </r>
       <r>    0.6208    0.0000 </r>
       <r>    2.2311    0.0000 </r>
       <r>    3.1668    0.0000 </r>
      </set>
      <set comment="kpoint 19">
       <r>  -15.9192    1.0000 </r>
       <r>  -13.4932    1.0000 </r>
       <r>  -12.7057    1.0000 </r>
       <r>   -9.6619    1.0000 </r>
       <r>   -7.8545    1.0000 </r>
       <r>   -7.1918    1.0000 </r>
       <r>   -5.6385    1.0000 </r>
       <r>   -5.3470    1.0000 </r>
       <r>   -4.2073    1.0000 </r>
       <r>   -3.2680    1.0000 </r>
       <r>   -1.0165    0.0000 </r>
       <r>   -0.4732    0.0000 </r>
       <r>    0.0421    0.0000 </r>
       <r>    0.2997    0.0000 </r>
       <r>    1.7928    0.0000 </r>
       <r>    2.8984    0.0000 </r>
      </set>
      <set comment="kpoint 20">
       <r>  -15.5459    1.0000 </r>
       <r>  -13.3403    1.0000 </r>
       <r>  -12.9145    1.0000 </r>
       <r>  -10.3072    1.0000 </r>
       <r>   -7.7738    1.0000 </r>
       <r>   -7.1076    1.0000 </r>
       <r>   -5.4281    1.0000 </r>
       <r>   -5.2649    1.0000 </r>
       <r>   -4.3226    1.0000 </r>
       <r>   -3.5533    1.0000 </r>
       <r>   -0.8641    0.0000 </r>
       <r>   -0.6983    0.0000 </r>
       <r>   -0.4266    0.0000 </r>
       <r>    0.3935    0.0000 </r>
       <r>    1.3445    0.0000 </r>
       <r>    2.5110    0.0000 </r>
      </set>
      <set comment="kpoint 21">
       <r>  -15.1326    1.0000 </r>
       <r>  -13.7379    1.0000 </r>
       <r>  -12.5500    1.0000 </r>
       <r>  -10.9300    1.0000 </r>
       <r>   -7.6120    1.0000 </r>
       <r>   -7.1141    1.0000 </r>
       <r>   -5.2623    1.0000 </r>
       <r>   -5.2140    1.0000 </r>
       <r>   -4.3213    1.0000 </r>
       <r>   -3.8302    1.0000 </r>
       <r>   -0.9685    0.0000 </r>
       <r>   -0.9179    0.0000 </r>
       <r>   -0.4598    0.0000 </r>
       <r>    0.5515    0.0000 </r>
       <r>    1.0265    0.0000 </r>
       <r>    2.0769    0.0000 </r>
      </set>
      <set comment="kpoint 22">
       <r>  -14.6856    1.0000 </r>
       <r>  -14.2146    1.0000 </r>
       <r>  -12.0610    1.0000 </r>
       <r>  -11.5174    1.0000 </r>
       <r>   -7.4127    1.0000 </r>
       <r>   -7.2277    1.0000 </r>
       <r>   -5.1775    1.0000 </r>
       <r>   -5.1767    1.0000 </r>
       <r>   -4.2247    1.0000 </r>
       <r>   -4.0604    1.0000 </r>
       <r>   -1.1228    0.0000 </r>
       <r>   -1.1035    0.0000 </r>
       <r>   -0.1237    0.0000 </r>
       <r>    0.2723    0.0000 </r>
       <r>    1.2352    0.0000 </r>
       <r>    1.6383    0.0000 </r>
      </set>
      <set comment="kpoint 23">
       <r>  -14.6856    1.0000 </r>
       <r>  -14.2146    1.0000 </r>
       <r>  -12.0610    1.0000 </r>
       <r>  -11.5174    1.0000 </r>
       <r>   -7.4127    1.0000 </r>
       <r>   -7.2277    1.0000 </r>
       <r>   -5.1775    1.0000 </r>
       <r>   -5.1767    1.0000 </r>
       <r>   -4.2247    1.0000 </r>
       <r>   -4.0604    1.0000 </r>
       <r>   -1.1228    0.0000 </r>
       <r>   -1.1035    0.0000 </r>
       <r>   -0.1237    0.0000 </r>
       <r>    0.2723    0.0000 </r>
       <r>    1.2352    0.0000 </r>
       <r>    1.6383    0.0000 </r>
      </set>
      <set comment="kpoint 24">
       <r>  -15.1326    1.0000 </r>
       <r>  -13.7379    1.0000 </r>
       <r>  -12.5500    1.0000 </r>
       <r>  -10.9300    1.0000 </r>
       <r>   -7.6120    1.0000 </r>
       <r>   -7.1141    1.0000 </r>
       <r>   -5.2623    1.0000 </r>
       <r>   -5.2140    1.0000 </r>
       <r>   -4.3213    1.0000 </r>
       <r>   -3.8302    1.0000 </r>
       <r>   -0.9685    0.0000 </r>
       <r>   -0.9179    0.0000 </r>
       <r>   -0.4598    0.0000 </r>
       <r>    0.5515    0.0000 </r>
       <r>    1.0265    0.0000 </r>
       <r>    2.0769    0.0000 </r>
      </set>
      <set comment="kpoint 25">
       <r>  -15.5459    1.0000 </r>
       <r>  -13.3403    1.0000 </r>
       <r>  -12.9145    1.0000 </r>
       <r>  -10.3072    1.0000 </r>
       <r>   -7.7738    1.0000 </r>
       <r>   -7.1076    1.0000 </r>
       <r>   -5.4281    1.0000 </r>
       <r>   -5.2649    1.0000 </r>
       <r>   -4.3226    1.0000 </r>
       <r>   -3.5533    1.0000 </r>
       <r>   -0.8641    0.0000 </r>
       <r>   -0.6983    0.0000 </r>
       <r>   -0.4266    0.0000 </r>
       <r>    0.3935    0.0000 </r>
       <r>    1.3445    0.0000 </r>
       <r>    2.5110    0.0000 </r>
      </set>
      <set comment="kpoint 26">
       <r>  -15.9192    1.0000 </r>
       <r>  -13.4932    1.0000 </r>
       <r>  -12.7057    1.0000 </r>
       <r>   -9.6619    1.0000 </r>
       <r>   -7.8545    1.0000 </r>
       <r>   -7.1918    1.0000 </r>
       <r>   -5.6385    1.0000 </r>
       <r>   -5.3470    1.0000 </r>
       <r>   -4.2073    1.0000 </r>
       <r>   -3.2680    1.0000 </r>
       <r>   -1.0165    0.0000 </r>
       <r>   -0.4732    0.0000 </r>
       <r>    0.0421    0.0000 </r>
       <r>    0.2997    0.0000 </r>
       <r>    1.7928    0.0000 </r>
       <r>    2.8984    0.0000 </r>
      </set>
      <set comment="kpoint 27">
       <r>  -16.2484    1.0000 </r>
       <r>  -13.8211    1.0000 </r>
       <r>  -12.3279    1.0000 </r>
       <r>   -9.0193    1.0000 </r>
       <r>   -7.8164    1.0000 </r>
       <r>   -7.3159    1.0000 </r>
       <r>   -5.8588    1.0000 </r>
       <r>   -5.4425    1.0000 </r>
       <r>   -4.0317    1.0000 </r>
       <r>   -3.0108    1.0000 </r>
       <r>   -1.0532    0.0000 </r>
       <r>   -0.5240    0.0000 </r>
       <r>    0.5890    0.0000 </r>
       <r>    0.6208    0.0000 </r>
       <r>    2.2311    0.0000 </r>
       <r>    3.1668    0.0000 </r>
      </set>
      <set comment="kpoint 28">
       <r>  -16.5306    1.0000 </r>
       <r>  -14.1139    1.0000 </r>
       <r>  -12.0184    1.0000 </r>
       <r>   -8.4381    1.0000 </r>
       <r>   -7.6336    1.0000 </r>
       <r>   -7.4155    1.0000 </r>
       <r>   -6.0650    1.0000 </r>
       <r>   -5.4956    1.0000 </r>
       <r>   -3.8813    1.0000 </r>
       <r>   -2.8067    1.0000 </r>
       <r>   -0.9189    0.0000 </r>
       <r>   -0.6986    0.0000 </r>
       <r>    1.0949    0.0000 </r>
       <r>    1.2323    0.0000 </r>
       <r>    2.5366    0.0000 </r>
       <r>    2.9574    0.0000 </r>
      </set>
      <set comment="kpoint 29">
       <r>  -16.7637    1.0000 </r>
       <r>  -14.3572    1.0000 </r>
       <r>  -11.8025    1.0000 </r>
       <r>   -8.0706    1.0000 </r>
       <r>   -7.3768    1.0000 </r>
       <r>   -7.3082    1.0000 </r>
       <r>   -6.2390    1.0000 </r>
       <r>   -5.4343    1.0000 </r>
       <r>   -3.7996    1.0000 </r>
       <r>   -2.6650    1.0000 </r>
       <r>   -0.8671    0.0000 </r>
       <r>   -0.6140    0.0000 </r>
       <r>    1.6239    0.0000 </r>
       <r>    1.7202    0.0000 </r>
       <r>    2.0348    0.0000 </r>
       <r>    2.6024    0.0000 </r>
      </set>
      <set comment="kpoint 30">
       <r>  -16.9463    1.0000 </r>
       <r>  -14.5478    1.0000 </r>
       <r>  -11.6716    1.0000 </r>
       <r>   -8.0075    1.0000 </r>
       <r>   -7.1766    1.0000 </r>
       <r>   -6.8967    1.0000 </r>
       <r>   -6.3507    1.0000 </r>
       <r>   -5.1885    1.0000 </r>
       <r>   -3.7781    1.0000 </r>
       <r>   -2.5813    1.0000 </r>
       <r>   -1.0018    0.0000 </r>
       <r>   -0.1901    0.0000 </r>
       <r>    0.9518    0.0000 </r>
       <r>    1.5841    0.0000 </r>
       <r>    2.2308    0.0000 </r>
       <r>    2.4868    0.0000 </r>
      </set>
      <set comment="kpoint 31">
       <r>  -17.0774    1.0000 </r>
       <r>  -14.6845    1.0000 </r>
       <r>  -11.6022    1.0000 </r>
       <r>   -8.0479    1.0000 </r>
       <r>   -7.0291    1.0000 </r>
       <r>   -6.6426    1.0000 </r>
       <r>   -6.2259    1.0000 </r>
       <r>   -4.7796    1.0000 </r>
       <r>   -3.7875    1.0000 </r>
       <r>   -2.5426    1.0000 </r>
       <r>   -1.0977    0.0000 </r>
       <r>    0.0722    0.0000 </r>
       <r>    0.2649    0.0000 </r>
       <r>    0.9478    0.0000 </r>
       <r>    2.2511    0.0000 </r>
       <r>    2.4245    0.0000 </r>
      </set>
      <set comment="kpoint 32">
       <r>  -17.1564    1.0000 </r>
       <r>  -14.7667    1.0000 </r>
       <r>  -11.5708    1.0000 </r>
       <r>   -8.0877    1.0000 </r>
       <r>   -6.9681    1.0000 </r>
       <r>   -6.6469    1.0000 </r>
       <r>   -5.8809    1.0000 </r>
       <r>   -4.3708    1.0000 </r>
       <r>   -3.8039    1.0000 </r>
       <r>   -2.5340    1.0000 </r>
       <r>   -1.1558    0.0000 </r>
       <r>   -0.5589    0.0000 </r>
       <r>    0.3424    0.0000 </r>
       <r>    0.6668    0.0000 </r>
       <r>    2.1786    0.0000 </r>
       <r>    2.3365    0.0000 </r>
      </set>
      <set comment="kpoint 33">
       <r>  -17.1205    1.0000 </r>
       <r>  -14.8897    1.0000 </r>
       <r>  -11.5531    1.0000 </r>
       <r>   -8.4648    1.0000 </r>
       <r>   -6.7286    1.0000 </r>
       <r>   -6.4171    1.0000 </r>
       <r>   -5.6762    1.0000 </r>
       <r>   -4.2389    1.0000 </r>
       <r>   -3.5870    1.0000 </r>
       <r>   -2.9168    1.0000 </r>
       <r>   -0.8279    0.0000 </r>
       <r>   -0.7439    0.0000 </r>
       <r>   -0.0214    0.0000 </r>
       <r>    0.7908    0.0000 </r>
       <r>    2.3118    0.0000 </r>
       <r>    2.3945    0.0000 </r>
      </set>
      <set comment="kpoint 34">
       <r>  -17.0943    1.0000 </r>
       <r>  -14.8627    1.0000 </r>
       <r>  -11.5587    1.0000 </r>
       <r>   -8.4537    1.0000 </r>
       <r>   -6.7350    1.0000 </r>
       <r>   -6.4401    1.0000 </r>
       <r>   -5.7980    1.0000 </r>
       <r>   -4.4286    1.0000 </r>
       <r>   -3.5854    1.0000 </r>
       <r>   -2.9108    1.0000 </r>
       <r>   -0.8132    0.0000 </r>
       <r>   -0.5093    0.0000 </r>
       <r>    0.2026    0.0000 </r>
       <r>    0.6674    0.0000 </r>
       <r>    2.3346    0.0000 </r>
       <r>    2.4237    0.0000 </r>
      </set>
      <set comment="kpoint 35">
       <r>  -17.0155    1.0000 </r>
       <r>  -14.7820    1.0000 </r>
       <r>  -11.5804    1.0000 </r>
       <r>   -8.4260    1.0000 </r>
       <r>   -6.7705    1.0000 </r>
       <r>   -6.6012    1.0000 </r>
       <r>   -5.9841    1.0000 </r>
       <r>   -4.8598    1.0000 </r>
       <r>   -3.5925    1.0000 </r>
       <r>   -2.9024    1.0000 </r>
       <r>   -0.7731    0.0000 </r>
       <r>    0.1179    0.0000 </r>
       <r>    0.2521    0.0000 </r>
       <r>    0.8724    0.0000 </r>
       <r>    2.3951    0.0000 </r>
       <r>    2.5113    0.0000 </r>
      </set>
      <set comment="kpoint 36">
       <r>  -16.8848    1.0000 </r>
       <r>  -14.6483    1.0000 </r>
       <r>  -11.6333    1.0000 </r>
       <r>   -8.4050    1.0000 </r>
       <r>   -6.9859    1.0000 </r>
       <r>   -6.8847    1.0000 </r>
       <r>   -5.9944    1.0000 </r>
       <r>   -5.2891    1.0000 </r>
       <r>   -3.6272    1.0000 </r>
       <r>   -2.9072    1.0000 </r>
       <r>   -0.7072    0.0000 </r>
       <r>   -0.1319    0.0000 </r>
       <r>    0.9743    0.0000 </r>
       <r>    1.5438    0.0000 </r>
       <r>    1.9943    0.0000 </r>
       <r>    2.5099    0.0000 </r>
      </set>
      <set comment="kpoint 37">
       <r>  -16.7026    1.0000 </r>
       <r>  -14.4627    1.0000 </r>
       <r>  -11.7414    1.0000 </r>
       <r>   -8.4557    1.0000 </r>
       <r>   -7.4113    1.0000 </r>
       <r>   -7.1012    1.0000 </r>
       <r>   -5.8955    1.0000 </r>
       <r>   -5.5355    1.0000 </r>
       <r>   -3.7126    1.0000 </r>
       <r>   -2.9415    1.0000 </r>
       <r>   -0.6154    0.0000 </r>
       <r>   -0.4757    0.0000 </r>
       <r>    1.2710    0.0000 </r>
       <r>    1.8480    0.0000 </r>
       <r>    2.1267    0.0000 </r>
       <r>    2.6270    0.0000 </r>
      </set>
      <set comment="kpoint 38">
       <r>  -16.4703    1.0000 </r>
       <r>  -14.2282    1.0000 </r>
       <r>  -11.9299    1.0000 </r>
       <r>   -8.7013    1.0000 </r>
       <r>   -7.7448    1.0000 </r>
       <r>   -7.2761    1.0000 </r>
       <r>   -5.7501    1.0000 </r>
       <r>   -5.5898    1.0000 </r>
       <r>   -3.8634    1.0000 </r>
       <r>   -3.0215    1.0000 </r>
       <r>   -0.6921    0.0000 </r>
       <r>   -0.5000    0.0000 </r>
       <r>    0.7414    0.0000 </r>
       <r>    1.4680    0.0000 </r>
       <r>    2.6521    0.0000 </r>
       <r>    3.0462    0.0000 </r>
      </set>
      <set comment="kpoint 39">
       <r>  -16.1893    1.0000 </r>
       <r>  -13.9523    1.0000 </r>
       <r>  -12.2072    1.0000 </r>
       <r>   -9.1762    1.0000 </r>
       <r>   -7.9327    1.0000 </r>
       <r>   -7.2855    1.0000 </r>
       <r>   -5.5861    1.0000 </r>
       <r>   -5.5535    1.0000 </r>
       <r>   -4.0552    1.0000 </r>
       <r>   -3.1561    1.0000 </r>
       <r>   -0.7519    0.0000 </r>
       <r>   -0.3897    0.0000 </r>
       <r>    0.2624    0.0000 </r>
       <r>    0.8834    0.0000 </r>
       <r>    2.5199    0.0000 </r>
       <r>    3.0165    0.0000 </r>
      </set>
      <set comment="kpoint 40">
       <r>  -15.8619    1.0000 </r>
       <r>  -13.6625    1.0000 </r>
       <r>  -12.5374    1.0000 </r>
       <r>   -9.7671    1.0000 </r>
       <r>   -7.9690    1.0000 </r>
       <r>   -7.1997    1.0000 </r>
       <r>   -5.5201    1.0000 </r>
       <r>   -5.4318    1.0000 </r>
       <r>   -4.2099    1.0000 </r>
       <r>   -3.3358    1.0000 </r>
       <r>   -0.6767    0.0000 </r>
       <r>   -0.4866    0.0000 </r>
       <r>    0.0923    0.0000 </r>
       <r>    0.3100    0.0000 </r>
       <r>    2.2199    0.0000 </r>
       <r>    2.7578    0.0000 </r>
      </set>
      <set comment="kpoint 41">
       <r>  -15.4915    1.0000 </r>
       <r>  -13.5085    1.0000 </r>
       <r>  -12.7434    1.0000 </r>
       <r>  -10.3857    1.0000 </r>
       <r>   -7.8787    1.0000 </r>
       <r>   -7.1188    1.0000 </r>
       <r>   -5.5353    1.0000 </r>
       <r>   -5.3249    1.0000 </r>
       <r>   -4.2424    1.0000 </r>
       <r>   -3.5300    1.0000 </r>
       <r>   -0.8024    0.0000 </r>
       <r>   -0.5766    0.0000 </r>
       <r>   -0.1114    0.0000 </r>
       <r>    0.2658    0.0000 </r>
       <r>    1.8410    0.0000 </r>
       <r>    2.3911    0.0000 </r>
      </set>
      <set comment="kpoint 42">
       <r>  -15.0830    1.0000 </r>
       <r>  -13.7607    1.0000 </r>
       <r>  -12.5241    1.0000 </r>
       <r>  -10.9910    1.0000 </r>
       <r>   -7.6996    1.0000 </r>
       <r>   -7.1277    1.0000 </r>
       <r>   -5.5457    1.0000 </r>
       <r>   -5.3044    1.0000 </r>
       <r>   -4.1519    1.0000 </r>
       <r>   -3.7045    1.0000 </r>
       <r>   -1.0524    0.0000 </r>
       <r>   -0.7893    0.0000 </r>
       <r>   -0.0360    0.0000 </r>
       <r>    0.4937    0.0000 </r>
       <r>    1.4740    0.0000 </r>
       <r>    1.9862    0.0000 </r>
[...]
       <r>    3.2511    0.0000 </r>
       <r>    3.3469    0.0000 </r>
      </set>
      <set comment="kpoint 153">
       <r>  -15.3701    1.0000 </r>
       <r>  -15.1279    1.0000 </r>
       <r>  -10.9841    1.0000 </r>
       <r>  -10.6663    1.0000 </r>
       <r>   -7.9474    1.0000 </r>
       <r>   -7.7940    1.0000 </r>
       <r>   -5.3153    1.0000 </r>
       <r>   -5.1017    1.0000 </r>
       <r>   -3.8852    1.0000 </r>
       <r>   -3.8043    1.0000 </r>
       <r>    0.1671    0.0000 </r>
       <r>    0.5392    0.0000 </r>
       <r>    1.0388    0.0000 </r>
       <r>    1.3251    0.0000 </r>
       <r>    3.1934    0.0000 </r>
       <r>    3.2927    0.0000 </r>
      </set>
      <set comment="kpoint 154">
       <r>  -15.6333    1.0000 </r>
       <r>  -15.3860    1.0000 </r>
       <r>  -10.8136    1.0000 </r>
       <r>  -10.4858    1.0000 </r>
       <r>   -7.6520    1.0000 </r>
       <r>   -7.4965    1.0000 </r>
       <r>   -5.1752    1.0000 </r>
       <r>   -4.9085    1.0000 </r>
       <r>   -3.8196    1.0000 </r>
       <r>   -3.7872    1.0000 </r>
       <r>    0.1805    0.0000 </r>
       <r>    0.4646    0.0000 </r>
       <r>    1.1516    0.0000 </r>
       <r>    1.4786    0.0000 </r>
       <r>    2.8536    0.0000 </r>
       <r>    3.1215    0.0000 </r>
      </set>
      <set comment="kpoint 155">
       <r>  -15.8545    1.0000 </r>
       <r>  -15.6045    1.0000 </r>
       <r>  -10.7545    1.0000 </r>
       <r>  -10.4279    1.0000 </r>
       <r>   -7.1658    1.0000 </r>
       <r>   -7.0000    1.0000 </r>
       <r>   -5.1731    1.0000 </r>
       <r>   -4.8636    1.0000 </r>
       <r>   -3.7586    1.0000 </r>
       <r>   -3.5992    1.0000 </r>
       <r>    0.2778    0.0000 </r>
       <r>    0.4489    0.0000 </r>
       <r>    1.1711    0.0000 </r>
       <r>    1.5275    0.0000 </r>
       <r>    2.2201    0.0000 </r>
       <r>    2.4527    0.0000 </r>
      </set>
      <set comment="kpoint 156">
       <r>  -16.0296    1.0000 </r>
       <r>  -15.7781    1.0000 </r>
       <r>  -10.7602    1.0000 </r>
       <r>  -10.4385    1.0000 </r>
       <r>   -6.5575    1.0000 </r>
       <r>   -6.3806    1.0000 </r>
       <r>   -5.2283    1.0000 </r>
       <r>   -4.8990    1.0000 </r>
       <r>   -3.7044    1.0000 </r>
       <r>   -3.4303    1.0000 </r>
       <r>    0.3948    0.0000 </r>
       <r>    0.4467    0.0000 </r>
       <r>    1.0939    0.0000 </r>
       <r>    1.3686    0.0000 </r>
       <r>    1.6615    0.0000 </r>
       <r>    1.7388    0.0000 </r>
      </set>
      <set comment="kpoint 157">
       <r>  -16.1561    1.0000 </r>
       <r>  -15.9037    1.0000 </r>
       <r>  -10.7886    1.0000 </r>
       <r>  -10.4712    1.0000 </r>
       <r>   -5.9083    1.0000 </r>
       <r>   -5.7288    1.0000 </r>
       <r>   -5.2850    1.0000 </r>
       <r>   -4.9517    1.0000 </r>
       <r>   -3.7278    1.0000 </r>
       <r>   -3.3568    1.0000 </r>
       <r>    0.2037    0.0000 </r>
       <r>    0.2223    0.0000 </r>
       <r>    1.0465    0.0000 </r>
       <r>    1.0754    0.0000 </r>
       <r>    1.4012    0.0000 </r>
       <r>    1.5537    0.0000 </r>
      </set>
      <set comment="kpoint 158">
       <r>  -16.2325    1.0000 </r>
       <r>  -15.9797    1.0000 </r>
       <r>  -10.8139    1.0000 </r>
       <r>  -10.4993    1.0000 </r>
       <r>   -5.3537    1.0000 </r>
       <r>   -5.3280    1.0000 </r>
       <r>   -5.1307    1.0000 </r>
       <r>   -4.9914    1.0000 </r>
       <r>   -3.8495    1.0000 </r>
       <r>   -3.4012    1.0000 </r>
       <r>   -0.2245    0.0000 </r>
       <r>   -0.1827    0.0000 </r>
       <r>    1.1049    0.0000 </r>
       <r>    1.1374    0.0000 </r>
       <r>    1.3556    0.0000 </r>
       <r>    1.5072    0.0000 </r>
      </set>
     </set>
    </set>
   </array>
  </eigenvalues>
  <separator name="orbital magnetization" >
   <v name="MAGDIPOLOUT">      0.00000000      0.00000000      0.00000000</v>
  </separator>
  <dos>
   <i name="efermi">     -2.25257256 </i>
   <total>
    <array>
     <dimension dim="1">gridpoints</dimension>
     <dimension dim="2">spin</dimension>
     <field>energy</field>
     <field>total</field>
     <field>integrated</field>
     <set>
      <set comment="spin 1">
       <r>   -18.2412     0.0000     0.0000 </r>
       <r>   -18.1651     0.0000     0.0000 </r>
       <r>   -18.0890     0.0000     0.0000 </r>
       <r>   -18.0129     0.0000     0.0000 </r>
       <r>   -17.9368     0.0000     0.0000 </r>
       <r>   -17.8607     0.0000     0.0000 </r>
       <r>   -17.7846     0.0000     0.0000 </r>
       <r>   -17.7085     0.0000     0.0000 </r>
       <r>   -17.6324     0.0000     0.0000 </r>
       <r>   -17.5563     0.0000     0.0000 </r>
       <r>   -17.4803     0.0000     0.0000 </r>
       <r>   -17.4042     0.0000     0.0000 </r>
       <r>   -17.3281     0.0000     0.0000 </r>
       <r>   -17.2520     0.0000     0.0000 </r>
       <r>   -17.1759     0.3133     0.0238 </r>
       <r>   -17.0998     0.8037     0.0850 </r>
       <r>   -17.0237     0.7910     0.1452 </r>
       <r>   -16.9476     0.9886     0.2204 </r>
       <r>   -16.8715     0.9337     0.2915 </r>
       <r>   -16.7954     0.5490     0.3332 </r>
       <r>   -16.7193     1.0996     0.4169 </r>
       <r>   -16.6433     0.9464     0.4889 </r>
       <r>   -16.5672     0.8485     0.5535 </r>
       <r>   -16.4911     0.6406     0.6022 </r>
       <r>   -16.4150     1.3603     0.7057 </r>
       <r>   -16.3389     0.6512     0.7553 </r>
       <r>   -16.2628     0.7242     0.8104 </r>
       <r>   -16.1867     1.4781     0.9228 </r>
       <r>   -16.1106     0.5154     0.9621 </r>
       <r>   -16.0345     1.0755     1.0439 </r>
       <r>   -15.9584     0.8735     1.1104 </r>
       <r>   -15.8823     1.0435     1.1898 </r>
       <r>   -15.8063     1.0232     1.2676 </r>
       <r>   -15.7302     1.1495     1.3551 </r>
       <r>   -15.6541     0.4341     1.3881 </r>
       <r>   -15.5780     1.5065     1.5027 </r>
       <r>   -15.5019     0.9245     1.5731 </r>
       <r>   -15.4258     1.1193     1.6583 </r>
       <r>   -15.3497     1.4081     1.7654 </r>
       <r>   -15.2736     0.7976     1.8261 </r>
       <r>   -15.1975     0.9354     1.8973 </r>
       <r>   -15.1214     1.4389     2.0068 </r>
       <r>   -15.0453     1.4944     2.1205 </r>
       <r>   -14.9693     1.1225     2.2059 </r>
       <r>   -14.8932     0.9097     2.2751 </r>
       <r>   -14.8171     1.9624     2.4244 </r>
       <r>   -14.7410     1.7907     2.5607 </r>
       <r>   -14.6649     1.1025     2.6446 </r>
       <r>   -14.5888     2.4008     2.8272 </r>
       <r>   -14.5127     1.1703     2.9163 </r>
       <r>   -14.4366     0.9532     2.9888 </r>
       <r>   -14.3605     1.2225     3.0818 </r>
       <r>   -14.2844     1.4406     3.1915 </r>
       <r>   -14.2083     1.1332     3.2777 </r>
       <r>   -14.1323     1.7091     3.4077 </r>
       <r>   -14.0562     2.4256     3.5923 </r>
       <r>   -13.9801     0.2715     3.6130 </r>
       <r>   -13.9040     0.5292     3.6532 </r>
       <r>   -13.8279     1.0128     3.7303 </r>
       <r>   -13.7518     1.0093     3.8071 </r>
       <r>   -13.6757     0.8964     3.8753 </r>
       <r>   -13.5996     0.3038     3.8984 </r>
       <r>   -13.5235     0.0532     3.9025 </r>
       <r>   -13.4474     0.6183     3.9495 </r>
       <r>   -13.3713     0.1677     3.9623 </r>
       <r>   -13.2953     0.3289     3.9873 </r>
       <r>   -13.2192     0.1580     3.9993 </r>
       <r>   -13.1431     0.0091     4.0000 </r>
       <r>   -13.0670     0.0000     4.0000 </r>
       <r>   -12.9909     0.1583     4.0120 </r>
       <r>   -12.9148     0.1724     4.0252 </r>
       <r>   -12.8387     0.1699     4.0381 </r>
       <r>   -12.7626     0.1747     4.0514 </r>
       <r>   -12.6865     0.6303     4.0994 </r>
       <r>   -12.6104     0.0294     4.1016 </r>
       <r>   -12.5343     1.0188     4.1791 </r>
       <r>   -12.4583     0.7742     4.2380 </r>
       <r>   -12.3822     0.3521     4.2648 </r>
       <r>   -12.3061     1.1587     4.3530 </r>
       <r>   -12.2300     0.3856     4.3823 </r>
       <r>   -12.1539     1.2442     4.4770 </r>
       <r>   -12.0778     2.0372     4.6320 </r>
       <r>   -12.0017     1.6633     4.7586 </r>
       <r>   -11.9256     0.9161     4.8283 </r>
       <r>   -11.8495     0.6670     4.8790 </r>
       <r>   -11.7734     1.7791     5.0144 </r>
       <r>   -11.6973     0.8892     5.0821 </r>
       <r>   -11.6213     1.6665     5.2089 </r>
       <r>   -11.5452     3.9368     5.5084 </r>
       <r>   -11.4691     1.9127     5.6539 </r>
       <r>   -11.3930     1.5079     5.7687 </r>
       <r>   -11.3169     0.7184     5.8234 </r>
       <r>   -11.2408     2.1915     5.9901 </r>
       <r>   -11.1647     0.3004     6.0130 </r>
       <r>   -11.0886     0.9780     6.0874 </r>
       <r>   -11.0125     1.5341     6.2041 </r>
       <r>   -10.9364     1.1023     6.2880 </r>
       <r>   -10.8603     0.7207     6.3428 </r>
       <r>   -10.7843     1.0501     6.4227 </r>
       <r>   -10.7082     0.8468     6.4872 </r>
       <r>   -10.6321     0.9381     6.5585 </r>
       <r>   -10.5560     0.0032     6.5588 </r>
       <r>   -10.4799     1.1122     6.6434 </r>
       <r>   -10.4038     1.2977     6.7422 </r>
       <r>   -10.3277     0.7092     6.7961 </r>
       <r>   -10.2516     0.5485     6.8378 </r>
       <r>   -10.1755     0.0313     6.8402 </r>
       <r>   -10.0994     1.4174     6.9481 </r>
       <r>   -10.0233     0.7820     7.0076 </r>
       <r>    -9.9473     0.3377     7.0333 </r>
       <r>    -9.8712     0.2717     7.0540 </r>
       <r>    -9.7951     0.0166     7.0552 </r>
       <r>    -9.7190     1.2594     7.1511 </r>
       <r>    -9.6429     1.5484     7.2689 </r>
       <r>    -9.5668     0.1795     7.2825 </r>
       <r>    -9.4907     0.0000     7.2825 </r>
       <r>    -9.4146     0.1514     7.2941 </r>
       <r>    -9.3385     0.5700     7.3374 </r>
       <r>    -9.2624     1.2101     7.4295 </r>
       <r>    -9.1863     0.3167     7.4536 </r>
       <r>    -9.1103     0.2551     7.4730 </r>
       <r>    -9.0342     0.2050     7.4886 </r>
       <r>    -8.9581     0.5701     7.5320 </r>
       <r>    -8.8820     0.3517     7.5588 </r>
       <r>    -8.8059     1.1985     7.6500 </r>
       <r>    -8.7298     0.0183     7.6514 </r>
       <r>    -8.6537     0.3263     7.6762 </r>
       <r>    -8.5776     0.0001     7.6762 </r>
       <r>    -8.5015     0.0011     7.6763 </r>
       <r>    -8.4254     1.2892     7.7744 </r>
       <r>    -8.3494     0.5536     7.8165 </r>
       <r>    -8.2733     0.1586     7.8286 </r>
       <r>    -8.1972     0.0544     7.8327 </r>
       <r>    -8.1211     1.1002     7.9164 </r>
       <r>    -8.0450     3.0399     8.1477 </r>
       <r>    -7.9689     1.8163     8.2859 </r>
       <r>    -7.8928     1.5043     8.4004 </r>
       <r>    -7.8167     3.0169     8.6300 </r>
       <r>    -7.7406     2.8505     8.8469 </r>
       <r>    -7.6645     1.3234     8.9476 </r>
       <r>    -7.5884     1.7472     9.0805 </r>
       <r>    -7.5124     1.7405     9.2129 </r>
       <r>    -7.4363     2.6252     9.4127 </r>
       <r>    -7.3602     2.3411     9.5908 </r>
       <r>    -7.2841     3.8276     9.8821 </r>
       <r>    -7.2080     3.4042    10.1411 </r>
       <r>    -7.1319     3.8052    10.4306 </r>
       <r>    -7.0558     2.3468    10.6092 </r>
       <r>    -6.9797     1.2986    10.7080 </r>
       <r>    -6.9036     1.0197    10.7856 </r>
       <r>    -6.8275     1.4684    10.8973 </r>
       <r>    -6.7514     1.0404    10.9765 </r>
       <r>    -6.6754     2.0672    11.1338 </r>
       <r>    -6.5993     1.6520    11.2595 </r>
       <r>    -6.5232     1.1304    11.3455 </r>
       <r>    -6.4471     2.0688    11.5029 </r>
       <r>    -6.3710     1.7245    11.6342 </r>
       <r>    -6.2949     0.8018    11.6952 </r>
       <r>    -6.2188     2.5605    11.8900 </r>
       <r>    -6.1427     2.1600    12.0543 </r>
       <r>    -6.0666     0.9564    12.1271 </r>
       <r>    -5.9905     1.5370    12.2441 </r>
       <r>    -5.9144     1.7021    12.3736 </r>
       <r>    -5.8384     2.8304    12.5890 </r>
       <r>    -5.7623     1.9064    12.7340 </r>
       <r>    -5.6862     3.1514    12.9738 </r>
       <r>    -5.6101     4.5493    13.3200 </r>
       <r>    -5.5340     3.4314    13.5811 </r>
       <r>    -5.4579     3.1365    13.8197 </r>
       <r>    -5.3818     4.1143    14.1328 </r>
       <r>    -5.3057     3.1276    14.3708 </r>
       <r>    -5.2296     3.6872    14.6513 </r>
       <r>    -5.1535     2.9871    14.8786 </r>
       <r>    -5.0774     2.2398    15.0490 </r>
       <r>    -5.0014     1.2149    15.1415 </r>
       <r>    -4.9253     2.3181    15.3179 </r>
       <r>    -4.8492     2.0367    15.4728 </r>
       <r>    -4.7731     0.8335    15.5363 </r>
       <r>    -4.6970     0.6668    15.5870 </r>
       <r>    -4.6209     1.3577    15.6903 </r>
       <r>    -4.5448     1.9770    15.8407 </r>
       <r>    -4.4687     0.6727    15.8919 </r>
       <r>    -4.3926     0.6960    15.9449 </r>
       <r>    -4.3165     1.6621    16.0714 </r>
       <r>    -4.2404     0.6381    16.1199 </r>
       <r>    -4.1644     3.3312    16.3734 </r>
       <r>    -4.0883     1.6780    16.5011 </r>
       <r>    -4.0122     3.0659    16.7343 </r>
       <r>    -3.9361     2.1820    16.9004 </r>
       <r>    -3.8600     2.7154    17.1070 </r>
       <r>    -3.7839     6.0421    17.5667 </r>
       <r>    -3.7078     3.3792    17.8239 </r>
       <r>    -3.6317     2.8646    18.0418 </r>
       <r>    -3.5556     3.6991    18.3233 </r>
       <r>    -3.4795     3.3099    18.5752 </r>
       <r>    -3.4034     3.7716    18.8621 </r>
       <r>    -3.3274     3.7138    19.1447 </r>
       <r>    -3.2513     2.9865    19.3720 </r>
       <r>    -3.1752     0.3661    19.3998 </r>
       <r>    -3.0991     1.0203    19.4775 </r>
       <r>    -3.0230     1.4201    19.5855 </r>
       <r>    -2.9469     1.0398    19.6646 </r>
       <r>    -2.8708     1.6469    19.7900 </r>
       <r>    -2.7947     0.2741    19.8108 </r>
       <r>    -2.7186     0.1753    19.8242 </r>
       <r>    -2.6425     0.3731    19.8525 </r>
       <r>    -2.5664     0.3503    19.8792 </r>
       <r>    -2.4904     1.0030    19.9555 </r>
       <r>    -2.4143     0.1603    19.9677 </r>
       <r>    -2.3382     0.3787    19.9965 </r>
       <r>    -2.2621     0.0456    20.0000 </r>
       <r>    -2.1860     0.0000    20.0000 </r>
       <r>    -2.1099     0.0000    20.0000 </r>
       <r>    -2.0338     0.0000    20.0000 </r>
       <r>    -1.9577     0.0000    20.0000 </r>
       <r>    -1.8816     0.0000    20.0000 </r>
       <r>    -1.8055     0.0000    20.0000 </r>
       <r>    -1.7294     0.0000    20.0000 </r>
       <r>    -1.6534     0.0000    20.0000 </r>
       <r>    -1.5773     0.0000    20.0000 </r>
       <r>    -1.5012     0.0000    20.0000 </r>
       <r>    -1.4251     0.0000    20.0000 </r>
       <r>    -1.3490     0.0527    20.0040 </r>
       <r>    -1.2729     0.2108    20.0200 </r>
       <r>    -1.1968     0.1679    20.0328 </r>
       <r>    -1.1207     1.4998    20.1469 </r>
       <r>    -1.0446     1.9471    20.2951 </r>
       <r>    -0.9685     2.0297    20.4496 </r>
       <r>    -0.8924     1.2921    20.5479 </r>
       <r>    -0.8164     2.0063    20.7005 </r>
       <r>    -0.7403     2.4638    20.8880 </r>
       <r>    -0.6642     2.2282    21.0575 </r>
       <r>    -0.5881     1.5399    21.1747 </r>
       <r>    -0.5120     2.9372    21.3982 </r>
       <r>    -0.4359     3.8104    21.6882 </r>
       <r>    -0.3598     2.5340    21.8810 </r>
       <r>    -0.2837     2.5194    22.0727 </r>
       <r>    -0.2076     2.5776    22.2688 </r>
       <r>    -0.1315     3.4672    22.5326 </r>
       <r>    -0.0554     2.0289    22.6870 </r>
       <r>     0.0206     3.2097    22.9312 </r>
       <r>     0.0967     3.3314    23.1847 </r>
       <r>     0.1728     3.3007    23.4359 </r>
       <r>     0.2489     4.3587    23.7675 </r>
       <r>     0.3250     5.2097    24.1639 </r>
       <r>     0.4011     4.5651    24.5113 </r>
       <r>     0.4772     4.0783    24.8216 </r>
       <r>     0.5533     3.1848    25.0640 </r>
       <r>     0.6294     3.4864    25.3292 </r>
       <r>     0.7055     4.7253    25.6888 </r>
       <r>     0.7815     3.0631    25.9219 </r>
       <r>     0.8576     3.6786    26.2018 </r>
       <r>     0.9337     3.6726    26.4812 </r>
       <r>     1.0098     2.0836    26.6398 </r>
       <r>     1.0859     2.0107    26.7928 </r>
       <r>     1.1620     3.8706    27.0873 </r>
       <r>     1.2381     1.6633    27.2138 </r>
       <r>     1.3142     3.1817    27.4559 </r>
       <r>     1.3903     2.4144    27.6397 </r>
       <r>     1.4664     1.2123    27.7319 </r>
       <r>     1.5425     2.3560    27.9112 </r>
       <r>     1.6185     2.9153    28.1330 </r>
       <r>     1.6946     2.4112    28.3165 </r>
       <r>     1.7707     2.0342    28.4712 </r>
       <r>     1.8468     2.9689    28.6971 </r>
       <r>     1.9229     1.8640    28.8390 </r>
       <r>     1.9990     2.0188    28.9926 </r>
       <r>     2.0751     1.6728    29.1199 </r>
       <r>     2.1512     2.0943    29.2792 </r>
       <r>     2.2273     2.9381    29.5028 </r>
       <r>     2.3034     2.6652    29.7056 </r>
       <r>     2.3795     1.6650    29.8323 </r>
       <r>     2.4555     3.6067    30.1067 </r>
       <r>     2.5316     3.2910    30.3571 </r>
       <r>     2.6077     3.6552    30.6353 </r>
       <r>     2.6838     3.0191    30.8650 </r>
       <r>     2.7599     1.5527    30.9831 </r>
       <r>     2.8360     1.2546    31.0786 </r>
       <r>     2.9121     3.3167    31.3310 </r>
       <r>     2.9882     1.0001    31.4071 </r>
       <r>     3.0643     1.8511    31.5479 </r>
       <r>     3.1404     0.8727    31.6143 </r>
       <r>     3.2165     2.3308    31.7917 </r>
       <r>     3.2925     0.9200    31.8617 </r>
       <r>     3.3686     0.8971    31.9299 </r>
       <r>     3.4447     0.5792    31.9740 </r>
       <r>     3.5208     0.0161    31.9752 </r>
       <r>     3.5969     0.3253    32.0000 </r>
       <r>     3.6730     0.0001    32.0000 </r>
       <r>     3.7491     0.0000    32.0000 </r>
       <r>     3.8252     0.0000    32.0000 </r>
       <r>     3.9013     0.0000    32.0000 </r>
       <r>     3.9774     0.0000    32.0000 </r>
       <r>     4.0535     0.0000    32.0000 </r>
       <r>     4.1295     0.0000    32.0000 </r>
       <r>     4.2056     0.0000    32.0000 </r>
       <r>     4.2817     0.0000    32.0000 </r>
       <r>     4.3578     0.0000    32.0000 </r>
       <r>     4.4339     0.0000    32.0000 </r>
       <r>     4.5100     0.0000    32.0000 </r>
       <r>     4.5861     0.0000    32.0000 </r>
      </set>
     </set>
    </array>
   </total>
  </dos>
 </calculation>
 <structure name="finalpos" >
  <crystal>
   <varray name="basis" >
    <v>       3.33001300       0.00000000       0.00000000 </v>
    <v>       0.00000000       4.66935600      -0.00005300 </v>
    <v>       0.00000000       0.00000000      20.02439000 </v>
   </varray>
   <i name="volume">    311.35956414 </i>
   <varray name="rec_basis" >
    <v>       0.30029913       0.00000000       0.00000000 </v>
    <v>       0.00000000       0.21416230       0.00000000 </v>
    <v>       0.00000000       0.00000057       0.04993910 </v>
   </varray>
  </crystal>
  <varray name="positions" >
   <v>       0.50000000       0.90884917       0.55227929 </v>
   <v>       0.50000000       0.09115083       0.44772071 </v>
   <v>       0.00000000       0.40884455       0.44772071 </v>
   <v>      -0.00000000       0.59115545       0.55227929 </v>
  </varray>
 </structure>
</modeling>
