 running on   48 total cores
 distrk:  each k-point on   48 cores,    1 groups
 distr:  one band on    8 cores,    6 groups
 using from now: INCAR     
 vasp.5.4.1 24Jun15 (build Nov 20 2020 10:29:34) complex                        
  
 POSCAR found type information on POSCAR  C 
 POSCAR found :  1 types and       2 ions
 scaLAPACK will be used

 ----------------------------------------------------------------------------- 
|                                                                             |
|  ADVICE TO THIS USER RUNNING 'VASP/VAMP'   (HEAR YOUR MASTER'S VOICE ...):  |
|                                                                             |
|      You have a (more or less) 'small supercell' and for smaller cells      |
|      it is recommended  to use the reciprocal-space projection scheme!      |
|      The real space optimization is not  efficient for small cells and it   |
|      is also less accurate ...                                              |
|      Therefore set LREAL=.FALSE. in the  INCAR file                         |
|                                                                             |
 ----------------------------------------------------------------------------- 

 LDA part: xc-table for Pade appr. of Perdew
 POSCAR, INCAR and KPOINTS ok, starting setup
 FFT: planning ...
 WAVECAR not read
 entering main loop
       N       E                     dE             d eps       ncg     rms          rms(c)
DAV:   1     0.350643985961E+02    0.35064E+02   -0.36688E+03  1464   0.492E+02
DAV:   2    -0.176894962217E+02   -0.52754E+02   -0.47348E+02  1980   0.971E+01
DAV:   3    -0.195481563692E+02   -0.18587E+01   -0.18586E+01  2148   0.244E+01
DAV:   4    -0.195559181921E+02   -0.77618E-02   -0.77618E-02  2088   0.159E+00
DAV:   5    -0.195559276679E+02   -0.94757E-05   -0.94755E-05  2160   0.597E-02    0.599E+00
DAV:   6    -0.187497907003E+02    0.80614E+00   -0.78689E-01  1920   0.421E+00    0.353E+00
DAV:   7    -0.184376961089E+02    0.31209E+00   -0.10331E+00  2064   0.472E+00    0.866E-01
DAV:   8    -0.184310313501E+02    0.66648E-02   -0.86148E-03  2076   0.605E-01    0.904E-02
DAV:   9    -0.184291730746E+02    0.18583E-02   -0.12624E-03  1848   0.138E-01    0.700E-02
DAV:  10    -0.184280266647E+02    0.11464E-02   -0.19727E-03  1716   0.146E-01    0.331E-02
DAV:  11    -0.184282319338E+02   -0.20527E-03   -0.18357E-04  1548   0.553E-02    0.430E-02
DAV:  12    -0.184284673002E+02   -0.23537E-03   -0.34412E-05  1692   0.279E-02    0.107E-02
DAV:  13    -0.184291383100E+02   -0.67101E-03   -0.17810E-04  1680   0.351E-02    0.386E-03
DAV:  14    -0.184291949067E+02   -0.56597E-04   -0.80010E-07  1884   0.376E-03    0.269E-03
DAV:  15    -0.184292790347E+02   -0.84128E-04   -0.76374E-06  1608   0.659E-03    0.646E-04
DAV:  16    -0.184292860546E+02   -0.70199E-05   -0.21141E-07  1644   0.172E-03
   1 F= -.18429286E+02 E0= -.18429247E+02  d E =-.783596E-04
