<?xml version="1.0" encoding="ISO-8859-1"?>
<modeling>
 <generator>
  <i name="program" type="string">vasp </i>
  <i name="version" type="string">5.4.1  </i>
  <i name="subversion" type="string">24Jun15 (build Nov 20 2020 10:29:34) complex                          parallel </i>
  <i name="platform" type="string">IFC91_ompi </i>
  <i name="date" type="string">2021 09 14 </i>
  <i name="time" type="string">00:23:16 </i>
 </generator>
 <incar>
  <i type="int" name="ISTART">     1</i>
  <i type="string" name="PREC">a</i>
  <i type="string" name="ALGO"> Normal</i>
  <i type="int" name="ISPIN">     1</i>
  <i type="int" name="ICHARG">     2</i>
  <i type="int" name="NELM">   250</i>
  <i type="int" name="NELMDL">    -5</i>
  <i type="int" name="NELMIN">     6</i>
  <i type="int" name="IBRION">     2</i>
  <i name="EDIFF">      0.00001000</i>
  <i name="EDIFFG">     -0.00500000</i>
  <i type="int" name="NSW">     0</i>
  <i type="int" name="ISIF">     2</i>
  <i name="ENCUT">    520.00000000</i>
  <i name="POTIM">      0.25000000</i>
  <v name="MAGMOM">      0.60000000      0.60000000</v>
  <i type="string" name="LREAL"> Auto</i>
  <i type="int" name="ISMEAR">     0</i>
  <i name="SIGMA">      0.02000000</i>
  <i type="logical" name="LWAVE"> F  </i>
  <i type="logical" name="LCHARG"> F  </i>
  <i type="logical" name="LVHAR"> F  </i>
  <v type="int" name="KPOINT_BSE">    -1     0     0     0</v>
  <i type="int" name="NELM">   250</i>
 </incar>
 <kpoints>
  <generation param="Gamma">
   <v type="int" name="divisions">      24       24        1 </v>
   <v name="usershift">      0.00000000       0.00000000       0.00000000 </v>
   <v name="genvec1">      0.04166667       0.00000000       0.00000000 </v>
   <v name="genvec2">      0.00000000       0.04166667       0.00000000 </v>
   <v name="genvec3">      0.00000000       0.00000000       1.00000000 </v>
   <v name="shift">      0.00000000       0.00000000       0.00000000 </v>
  </generation>
  <varray name="kpointlist" >
   <v>       0.00000000       0.00000000       0.00000000 </v>
   <v>       0.04166667       0.00000000       0.00000000 </v>
   <v>       0.08333333       0.00000000       0.00000000 </v>
   <v>       0.12500000       0.00000000       0.00000000 </v>
   <v>       0.16666667      -0.00000000       0.00000000 </v>
   <v>       0.20833333       0.00000000       0.00000000 </v>
   <v>       0.25000000       0.00000000       0.00000000 </v>
   <v>       0.29166667       0.00000000       0.00000000 </v>
   <v>       0.33333333       0.00000000       0.00000000 </v>
   <v>       0.37500000       0.00000000       0.00000000 </v>
   <v>       0.41666667       0.00000000       0.00000000 </v>
   <v>       0.45833333       0.00000000       0.00000000 </v>
   <v>       0.50000000       0.00000000       0.00000000 </v>
   <v>       0.04166667       0.04166667       0.00000000 </v>
   <v>       0.08333333       0.04166667       0.00000000 </v>
   <v>       0.12500000       0.04166667       0.00000000 </v>
   <v>       0.16666667       0.04166667       0.00000000 </v>
   <v>       0.20833333       0.04166667       0.00000000 </v>
   <v>       0.25000000       0.04166667       0.00000000 </v>
   <v>       0.29166667       0.04166667       0.00000000 </v>
   <v>       0.33333333       0.04166667       0.00000000 </v>
   <v>       0.37500000       0.04166667       0.00000000 </v>
   <v>       0.41666667       0.04166667       0.00000000 </v>
   <v>       0.45833333       0.04166667       0.00000000 </v>
   <v>       0.08333333       0.08333333       0.00000000 </v>
   <v>       0.12500000       0.08333333       0.00000000 </v>
   <v>       0.16666667       0.08333333       0.00000000 </v>
   <v>       0.20833333       0.08333333       0.00000000 </v>
   <v>       0.25000000       0.08333333       0.00000000 </v>
   <v>       0.29166667       0.08333333       0.00000000 </v>
   <v>       0.33333333       0.08333333       0.00000000 </v>
   <v>       0.37500000       0.08333333       0.00000000 </v>
   <v>       0.41666667       0.08333333       0.00000000 </v>
   <v>       0.45833333       0.08333333       0.00000000 </v>
   <v>       0.12500000       0.12500000       0.00000000 </v>
   <v>       0.16666667       0.12500000       0.00000000 </v>
   <v>       0.20833333       0.12500000       0.00000000 </v>
   <v>       0.25000000       0.12500000       0.00000000 </v>
   <v>       0.29166667       0.12500000       0.00000000 </v>
   <v>       0.33333333       0.12500000       0.00000000 </v>
   <v>       0.37500000       0.12500000       0.00000000 </v>
   <v>       0.41666667       0.12500000       0.00000000 </v>
   <v>       0.16666667       0.16666667       0.00000000 </v>
   <v>       0.20833333       0.16666667       0.00000000 </v>
   <v>       0.25000000       0.16666667       0.00000000 </v>
   <v>       0.29166667       0.16666667       0.00000000 </v>
   <v>       0.33333333       0.16666667       0.00000000 </v>
   <v>       0.37500000       0.16666667       0.00000000 </v>
   <v>       0.41666667       0.16666667       0.00000000 </v>
   <v>       0.20833333       0.20833333       0.00000000 </v>
   <v>       0.25000000       0.20833333       0.00000000 </v>
   <v>       0.29166667       0.20833333       0.00000000 </v>
   <v>       0.33333333       0.20833333       0.00000000 </v>
   <v>       0.37500000       0.20833333       0.00000000 </v>
   <v>       0.25000000       0.25000000       0.00000000 </v>
   <v>       0.29166667       0.25000000       0.00000000 </v>
   <v>       0.33333333       0.25000000       0.00000000 </v>
   <v>       0.37500000       0.25000000       0.00000000 </v>
   <v>       0.29166667       0.29166667       0.00000000 </v>
   <v>       0.33333333       0.29166667       0.00000000 </v>
   <v>       0.33333333       0.33333333       0.00000000 </v>
  </varray>
  <varray name="weights" >
   <v>       0.00173611 </v>
   <v>       0.01041667 </v>
   <v>       0.01041667 </v>
   <v>       0.01041667 </v>
   <v>       0.01041667 </v>
   <v>       0.01041667 </v>
   <v>       0.01041667 </v>
   <v>       0.01041667 </v>
   <v>       0.01041667 </v>
   <v>       0.01041667 </v>
   <v>       0.01041667 </v>
   <v>       0.01041667 </v>
   <v>       0.00520833 </v>
   <v>       0.01041667 </v>
   <v>       0.02083333 </v>
   <v>       0.02083333 </v>
   <v>       0.02083333 </v>
   <v>       0.02083333 </v>
   <v>       0.02083333 </v>
   <v>       0.02083333 </v>
   <v>       0.02083333 </v>
   <v>       0.02083333 </v>
   <v>       0.02083333 </v>
   <v>       0.02083333 </v>
   <v>       0.01041667 </v>
   <v>       0.02083333 </v>
   <v>       0.02083333 </v>
   <v>       0.02083333 </v>
   <v>       0.02083333 </v>
   <v>       0.02083333 </v>
   <v>       0.02083333 </v>
   <v>       0.02083333 </v>
   <v>       0.02083333 </v>
   <v>       0.01041667 </v>
   <v>       0.01041667 </v>
   <v>       0.02083333 </v>
   <v>       0.02083333 </v>
   <v>       0.02083333 </v>
   <v>       0.02083333 </v>
   <v>       0.02083333 </v>
   <v>       0.02083333 </v>
   <v>       0.02083333 </v>
   <v>       0.01041667 </v>
   <v>       0.02083333 </v>
   <v>       0.02083333 </v>
   <v>       0.02083333 </v>
   <v>       0.02083333 </v>
   <v>       0.02083333 </v>
   <v>       0.01041667 </v>
   <v>       0.01041667 </v>
   <v>       0.02083333 </v>
   <v>       0.02083333 </v>
   <v>       0.02083333 </v>
   <v>       0.02083333 </v>
   <v>       0.01041667 </v>
   <v>       0.02083333 </v>
   <v>       0.02083333 </v>
   <v>       0.01041667 </v>
   <v>       0.01041667 </v>
   <v>       0.02083333 </v>
   <v>       0.00347222 </v>
  </varray>
 </kpoints>
 <parameters>
  <separator name="general" >
   <i type="string" name="SYSTEM">unknown system</i>
   <i type="logical" name="LCOMPAT"> F  </i>
  </separator>
  <separator name="electronic" >
   <i type="string" name="PREC">a</i>
   <i name="ENMAX">    520.00000000</i>
   <i name="ENAUG">    644.87300000</i>
   <i name="EDIFF">      0.00001000</i>
   <i type="int" name="IALGO">    38</i>
   <i type="int" name="IWAVPR">    10</i>
   <i type="int" name="NBANDS">    12</i>
   <i name="NELECT">      8.00000000</i>
   <i type="int" name="TURBO">     0</i>
   <i type="int" name="IRESTART">     0</i>
   <i type="int" name="NREBOOT">     0</i>
   <i type="int" name="NMIN">     0</i>
   <i name="EREF">      0.00000000</i>
   <separator name="electronic smearing" >
    <i type="int" name="ISMEAR">     0</i>
    <i name="SIGMA">      0.02000000</i>
    <i name="KSPACING">      0.50000000</i>
    <i type="logical" name="KGAMMA"> T  </i>
   </separator>
   <separator name="electronic projectors" >
    <i type="logical" name="LREAL"> T  </i>
    <v name="ROPT">     -0.00025000</v>
    <i type="int" name="LMAXPAW">  -100</i>
    <i type="int" name="LMAXMIX">     2</i>
    <i type="logical" name="NLSPLINE"> F  </i>
   </separator>
   <separator name="electronic startup" >
    <i type="int" name="ISTART">     0</i>
    <i type="int" name="ICHARG">     2</i>
    <i type="int" name="INIWAV">     1</i>
   </separator>
   <separator name="electronic spin" >
    <i type="int" name="ISPIN">     1</i>
    <i type="logical" name="LNONCOLLINEAR"> F  </i>
    <v name="MAGMOM">      0.60000000      0.60000000</v>
    <i name="NUPDOWN">     -1.00000000</i>
    <i type="logical" name="LSORBIT"> F  </i>
    <v name="SAXIS">      0.00000000      0.00000000      1.00000000</v>
    <i type="logical" name="LSPIRAL"> F  </i>
    <v name="QSPIRAL">      0.00000000      0.00000000      0.00000000</v>
    <i type="logical" name="LZEROZ"> F  </i>
   </separator>
   <separator name="electronic exchange-correlation" >
    <i type="logical" name="LASPH"> F  </i>
    <i type="logical" name="LMETAGGA"> F  </i>
   </separator>
   <separator name="electronic convergence" >
    <i type="int" name="NELM">   250</i>
    <i type="int" name="NELMDL">    -5</i>
    <i type="int" name="NELMIN">     6</i>
    <i name="ENINI">    520.00000000</i>
    <separator name="electronic convergence detail" >
     <i type="logical" name="LDIAG"> T  </i>
     <i type="logical" name="LSUBROT"> F  </i>
     <i name="WEIMIN">      0.00000000</i>
     <i name="EBREAK">      0.00000021</i>
     <i name="DEPER">      0.30000000</i>
     <i type="int" name="NRMM">     4</i>
     <i name="TIME">      0.40000000</i>
    </separator>
   </separator>
   <separator name="electronic mixer" >
    <i name="AMIX">      0.40000000</i>
    <i name="BMIX">      1.00000000</i>
    <i name="AMIN">      0.10000000</i>
    <i name="AMIX_MAG">      1.60000000</i>
    <i name="BMIX_MAG">      1.00000000</i>
    <separator name="electronic mixer details" >
     <i type="int" name="IMIX">     4</i>
     <i type="logical" name="MIXFIRST"> F  </i>
     <i type="int" name="MAXMIX">   -45</i>
     <i name="WC">    100.00000000</i>
     <i type="int" name="INIMIX">     1</i>
     <i type="int" name="MIXPRE">     1</i>
     <i type="int" name="MREMOVE">     5</i>
    </separator>
   </separator>
   <separator name="electronic dipolcorrection" >
    <i type="logical" name="LDIPOL"> F  </i>
    <i type="logical" name="LMONO"> F  </i>
    <i type="int" name="IDIPOL">     0</i>
    <i name="EPSILON">      1.00000000</i>
    <v name="DIPOL">   -100.00000000   -100.00000000   -100.00000000</v>
    <i name="EFIELD">      0.00000000</i>
   </separator>
  </separator>
  <separator name="grids" >
   <i type="int" name="NGX">    20</i>
   <i type="int" name="NGY">    20</i>
   <i type="int" name="NGZ">   112</i>
   <i type="int" name="NGXF">    40</i>
   <i type="int" name="NGYF">    40</i>
   <i type="int" name="NGZF">   224</i>
   <i type="logical" name="ADDGRID"> F  </i>
  </separator>
  <separator name="ionic" >
   <i type="int" name="NSW">     0</i>
   <i type="int" name="IBRION">    -1</i>
   <i type="int" name="ISIF">     2</i>
   <i name="PSTRESS">      0.00000000</i>
   <i name="EDIFFG">     -0.00500000</i>
   <i type="int" name="NFREE">     1</i>
   <i name="POTIM">      0.25000000</i>
   <i name="SMASS">     -3.00000000</i>
   <i name="SCALEE">      1.00000000</i>
  </separator>
  <separator name="ionic md" >
   <i name="TEBEG">      0.00010000</i>
   <i name="TEEND">      0.00010000</i>
   <i type="int" name="NBLOCK">     1</i>
   <i type="int" name="KBLOCK">     1</i>
   <i type="int" name="NPACO">   256</i>
   <i name="APACO">     16.00000000</i>
  </separator>
  <separator name="symmetry" >
   <i type="int" name="ISYM">     2</i>
   <i name="SYMPREC">      0.00001000</i>
  </separator>
  <separator name="dos" >
   <i type="logical" name="LORBIT"> F  </i>
   <v name="RWIGS">     -1.00000000</v>
   <i type="int" name="NEDOS">   301</i>
   <i name="EMIN">     10.00000000</i>
   <i name="EMAX">    -10.00000000</i>
   <i name="EFERMI">      0.00000000</i>
  </separator>
  <separator name="writing" >
   <i type="int" name="NWRITE">     2</i>
   <i type="logical" name="LWAVE"> F  </i>
   <i type="logical" name="LCHARG"> F  </i>
   <i type="logical" name="LPARD"> F  </i>
   <i type="logical" name="LVTOT"> F  </i>
   <i type="logical" name="LVHAR"> F  </i>
   <i type="logical" name="LELF"> F  </i>
   <i type="logical" name="LOPTICS"> F  </i>
   <v name="STM">      0.00000000      0.00000000      0.00000000      0.00000000      0.00000000      0.00000000      0.00000000</v>
  </separator>
  <separator name="performance" >
   <i type="int" name="NPAR">     6</i>
   <i type="int" name="NSIM">     4</i>
   <i type="int" name="NBLK">    -1</i>
   <i type="logical" name="LPLANE"> T  </i>
   <i type="logical" name="LSCALAPACK"> T  </i>
   <i type="logical" name="LSCAAWARE"> F  </i>
   <i type="logical" name="LSCALU"> F  </i>
   <i type="logical" name="LASYNC"> F  </i>
   <i type="logical" name="LORBITALREAL"> F  </i>
  </separator>
  <separator name="miscellaneous" >
   <i type="int" name="IDIOT">     3</i>
   <i type="logical" name="LMUSIC"> F  </i>
   <v name="POMASS">     12.01100000</v>
   <v name="DARWINR">      0.00000000</v>
   <v name="DARWINV">      1.00000000</v>
   <i type="logical" name="LCORR"> T  </i>
  </separator>
  <i type="logical" name="GGA_COMPAT"> T  </i>
  <i type="logical" name="LBERRY"> F  </i>
  <i type="int" name="ICORELEVEL">     0</i>
  <i type="logical" name="LDAU"> F  </i>
  <i type="int" name="I_CONSTRAINED_M">     0</i>
  <separator name="electronic exchange-correlation" >
   <i type="string" name="GGA">--</i>
   <i type="int" name="VOSKOWN">     0</i>
   <i type="logical" name="LHFCALC"> F  </i>
   <i type="string" name="PRECFOCK"></i>
   <i type="logical" name="LSYMGRAD"> F  </i>
   <i type="logical" name="LHFONE"> F  </i>
   <i type="logical" name="LRHFCALC"> F  </i>
   <i type="logical" name="LTHOMAS"> F  </i>
   <i type="logical" name="LMODELHF"> F  </i>
   <i name="ENCUT4O">     -1.00000000</i>
   <i type="int" name="EXXOEP">     0</i>
   <i type="int" name="FOURORBIT">     0</i>
   <i name="AEXX">      0.00000000</i>
   <i name="HFALPHA">      0.00000000</i>
   <i name="MCALPHA">      0.00000000</i>
   <i name="ALDAX">      1.00000000</i>
   <i name="AGGAX">      1.00000000</i>
   <i name="ALDAC">      1.00000000</i>
   <i name="AGGAC">      1.00000000</i>
   <i type="int" name="NKREDX">     1</i>
   <i type="int" name="NKREDY">     1</i>
   <i type="int" name="NKREDZ">     1</i>
   <i type="logical" name="SHIFTRED"> F  </i>
   <i type="logical" name="ODDONLY"> F  </i>
   <i type="logical" name="EVENONLY"> F  </i>
   <i type="int" name="LMAXFOCK">     0</i>
   <i type="int" name="NMAXFOCKAE">     0</i>
   <i type="logical" name="LFOCKAEDFT"> F  </i>
   <i name="HFSCREEN">      0.00000000</i>
   <i name="HFSCREENC">      0.00000000</i>
   <i type="int" name="NBANDSGWLOW">     0</i>
  </separator>
  <separator name="vdW DFT" >
   <i type="logical" name="LUSE_VDW"> F  </i>
   <i name="Zab_VDW">     -0.84910000</i>
   <i name="PARAM1">      0.12340000</i>
   <i name="PARAM2">      1.00000000</i>
   <i name="PARAM3">      0.00000000</i>
  </separator>
  <separator name="model GW" >
   <i type="int" name="MODEL_GW">     0</i>
   <i name="MODEL_EPS0">     24.33108971</i>
   <i name="MODEL_ALPHA">      1.00000000</i>
  </separator>
  <separator name="linear response parameters" >
   <i type="logical" name="LEPSILON"> F  </i>
   <i type="logical" name="LRPA"> F  </i>
   <i type="logical" name="LNABLA"> F  </i>
   <i type="logical" name="LVEL"> F  </i>
   <i type="int" name="KINTER">     0</i>
   <i name="CSHIFT">      0.10000000</i>
   <i name="OMEGAMAX">     -1.00000000</i>
   <i name="DEG_THRESHOLD">      0.00200000</i>
  </separator>
  <separator name="orbital magnetization" >
   <i type="logical" name="NUCIND"> F  </i>
   <v name="MAGPOS">      0.00000000      0.00000000      0.00000000</v>
   <i type="logical" name="LNICSALL"> T  </i>
   <i type="logical" name="ORBITALMAG"> F  </i>
   <i type="logical" name="LMAGBLOCH"> F  </i>
   <i type="logical" name="LCHIMAG"> F  </i>
   <i type="logical" name="LGAUGE"> T  </i>
   <i type="int" name="MAGATOM">     0</i>
   <v name="MAGDIPOL">      0.00000000      0.00000000      0.00000000</v>
   <v name="AVECCONST">      0.00000000      0.00000000      0.00000000</v>
  </separator>
  <separator name="response functions" >
   <i type="logical" name="LADDER"> F  </i>
   <i type="logical" name="LFXC"> F  </i>
   <i type="logical" name="LHARTREE"> T  </i>
   <i type="int" name="IBSE">     0</i>
   <v type="int" name="KPOINT">    -1     0     0     0</v>
   <i type="logical" name="LTCTE"> F  </i>
   <i type="logical" name="LTETE"> F  </i>
   <i type="logical" name="LTRIPLET"> F  </i>
   <i type="logical" name="LFXCEPS"> F  </i>
   <i type="logical" name="LFXHEG"> F  </i>
   <i type="int" name="NATURALO">     0</i>
   <i type="logical" name="L2ORDER"> F  </i>
   <i type="logical" name="LUSEW"> F  </i>
   <i name="ENCUTGW">     -2.00000000</i>
   <i name="ENCUTGWSOFT">     -2.00000000</i>
   <i name="ENCUTLF">     -1.00000000</i>
   <i type="int" name="LMAXMP2">    -1</i>
   <i name="SCISSOR">      0.00000000</i>
   <i type="int" name="NOMEGA">     0</i>
   <i type="int" name="NOMEGAR">     0</i>
   <i type="int" name="NBANDSGW">    -1</i>
   <i type="int" name="NBANDSO">    -1</i>
   <i type="int" name="NBANDSV">    -1</i>
   <i type="int" name="NELM">   250</i>
   <i type="int" name="NELMHF">     1</i>
   <i type="int" name="DIM">     3</i>
   <i type="int" name="ANTIRES">     0</i>
   <i name="OMEGAMAX">    -30.00000000</i>
   <i name="OMEGAMIN">    -30.00000000</i>
   <i name="OMEGATL">   -200.00000000</i>
   <i type="int" name="OMEGAGRID">     0</i>
   <i name="CSHIFT">     -0.10000000</i>
   <i type="logical" name="SELFENERGY"> F  </i>
   <i type="logical" name="LSPECTRAL"> F  </i>
   <i type="logical" name="LSPECTRALGW"> F  </i>
   <i type="logical" name="LSINGLES"> F  </i>
   <i type="logical" name="LFERMIGW"> F  </i>
   <i type="logical" name="ODDONLYGW"> F  </i>
   <i type="logical" name="EVENONLYGW"> F  </i>
   <i type="int" name="NKREDLFX">     1</i>
   <i type="int" name="NKREDLFY">     1</i>
   <i type="int" name="NKREDLFZ">     1</i>
   <i type="int" name="MAXMEM">  1800</i>
   <i type="int" name="TELESCOPE">     0</i>
   <i type="int" name="TAUPAR">     1</i>
   <i type="int" name="OMEGAPAR">    -1</i>
   <i name="LAMBDA">      1.00000000</i>
  </separator>
  <separator name="External order field" >
   <i name="OFIELD_KAPPA">      0.00000000</i>
   <v name="OFIELD_K">      0.00000000      0.00000000      0.00000000</v>
   <i name="OFIELD_Q6_NEAR">      0.00000000</i>
   <i name="OFIELD_Q6_FAR">      0.00000000</i>
   <i name="OFIELD_A">      0.00000000</i>
  </separator>
 </parameters>
 <atominfo>
  <atoms>       2 </atoms>
  <types>       1 </types>
  <array name="atoms" >
   <dimension dim="1">ion</dimension>
   <field type="string">element</field>
   <field type="int">atomtype</field>
   <set>
    <rc><c>C </c><c>   1</c></rc>
    <rc><c>C </c><c>   1</c></rc>
   </set>
  </array>
  <array name="atomtypes" >
   <dimension dim="1">type</dimension>
   <field type="int">atomspertype</field>
   <field type="string">element</field>
   <field>mass</field>
   <field>valence</field>
   <field type="string">pseudopotential</field>
   <set>
    <rc><c>   2</c><c>C </c><c>     12.01100000</c><c>      4.00000000</c><c>  PAW_PBE C 08Apr2002                   </c></rc>
   </set>
  </array>
 </atominfo>
 <structure name="initialpos" >
  <crystal>
   <varray name="basis" >
    <v>       2.49867200       0.00000000       0.00000000 </v>
    <v>      -1.24933600       2.16391300       0.00000000 </v>
    <v>       0.00000000       0.00000000      15.00000000 </v>
   </varray>
   <i name="volume">     81.10363235 </i>
   <varray name="rec_basis" >
    <v>       0.40021259       0.23106289       0.00000000 </v>
    <v>       0.00000000       0.46212579       0.00000000 </v>
    <v>       0.00000000       0.00000000       0.06666667 </v>
   </varray>
  </crystal>
  <varray name="positions" >
   <v>       0.00000000       0.00000000       0.50000000 </v>
   <v>       0.33333300       0.66666700       0.50000000 </v>
  </varray>
 </structure>
 <calculation>
  <scstep>
   <time name="dav">    0.19    0.19</time>
   <time name="total">    0.20    0.20</time>
   <energy>
    <i name="alphaZ">      4.05144448 </i>
    <i name="ewald">    807.96619796 </i>
    <i name="hartreedc">  -1028.75121824 </i>
    <i name="XCdc">     26.18431686 </i>
    <i name="pawpsdc">    217.04409276 </i>
    <i name="pawaedc">   -218.18290438 </i>
    <i name="eentropy">     -0.00035216 </i>
    <i name="bandstr">    -67.54496531 </i>
    <i name="atom">    294.29778662 </i>
    <i name="e_fr_energy">     35.06439860 </i>
    <i name="e_wo_entrp">     35.06475076 </i>
    <i name="e_0_energy">     35.06457468 </i>
   </energy>
  </scstep>
  <scstep>
   <time name="dav">    0.26    0.26</time>
   <time name="total">    0.27    0.27</time>
   <energy>
    <i name="e_fr_energy">    -17.68949622 </i>
    <i name="e_wo_entrp">    -17.68949622 </i>
    <i name="e_0_energy">    -17.68949622 </i>
   </energy>
  </scstep>
  <scstep>
   <time name="dav">    0.29    0.29</time>
   <time name="total">    0.29    0.29</time>
   <energy>
    <i name="e_fr_energy">    -19.54815637 </i>
    <i name="e_wo_entrp">    -19.54807805 </i>
    <i name="e_0_energy">    -19.54811721 </i>
   </energy>
  </scstep>
  <scstep>
   <time name="dav">    0.28    0.28</time>
   <time name="total">    0.28    0.28</time>
   <energy>
    <i name="e_fr_energy">    -19.55591819 </i>
    <i name="e_wo_entrp">    -19.55583983 </i>
    <i name="e_0_energy">    -19.55587901 </i>
   </energy>
  </scstep>
  <scstep>
   <time name="dav">    0.30    0.30</time>
   <time name="total">    0.32    0.32</time>
   <energy>
    <i name="e_fr_energy">    -19.55592767 </i>
    <i name="e_wo_entrp">    -19.55584931 </i>
    <i name="e_0_energy">    -19.55588849 </i>
   </energy>
  </scstep>
  <scstep>
   <time name="dav">    0.26    0.26</time>
   <time name="total">    0.28    0.28</time>
   <energy>
    <i name="e_fr_energy">    -18.74979070 </i>
    <i name="e_wo_entrp">    -18.74971234 </i>
    <i name="e_0_energy">    -18.74975152 </i>
   </energy>
  </scstep>
  <scstep>
   <time name="dav">    0.27    0.27</time>
   <time name="total">    0.29    0.29</time>
   <energy>
    <i name="e_fr_energy">    -18.43769611 </i>
    <i name="e_wo_entrp">    -18.43761775 </i>
    <i name="e_0_energy">    -18.43765693 </i>
   </energy>
  </scstep>
  <scstep>
   <time name="dav">    0.28    0.28</time>
   <time name="total">    0.30    0.30</time>
   <energy>
    <i name="e_fr_energy">    -18.43103135 </i>
    <i name="e_wo_entrp">    -18.43095299 </i>
    <i name="e_0_energy">    -18.43099217 </i>
   </energy>
  </scstep>
  <scstep>
   <time name="dav">    0.24    0.24</time>
   <time name="total">    0.26    0.26</time>
   <energy>
    <i name="e_fr_energy">    -18.42917307 </i>
    <i name="e_wo_entrp">    -18.42909471 </i>
    <i name="e_0_energy">    -18.42913389 </i>
   </energy>
  </scstep>
  <scstep>
   <time name="dav">    0.22    0.22</time>
   <time name="total">    0.24    0.24</time>
   <energy>
    <i name="e_fr_energy">    -18.42802666 </i>
    <i name="e_wo_entrp">    -18.42794831 </i>
    <i name="e_0_energy">    -18.42798748 </i>
   </energy>
  </scstep>
  <scstep>
   <time name="dav">    0.20    0.20</time>
   <time name="total">    0.22    0.22</time>
   <energy>
    <i name="e_fr_energy">    -18.42823193 </i>
    <i name="e_wo_entrp">    -18.42815357 </i>
    <i name="e_0_energy">    -18.42819275 </i>
   </energy>
  </scstep>
  <scstep>
   <time name="dav">    0.22    0.22</time>
   <time name="total">    0.24    0.24</time>
   <energy>
    <i name="e_fr_energy">    -18.42846730 </i>
    <i name="e_wo_entrp">    -18.42838894 </i>
    <i name="e_0_energy">    -18.42842812 </i>
   </energy>
  </scstep>
  <scstep>
   <time name="dav">    0.22    0.22</time>
   <time name="total">    0.25    0.25</time>
   <energy>
    <i name="e_fr_energy">    -18.42913831 </i>
    <i name="e_wo_entrp">    -18.42905995 </i>
    <i name="e_0_energy">    -18.42909913 </i>
   </energy>
  </scstep>
  <scstep>
   <time name="dav">    0.25    0.25</time>
   <time name="total">    0.27    0.27</time>
   <energy>
    <i name="e_fr_energy">    -18.42919491 </i>
    <i name="e_wo_entrp">    -18.42911655 </i>
    <i name="e_0_energy">    -18.42915573 </i>
   </energy>
  </scstep>
  <scstep>
   <time name="dav">    0.21    0.21</time>
   <time name="total">    0.23    0.23</time>
   <energy>
    <i name="e_fr_energy">    -18.42927903 </i>
    <i name="e_wo_entrp">    -18.42920068 </i>
    <i name="e_0_energy">    -18.42923985 </i>
   </energy>
  </scstep>
  <scstep>
   <time name="dav">    0.21    0.21</time>
   <time name="total">    0.22    0.22</time>
   <energy>
    <i name="alphaZ">      4.05144448 </i>
    <i name="ewald">    807.96619796 </i>
    <i name="hartreedc">  -1059.70739723 </i>
    <i name="XCdc">     27.30717095 </i>
    <i name="pawpsdc">    786.47214438 </i>
    <i name="pawaedc">   -787.82066886 </i>
    <i name="eentropy">     -0.00007836 </i>
    <i name="bandstr">    -90.99588601 </i>
    <i name="atom">    294.29778662 </i>
    <i name="e_fr_energy">    -18.42928605 </i>
    <i name="e_wo_entrp">    -18.42920770 </i>
    <i name="e_0_energy">    -18.42924687 </i>
   </energy>
  </scstep>
  <structure>
   <crystal>
    <varray name="basis" >
     <v>       2.49867200       0.00000000       0.00000000 </v>
     <v>      -1.24933600       2.16391300       0.00000000 </v>
     <v>       0.00000000       0.00000000      15.00000000 </v>
    </varray>
    <i name="volume">     81.10363235 </i>
    <varray name="rec_basis" >
     <v>       0.40021259       0.23106289       0.00000000 </v>
     <v>       0.00000000       0.46212579       0.00000000 </v>
     <v>       0.00000000       0.00000000       0.06666667 </v>
    </varray>
   </crystal>
   <varray name="positions" >
    <v>       0.00000000       0.00000000       0.50000000 </v>
    <v>       0.33333300       0.66666700       0.50000000 </v>
   </varray>
  </structure>
  <varray name="forces" >
   <v>      -0.00000000       0.00000000       0.00000000 </v>
   <v>       0.00000000       0.00000000       0.00000000 </v>
  </varray>
  <varray name="stress" >
   <v>     -31.92784911       0.00000000       0.00000000 </v>
   <v>      -0.00000000     -31.92783649       0.00000000 </v>
   <v>      -0.00000000      -0.00000000      -0.11137486 </v>
  </varray>
  <energy>
   <i name="e_fr_energy">    -18.42928605 </i>
   <i name="e_wo_entrp">    -18.42924687 </i>
   <i name="e_0_energy">     -0.00007836 </i>
  </energy>
  <time name="totalsc">    4.35    4.39</time>
  <eigenvalues>
   <array>
    <dimension dim="1">band</dimension>
    <dimension dim="2">kpoint</dimension>
    <dimension dim="3">spin</dimension>
    <field>eigene</field>
    <field>occ</field>
    <set>
     <set comment="spin 1">
      <set comment="kpoint 1">
       <r>  -21.5862    1.0000 </r>
       <r>   -9.7402    1.0000 </r>
       <r>   -5.4304    1.0000 </r>
       <r>   -5.4303    1.0000 </r>
       <r>    0.9873    0.0000 </r>
       <r>    1.8860    0.0000 </r>
       <r>    2.4084    0.0000 </r>
       <r>    4.3173    0.0000 </r>
       <r>    5.0681    0.0000 </r>
       <r>    5.6778    0.0000 </r>
       <r>    5.6779    0.0000 </r>
       <r>    8.2033    0.0000 </r>
      </set>
      <set comment="kpoint 2">
       <r>  -21.5460    1.0000 </r>
       <r>   -9.6927    1.0000 </r>
       <r>   -5.5975    1.0000 </r>
       <r>   -5.5159    1.0000 </r>
       <r>    1.0416    0.0000 </r>
       <r>    1.9406    0.0000 </r>
       <r>    2.4637    0.0000 </r>
       <r>    4.3716    0.0000 </r>
       <r>    5.1204    0.0000 </r>
       <r>    5.7021    0.0000 </r>
       <r>    5.8497    0.0000 </r>
       <r>    8.2559    0.0000 </r>
      </set>
      <set comment="kpoint 3">
       <r>  -21.4258    1.0000 </r>
       <r>   -9.5507    1.0000 </r>
       <r>   -6.0727    1.0000 </r>
       <r>   -5.7549    1.0000 </r>
       <r>    1.2045    0.0000 </r>
       <r>    2.1046    0.0000 </r>
       <r>    2.6295    0.0000 </r>
       <r>    4.5344    0.0000 </r>
       <r>    5.2762    0.0000 </r>
       <r>    5.7447    0.0000 </r>
       <r>    6.3462    0.0000 </r>
       <r>    8.0264    0.0000 </r>
      </set>
      <set comment="kpoint 4">
       <r>  -21.2259    1.0000 </r>
       <r>   -9.3149    1.0000 </r>
       <r>   -6.7925    1.0000 </r>
       <r>   -6.1048    1.0000 </r>
       <r>    1.4760    0.0000 </r>
       <r>    2.3775    0.0000 </r>
       <r>    2.9059    0.0000 </r>
       <r>    4.8051    0.0000 </r>
       <r>    5.5163    0.0000 </r>
       <r>    5.7666    0.0000 </r>
       <r>    7.1208    0.0000 </r>
       <r>    7.4042    0.0000 </r>
      </set>
      <set comment="kpoint 5">
       <r>  -20.9468    1.0000 </r>
       <r>   -8.9873    1.0000 </r>
       <r>   -7.6840    1.0000 </r>
       <r>   -6.5165    1.0000 </r>
       <r>    1.8559    0.0000 </r>
       <r>    2.7587    0.0000 </r>
       <r>    3.2927    0.0000 </r>
       <r>    5.1818    0.0000 </r>
       <r>    5.6027    0.0000 </r>
       <r>    5.9776    0.0000 </r>
       <r>    6.5988    0.0000 </r>
       <r>    8.1178    0.0000 </r>
      </set>
      <set comment="kpoint 6">
       <r>  -20.5894    1.0000 </r>
       <r>   -8.6836    1.0000 </r>
       <r>   -8.5706    1.0000 </r>
       <r>   -6.9470    1.0000 </r>
       <r>    2.3439    0.0000 </r>
       <r>    3.2460    0.0000 </r>
       <r>    3.7898    0.0000 </r>
       <r>    5.4795    0.0000 </r>
       <r>    5.5617    0.0000 </r>
       <r>    5.7598    0.0000 </r>
       <r>    6.4457    0.0000 </r>
       <r>    9.2828    0.0000 </r>
      </set>
      <set comment="kpoint 7">
       <r>  -20.1549    1.0000 </r>
       <r>   -9.7418    1.0000 </r>
       <r>   -8.0692    1.0000 </r>
       <r>   -7.3639    1.0000 </r>
       <r>    2.9392    0.0000 </r>
       <r>    3.8215    0.0000 </r>
       <r>    4.3959    0.0000 </r>
       <r>    4.6164    0.0000 </r>
       <r>    5.3104    0.0000 </r>
       <r>    6.2757    0.0000 </r>
       <r>    7.0365    0.0000 </r>
       <r>   10.0656    0.0000 </r>
      </set>
      <set comment="kpoint 8">
       <r>  -19.6453    1.0000 </r>
       <r>  -10.8220    1.0000 </r>
       <r>   -7.7440    1.0000 </r>
       <r>   -7.4903    1.0000 </r>
       <r>    3.4579    0.0000 </r>
       <r>    3.6401    0.0000 </r>
       <r>    4.5888    0.0000 </r>
       <r>    5.0579    0.0000 </r>
       <r>    5.1881    0.0000 </r>
       <r>    6.9717    0.0000 </r>
       <r>    7.7376    0.0000 </r>
       <r>   10.7137    0.0000 </r>
      </set>
      <set comment="kpoint 9">
       <r>  -19.0632    1.0000 </r>
       <r>  -11.8970    1.0000 </r>
       <r>   -8.0714    1.0000 </r>
       <r>   -6.8461    1.0000 </r>
       <r>    2.3619    0.0000 </r>
       <r>    4.4359    0.0000 </r>
       <r>    4.9670    0.0000 </r>
       <r>    5.3863    0.0000 </r>
       <r>    5.9523    0.0000 </r>
       <r>    7.7723    0.0000 </r>
       <r>    8.5459    0.0000 </r>
       <r>   11.4296    0.0000 </r>
      </set>
      <set comment="kpoint 10">
       <r>  -18.4135    1.0000 </r>
       <r>  -12.9448    1.0000 </r>
       <r>   -8.3351    1.0000 </r>
       <r>   -6.1594    1.0000 </r>
       <r>    1.2900    0.0000 </r>
       <r>    4.7858    0.0000 </r>
       <r>    5.3906    0.0000 </r>
       <r>    6.2993    0.0000 </r>
       <r>    6.8886    0.0000 </r>
       <r>    8.6712    0.0000 </r>
       <r>    9.4588    0.0000 </r>
       <r>   12.1396    0.0000 </r>
      </set>
      <set comment="kpoint 11">
       <r>  -17.7069    1.0000 </r>
       <r>  -13.9430    1.0000 </r>
       <r>   -8.5279    1.0000 </r>
       <r>   -5.4781    1.0000 </r>
       <r>    0.3190    0.0000 </r>
       <r>    4.6909    0.0000 </r>
       <r>    6.3950    0.0000 </r>
       <r>    7.3139    0.0000 </r>
       <r>    7.9356    0.0000 </r>
       <r>    9.6573    0.0000 </r>
       <r>   10.4709    0.0000 </r>
       <r>   11.2774    0.0000 </r>
      </set>
      <set comment="kpoint 12">
       <r>  -16.9818    1.0000 </r>
       <r>  -14.8458    1.0000 </r>
       <r>   -8.6453    1.0000 </r>
       <r>   -4.9110    1.0000 </r>
       <r>   -0.4273    0.0000 </r>
       <r>    4.6269    0.0000 </r>
       <r>    7.5060    0.0000 </r>
       <r>    8.4204    0.0000 </r>
       <r>    9.0906    0.0000 </r>
       <r>    9.9864    0.0000 </r>
       <r>   10.6009    0.0000 </r>
       <r>   11.0334    0.0000 </r>
      </set>
      <set comment="kpoint 13">
       <r>  -16.5214    1.0000 </r>
       <r>  -15.3659    1.0000 </r>
       <r>   -8.6848    1.0000 </r>
       <r>   -4.6706    1.0000 </r>
       <r>   -0.7283    0.0000 </r>
       <r>    4.6050    0.0000 </r>
       <r>    8.6336    0.0000 </r>
       <r>    8.7877    0.0000 </r>
       <r>    9.4833    0.0000 </r>
       <r>    9.7462    0.0000 </r>
       <r>   10.3419    0.0000 </r>
       <r>   10.3666    0.0000 </r>
      </set>
      <set comment="kpoint 14">
       <r>  -21.4659    1.0000 </r>
       <r>   -9.5980    1.0000 </r>
       <r>   -5.9098    1.0000 </r>
       <r>   -5.6871    1.0000 </r>
       <r>    1.1502    0.0000 </r>
       <r>    2.0499    0.0000 </r>
       <r>    2.5742    0.0000 </r>
       <r>    4.4801    0.0000 </r>
       <r>    5.2250    0.0000 </r>
       <r>    5.7633    0.0000 </r>
       <r>    6.1525    0.0000 </r>
       <r>    8.3609    0.0000 </r>
      </set>
      <set comment="kpoint 15">
       <r>  -21.3058    1.0000 </r>
       <r>   -9.4090    1.0000 </r>
       <r>   -6.4872    1.0000 </r>
       <r>   -6.0019    1.0000 </r>
       <r>    1.3675    0.0000 </r>
       <r>    2.2684    0.0000 </r>
       <r>    2.7953    0.0000 </r>
       <r>    4.6970    0.0000 </r>
       <r>    5.4312    0.0000 </r>
       <r>    5.8454    0.0000 </r>
       <r>    6.7109    0.0000 </r>
       <r>    7.6496    0.0000 </r>
      </set>
      <set comment="kpoint 16">
       <r>  -21.0663    1.0000 </r>
       <r>   -9.1273    1.0000 </r>
       <r>   -7.2724    1.0000 </r>
       <r>   -6.4038    1.0000 </r>
       <r>    1.6932    0.0000 </r>
       <r>    2.5955    0.0000 </r>
       <r>    3.1270    0.0000 </r>
       <r>    5.0212    0.0000 </r>
       <r>    5.6914    0.0000 </r>
       <r>    5.9091    0.0000 </r>
       <r>    6.9392    0.0000 </r>
       <r>    7.5075    0.0000 </r>
      </set>
      <set comment="kpoint 17">
       <r>  -20.7480    1.0000 </r>
       <r>   -8.7550    1.0000 </r>
       <r>   -8.2015    1.0000 </r>
       <r>   -6.8421    1.0000 </r>
       <r>    2.1273    0.0000 </r>
       <r>    3.0303    0.0000 </r>
       <r>    3.5691    0.0000 </r>
       <r>    5.4465    0.0000 </r>
       <r>    5.7043    0.0000 </r>
       <r>    6.0758    0.0000 </r>
       <r>    6.2401    0.0000 </r>
       <r>    8.4980    0.0000 </r>
      </set>
      <set comment="kpoint 18">
       <r>  -20.3521    1.0000 </r>
       <r>   -9.2184    1.0000 </r>
       <r>   -8.2956    1.0000 </r>
       <r>   -7.2782    1.0000 </r>
       <r>    2.6691    0.0000 </r>
       <r>    3.5678    0.0000 </r>
       <r>    4.1212    0.0000 </r>
       <r>    5.0726    0.0000 </r>
       <r>    5.5680    0.0000 </r>
       <r>    6.0064    0.0000 </r>
       <r>    6.7689    0.0000 </r>
       <r>    9.8077    0.0000 </r>
      </set>
      <set comment="kpoint 19">
       <r>  -19.8800    1.0000 </r>
       <r>  -10.2795    1.0000 </r>
       <r>   -7.7548    1.0000 </r>
       <r>   -7.6853    1.0000 </r>
       <r>    3.3177    0.0000 </r>
       <r>    3.9212    0.0000 </r>
       <r>    4.3106    0.0000 </r>
       <r>    4.7808    0.0000 </r>
       <r>    5.4002    0.0000 </r>
       <r>    6.6471    0.0000 </r>
       <r>    7.4144    0.0000 </r>
       <r>   10.4091    0.0000 </r>
      </set>
      <set comment="kpoint 20">
       <r>  -19.3340    1.0000 </r>
       <r>  -11.3518    1.0000 </r>
       <r>   -8.0447    1.0000 </r>
       <r>   -7.1416    1.0000 </r>
       <r>    2.8844    0.0000 </r>
       <r>    4.0703    0.0000 </r>
       <r>    5.0070    0.0000 </r>
       <r>    5.2111    0.0000 </r>
       <r>    5.5730    0.0000 </r>
       <r>    7.3950    0.0000 </r>
       <r>    8.1689    0.0000 </r>
       <r>   11.0858    0.0000 </r>
      </set>
      <set comment="kpoint 21">
       <r>  -18.7178    1.0000 </r>
       <r>  -12.4099    1.0000 </r>
       <r>   -8.3439    1.0000 </r>
       <r>   -6.4725    1.0000 </r>
       <r>    1.7985    0.0000 </r>
       <r>    4.8809    0.0000 </r>
       <r>    5.1151    0.0000 </r>
       <r>    5.8655    0.0000 </r>
       <r>    6.4479    0.0000 </r>
       <r>    8.2432    0.0000 </r>
       <r>    9.0294    0.0000 </r>
       <r>   11.7951    0.0000 </r>
      </set>
      <set comment="kpoint 22">
       <r>  -18.0381    1.0000 </r>
       <r>  -13.4322    1.0000 </r>
       <r>   -8.5744    1.0000 </r>
       <r>   -5.7798    1.0000 </r>
       <r>    0.7722    0.0000 </r>
       <r>    4.9186    0.0000 </r>
       <r>    5.9182    0.0000 </r>
       <r>    6.8285    0.0000 </r>
       <r>    7.4397    0.0000 </r>
       <r>    9.1830    0.0000 </r>
       <r>    9.9923    0.0000 </r>
       <r>   11.8619    0.0000 </r>
      </set>
      <set comment="kpoint 23">
       <r>  -17.3139    1.0000 </r>
       <r>  -14.3897    1.0000 </r>
       <r>   -8.7309    1.0000 </r>
       <r>   -5.1350    1.0000 </r>
       <r>   -0.1042    0.0000 </r>
       <r>    4.8369    0.0000 </r>
       <r>    6.9777    0.0000 </r>
       <r>    7.8869    0.0000 </r>
       <r>    8.5409    0.0000 </r>
       <r>   10.1848    0.0000 </r>
       <r>   10.6524    0.0000 </r>
       <r>   11.0610    0.0000 </r>
      </set>
      <set comment="kpoint 24">
       <r>  -16.6418    1.0000 </r>
       <r>  -15.1799    1.0000 </r>
       <r>   -8.8099    1.0000 </r>
       <r>   -4.6983    1.0000 </r>
       <r>   -0.6594    0.0000 </r>
       <r>    4.7936    0.0000 </r>
       <r>    8.1318    0.0000 </r>
       <r>    9.0193    0.0000 </r>
       <r>    9.3769    0.0000 </r>
       <r>    9.7527    0.0000 </r>
       <r>   10.2425    0.0000 </r>
       <r>   11.0628    0.0000 </r>
      </set>
      <set comment="kpoint 25">
       <r>  -21.1062    1.0000 </r>
       <r>   -9.1741    1.0000 </r>
       <r>   -7.0938    1.0000 </r>
       <r>   -6.4056    1.0000 </r>
       <r>    1.6390    0.0000 </r>
       <r>    2.5411    0.0000 </r>
       <r>    3.0718    0.0000 </r>
       <r>    4.9675    0.0000 </r>
       <r>    5.6891    0.0000 </r>
       <r>    6.0588    0.0000 </r>
       <r>    7.0581    0.0000 </r>
       <r>    7.1359    0.0000 </r>
      </set>
      <set comment="kpoint 26">
       <r>  -20.8275    1.0000 </r>
       <r>   -8.8475    1.0000 </r>
       <r>   -7.8679    1.0000 </r>
       <r>   -6.8837    1.0000 </r>
       <r>    2.0190    0.0000 </r>
       <r>    2.9221    0.0000 </r>
       <r>    3.4588    0.0000 </r>
       <r>    5.3447    0.0000 </r>
       <r>    6.0042    0.0000 </r>
       <r>    6.2481    0.0000 </r>
       <r>    6.2933    0.0000 </r>
       <r>    7.7323    0.0000 </r>
      </set>
      <set comment="kpoint 27">
       <r>  -20.4707    1.0000 </r>
       <r>   -8.7747    1.0000 </r>
       <r>   -8.4322    1.0000 </r>
       <r>   -7.3683    1.0000 </r>
       <r>    2.5071    0.0000 </r>
       <r>    3.4097    0.0000 </r>
       <r>    3.9562    0.0000 </r>
       <r>    5.3872    0.0000 </r>
       <r>    5.8380    0.0000 </r>
       <r>    6.0863    0.0000 </r>
       <r>    6.6237    0.0000 </r>
       <r>    8.5654    0.0000 </r>
      </set>
      <set comment="kpoint 28">
       <r>  -20.0371    1.0000 </r>
       <r>   -9.7676    1.0000 </r>
       <r>   -7.9324    1.0000 </r>
       <r>   -7.8226    1.0000 </r>
       <r>    3.1027    0.0000 </r>
       <r>    3.9811    0.0000 </r>
       <r>    4.4222    0.0000 </r>
       <r>    4.5635    0.0000 </r>
       <r>    5.9778    0.0000 </r>
       <r>    6.4246    0.0000 </r>
       <r>    7.2024    0.0000 </r>
       <r>    9.5648    0.0000 </r>
      </set>
      <set comment="kpoint 29">
       <r>  -19.5286    1.0000 </r>
       <r>  -10.8035    1.0000 </r>
       <r>   -8.2269    1.0000 </r>
       <r>   -7.3552    1.0000 </r>
       <r>    3.3266    0.0000 </r>
       <r>    3.8045    0.0000 </r>
       <r>    4.7288    0.0000 </r>
       <r>    5.2776    0.0000 </r>
       <r>    5.8259    0.0000 </r>
       <r>    7.1180    0.0000 </r>
       <r>    7.9003    0.0000 </r>
       <r>   10.8151    0.0000 </r>
      </set>
      <set comment="kpoint 30">
       <r>  -18.9480    1.0000 </r>
       <r>  -11.8483    1.0000 </r>
       <r>   -8.5694    1.0000 </r>
       <r>   -6.7125    1.0000 </r>
       <r>    2.2616    0.0000 </r>
       <r>    4.6092    0.0000 </r>
       <r>    5.5318    0.0000 </r>
       <r>    5.6544    0.0000 </r>
       <r>    6.1219    0.0000 </r>
       <r>    7.9108    0.0000 </r>
       <r>    8.7066    0.0000 </r>
       <r>   11.4681    0.0000 </r>
      </set>
      <set comment="kpoint 31">
       <r>  -18.3004    1.0000 </r>
       <r>  -12.8756    1.0000 </r>
       <r>   -8.8425    1.0000 </r>
       <r>   -6.0263    1.0000 </r>
       <r>    1.2193    0.0000 </r>
       <r>    5.4227    0.0000 </r>
       <r>    5.6200    0.0000 </r>
       <r>    6.4396    0.0000 </r>
       <r>    7.0542    0.0000 </r>
       <r>    8.7940    0.0000 </r>
       <r>    9.6170    0.0000 </r>
       <r>   12.0073    0.0000 </r>
      </set>
      <set comment="kpoint 32">
       <r>  -17.5965    1.0000 </r>
       <r>  -13.8596    1.0000 </r>
       <r>   -9.0407    1.0000 </r>
       <r>   -5.3430    1.0000 </r>
       <r>    0.2679    0.0000 </r>
       <r>    5.3963    0.0000 </r>
       <r>    6.5545    0.0000 </r>
       <r>    7.4420    0.0000 </r>
       <r>    8.1002    0.0000 </r>
       <r>    9.7435    0.0000 </r>
       <r>   10.6234    0.0000 </r>
       <r>   11.3090    0.0000 </r>
      </set>
      <set comment="kpoint 33">
       <r>  -16.8748    1.0000 </r>
       <r>  -14.7527    1.0000 </r>
       <r>   -9.1610    1.0000 </r>
       <r>   -4.7705    1.0000 </r>
       <r>   -0.4710    0.0000 </r>
       <r>    5.3337    0.0000 </r>
       <r>    7.6593    0.0000 </r>
       <r>    8.5201    0.0000 </r>
       <r>    9.2537    0.0000 </r>
       <r>   10.1055    0.0000 </r>
       <r>   10.5339    0.0000 </r>
       <r>   11.1876    0.0000 </r>
      </set>
      <set comment="kpoint 34">
       <r>  -16.4170    1.0000 </r>
       <r>  -15.2681    1.0000 </r>
       <r>   -9.2012    1.0000 </r>
       <r>   -4.5257    1.0000 </r>
       <r>   -0.7721    0.0000 </r>
       <r>    5.3119    0.0000 </r>
       <r>    8.7722    0.0000 </r>
       <r>    8.9367    0.0000 </r>
       <r>    9.4505    0.0000 </r>
       <r>    9.9108    0.0000 </r>
       <r>   10.5006    0.0000 </r>
       <r>   10.5286    0.0000 </r>
      </set>
      <set comment="kpoint 35">
       <r>  -20.5103    1.0000 </r>
       <r>   -8.5731    1.0000 </r>
       <r>   -8.4778    1.0000 </r>
       <r>   -7.4553    1.0000 </r>
       <r>    2.4532    0.0000 </r>
       <r>    3.3566    0.0000 </r>
       <r>    3.9012    0.0000 </r>
       <r>    5.5053    0.0000 </r>
       <r>    5.7749    0.0000 </r>
       <r>    6.4060    0.0000 </r>
       <r>    6.6721    0.0000 </r>
       <r>    7.9617    0.0000 </r>
      </set>
      <set comment="kpoint 36">
       <r>  -20.1158    1.0000 </r>
       <r>   -9.3967    1.0000 </r>
       <r>   -8.0216    1.0000 </r>
       <r>   -8.0178    1.0000 </r>
       <r>    2.9951    0.0000 </r>
       <r>    3.8958    0.0000 </r>
       <r>    4.4539    0.0000 </r>
       <r>    4.6135    0.0000 </r>
       <r>    6.3098    0.0000 </r>
       <r>    6.6734    0.0000 </r>
       <r>    7.1255    0.0000 </r>
       <r>    8.5051    0.0000 </r>
      </set>
      <set comment="kpoint 37">
       <r>  -19.6457    1.0000 </r>
       <r>  -10.3206    1.0000 </r>
       <r>   -8.5138    1.0000 </r>
       <r>   -7.4844    1.0000 </r>
       <r>    3.6360    0.0000 </r>
       <r>    3.6440    0.0000 </r>
       <r>    4.5524    0.0000 </r>
       <r>    5.1165    0.0000 </r>
       <r>    6.6530    0.0000 </r>
       <r>    6.9470    0.0000 </r>
       <r>    7.7451    0.0000 </r>
       <r>    9.3692    0.0000 </r>
      </set>
      <set comment="kpoint 38">
       <r>  -19.1024    1.0000 </r>
       <r>  -11.3027    1.0000 </r>
       <r>   -8.9282    1.0000 </r>
       <r>   -6.8747    1.0000 </r>
       <r>    2.6272    0.0000 </r>
       <r>    4.3985    0.0000 </r>
       <r>    5.3019    0.0000 </r>
       <r>    5.8867    0.0000 </r>
       <r>    6.5307    0.0000 </r>
       <r>    7.6816    0.0000 </r>
       <r>    8.4924    0.0000 </r>
       <r>   10.3557    0.0000 </r>
      </set>
      <set comment="kpoint 39">
       <r>  -18.4897    1.0000 </r>
       <r>  -12.3021    1.0000 </r>
       <r>   -9.2602    1.0000 </r>
       <r>   -6.2081    1.0000 </r>
       <r>    1.6108    0.0000 </r>
       <r>    5.2551    0.0000 </r>
       <r>    6.1525    0.0000 </r>
       <r>    6.3781    0.0000 </r>
       <r>    6.7844    0.0000 </r>
       <r>    8.5026    0.0000 </r>
       <r>    9.3479    0.0000 </r>
       <r>   11.2492    0.0000 </r>
      </set>
      <set comment="kpoint 40">
       <r>  -17.8148    1.0000 </r>
       <r>  -13.2854    1.0000 </r>
       <r>   -9.5098    1.0000 </r>
       <r>   -5.5146    1.0000 </r>
       <r>    0.6369    0.0000 </r>
       <r>    6.1460    0.0000 </r>
       <r>    6.3334    0.0000 </r>
       <r>    7.0938    0.0000 </r>
       <r>    7.7700    0.0000 </r>
       <r>    9.3814    0.0000 </r>
       <r>   10.3029    0.0000 </r>
       <r>   11.5641    0.0000 </r>
      </set>
      <set comment="kpoint 41">
       <r>  -17.0967    1.0000 </r>
       <r>  -14.2171    1.0000 </r>
       <r>   -9.6767    1.0000 </r>
       <r>   -4.8621    1.0000 </r>
       <r>   -0.2113    0.0000 </r>
       <r>    6.1599    0.0000 </r>
       <r>    7.2909    0.0000 </r>
       <r>    8.1031    0.0000 </r>
       <r>    8.8687    0.0000 </r>
       <r>   10.2006    0.0000 </r>
       <r>   10.8038    0.0000 </r>
       <r>   11.3663    0.0000 </r>
      </set>
      <set comment="kpoint 42">
       <r>  -16.4315    1.0000 </r>
       <r>  -14.9912    1.0000 </r>
       <r>   -9.7603    1.0000 </r>
       <r>   -4.4118    1.0000 </r>
       <r>   -0.7621    0.0000 </r>
       <r>    6.1180    0.0000 </r>
       <r>    8.4280    0.0000 </r>
       <r>    9.0846    0.0000 </r>
       <r>    9.6415    0.0000 </r>
       <r>   10.0772    0.0000 </r>
       <r>   10.2895    0.0000 </r>
       <r>   11.3757    0.0000 </r>
      </set>
      <set comment="kpoint 43">
       <r>  -19.6848    1.0000 </r>
       <r>  -10.0932    1.0000 </r>
       <r>   -8.6804    1.0000 </r>
       <r>   -7.5276    1.0000 </r>
       <r>    3.5904    0.0000 </r>
       <r>    3.7513    0.0000 </r>
       <r>    4.4887    0.0000 </r>
       <r>    5.0619    0.0000 </r>
       <r>    6.8889    0.0000 </r>
       <r>    7.2654    0.0000 </r>
       <r>    7.7297    0.0000 </r>
       <r>    8.5792    0.0000 </r>
      </set>
      <set comment="kpoint 44">
       <r>  -19.1798    1.0000 </r>
       <r>  -10.8930    1.0000 </r>
       <r>   -9.2572    1.0000 </r>
       <r>   -6.9566    1.0000 </r>
       <r>    2.8338    0.0000 </r>
       <r>    4.2918    0.0000 </r>
       <r>    5.1827    0.0000 </r>
       <r>    5.7796    0.0000 </r>
       <r>    7.5019    0.0000 </r>
       <r>    7.5636    0.0000 </r>
       <r>    8.3971    0.0000 </r>
       <r>    9.1671    0.0000 </r>
      </set>
      <set comment="kpoint 45">
       <r>  -18.6041    1.0000 </r>
       <r>  -11.7820    1.0000 </r>
       <r>   -9.7094    1.0000 </r>
       <r>   -6.3194    1.0000 </r>
       <r>    1.8856    0.0000 </r>
       <r>    5.0976    0.0000 </r>
       <r>    5.9739    0.0000 </r>
       <r>    6.6055    0.0000 </r>
       <r>    7.4419    0.0000 </r>
       <r>    8.3197    0.0000 </r>
       <r>    9.1863    0.0000 </r>
       <r>   10.0846    0.0000 </r>
      </set>
      <set comment="kpoint 46">
       <r>  -17.9628    1.0000 </r>
       <r>  -12.7126    1.0000 </r>
       <r>  -10.0446    1.0000 </r>
       <r>   -5.6358    1.0000 </r>
       <r>    0.9409    0.0000 </r>
       <r>    6.0040    0.0000 </r>
       <r>    6.8504    0.0000 </r>
       <r>    7.3062    0.0000 </r>
       <r>    7.5606    0.0000 </r>
       <r>    9.1195    0.0000 </r>
       <r>   10.0837    0.0000 </r>
       <r>   10.9392    0.0000 </r>
      </set>
      <set comment="kpoint 47">
       <r>  -17.2672    1.0000 </r>
       <r>  -13.6365    1.0000 </r>
       <r>  -10.2764    1.0000 </r>
       <r>   -4.9470    1.0000 </r>
       <r>    0.0543    0.0000 </r>
       <r>    6.9808    0.0000 </r>
       <r>    7.2415    0.0000 </r>
       <r>    7.7810    0.0000 </r>
       <r>    8.5939    0.0000 </r>
       <r>    9.8466    0.0000 </r>
       <r>   11.0125    0.0000 </r>
       <r>   11.2502    0.0000 </r>
      </set>
      <set comment="kpoint 48">
       <r>  -16.5556    1.0000 </r>
       <r>  -14.4927    1.0000 </r>
       <r>  -10.4132    1.0000 </r>
       <r>   -4.3548    1.0000 </r>
       <r>   -0.6615    0.0000 </r>
       <r>    7.1293    0.0000 </r>
       <r>    8.1171    0.0000 </r>
       <r>    8.6608    0.0000 </r>
       <r>    9.7408    0.0000 </r>
       <r>   10.2683    0.0000 </r>
       <r>   10.4124    0.0000 </r>
       <r>   11.6679    0.0000 </r>
      </set>
      <set comment="kpoint 49">
       <r>  -16.1043    1.0000 </r>
       <r>  -14.9935    1.0000 </r>
       <r>  -10.4585    1.0000 </r>
       <r>   -4.0925    1.0000 </r>
       <r>   -0.9658    0.0000 </r>
       <r>    7.1091    0.0000 </r>
       <r>    9.1033    0.0000 </r>
       <r>    9.1712    0.0000 </r>
       <r>    9.3752    0.0000 </r>
       <r>   10.4043    0.0000 </r>
       <r>   10.9716    0.0000 </r>
       <r>   11.0122    0.0000 </r>
      </set>
      <set comment="kpoint 50">
       <r>  -18.6423    1.0000 </r>
       <r>  -11.5290    1.0000 </r>
       <r>   -9.9428    1.0000 </r>
       <r>   -6.3569    1.0000 </r>
       <r>    1.9856    0.0000 </r>
       <r>    5.0445    0.0000 </r>
       <r>    5.9128    0.0000 </r>
       <r>    6.5522    0.0000 </r>
       <r>    8.2569    0.0000 </r>
       <r>    8.3016    0.0000 </r>
       <r>    9.1408    0.0000 </r>
       <r>    9.1624    0.0000 </r>
      </set>
      <set comment="kpoint 51">
       <r>  -18.0373    1.0000 </r>
       <r>  -12.2690    1.0000 </r>
       <r>  -10.4791    1.0000 </r>
       <r>   -5.6983    1.0000 </r>
       <r>    1.1153    0.0000 </r>
       <r>    5.8992    0.0000 </r>
       <r>    6.7233    0.0000 </r>
       <r>    7.4326    0.0000 </r>
       <r>    8.4769    0.0000 </r>
       <r>    8.9796    0.0000 </r>
       <r>    9.7854    0.0000 </r>
       <r>   10.0419    0.0000 </r>
      </set>
      <set comment="kpoint 52">
       <r>  -17.3727    1.0000 </r>
       <r>  -13.0924    1.0000 </r>
       <r>  -10.8471    1.0000 </r>
       <r>   -5.0056    1.0000 </r>
       <r>    0.2545    0.0000 </r>
       <r>    6.8502    0.0000 </r>
       <r>    7.5715    0.0000 </r>
       <r>    8.3383    0.0000 </r>
       <r>    8.4653    0.0000 </r>
       <r>    9.6010    0.0000 </r>
       <r>   10.6026    0.0000 </r>
       <r>   10.9927    0.0000 </r>
      </set>
      <set comment="kpoint 53">
       <r>  -16.6676    1.0000 </r>
       <r>  -13.9325    1.0000 </r>
       <r>  -11.0735    1.0000 </r>
       <r>   -4.3355    1.0000 </r>
       <r>   -0.5329    0.0000 </r>
       <r>    7.8746    0.0000 </r>
       <r>    8.2980    0.0000 </r>
       <r>    8.3257    0.0000 </r>
       <r>    9.5226    0.0000 </r>
       <r>   10.0296    0.0000 </r>
       <r>   10.8479    0.0000 </r>
       <r>   11.7930    0.0000 </r>
      </set>
      <set comment="kpoint 54">
       <r>  -16.0141    1.0000 </r>
       <r>  -14.6616    1.0000 </r>
       <r>  -11.1816    1.0000 </r>
       <r>   -3.8461    1.0000 </r>
       <r>   -1.0828    0.0000 </r>
       <r>    8.2132    0.0000 </r>
       <r>    8.7265    0.0000 </r>
       <r>    9.0059    0.0000 </r>
       <r>   10.1128    0.0000 </r>
       <r>   10.5838    0.0000 </r>
       <r>   10.7216    0.0000 </r>
       <r>   11.9739    0.0000 </r>
      </set>
      <set comment="kpoint 55">
       <r>  -17.4083    1.0000 </r>
       <r>  -12.8200    1.0000 </r>
       <r>  -11.1309    1.0000 </r>
       <r>   -5.0263    1.0000 </r>
       <r>    0.3294    0.0000 </r>
       <r>    6.7982    0.0000 </r>
       <r>    7.4977    0.0000 </r>
       <r>    8.3659    0.0000 </r>
       <r>    9.4660    0.0000 </r>
       <r>    9.5131    0.0000 </r>
       <r>    9.6881    0.0000 </r>
       <r>   10.9061    0.0000 </r>
      </set>
      <set comment="kpoint 56">
       <r>  -16.7290    1.0000 </r>
       <r>  -13.4783    1.0000 </r>
       <r>  -11.5800    1.0000 </r>
       <r>   -4.3324    1.0000 </r>
       <r>   -0.4454    0.0000 </r>
       <r>    7.7833    0.0000 </r>
       <r>    8.1365    0.0000 </r>
       <r>    9.3611    0.0000 </r>
       <r>    9.4903    0.0000 </r>
       <r>    9.8782    0.0000 </r>
       <r>   10.4429    0.0000 </r>
       <r>   11.7595    0.0000 </r>
      </set>
      <set comment="kpoint 57">
       <r>  -16.0352    1.0000 </r>
       <r>  -14.1916    1.0000 </r>
       <r>  -11.8242    1.0000 </r>
       <r>   -3.6946    1.0000 </r>
       <r>   -1.1321    0.0000 </r>
       <r>    8.4120    0.0000 </r>
       <r>    8.8165    0.0000 </r>
       <r>    9.3640    0.0000 </r>
       <r>   10.5071    0.0000 </r>
       <r>   10.5182    0.0000 </r>
       <r>   10.6993    0.0000 </r>
       <r>   12.4800    0.0000 </r>
      </set>
      <set comment="kpoint 58">
       <r>  -15.5845    1.0000 </r>
       <r>  -14.6551    1.0000 </r>
       <r>  -11.9003    1.0000 </r>
       <r>   -3.3766    1.0000 </r>
       <r>   -1.4664    0.0000 </r>
       <r>    8.4539    0.0000 </r>
       <r>    9.2782    0.0000 </r>
       <r>    9.7482    0.0000 </r>
       <r>   10.0920    0.0000 </r>
       <r>   11.2254    0.0000 </r>
       <r>   11.7168    0.0000 </r>
       <r>   11.8065    0.0000 </r>
      </set>
      <set comment="kpoint 59">
       <r>  -16.0510    1.0000 </r>
       <r>  -13.9357    1.0000 </r>
       <r>  -12.1309    1.0000 </r>
       <r>   -3.6443    1.0000 </r>
       <r>   -1.1434    0.0000 </r>
       <r>    8.2953    0.0000 </r>
       <r>    8.7753    0.0000 </r>
       <r>   10.1410    0.0000 </r>
       <r>   10.3774    0.0000 </r>
       <r>   10.4766    0.0000 </r>
       <r>   10.6156    0.0000 </r>
       <r>   12.6023    0.0000 </r>
      </set>
      <set comment="kpoint 60">
       <r>  -15.4079    1.0000 </r>
       <r>  -14.4676    1.0000 </r>
       <r>  -12.4111    1.0000 </r>
       <r>   -3.0402    1.0000 </r>
       <r>   -1.7499    0.0000 </r>
       <r>    8.2531    0.0000 </r>
       <r>    9.7162    0.0000 </r>
       <r>   10.1243    0.0000 </r>
       <r>   10.6775    0.0000 </r>
       <r>   11.4190    0.0000 </r>
       <r>   11.6692    0.0000 </r>
       <r>   12.6724    0.0000 </r>
      </set>
      <set comment="kpoint 61">
       <r>  -14.8601    1.0000 </r>
       <r>  -14.8600    1.0000 </r>
       <r>  -12.6465    1.0000 </r>
       <r>   -2.3879    0.5004 </r>
       <r>   -2.3879    0.4996 </r>
       <r>    8.1738    0.0000 </r>
       <r>   10.2148    0.0000 </r>
       <r>   10.2149    0.0000 </r>
       <r>   10.9294    0.0000 </r>
       <r>   12.3714    0.0000 </r>
       <r>   12.5462    0.0000 </r>
       <r>   12.5490    0.0000 </r>
      </set>
     </set>
    </set>
   </array>
  </eigenvalues>
  <separator name="orbital magnetization" >
   <v name="MAGDIPOLOUT">      0.00000000      0.00000000      0.00000000</v>
  </separator>
  <dos>
   <i name="efermi">     -2.38790015 </i>
   <total>
    <array>
     <dimension dim="1">gridpoints</dimension>
     <dimension dim="2">spin</dimension>
     <field>energy</field>
     <field>total</field>
     <field>integrated</field>
     <set>
      <set comment="spin 1">
       <r>   -23.2991     0.0000     0.0000 </r>
       <r>   -23.1735     0.0000     0.0000 </r>
       <r>   -23.0479     0.0000     0.0000 </r>
       <r>   -22.9223     0.0000     0.0000 </r>
       <r>   -22.7967     0.0000     0.0000 </r>
       <r>   -22.6710     0.0000     0.0000 </r>
       <r>   -22.5454     0.0000     0.0000 </r>
       <r>   -22.4198     0.0000     0.0000 </r>
       <r>   -22.2942     0.0000     0.0000 </r>
       <r>   -22.1686     0.0000     0.0000 </r>
       <r>   -22.0430     0.0000     0.0000 </r>
       <r>   -21.9173     0.0000     0.0000 </r>
       <r>   -21.7917     0.0000     0.0000 </r>
       <r>   -21.6661     0.0000     0.0000 </r>
       <r>   -21.5405     0.1358     0.0171 </r>
       <r>   -21.4149     0.3530     0.0614 </r>
       <r>   -21.2893     0.3279     0.1026 </r>
       <r>   -21.1637     0.2060     0.1285 </r>
       <r>   -21.0380     0.4900     0.1900 </r>
       <r>   -20.9124     0.1722     0.2116 </r>
       <r>   -20.7868     0.3333     0.2535 </r>
       <r>   -20.6612     0.3307     0.2951 </r>
       <r>   -20.5356     0.1719     0.3167 </r>
       <r>   -20.4100     0.4915     0.3785 </r>
       <r>   -20.2844     0.3317     0.4201 </r>
       <r>   -20.1587     0.0658     0.4284 </r>
       <r>   -20.0331     0.6342     0.5081 </r>
       <r>   -19.9075     0.1378     0.5254 </r>
       <r>   -19.7819     0.3231     0.5660 </r>
       <r>   -19.6563     0.2739     0.6004 </r>
       <r>   -19.5307     0.5360     0.6677 </r>
       <r>   -19.4051     0.1852     0.6910 </r>
       <r>   -19.2794     0.3317     0.7326 </r>
       <r>   -19.1538     0.3208     0.7729 </r>
       <r>   -19.0282     0.5073     0.8367 </r>
       <r>   -18.9026     0.3315     0.8784 </r>
       <r>   -18.7770     0.0000     0.8785 </r>
       <r>   -18.6514     0.3750     0.9256 </r>
       <r>   -18.5258     0.4561     0.9829 </r>
       <r>   -18.4001     0.4672     1.0416 </r>
       <r>   -18.2745     0.3490     1.0854 </r>
       <r>   -18.1489     0.0112     1.0868 </r>
       <r>   -18.0233     0.5614     1.1573 </r>
       <r>   -17.8977     0.4337     1.2118 </r>
       <r>   -17.7721     0.3313     1.2534 </r>
       <r>   -17.6465     0.1659     1.2743 </r>
       <r>   -17.5208     0.3316     1.3160 </r>
       <r>   -17.3952     0.1550     1.3354 </r>
       <r>   -17.2696     0.8170     1.4381 </r>
       <r>   -17.1440     0.1888     1.4618 </r>
       <r>   -17.0184     0.3324     1.5036 </r>
       <r>   -16.8928     0.1987     1.5285 </r>
       <r>   -16.7671     0.2992     1.5661 </r>
       <r>   -16.6415     0.8202     1.6691 </r>
       <r>   -16.5159     0.5586     1.7393 </r>
       <r>   -16.3903     0.5210     1.8049 </r>
       <r>   -16.2647     0.0049     1.8056 </r>
       <r>   -16.1391     0.0012     1.8057 </r>
       <r>   -16.0135     0.8129     1.9078 </r>
       <r>   -15.8878     0.1804     1.9306 </r>
       <r>   -15.7622     0.0000     1.9306 </r>
       <r>   -15.6366     0.0000     1.9306 </r>
       <r>   -15.5110     0.1658     1.9514 </r>
       <r>   -15.3854     0.3203     1.9916 </r>
       <r>   -15.2598     0.2141     2.0185 </r>
       <r>   -15.1342     0.3775     2.0659 </r>
       <r>   -15.0085     0.0603     2.0735 </r>
       <r>   -14.8829     0.4438     2.1293 </r>
       <r>   -14.7573     0.3934     2.1787 </r>
       <r>   -14.6317     0.6919     2.2656 </r>
       <r>   -14.5061     0.0723     2.2747 </r>
       <r>   -14.3805     0.8513     2.3816 </r>
       <r>   -14.2549     0.0866     2.3925 </r>
       <r>   -14.1292     0.6621     2.4757 </r>
       <r>   -14.0036     0.0000     2.4757 </r>
       <r>   -13.8780     0.6953     2.5630 </r>
       <r>   -13.7524     0.2997     2.6007 </r>
       <r>   -13.6268     0.2504     2.6321 </r>
       <r>   -13.5012     0.0988     2.6446 </r>
       <r>   -13.3756     0.6459     2.7257 </r>
       <r>   -13.2499     0.3297     2.7671 </r>
       <r>   -13.1243     0.0040     2.7679 </r>
       <r>   -12.9987     0.3277     2.8090 </r>
       <r>   -12.8731     0.3546     2.8536 </r>
       <r>   -12.7475     0.3111     2.8926 </r>
       <r>   -12.6219     0.3825     2.9407 </r>
       <r>   -12.4963     0.0023     2.9410 </r>
       <r>   -12.3706     0.6618     3.0241 </r>
       <r>   -12.2450     0.6484     3.1058 </r>
       <r>   -12.1194     0.1464     3.1242 </r>
       <r>   -11.9938     0.0344     3.1285 </r>
       <r>   -11.8682     0.3532     3.1728 </r>
       <r>   -11.7426     0.9727     3.2950 </r>
       <r>   -11.6169     0.0015     3.2953 </r>
       <r>   -11.4913     0.4954     3.3576 </r>
       <r>   -11.3657     0.0538     3.3644 </r>
       <r>   -11.2401     0.6096     3.4410 </r>
       <r>   -11.1145     0.4777     3.5010 </r>
       <r>   -10.9889     0.3515     3.5451 </r>
       <r>   -10.8633     0.3681     3.5914 </r>
       <r>   -10.7376     0.7929     3.6910 </r>
       <r>   -10.6120     0.0000     3.6910 </r>
       <r>   -10.4864     0.1046     3.7041 </r>
       <r>   -10.3608     0.7254     3.7952 </r>
       <r>   -10.2352     0.9935     3.9200 </r>
       <r>   -10.1096     0.0204     3.9227 </r>
       <r>    -9.9840     0.4774     3.9827 </r>
       <r>    -9.8583     0.1656     4.0035 </r>
       <r>    -9.7327     0.8114     4.1054 </r>
       <r>    -9.6071     0.9154     4.2207 </r>
       <r>    -9.4815     0.6129     4.2977 </r>
       <r>    -9.3559     0.6706     4.3819 </r>
       <r>    -9.2303     0.8840     4.4930 </r>
       <r>    -9.1047     1.2536     4.6505 </r>
       <r>    -8.9790     0.4693     4.7094 </r>
       <r>    -8.8534     0.5633     4.7802 </r>
       <r>    -8.7278     1.6587     4.9886 </r>
       <r>    -8.6022     0.7435     5.0820 </r>
       <r>    -8.4766     1.5631     5.2784 </r>
       <r>    -8.3510     0.5325     5.3454 </r>
       <r>    -8.2254     0.9007     5.4586 </r>
       <r>    -8.0997     0.4743     5.5181 </r>
       <r>    -7.9741     1.3206     5.6840 </r>
       <r>    -7.8485     0.6457     5.7652 </r>
       <r>    -7.7229     0.8330     5.8698 </r>
       <r>    -7.5973     0.5110     5.9340 </r>
       <r>    -7.4717     0.6070     6.0103 </r>
       <r>    -7.3461     0.9296     6.1270 </r>
       <r>    -7.2204     0.7853     6.2257 </r>
       <r>    -7.0948     0.4098     6.2772 </r>
       <r>    -6.9692     0.1588     6.2971 </r>
       <r>    -6.8436     1.3306     6.4643 </r>
       <r>    -6.7180     0.5375     6.5319 </r>
       <r>    -6.5924     0.2160     6.5590 </r>
       <r>    -6.4667     0.6916     6.6459 </r>
       <r>    -6.3411     0.7996     6.7463 </r>
       <r>    -6.2155     0.4328     6.8007 </r>
       <r>    -6.0899     0.5582     6.8708 </r>
       <r>    -5.9643     0.8335     6.9755 </r>
       <r>    -5.8387     0.1658     6.9965 </r>
       <r>    -5.7131     0.5520     7.0659 </r>
       <r>    -5.5874     0.9006     7.1790 </r>
       <r>    -5.4618     0.6829     7.2648 </r>
       <r>    -5.3362     0.3027     7.3029 </r>
       <r>    -5.2106     0.1044     7.3160 </r>
       <r>    -5.0850     0.3316     7.3576 </r>
       <r>    -4.9594     0.5608     7.4281 </r>
       <r>    -4.8338     0.7583     7.5234 </r>
       <r>    -4.7081     0.4202     7.5761 </r>
       <r>    -4.5825     0.3336     7.6181 </r>
       <r>    -4.4569     0.1661     7.6389 </r>
       <r>    -4.3313     1.0283     7.7681 </r>
       <r>    -4.2057     0.2983     7.8056 </r>
       <r>    -4.0801     0.1345     7.8225 </r>
       <r>    -3.9545     0.0313     7.8264 </r>
       <r>    -3.8288     0.2947     7.8634 </r>
       <r>    -3.7032     0.1268     7.8793 </r>
       <r>    -3.5776     0.4078     7.9306 </r>
       <r>    -3.4520     0.0000     7.9306 </r>
       <r>    -3.3264     0.1658     7.9514 </r>
       <r>    -3.2008     0.0000     7.9514 </r>
       <r>    -3.0752     0.0022     7.9517 </r>
       <r>    -2.9495     0.3295     7.9931 </r>
       <r>    -2.8239     0.0000     7.9931 </r>
       <r>    -2.6983     0.0000     7.9931 </r>
       <r>    -2.5727     0.0000     7.9931 </r>
       <r>    -2.4471     0.0000     7.9931 </r>
       <r>    -2.3215     0.1106     8.0069 </r>
       <r>    -2.1959     0.0000     8.0069 </r>
       <r>    -2.0702     0.0000     8.0069 </r>
       <r>    -1.9446     0.0000     8.0069 </r>
       <r>    -1.8190     0.0000     8.0069 </r>
       <r>    -1.6934     0.3317     8.0486 </r>
       <r>    -1.5678     0.0000     8.0486 </r>
       <r>    -1.4422     0.1587     8.0685 </r>
       <r>    -1.3165     0.0072     8.0694 </r>
       <r>    -1.1909     0.0001     8.0695 </r>
       <r>    -1.0653     0.7932     8.1691 </r>
       <r>    -0.9397     0.1964     8.1938 </r>
       <r>    -0.8141     0.0057     8.1945 </r>
       <r>    -0.6885     0.5960     8.2693 </r>
       <r>    -0.5629     0.6530     8.3514 </r>
       <r>    -0.4372     0.9334     8.4686 </r>
       <r>    -0.3116     0.2220     8.4965 </r>
       <r>    -0.1860     0.3194     8.5366 </r>
       <r>    -0.0604     0.3437     8.5798 </r>
       <r>     0.0652     0.2588     8.6124 </r>
       <r>     0.1908     0.0729     8.6215 </r>
       <r>     0.3164     0.7644     8.7175 </r>
       <r>     0.4421     0.2306     8.7465 </r>
       <r>     0.5677     0.0000     8.7465 </r>
       <r>     0.6933     0.3317     8.7882 </r>
       <r>     0.8189     0.3315     8.8298 </r>
       <r>     0.9445     0.1996     8.8549 </r>
       <r>     1.0701     0.3222     8.8954 </r>
       <r>     1.1957     0.5610     8.9659 </r>
       <r>     1.3214     0.6012     9.0414 </r>
       <r>     1.4470     0.3370     9.0837 </r>
       <r>     1.5726     0.1637     9.1043 </r>
       <r>     1.6982     0.7079     9.1932 </r>
       <r>     1.8238     0.4416     9.2487 </r>
       <r>     1.9494     0.6580     9.3314 </r>
       <r>     2.0750     0.7036     9.4197 </r>
       <r>     2.2007     0.5007     9.4826 </r>
       <r>     2.3263     0.6820     9.5683 </r>
       <r>     2.4519     0.6171     9.6458 </r>
       <r>     2.5775     0.8497     9.7526 </r>
       <r>     2.7031     1.1923     9.9024 </r>
       <r>     2.8287     0.6164     9.9799 </r>
       <r>     2.9543     1.1840    10.1286 </r>
       <r>     3.0800     0.8272    10.2325 </r>
       <r>     3.2056     0.6924    10.3195 </r>
       <r>     3.3312     0.8202    10.4225 </r>
       <r>     3.4568     0.8967    10.5352 </r>
       <r>     3.5824     0.8761    10.6453 </r>
       <r>     3.7080     1.0550    10.7778 </r>
       <r>     3.8337     0.7899    10.8770 </r>
       <r>     3.9593     1.0818    11.0129 </r>
       <r>     4.0849     0.7316    11.1050 </r>
       <r>     4.2105     0.3804    11.1528 </r>
       <r>     4.3361     0.6774    11.2379 </r>
       <r>     4.4617     1.4241    11.4168 </r>
       <r>     4.5873     1.3437    11.5857 </r>
       <r>     4.7130     1.6282    11.7905 </r>
       <r>     4.8386     1.5159    11.9809 </r>
       <r>     4.9642     0.9527    12.1006 </r>
       <r>     5.0898     1.7897    12.3255 </r>
       <r>     5.2154     1.9869    12.5751 </r>
       <r>     5.3410     2.1088    12.8400 </r>
       <r>     5.4666     2.6303    13.1705 </r>
       <r>     5.5923     1.6542    13.3786 </r>
       <r>     5.7179     1.7922    13.6037 </r>
       <r>     5.8435     1.9834    13.8528 </r>
       <r>     5.9691     2.6580    14.1867 </r>
       <r>     6.0947     2.3137    14.4774 </r>
       <r>     6.2203     1.9557    14.7231 </r>
       <r>     6.3459     1.9771    14.9715 </r>
       <r>     6.4716     1.9411    15.2156 </r>
       <r>     6.5972     1.0311    15.3451 </r>
       <r>     6.7228     2.2391    15.6264 </r>
       <r>     6.8484     1.6688    15.8361 </r>
       <r>     6.9740     1.7067    16.0505 </r>
       <r>     7.0996     1.4925    16.2383 </r>
       <r>     7.2252     1.8588    16.4718 </r>
       <r>     7.3509     1.3018    16.6353 </r>
       <r>     7.4765     2.1798    16.9093 </r>
       <r>     7.6021     1.9529    17.1554 </r>
       <r>     7.7277     1.2741    17.3157 </r>
       <r>     7.8533     1.9068    17.5552 </r>
       <r>     7.9789     1.6149    17.7581 </r>
       <r>     8.1045     0.6737    17.8427 </r>
       <r>     8.2302     2.1291    18.1102 </r>
       <r>     8.3558     2.6619    18.4446 </r>
       <r>     8.4814     2.2445    18.7267 </r>
       <r>     8.6070     2.9437    19.0965 </r>
       <r>     8.7326     1.1836    19.2452 </r>
       <r>     8.8582     1.2748    19.4054 </r>
       <r>     8.9839     0.6479    19.4868 </r>
       <r>     9.1095     1.7616    19.7081 </r>
       <r>     9.2351     1.8573    19.9414 </r>
       <r>     9.3607     1.3817    20.1150 </r>
       <r>     9.4863     2.0706    20.3751 </r>
       <r>     9.6119     1.4604    20.5587 </r>
       <r>     9.7375     1.6063    20.7605 </r>
       <r>     9.8632     1.9144    21.0009 </r>
       <r>     9.9888     0.7175    21.0911 </r>
       <r>    10.1144     2.7477    21.4362 </r>
       <r>    10.2400     1.5912    21.6363 </r>
       <r>    10.3656     1.5849    21.8355 </r>
       <r>    10.4912     1.8104    22.0629 </r>
       <r>    10.6168     2.2187    22.3416 </r>
       <r>    10.7425     1.8419    22.5730 </r>
       <r>    10.8681     0.9969    22.6983 </r>
       <r>    10.9937     0.9552    22.8182 </r>
       <r>    11.1193     1.7756    23.0413 </r>
       <r>    11.2449     0.7320    23.1332 </r>
       <r>    11.3705     1.2527    23.2906 </r>
       <r>    11.4961     1.1616    23.4365 </r>
       <r>    11.6218     0.3399    23.4792 </r>
       <r>    11.7474     0.8913    23.5912 </r>
       <r>    11.8730     1.3586    23.7618 </r>
       <r>    11.9986     0.4791    23.8220 </r>
       <r>    12.1242     0.2792    23.8571 </r>
       <r>    12.2498     0.1428    23.8750 </r>
       <r>    12.3754     0.0338    23.8793 </r>
       <r>    12.5011     0.3304    23.9208 </r>
       <r>    12.6267     0.2923    23.9575 </r>
       <r>    12.7523     0.3385    24.0000 </r>
       <r>    12.8779     0.0000    24.0000 </r>
       <r>    13.0035     0.0000    24.0000 </r>
       <r>    13.1291     0.0000    24.0000 </r>
       <r>    13.2547     0.0000    24.0000 </r>
       <r>    13.3804     0.0000    24.0000 </r>
       <r>    13.5060     0.0000    24.0000 </r>
       <r>    13.6316     0.0000    24.0000 </r>
       <r>    13.7572     0.0000    24.0000 </r>
       <r>    13.8828     0.0000    24.0000 </r>
       <r>    14.0084     0.0000    24.0000 </r>
       <r>    14.1340     0.0000    24.0000 </r>
       <r>    14.2597     0.0000    24.0000 </r>
       <r>    14.3853     0.0000    24.0000 </r>
      </set>
     </set>
    </array>
   </total>
  </dos>
 </calculation>
 <structure name="finalpos" >
  <crystal>
   <varray name="basis" >
    <v>       2.49867200       0.00000000       0.00000000 </v>
    <v>      -1.24933600       2.16391300       0.00000000 </v>
    <v>       0.00000000       0.00000000      15.00000000 </v>
   </varray>
   <i name="volume">     81.10363235 </i>
   <varray name="rec_basis" >
    <v>       0.40021259       0.23106289       0.00000000 </v>
    <v>       0.00000000       0.46212579       0.00000000 </v>
    <v>       0.00000000       0.00000000       0.06666667 </v>
   </varray>
  </crystal>
  <varray name="positions" >
   <v>       0.00000000       0.00000000       0.50000000 </v>
   <v>       0.33333300       0.66666700       0.50000000 </v>
  </varray>
 </structure>
</modeling>
