<?xml version="1.0" encoding="ISO-8859-1"?>
<modeling>
 <generator>
  <i name="program" type="string">vasp </i>
  <i name="version" type="string">5.4.1  </i>
  <i name="subversion" type="string">24Jun15 (build Nov 20 2020 10:29:34) complex                          parallel </i>
  <i name="platform" type="string">IFC91_ompi </i>
  <i name="date" type="string">2021 09 09 </i>
  <i name="time" type="string">14:57:10 </i>
 </generator>
 <incar>
  <i type="string" name="PREC">a</i>
  <i type="string" name="ALGO"> Normal</i>
  <i type="int" name="ISPIN">     1</i>
  <i type="int" name="ICHARG">     2</i>
  <i type="int" name="NELM">   250</i>
  <i type="int" name="NELMDL">    -5</i>
  <i type="int" name="NELMIN">     6</i>
  <i type="int" name="IBRION">     2</i>
  <i name="EDIFF">      0.00001000</i>
  <i name="EDIFFG">     -0.01000000</i>
  <i type="int" name="NSW">   200</i>
  <i type="int" name="ISIF">     2</i>
  <i name="ENCUT">    520.00000000</i>
  <i name="POTIM">      0.30000000</i>
  <i type="logical" name="LREAL"> F  </i>
  <i type="int" name="ISMEAR">     0</i>
  <i name="SIGMA">      0.02000000</i>
  <i type="logical" name="LWAVE"> F  </i>
  <i type="logical" name="LCHARG"> F  </i>
  <i type="logical" name="LAECHG"> F  </i>
  <v type="int" name="KPOINT_BSE">    -1     0     0     0</v>
  <i type="int" name="NELM">   250</i>
 </incar>
 <kpoints>
  <generation param="Gamma">
   <v type="int" name="divisions">      15       13        1 </v>
   <v name="usershift">      0.00000000       0.00000000       0.00000000 </v>
   <v name="genvec1">      0.06666667       0.00000000       0.00000000 </v>
   <v name="genvec2">      0.00000000       0.07692308       0.00000000 </v>
   <v name="genvec3">      0.00000000       0.00000000       1.00000000 </v>
   <v name="shift">      0.00000000       0.00000000       0.00000000 </v>
  </generation>
  <varray name="kpointlist" >
   <v>       0.00000000       0.00000000       0.00000000 </v>
   <v>       0.06666667       0.00000000       0.00000000 </v>
   <v>       0.13333333       0.00000000       0.00000000 </v>
   <v>       0.20000000       0.00000000       0.00000000 </v>
   <v>       0.26666667       0.00000000       0.00000000 </v>
   <v>       0.33333333       0.00000000       0.00000000 </v>
   <v>       0.40000000       0.00000000       0.00000000 </v>
   <v>       0.46666667       0.00000000       0.00000000 </v>
   <v>       0.00000000       0.07692308       0.00000000 </v>
   <v>       0.06666667       0.07692308       0.00000000 </v>
   <v>       0.13333333       0.07692308       0.00000000 </v>
   <v>       0.20000000       0.07692308       0.00000000 </v>
   <v>       0.26666667       0.07692308       0.00000000 </v>
   <v>       0.33333333       0.07692308       0.00000000 </v>
   <v>       0.40000000       0.07692308       0.00000000 </v>
   <v>       0.46666667       0.07692308       0.00000000 </v>
   <v>       0.00000000       0.15384615       0.00000000 </v>
   <v>       0.06666667       0.15384615       0.00000000 </v>
   <v>       0.13333333       0.15384615       0.00000000 </v>
   <v>       0.20000000       0.15384615       0.00000000 </v>
   <v>       0.26666667       0.15384615       0.00000000 </v>
   <v>       0.33333333       0.15384615       0.00000000 </v>
   <v>       0.40000000       0.15384615       0.00000000 </v>
   <v>       0.46666667       0.15384615       0.00000000 </v>
   <v>       0.00000000       0.23076923       0.00000000 </v>
   <v>       0.06666667       0.23076923       0.00000000 </v>
   <v>       0.13333333       0.23076923       0.00000000 </v>
   <v>       0.20000000       0.23076923       0.00000000 </v>
   <v>       0.26666667       0.23076923       0.00000000 </v>
   <v>       0.33333333       0.23076923       0.00000000 </v>
   <v>       0.40000000       0.23076923       0.00000000 </v>
   <v>       0.46666667       0.23076923       0.00000000 </v>
   <v>       0.00000000       0.30769231       0.00000000 </v>
   <v>       0.06666667       0.30769231       0.00000000 </v>
   <v>       0.13333333       0.30769231       0.00000000 </v>
   <v>       0.20000000       0.30769231       0.00000000 </v>
   <v>       0.26666667       0.30769231       0.00000000 </v>
   <v>       0.33333333       0.30769231       0.00000000 </v>
   <v>       0.40000000       0.30769231       0.00000000 </v>
   <v>       0.46666667       0.30769231       0.00000000 </v>
   <v>       0.00000000       0.38461538       0.00000000 </v>
   <v>       0.06666667       0.38461538       0.00000000 </v>
   <v>       0.13333333       0.38461538       0.00000000 </v>
   <v>       0.20000000       0.38461538       0.00000000 </v>
   <v>       0.26666667       0.38461538       0.00000000 </v>
   <v>       0.33333333       0.38461538       0.00000000 </v>
   <v>       0.40000000       0.38461538       0.00000000 </v>
   <v>       0.46666667       0.38461538       0.00000000 </v>
   <v>       0.00000000       0.46153846       0.00000000 </v>
   <v>       0.06666667       0.46153846       0.00000000 </v>
   <v>       0.13333333       0.46153846       0.00000000 </v>
   <v>       0.20000000       0.46153846       0.00000000 </v>
   <v>       0.26666667       0.46153846       0.00000000 </v>
   <v>       0.33333333       0.46153846       0.00000000 </v>
   <v>       0.40000000       0.46153846       0.00000000 </v>
   <v>       0.46666667       0.46153846       0.00000000 </v>
  </varray>
  <varray name="weights" >
   <v>       0.00512821 </v>
   <v>       0.01025641 </v>
   <v>       0.01025641 </v>
   <v>       0.01025641 </v>
   <v>       0.01025641 </v>
   <v>       0.01025641 </v>
   <v>       0.01025641 </v>
   <v>       0.01025641 </v>
   <v>       0.01025641 </v>
   <v>       0.02051282 </v>
   <v>       0.02051282 </v>
   <v>       0.02051282 </v>
   <v>       0.02051282 </v>
   <v>       0.02051282 </v>
   <v>       0.02051282 </v>
   <v>       0.02051282 </v>
   <v>       0.01025641 </v>
   <v>       0.02051282 </v>
   <v>       0.02051282 </v>
   <v>       0.02051282 </v>
   <v>       0.02051282 </v>
   <v>       0.02051282 </v>
   <v>       0.02051282 </v>
   <v>       0.02051282 </v>
   <v>       0.01025641 </v>
   <v>       0.02051282 </v>
   <v>       0.02051282 </v>
   <v>       0.02051282 </v>
   <v>       0.02051282 </v>
   <v>       0.02051282 </v>
   <v>       0.02051282 </v>
   <v>       0.02051282 </v>
   <v>       0.01025641 </v>
   <v>       0.02051282 </v>
   <v>       0.02051282 </v>
   <v>       0.02051282 </v>
   <v>       0.02051282 </v>
   <v>       0.02051282 </v>
   <v>       0.02051282 </v>
   <v>       0.02051282 </v>
   <v>       0.01025641 </v>
   <v>       0.02051282 </v>
   <v>       0.02051282 </v>
   <v>       0.02051282 </v>
   <v>       0.02051282 </v>
   <v>       0.02051282 </v>
   <v>       0.02051282 </v>
   <v>       0.02051282 </v>
   <v>       0.01025641 </v>
   <v>       0.02051282 </v>
   <v>       0.02051282 </v>
   <v>       0.02051282 </v>
   <v>       0.02051282 </v>
   <v>       0.02051282 </v>
   <v>       0.02051282 </v>
   <v>       0.02051282 </v>
  </varray>
 </kpoints>
 <parameters>
  <separator name="general" >
   <i type="string" name="SYSTEM">unknown system</i>
   <i type="logical" name="LCOMPAT"> F  </i>
  </separator>
  <separator name="electronic" >
   <i type="string" name="PREC">a</i>
   <i name="ENMAX">    520.00000000</i>
   <i name="ENAUG">    531.35600000</i>
   <i name="EDIFF">      0.00001000</i>
   <i type="int" name="IALGO">    38</i>
   <i type="int" name="IWAVPR">    11</i>
   <i type="int" name="NBANDS">    32</i>
   <i name="NELECT">     52.00000000</i>
   <i type="int" name="TURBO">     0</i>
   <i type="int" name="IRESTART">     0</i>
   <i type="int" name="NREBOOT">     0</i>
   <i type="int" name="NMIN">     0</i>
   <i name="EREF">      0.00000000</i>
   <separator name="electronic smearing" >
    <i type="int" name="ISMEAR">     0</i>
    <i name="SIGMA">      0.02000000</i>
    <i name="KSPACING">      0.50000000</i>
    <i type="logical" name="KGAMMA"> T  </i>
   </separator>
   <separator name="electronic projectors" >
    <i type="logical" name="LREAL"> F  </i>
    <v name="ROPT">      0.00000000      0.00000000</v>
    <i type="int" name="LMAXPAW">  -100</i>
    <i type="int" name="LMAXMIX">     2</i>
    <i type="logical" name="NLSPLINE"> F  </i>
   </separator>
   <separator name="electronic startup" >
    <i type="int" name="ISTART">     0</i>
    <i type="int" name="ICHARG">     2</i>
    <i type="int" name="INIWAV">     1</i>
   </separator>
   <separator name="electronic spin" >
    <i type="int" name="ISPIN">     1</i>
    <i type="logical" name="LNONCOLLINEAR"> F  </i>
    <v name="MAGMOM">      1.00000000      1.00000000      1.00000000      1.00000000      1.00000000      1.00000000</v>
    <i name="NUPDOWN">     -1.00000000</i>
    <i type="logical" name="LSORBIT"> F  </i>
    <v name="SAXIS">      0.00000000      0.00000000      1.00000000</v>
    <i type="logical" name="LSPIRAL"> F  </i>
    <v name="QSPIRAL">      0.00000000      0.00000000      0.00000000</v>
    <i type="logical" name="LZEROZ"> F  </i>
   </separator>
   <separator name="electronic exchange-correlation" >
    <i type="logical" name="LASPH"> F  </i>
    <i type="logical" name="LMETAGGA"> F  </i>
   </separator>
   <separator name="electronic convergence" >
    <i type="int" name="NELM">   250</i>
    <i type="int" name="NELMDL">    -5</i>
    <i type="int" name="NELMIN">     6</i>
    <i name="ENINI">    520.00000000</i>
    <separator name="electronic convergence detail" >
     <i type="logical" name="LDIAG"> T  </i>
     <i type="logical" name="LSUBROT"> F  </i>
     <i name="WEIMIN">      0.00100000</i>
     <i name="EBREAK">      0.00000008</i>
     <i name="DEPER">      0.30000000</i>
     <i type="int" name="NRMM">     4</i>
     <i name="TIME">      0.40000000</i>
    </separator>
   </separator>
   <separator name="electronic mixer" >
    <i name="AMIX">      0.40000000</i>
    <i name="BMIX">      1.00000000</i>
    <i name="AMIN">      0.10000000</i>
    <i name="AMIX_MAG">      1.60000000</i>
    <i name="BMIX_MAG">      1.00000000</i>
    <separator name="electronic mixer details" >
     <i type="int" name="IMIX">     4</i>
     <i type="logical" name="MIXFIRST"> F  </i>
     <i type="int" name="MAXMIX">   -45</i>
     <i name="WC">    100.00000000</i>
     <i type="int" name="INIMIX">     1</i>
     <i type="int" name="MIXPRE">     1</i>
     <i type="int" name="MREMOVE">     5</i>
    </separator>
   </separator>
   <separator name="electronic dipolcorrection" >
    <i type="logical" name="LDIPOL"> F  </i>
    <i type="logical" name="LMONO"> F  </i>
    <i type="int" name="IDIPOL">     0</i>
    <i name="EPSILON">      1.00000000</i>
    <v name="DIPOL">   -100.00000000   -100.00000000   -100.00000000</v>
    <i name="EFIELD">      0.00000000</i>
   </separator>
  </separator>
  <separator name="grids" >
   <i type="int" name="NGX">    36</i>
   <i type="int" name="NGY">    42</i>
   <i type="int" name="NGZ">   140</i>
   <i type="int" name="NGXF">    72</i>
   <i type="int" name="NGYF">    84</i>
   <i type="int" name="NGZF">   280</i>
   <i type="logical" name="ADDGRID"> F  </i>
  </separator>
  <separator name="ionic" >
   <i type="int" name="NSW">   200</i>
   <i type="int" name="IBRION">     2</i>
   <i type="int" name="ISIF">     2</i>
   <i name="PSTRESS">      0.00000000</i>
   <i name="EDIFFG">     -0.01000000</i>
   <i type="int" name="NFREE">     1</i>
   <i name="POTIM">      0.30000000</i>
   <i name="SMASS">     -3.00000000</i>
   <i name="SCALEE">      1.00000000</i>
  </separator>
  <separator name="ionic md" >
   <i name="TEBEG">      0.00010000</i>
   <i name="TEEND">      0.00010000</i>
   <i type="int" name="NBLOCK">     1</i>
   <i type="int" name="KBLOCK">   200</i>
   <i type="int" name="NPACO">   256</i>
   <i name="APACO">     16.00000000</i>
  </separator>
  <separator name="symmetry" >
   <i type="int" name="ISYM">     2</i>
   <i name="SYMPREC">      0.00001000</i>
  </separator>
  <separator name="dos" >
   <i type="logical" name="LORBIT"> F  </i>
   <v name="RWIGS">     -1.00000000     -1.00000000</v>
   <i type="int" name="NEDOS">   301</i>
   <i name="EMIN">     10.00000000</i>
   <i name="EMAX">    -10.00000000</i>
   <i name="EFERMI">      0.00000000</i>
  </separator>
  <separator name="writing" >
   <i type="int" name="NWRITE">     2</i>
   <i type="logical" name="LWAVE"> F  </i>
   <i type="logical" name="LCHARG"> F  </i>
   <i type="logical" name="LPARD"> F  </i>
   <i type="logical" name="LVTOT"> F  </i>
   <i type="logical" name="LVHAR"> F  </i>
   <i type="logical" name="LELF"> F  </i>
   <i type="logical" name="LOPTICS"> F  </i>
   <v name="STM">      0.00000000      0.00000000      0.00000000      0.00000000      0.00000000      0.00000000      0.00000000</v>
  </separator>
  <separator name="performance" >
   <i type="int" name="NPAR">     4</i>
   <i type="int" name="NSIM">     4</i>
   <i type="int" name="NBLK">    -1</i>
   <i type="logical" name="LPLANE"> T  </i>
   <i type="logical" name="LSCALAPACK"> T  </i>
   <i type="logical" name="LSCAAWARE"> F  </i>
   <i type="logical" name="LSCALU"> F  </i>
   <i type="logical" name="LASYNC"> F  </i>
   <i type="logical" name="LORBITALREAL"> F  </i>
  </separator>
  <separator name="miscellaneous" >
   <i type="int" name="IDIOT">     3</i>
   <i type="logical" name="LMUSIC"> F  </i>
   <v name="POMASS">     72.61000000     78.96000000</v>
   <v name="DARWINR">      0.00000000      0.00000000</v>
   <v name="DARWINV">      1.00000000      1.00000000</v>
   <i type="logical" name="LCORR"> T  </i>
  </separator>
  <i type="logical" name="GGA_COMPAT"> T  </i>
  <i type="logical" name="LBERRY"> F  </i>
  <i type="int" name="ICORELEVEL">     0</i>
  <i type="logical" name="LDAU"> F  </i>
  <i type="int" name="I_CONSTRAINED_M">     0</i>
  <separator name="electronic exchange-correlation" >
   <i type="string" name="GGA">--</i>
   <i type="int" name="VOSKOWN">     0</i>
   <i type="logical" name="LHFCALC"> F  </i>
   <i type="string" name="PRECFOCK"></i>
   <i type="logical" name="LSYMGRAD"> F  </i>
   <i type="logical" name="LHFONE"> F  </i>
   <i type="logical" name="LRHFCALC"> F  </i>
   <i type="logical" name="LTHOMAS"> F  </i>
   <i type="logical" name="LMODELHF"> F  </i>
   <i name="ENCUT4O">     -1.00000000</i>
   <i type="int" name="EXXOEP">     0</i>
   <i type="int" name="FOURORBIT">     0</i>
   <i name="AEXX">      0.00000000</i>
   <i name="HFALPHA">      0.00000000</i>
   <i name="MCALPHA">      0.00000000</i>
   <i name="ALDAX">      1.00000000</i>
   <i name="AGGAX">      1.00000000</i>
   <i name="ALDAC">      1.00000000</i>
   <i name="AGGAC">      1.00000000</i>
   <i type="int" name="NKREDX">     1</i>
   <i type="int" name="NKREDY">     1</i>
   <i type="int" name="NKREDZ">     1</i>
   <i type="logical" name="SHIFTRED"> F  </i>
   <i type="logical" name="ODDONLY"> F  </i>
   <i type="logical" name="EVENONLY"> F  </i>
   <i type="int" name="LMAXFOCK">     0</i>
   <i type="int" name="NMAXFOCKAE">     0</i>
   <i type="logical" name="LFOCKAEDFT"> F  </i>
   <i name="HFSCREEN">      0.00000000</i>
   <i name="HFSCREENC">      0.00000000</i>
   <i type="int" name="NBANDSGWLOW">     0</i>
  </separator>
  <separator name="vdW DFT" >
   <i type="logical" name="LUSE_VDW"> F  </i>
   <i name="Zab_VDW">     -0.84910000</i>
   <i name="PARAM1">      0.12340000</i>
   <i name="PARAM2">      1.00000000</i>
   <i name="PARAM3">      0.00000000</i>
  </separator>
  <separator name="model GW" >
   <i type="int" name="MODEL_GW">     0</i>
   <i name="MODEL_EPS0">     48.91901795</i>
   <i name="MODEL_ALPHA">      1.00000000</i>
  </separator>
  <separator name="linear response parameters" >
   <i type="logical" name="LEPSILON"> F  </i>
   <i type="logical" name="LRPA"> F  </i>
   <i type="logical" name="LNABLA"> F  </i>
   <i type="logical" name="LVEL"> F  </i>
   <i type="int" name="KINTER">     0</i>
   <i name="CSHIFT">      0.10000000</i>
   <i name="OMEGAMAX">     -1.00000000</i>
   <i name="DEG_THRESHOLD">      0.00200000</i>
  </separator>
  <separator name="orbital magnetization" >
   <i type="logical" name="NUCIND"> F  </i>
   <v name="MAGPOS">      0.00000000      0.00000000      0.00000000</v>
   <i type="logical" name="LNICSALL"> T  </i>
   <i type="logical" name="ORBITALMAG"> F  </i>
   <i type="logical" name="LMAGBLOCH"> F  </i>
   <i type="logical" name="LCHIMAG"> F  </i>
   <i type="logical" name="LGAUGE"> T  </i>
   <i type="int" name="MAGATOM">     0</i>
   <v name="MAGDIPOL">      0.00000000      0.00000000      0.00000000</v>
   <v name="AVECCONST">      0.00000000      0.00000000      0.00000000</v>
  </separator>
  <separator name="response functions" >
   <i type="logical" name="LADDER"> F  </i>
   <i type="logical" name="LFXC"> F  </i>
   <i type="logical" name="LHARTREE"> T  </i>
   <i type="int" name="IBSE">     0</i>
   <v type="int" name="KPOINT">    -1     0     0     0</v>
   <i type="logical" name="LTCTE"> F  </i>
   <i type="logical" name="LTETE"> F  </i>
   <i type="logical" name="LTRIPLET"> F  </i>
   <i type="logical" name="LFXCEPS"> F  </i>
   <i type="logical" name="LFXHEG"> F  </i>
   <i type="int" name="NATURALO">     0</i>
   <i type="logical" name="L2ORDER"> F  </i>
   <i type="logical" name="LUSEW"> F  </i>
   <i name="ENCUTGW">     -2.00000000</i>
   <i name="ENCUTGWSOFT">     -2.00000000</i>
   <i name="ENCUTLF">     -1.00000000</i>
   <i type="int" name="LMAXMP2">    -1</i>
   <i name="SCISSOR">      0.00000000</i>
   <i type="int" name="NOMEGA">     0</i>
   <i type="int" name="NOMEGAR">     0</i>
   <i type="int" name="NBANDSGW">    -1</i>
   <i type="int" name="NBANDSO">    -1</i>
   <i type="int" name="NBANDSV">    -1</i>
   <i type="int" name="NELM">   250</i>
   <i type="int" name="NELMHF">     1</i>
   <i type="int" name="DIM">     3</i>
   <i type="int" name="ANTIRES">     0</i>
   <i name="OMEGAMAX">    -30.00000000</i>
   <i name="OMEGAMIN">    -30.00000000</i>
   <i name="OMEGATL">   -200.00000000</i>
   <i type="int" name="OMEGAGRID">     0</i>
   <i name="CSHIFT">     -0.10000000</i>
   <i type="logical" name="SELFENERGY"> F  </i>
   <i type="logical" name="LSPECTRAL"> F  </i>
   <i type="logical" name="LSPECTRALGW"> F  </i>
   <i type="logical" name="LSINGLES"> F  </i>
   <i type="logical" name="LFERMIGW"> F  </i>
   <i type="logical" name="ODDONLYGW"> F  </i>
   <i type="logical" name="EVENONLYGW"> F  </i>
   <i type="int" name="NKREDLFX">     1</i>
   <i type="int" name="NKREDLFY">     1</i>
   <i type="int" name="NKREDLFZ">     1</i>
   <i type="int" name="MAXMEM">  1800</i>
   <i type="int" name="TELESCOPE">     0</i>
   <i type="int" name="TAUPAR">     1</i>
   <i type="int" name="OMEGAPAR">    -1</i>
   <i name="LAMBDA">      1.00000000</i>
  </separator>
  <separator name="External order field" >
   <i name="OFIELD_KAPPA">      0.00000000</i>
   <v name="OFIELD_K">      0.00000000      0.00000000      0.00000000</v>
   <i name="OFIELD_Q6_NEAR">      0.00000000</i>
   <i name="OFIELD_Q6_FAR">      0.00000000</i>
   <i name="OFIELD_A">      0.00000000</i>
  </separator>
 </parameters>
 <atominfo>
  <atoms>       6 </atoms>
  <types>       2 </types>
  <array name="atoms" >
   <dimension dim="1">ion</dimension>
   <field type="string">element</field>
   <field type="int">atomtype</field>
   <set>
    <rc><c>Ge</c><c>   1</c></rc>
    <rc><c>Ge</c><c>   1</c></rc>
    <rc><c>Se</c><c>   2</c></rc>
    <rc><c>Se</c><c>   2</c></rc>
    <rc><c>Se</c><c>   2</c></rc>
    <rc><c>Se</c><c>   2</c></rc>
   </set>
  </array>
  <array name="atomtypes" >
   <dimension dim="1">type</dimension>
   <field type="int">atomspertype</field>
   <field type="string">element</field>
   <field>mass</field>
   <field>valence</field>
   <field type="string">pseudopotential</field>
   <set>
    <rc><c>   2</c><c>Ge</c><c>     72.61000000</c><c>     14.00000000</c><c>  PAW_PBE Ge_d 03Jul2007                </c></rc>
    <rc><c>   4</c><c>Se</c><c>     78.96000000</c><c>      6.00000000</c><c>  PAW_PBE Se 06Sep2000                  </c></rc>
   </set>
  </array>
 </atominfo>
 <structure name="initialpos" >
  <crystal>
   <varray name="basis" >
    <v>       4.90607700       0.00000000       0.00000000 </v>
    <v>       0.00000000       5.51520900       0.00000000 </v>
    <v>       0.00000000       0.00000000      18.07929100 </v>
   </varray>
   <i name="volume">    489.19017950 </i>
   <varray name="rec_basis" >
    <v>       0.20382884       0.00000000       0.00000000 </v>
    <v>       0.00000000       0.18131679       0.00000000 </v>
    <v>       0.00000000       0.00000000       0.05531190 </v>
   </varray>
  </crystal>
  <varray name="positions" >
   <v>       0.50000000       0.50000000       0.50000000 </v>
   <v>       0.00000000       0.00000000       0.50000000 </v>
   <v>       0.25000000       0.25000000       0.41502600 </v>
   <v>       0.75000000       0.75000000       0.41502600 </v>
   <v>       0.75000000       0.25000000       0.58497400 </v>
   <v>       0.25000000       0.75000000       0.58497400 </v>
  </varray>
 </structure>
 <calculation>
  <scstep>
   <time name="dav">    1.64    1.64</time>
   <time name="total">    1.68    1.68</time>
   <energy>
    <i name="alphaZ">     46.95727429 </i>
    <i name="ewald">   5056.09718021 </i>
    <i name="hartreedc">  -9844.12551916 </i>
    <i name="XCdc">    142.57058216 </i>
    <i name="pawpsdc">   4514.43351212 </i>
    <i name="pawaedc">  -5329.26418529 </i>
    <i name="eentropy">     -0.00022285 </i>
    <i name="bandstr">   -368.95652531 </i>
    <i name="atom">   6220.98622430 </i>
    <i name="e_fr_energy">    438.69832048 </i>
    <i name="e_wo_entrp">    438.69854334 </i>
    <i name="e_0_energy">    438.69843191 </i>
   </energy>
  </scstep>
  <scstep>
   <time name="dav">    1.72    1.72</time>
   <time name="total">    1.72    1.72</time>
   <energy>
    <i name="e_fr_energy">     45.38361364 </i>
    <i name="e_wo_entrp">     45.38410682 </i>
    <i name="e_0_energy">     45.38386023 </i>
   </energy>
  </scstep>
  <scstep>
   <time name="dav">    1.86    1.86</time>
   <time name="total">    1.86    1.87</time>
   <energy>
    <i name="e_fr_energy">    -21.64814456 </i>
    <i name="e_wo_entrp">    -21.64814456 </i>
    <i name="e_0_energy">    -21.64814456 </i>
   </energy>
  </scstep>
  <scstep>
   <time name="dav">    1.65    1.65</time>
   <time name="total">    1.65    1.65</time>
   <energy>
    <i name="e_fr_energy">    -24.75544442 </i>
    <i name="e_wo_entrp">    -24.75544442 </i>
    <i name="e_0_energy">    -24.75544442 </i>
   </energy>
  </scstep>
  <scstep>
   <time name="dav">    1.99    1.99</time>
   <time name="total">    2.08    2.08</time>
   <energy>
    <i name="e_fr_energy">    -24.86253406 </i>
    <i name="e_wo_entrp">    -24.86253406 </i>
    <i name="e_0_energy">    -24.86253406 </i>
   </energy>
  </scstep>
  <scstep>
   <time name="dav">    1.89    1.89</time>
   <time name="total">    2.01    2.02</time>
   <energy>
    <i name="e_fr_energy">    -24.36391166 </i>
    <i name="e_wo_entrp">    -24.36391166 </i>
    <i name="e_0_energy">    -24.36391166 </i>
   </energy>
  </scstep>
  <scstep>
   <time name="dav">    1.71    1.71</time>
   <time name="total">    1.83    1.83</time>
   <energy>
    <i name="e_fr_energy">    -24.26587453 </i>
    <i name="e_wo_entrp">    -24.26587453 </i>
    <i name="e_0_energy">    -24.26587453 </i>
   </energy>
  </scstep>
  <scstep>
   <time name="dav">    1.82    1.82</time>
   <time name="total">    1.94    1.94</time>
   <energy>
    <i name="e_fr_energy">    -24.25980557 </i>
    <i name="e_wo_entrp">    -24.25980557 </i>
    <i name="e_0_energy">    -24.25980557 </i>
   </energy>
  </scstep>
  <scstep>
   <time name="dav">    1.82    1.82</time>
   <time name="total">    1.94    1.94</time>
   <energy>
    <i name="e_fr_energy">    -24.25920402 </i>
    <i name="e_wo_entrp">    -24.25920402 </i>
    <i name="e_0_energy">    -24.25920402 </i>
   </energy>
  </scstep>
  <scstep>
   <time name="dav">    1.93    1.93</time>
   <time name="total">    2.05    2.05</time>
   <energy>
    <i name="e_fr_energy">    -24.25895520 </i>
    <i name="e_wo_entrp">    -24.25895520 </i>
    <i name="e_0_energy">    -24.25895520 </i>
   </energy>
  </scstep>
  <scstep>
   <time name="dav">    1.56    1.56</time>
   <time name="total">    1.68    1.68</time>
   <energy>
    <i name="e_fr_energy">    -24.25872645 </i>
    <i name="e_wo_entrp">    -24.25872645 </i>
    <i name="e_0_energy">    -24.25872645 </i>
   </energy>
  </scstep>
  <scstep>
   <time name="dav">    1.53    1.53</time>
   <time name="total">    1.65    1.65</time>
   <energy>
    <i name="e_fr_energy">    -24.25886172 </i>
    <i name="e_wo_entrp">    -24.25886172 </i>
    <i name="e_0_energy">    -24.25886172 </i>
   </energy>
  </scstep>
  <scstep>
   <time name="dav">    1.49    1.49</time>
   <time name="total">    1.61    1.61</time>
   <energy>
    <i name="e_fr_energy">    -24.25913280 </i>
    <i name="e_wo_entrp">    -24.25913280 </i>
    <i name="e_0_energy">    -24.25913280 </i>
   </energy>
  </scstep>
  <scstep>
   <time name="dav">    1.41    1.41</time>
   <time name="total">    1.54    1.54</time>
   <energy>
    <i name="e_fr_energy">    -24.25923685 </i>
    <i name="e_wo_entrp">    -24.25923685 </i>
    <i name="e_0_energy">    -24.25923685 </i>
   </energy>
  </scstep>
  <scstep>
   <time name="dav">    1.40    1.40</time>
   <time name="total">    1.52    1.52</time>
   <energy>
    <i name="e_fr_energy">    -24.25929287 </i>
    <i name="e_wo_entrp">    -24.25929287 </i>
    <i name="e_0_energy">    -24.25929287 </i>
   </energy>
  </scstep>
  <scstep>
   <time name="dav">    1.34    1.34</time>
   <time name="total">    1.46    1.46</time>
   <energy>
    <i name="e_fr_energy">    -24.25935907 </i>
    <i name="e_wo_entrp">    -24.25935907 </i>
    <i name="e_0_energy">    -24.25935907 </i>
   </energy>
  </scstep>
  <scstep>
   <time name="dav">    1.25    1.25</time>
   <time name="total">    1.37    1.37</time>
   <energy>
    <i name="e_fr_energy">    -24.25940759 </i>
    <i name="e_wo_entrp">    -24.25940759 </i>
    <i name="e_0_energy">    -24.25940759 </i>
   </energy>
  </scstep>
  <scstep>
   <time name="dav">    1.30    1.30</time>
   <time name="total">    1.42    1.42</time>
   <energy>
    <i name="e_fr_energy">    -24.25943758 </i>
    <i name="e_wo_entrp">    -24.25943758 </i>
    <i name="e_0_energy">    -24.25943758 </i>
   </energy>
  </scstep>
  <scstep>
   <time name="dav">    1.32    1.32</time>
   <time name="total">    1.35    1.35</time>
   <energy>
    <i name="alphaZ">     46.95727429 </i>
    <i name="ewald">   5056.09718021 </i>
    <i name="hartreedc">  -9849.49734581 </i>
    <i name="XCdc">    143.11674687 </i>
    <i name="pawpsdc">   5794.38561277 </i>
    <i name="pawaedc">  -6614.71750788 </i>
    <i name="eentropy">     -0.00000000 </i>
    <i name="bandstr">   -821.58762736 </i>
    <i name="atom">   6220.98622430 </i>
    <i name="e_fr_energy">    -24.25944261 </i>
    <i name="e_wo_entrp">    -24.25944261 </i>
    <i name="e_0_energy">    -24.25944261 </i>
   </energy>
  </scstep>
  <structure>
   <crystal>
    <varray name="basis" >
     <v>       4.90607700       0.00000000       0.00000000 </v>
     <v>       0.00000000       5.51520900       0.00000000 </v>
     <v>       0.00000000       0.00000000      18.07929100 </v>
    </varray>
    <i name="volume">    489.19017950 </i>
    <varray name="rec_basis" >
     <v>       0.20382884       0.00000000       0.00000000 </v>
     <v>       0.00000000       0.18131679       0.00000000 </v>
     <v>       0.00000000       0.00000000       0.05531190 </v>
    </varray>
   </crystal>
   <varray name="positions" >
    <v>       0.50000000       0.50000000       0.50000000 </v>
    <v>       0.00000000       0.00000000       0.50000000 </v>
    <v>       0.25000000       0.25000000       0.41502600 </v>
    <v>       0.75000000       0.75000000       0.41502600 </v>
    <v>       0.75000000       0.25000000       0.58497400 </v>
    <v>       0.25000000       0.75000000       0.58497400 </v>
   </varray>
  </structure>
  <varray name="forces" >
   <v>      -0.00000000       0.00000000      -0.00000000 </v>
   <v>       0.00000000       0.00000000      -0.00000000 </v>
   <v>       0.00000000       0.00000000      -0.05562313 </v>
   <v>       0.00000000       0.00000000      -0.05562313 </v>
   <v>       0.00000000       0.00000000       0.05562313 </v>
   <v>       0.00000000       0.00000000       0.05562313 </v>
  </varray>
  <varray name="stress" >
   <v>       2.10697381       0.00000000       0.00000000 </v>
   <v>       0.00000000       2.62635823       0.00000000 </v>
   <v>       0.00000000       0.00000000       1.07326353 </v>
  </varray>
  <energy>
   <i name="e_fr_energy">    -24.25944261 </i>
   <i name="e_wo_entrp">    -24.25944261 </i>
   <i name="e_0_energy">     -0.00000000 </i>
  </energy>
  <time name="totalsc">   33.54   33.59</time>
 </calculation>
 <calculation>
  <scstep>
   <time name="dav">    1.36    1.36</time>
   <time name="total">    1.48    1.48</time>
   <energy>
    <i name="alphaZ">     46.95727429 </i>
    <i name="ewald">   5052.38148526 </i>
    <i name="hartreedc">  -9845.90263496 </i>
    <i name="XCdc">    143.10176152 </i>
    <i name="pawpsdc">   5794.37025478 </i>
    <i name="pawaedc">  -6614.70229263 </i>
    <i name="eentropy">     -0.00000000 </i>
    <i name="bandstr">   -821.45176940 </i>
    <i name="atom">   6220.98622430 </i>
    <i name="e_fr_energy">    -24.25969683 </i>
    <i name="e_wo_entrp">    -24.25969683 </i>
    <i name="e_0_energy">    -24.25969683 </i>
   </energy>
  </scstep>
  <scstep>
   <time name="dav">    1.56    1.56</time>
   <time name="total">    1.68    1.69</time>
   <energy>
    <i name="e_fr_energy">    -24.25974220 </i>
    <i name="e_wo_entrp">    -24.25974220 </i>
    <i name="e_0_energy">    -24.25974220 </i>
   </energy>
  </scstep>
  <scstep>
   <time name="dav">    1.31    1.31</time>
   <time name="total">    1.43    1.43</time>
   <energy>
    <i name="e_fr_energy">    -24.25973987 </i>
    <i name="e_wo_entrp">    -24.25973987 </i>
    <i name="e_0_energy">    -24.25973987 </i>
   </energy>
  </scstep>
  <scstep>
   <time name="dav">    1.23    1.23</time>
   <time name="total">    1.35    1.35</time>
   <energy>
    <i name="e_fr_energy">    -24.25973865 </i>
    <i name="e_wo_entrp">    -24.25973865 </i>
    <i name="e_0_energy">    -24.25973865 </i>
   </energy>
  </scstep>
  <scstep>
   <time name="dav">    1.15    1.15</time>
   <time name="total">    1.27    1.28</time>
   <energy>
    <i name="e_fr_energy">    -24.25973820 </i>
    <i name="e_wo_entrp">    -24.25973820 </i>
    <i name="e_0_energy">    -24.25973820 </i>
   </energy>
  </scstep>
  <scstep>
   <time name="dav">    1.13    1.13</time>
   <time name="total">    1.16    1.16</time>
   <energy>
    <i name="alphaZ">     46.95727429 </i>
    <i name="ewald">   5052.38148526 </i>
    <i name="hartreedc">  -9845.90205435 </i>
    <i name="XCdc">    143.10368061 </i>
    <i name="pawpsdc">   5790.41364925 </i>
    <i name="pawaedc">  -6610.71967375 </i>
    <i name="eentropy">     -0.00000000 </i>
    <i name="bandstr">   -821.48032370 </i>
    <i name="atom">   6220.98622430 </i>
    <i name="e_fr_energy">    -24.25973811 </i>
    <i name="e_wo_entrp">    -24.25973811 </i>
    <i name="e_0_energy">    -24.25973811 </i>
   </energy>
  </scstep>
  <structure>
   <crystal>
    <varray name="basis" >
     <v>       4.90607700       0.00000000       0.00000000 </v>
     <v>       0.00000000       5.51520900       0.00000000 </v>
     <v>       0.00000000       0.00000000      18.07929100 </v>
    </varray>
    <i name="volume">    489.19017950 </i>
    <varray name="rec_basis" >
     <v>       0.20382884       0.00000000       0.00000000 </v>
     <v>       0.00000000       0.18131679       0.00000000 </v>
     <v>       0.00000000       0.00000000       0.05531190 </v>
    </varray>
   </crystal>
   <varray name="positions" >
    <v>       0.50000000       0.50000000       0.50000000 </v>
    <v>       0.00000000       0.00000000       0.50000000 </v>
    <v>       0.25000000       0.25000000       0.41493695 </v>
    <v>       0.75000000       0.75000000       0.41493695 </v>
    <v>       0.75000000       0.25000000       0.58506305 </v>
    <v>       0.25000000       0.75000000       0.58506305 </v>
   </varray>
  </structure>
  <varray name="forces" >
   <v>       0.00000000      -0.00000000       0.00000000 </v>
   <v>      -0.00000000      -0.00000000       0.00000000 </v>
   <v>      -0.00000000       0.00000000      -0.03671364 </v>
   <v>      -0.00000000      -0.00000000      -0.03671364 </v>
   <v>       0.00000000       0.00000000       0.03671364 </v>
   <v>       0.00000000      -0.00000000       0.03671364 </v>
  </varray>
  <varray name="stress" >
   <v>       2.00331206       0.00000000       0.00000000 </v>
   <v>       0.00000000       2.50750707       0.00000000 </v>
   <v>       0.00000000       0.00000000       0.69713779 </v>
  </varray>
  <energy>
   <i name="e_fr_energy">    -24.25973811 </i>
   <i name="e_wo_entrp">    -24.25973811 </i>
   <i name="e_0_energy">     -0.00000000 </i>
  </energy>
  <time name="totalsc">    9.54    9.55</time>
 </calculation>
 <calculation>
  <scstep>
   <time name="dav">    1.46    1.46</time>
   <time name="total">    1.58    1.58</time>
   <energy>
    <i name="alphaZ">     46.95727429 </i>
    <i name="ewald">   5045.16756699 </i>
    <i name="hartreedc">  -9838.92866960 </i>
    <i name="XCdc">    143.07466298 </i>
    <i name="pawpsdc">   5790.39266322 </i>
    <i name="pawaedc">  -6610.69870544 </i>
    <i name="eentropy">     -0.00000000 </i>
    <i name="bandstr">   -821.21081478 </i>
    <i name="atom">   6220.98622430 </i>
    <i name="e_fr_energy">    -24.25979804 </i>
    <i name="e_wo_entrp">    -24.25979804 </i>
    <i name="e_0_energy">    -24.25979804 </i>
   </energy>
  </scstep>
  <scstep>
   <time name="dav">    1.67    1.67</time>
   <time name="total">    1.79    1.80</time>
   <energy>
    <i name="e_fr_energy">    -24.25997060 </i>
    <i name="e_wo_entrp">    -24.25997060 </i>
    <i name="e_0_energy">    -24.25997060 </i>
   </energy>
  </scstep>
  <scstep>
   <time name="dav">    1.49    1.49</time>
   <time name="total">    1.61    1.61</time>
   <energy>
    <i name="e_fr_energy">    -24.25996359 </i>
    <i name="e_wo_entrp">    -24.25996359 </i>
    <i name="e_0_energy">    -24.25996359 </i>
   </energy>
  </scstep>
  <scstep>
   <time name="dav">    1.28    1.28</time>
   <time name="total">    1.40    1.40</time>
   <energy>
    <i name="e_fr_energy">    -24.25996054 </i>
    <i name="e_wo_entrp">    -24.25996054 </i>
    <i name="e_0_energy">    -24.25996054 </i>
   </energy>
  </scstep>
  <scstep>
   <time name="dav">    1.18    1.18</time>
   <time name="total">    1.29    1.30</time>
   <energy>
    <i name="e_fr_energy">    -24.25995926 </i>
    <i name="e_wo_entrp">    -24.25995926 </i>
    <i name="e_0_energy">    -24.25995926 </i>
   </energy>
  </scstep>
  <scstep>
   <time name="dav">    1.08    1.08</time>
   <time name="total">    1.11    1.11</time>
   <energy>
    <i name="alphaZ">     46.95727429 </i>
    <i name="ewald">   5045.16756699 </i>
    <i name="hartreedc">  -9838.93495826 </i>
    <i name="XCdc">    143.07842457 </i>
    <i name="pawpsdc">   5782.77857200 </i>
    <i name="pawaedc">  -6603.03447964 </i>
    <i name="eentropy">     -0.00000000 </i>
    <i name="bandstr">   -821.25858344 </i>
    <i name="atom">   6220.98622430 </i>
    <i name="e_fr_energy">    -24.25995919 </i>
    <i name="e_wo_entrp">    -24.25995919 </i>
    <i name="e_0_energy">    -24.25995919 </i>
   </energy>
  </scstep>
  <structure>
   <crystal>
    <varray name="basis" >
     <v>       4.90607700       0.00000000       0.00000000 </v>
     <v>       0.00000000       5.51520900       0.00000000 </v>
     <v>       0.00000000       0.00000000      18.07929100 </v>
    </varray>
    <i name="volume">    489.19017950 </i>
    <varray name="rec_basis" >
     <v>       0.20382884       0.00000000       0.00000000 </v>
     <v>       0.00000000       0.18131679       0.00000000 </v>
     <v>       0.00000000       0.00000000       0.05531190 </v>
    </varray>
   </crystal>
   <varray name="positions" >
    <v>       0.50000000       0.50000000       0.50000000 </v>
    <v>       0.00000000       0.00000000       0.50000000 </v>
    <v>       0.25000000       0.25000000       0.41476404 </v>
    <v>       0.75000000       0.75000000       0.41476404 </v>
    <v>       0.75000000       0.25000000       0.58523596 </v>
    <v>       0.25000000       0.75000000       0.58523596 </v>
   </varray>
  </structure>
  <varray name="forces" >
   <v>       0.00000000      -0.00000000       0.00000000 </v>
   <v>       0.00000000      -0.00000000      -0.00000000 </v>
   <v>       0.00000000      -0.00000000      -0.00000304 </v>
   <v>       0.00000000       0.00000000      -0.00000304 </v>
   <v>      -0.00000000       0.00000000       0.00000304 </v>
   <v>       0.00000000      -0.00000000       0.00000304 </v>
  </varray>
  <varray name="stress" >
   <v>       1.80833539       0.00000000       0.00000000 </v>
   <v>       0.00000000       2.28599643       0.00000000 </v>
   <v>       0.00000000       0.00000000      -0.02825086 </v>
  </varray>
  <energy>
   <i name="e_fr_energy">    -24.25995919 </i>
   <i name="e_wo_entrp">    -24.25995919 </i>
   <i name="e_0_energy">     -0.00000000 </i>
  </energy>
  <time name="totalsc">    9.89    9.90</time>
  <eigenvalues>
   <array>
    <dimension dim="1">band</dimension>
    <dimension dim="2">kpoint</dimension>
    <dimension dim="3">spin</dimension>
    <field>eigene</field>
    <field>occ</field>
    <set>
     <set comment="spin 1">
      <set comment="kpoint 1">
       <r>  -27.7546    1.0000 </r>
       <r>  -27.7503    1.0000 </r>
       <r>  -27.7502    1.0000 </r>
       <r>  -27.7418    1.0000 </r>
       <r>  -27.7405    1.0000 </r>
       <r>  -27.7271    1.0000 </r>
       <r>  -27.7219    1.0000 </r>
       <r>  -27.7218    1.0000 </r>
       <r>  -27.7095    1.0000 </r>
       <r>  -27.7034    1.0000 </r>
       <r>  -16.9107    1.0000 </r>
       <r>  -15.3899    1.0000 </r>
       <r>  -14.9252    1.0000 </r>
       <r>  -14.7306    1.0000 </r>
       <r>  -11.7578    1.0000 </r>
       <r>   -9.2040    1.0000 </r>
       <r>   -7.4541    1.0000 </r>
       <r>   -5.8665    1.0000 </r>
       <r>   -5.4991    1.0000 </r>
       <r>   -5.3699    1.0000 </r>
       <r>   -5.1635    1.0000 </r>
       <r>   -5.1273    1.0000 </r>
       <r>   -4.6555    1.0000 </r>
       <r>   -4.1557    1.0000 </r>
       <r>   -2.7851    1.0000 </r>
       <r>   -2.7331    1.0000 </r>
       <r>   -1.7446    0.0000 </r>
       <r>   -1.3531    0.0000 </r>
       <r>   -0.8311    0.0000 </r>
       <r>    0.1709    0.0000 </r>
       <r>    0.6597    0.0000 </r>
       <r>    1.9719    0.0000 </r>
      </set>
      <set comment="kpoint 2">
       <r>  -27.7545    1.0000 </r>
       <r>  -27.7503    1.0000 </r>
       <r>  -27.7501    1.0000 </r>
       <r>  -27.7419    1.0000 </r>
       <r>  -27.7405    1.0000 </r>
       <r>  -27.7270    1.0000 </r>
       <r>  -27.7221    1.0000 </r>
       <r>  -27.7219    1.0000 </r>
       <r>  -27.7094    1.0000 </r>
       <r>  -27.7035    1.0000 </r>
       <r>  -16.8939    1.0000 </r>
       <r>  -15.3833    1.0000 </r>
       <r>  -14.9282    1.0000 </r>
       <r>  -14.7707    1.0000 </r>
       <r>  -11.7141    1.0000 </r>
       <r>   -9.2183    1.0000 </r>
       <r>   -7.4521    1.0000 </r>
       <r>   -5.8607    1.0000 </r>
       <r>   -5.5880    1.0000 </r>
       <r>   -5.4504    1.0000 </r>
       <r>   -5.2261    1.0000 </r>
       <r>   -5.0300    1.0000 </r>
       <r>   -4.6507    1.0000 </r>
       <r>   -4.1398    1.0000 </r>
       <r>   -2.8460    1.0000 </r>
       <r>   -2.7649    1.0000 </r>
       <r>   -1.6439    0.0000 </r>
       <r>   -1.3483    0.0000 </r>
       <r>   -0.7176    0.0000 </r>
       <r>    0.2199    0.0000 </r>
       <r>    0.7061    0.0000 </r>
       <r>    2.0036    0.0000 </r>
      </set>
      <set comment="kpoint 3">
       <r>  -27.7541    1.0000 </r>
       <r>  -27.7501    1.0000 </r>
       <r>  -27.7495    1.0000 </r>
       <r>  -27.7424    1.0000 </r>
       <r>  -27.7404    1.0000 </r>
       <r>  -27.7268    1.0000 </r>
       <r>  -27.7229    1.0000 </r>
       <r>  -27.7220    1.0000 </r>
       <r>  -27.7092    1.0000 </r>
       <r>  -27.7037    1.0000 </r>
       <r>  -16.8437    1.0000 </r>
       <r>  -15.3638    1.0000 </r>
       <r>  -14.9374    1.0000 </r>
       <r>  -14.8839    1.0000 </r>
       <r>  -11.5900    1.0000 </r>
       <r>   -9.2629    1.0000 </r>
       <r>   -7.4451    1.0000 </r>
       <r>   -5.8401    1.0000 </r>
       <r>   -5.7406    1.0000 </r>
       <r>   -5.6566    1.0000 </r>
       <r>   -5.3879    1.0000 </r>
       <r>   -4.8562    1.0000 </r>
       <r>   -4.6549    1.0000 </r>
       <r>   -4.0941    1.0000 </r>
       <r>   -3.0035    1.0000 </r>
       <r>   -2.8515    1.0000 </r>
       <r>   -1.3844    0.0000 </r>
       <r>   -1.3223    0.0000 </r>
       <r>   -0.3992    0.0000 </r>
       <r>    0.3570    0.0000 </r>
       <r>    0.8348    0.0000 </r>
       <r>    2.0549    0.0000 </r>
      </set>
      <set comment="kpoint 4">
       <r>  -27.7534    1.0000 </r>
       <r>  -27.7498    1.0000 </r>
       <r>  -27.7488    1.0000 </r>
       <r>  -27.7430    1.0000 </r>
       <r>  -27.7403    1.0000 </r>
       <r>  -27.7265    1.0000 </r>
       <r>  -27.7243    1.0000 </r>
       <r>  -27.7222    1.0000 </r>
       <r>  -27.7089    1.0000 </r>
       <r>  -27.7040    1.0000 </r>
       <r>  -16.7609    1.0000 </r>
       <r>  -15.3327    1.0000 </r>
       <r>  -15.0524    1.0000 </r>
       <r>  -14.9532    1.0000 </r>
       <r>  -11.4021    1.0000 </r>
       <r>   -9.3430    1.0000 </r>
       <r>   -7.4292    1.0000 </r>
       <r>   -5.9278    1.0000 </r>
       <r>   -5.8829    1.0000 </r>
       <r>   -5.7979    1.0000 </r>
       <r>   -5.5944    1.0000 </r>
       <r>   -4.6907    1.0000 </r>
       <r>   -4.6882    1.0000 </r>
       <r>   -4.0238    1.0000 </r>
       <r>   -3.2160    1.0000 </r>
       <r>   -2.9730    1.0000 </r>
       <r>   -1.2517    0.0000 </r>
       <r>   -1.0447    0.0000 </r>
       <r>    0.0765    0.0000 </r>
       <r>    0.5580    0.0000 </r>
       <r>    1.0129    0.0000 </r>
       <r>    1.8827    0.0000 </r>
      </set>
      <set comment="kpoint 5">
       <r>  -27.7525    1.0000 </r>
       <r>  -27.7494    1.0000 </r>
       <r>  -27.7481    1.0000 </r>
       <r>  -27.7440    1.0000 </r>
       <r>  -27.7398    1.0000 </r>
       <r>  -27.7260    1.0000 </r>
       <r>  -27.7260    1.0000 </r>
       <r>  -27.7225    1.0000 </r>
       <r>  -27.7085    1.0000 </r>
       <r>  -27.7044    1.0000 </r>
       <r>  -16.6469    1.0000 </r>
       <r>  -15.2920    1.0000 </r>
       <r>  -15.2565    1.0000 </r>
       <r>  -14.9763    1.0000 </r>
       <r>  -11.1690    1.0000 </r>
       <r>   -9.4643    1.0000 </r>
       <r>   -7.3983    1.0000 </r>
       <r>   -6.2181    1.0000 </r>
       <r>   -5.9987    1.0000 </r>
       <r>   -5.7961    1.0000 </r>
       <r>   -5.7276    1.0000 </r>
       <r>   -4.7662    1.0000 </r>
       <r>   -4.5468    1.0000 </r>
       <r>   -3.9349    1.0000 </r>
       <r>   -3.4498    1.0000 </r>
       <r>   -3.1090    1.0000 </r>
       <r>   -1.1201    0.0000 </r>
       <r>   -0.7006    0.0000 </r>
       <r>    0.6619    0.0000 </r>
       <r>    0.7933    0.0000 </r>
       <r>    1.1884    0.0000 </r>
       <r>    1.7129    0.0000 </r>
      </set>
      <set comment="kpoint 6">
       <r>  -27.7515    1.0000 </r>
       <r>  -27.7490    1.0000 </r>
       <r>  -27.7476    1.0000 </r>
       <r>  -27.7450    1.0000 </r>
       <r>  -27.7388    1.0000 </r>
       <r>  -27.7281    1.0000 </r>
       <r>  -27.7255    1.0000 </r>
       <r>  -27.7229    1.0000 </r>
       <r>  -27.7080    1.0000 </r>
       <r>  -27.7049    1.0000 </r>
       <r>  -16.5037    1.0000 </r>
       <r>  -15.4791    1.0000 </r>
       <r>  -15.2443    1.0000 </r>
       <r>  -15.0071    1.0000 </r>
       <r>  -10.9071    1.0000 </r>
       <r>   -9.6304    1.0000 </r>
       <r>   -7.3439    1.0000 </r>
       <r>   -6.4981    1.0000 </r>
       <r>   -6.0841    1.0000 </r>
       <r>   -5.9614    1.0000 </r>
       <r>   -5.6265    1.0000 </r>
       <r>   -4.8798    1.0000 </r>
       <r>   -4.4304    1.0000 </r>
       <r>   -3.8335    1.0000 </r>
       <r>   -3.6795    1.0000 </r>
       <r>   -3.2445    1.0000 </r>
       <r>   -0.9302    0.0000 </r>
       <r>   -0.4259    0.0000 </r>
       <r>    1.0287    0.0000 </r>
       <r>    1.3102    0.0000 </r>
       <r>    1.3156    0.0000 </r>
       <r>    1.5751    0.0000 </r>
      </set>
      <set comment="kpoint 7">
       <r>  -27.7502    1.0000 </r>
       <r>  -27.7485    1.0000 </r>
       <r>  -27.7475    1.0000 </r>
       <r>  -27.7463    1.0000 </r>
       <r>  -27.7372    1.0000 </r>
       <r>  -27.7304    1.0000 </r>
       <r>  -27.7250    1.0000 </r>
       <r>  -27.7233    1.0000 </r>
       <r>  -27.7074    1.0000 </r>
       <r>  -27.7055    1.0000 </r>
       <r>  -16.3340    1.0000 </r>
       <r>  -15.7072    1.0000 </r>
       <r>  -15.1927    1.0000 </r>
       <r>  -15.0455    1.0000 </r>
       <r>  -10.6304    1.0000 </r>
       <r>   -9.8394    1.0000 </r>
       <r>   -7.2574    1.0000 </r>
       <r>   -6.7496    1.0000 </r>
       <r>   -6.1380    1.0000 </r>
       <r>   -6.0764    1.0000 </r>
       <r>   -5.4970    1.0000 </r>
       <r>   -5.0231    1.0000 </r>
       <r>   -4.3234    1.0000 </r>
       <r>   -3.8873    1.0000 </r>
       <r>   -3.7245    1.0000 </r>
       <r>   -3.3730    1.0000 </r>
       <r>   -0.7049    0.0000 </r>
       <r>   -0.2904    0.0000 </r>
       <r>    1.2274    0.0000 </r>
       <r>    1.3656    0.0000 </r>
       <r>    1.4659    0.0000 </r>
       <r>    1.5208    0.0000 </r>
      </set>
      <set comment="kpoint 8">
       <r>  -27.7489    1.0000 </r>
       <r>  -27.7481    1.0000 </r>
       <r>  -27.7477    1.0000 </r>
       <r>  -27.7476    1.0000 </r>
       <r>  -27.7352    1.0000 </r>
       <r>  -27.7328    1.0000 </r>
       <r>  -27.7244    1.0000 </r>
       <r>  -27.7238    1.0000 </r>
       <r>  -27.7068    1.0000 </r>
       <r>  -27.7061    1.0000 </r>
       <r>  -16.1414    1.0000 </r>
       <r>  -15.9305    1.0000 </r>
       <r>  -15.1405    1.0000 </r>
       <r>  -15.0906    1.0000 </r>
       <r>  -10.3516    1.0000 </r>
       <r>  -10.0837    1.0000 </r>
       <r>   -7.1315    1.0000 </r>
       <r>   -6.9623    1.0000 </r>
       <r>   -6.1582    1.0000 </r>
       <r>   -6.1400    1.0000 </r>
       <r>   -5.3457    1.0000 </r>
       <r>   -5.1833    1.0000 </r>
       <r>   -4.2063    1.0000 </r>
       <r>   -4.0634    1.0000 </r>
       <r>   -3.6111    1.0000 </r>
       <r>   -3.4944    1.0000 </r>
       <r>   -0.4836    0.0000 </r>
       <r>   -0.3228    0.0000 </r>
       <r>    1.3626    0.0000 </r>
       <r>    1.3854    0.0000 </r>
       <r>    1.4100    0.0000 </r>
       <r>    1.4426    0.0000 </r>
      </set>
      <set comment="kpoint 9">
       <r>  -27.7545    1.0000 </r>
       <r>  -27.7502    1.0000 </r>
       <r>  -27.7501    1.0000 </r>
       <r>  -27.7418    1.0000 </r>
       <r>  -27.7406    1.0000 </r>
       <r>  -27.7270    1.0000 </r>
       <r>  -27.7222    1.0000 </r>
       <r>  -27.7219    1.0000 </r>
       <r>  -27.7094    1.0000 </r>
       <r>  -27.7035    1.0000 </r>
       <r>  -16.8915    1.0000 </r>
       <r>  -15.3807    1.0000 </r>
       <r>  -14.9773    1.0000 </r>
       <r>  -14.7404    1.0000 </r>
       <r>  -11.6938    1.0000 </r>
       <r>   -9.2208    1.0000 </r>
       <r>   -7.4405    1.0000 </r>
       <r>   -5.8923    1.0000 </r>
       <r>   -5.4909    1.0000 </r>
       <r>   -5.4327    1.0000 </r>
       <r>   -5.2519    1.0000 </r>
       <r>   -5.0903    1.0000 </r>
       <r>   -4.6498    1.0000 </r>
       <r>   -4.1244    1.0000 </r>
       <r>   -2.8167    1.0000 </r>
       <r>   -2.8054    1.0000 </r>
       <r>   -1.6255    0.0000 </r>
       <r>   -1.3297    0.0000 </r>
       <r>   -0.6973    0.0000 </r>
       <r>    0.1905    0.0000 </r>
       <r>    0.6961    0.0000 </r>
       <r>    2.0019    0.0000 </r>
      </set>
      <set comment="kpoint 10">
       <r>  -27.7544    1.0000 </r>
       <r>  -27.7501    1.0000 </r>
       <r>  -27.7499    1.0000 </r>
       <r>  -27.7419    1.0000 </r>
       <r>  -27.7406    1.0000 </r>
       <r>  -27.7269    1.0000 </r>
       <r>  -27.7225    1.0000 </r>
       <r>  -27.7219    1.0000 </r>
       <r>  -27.7093    1.0000 </r>
       <r>  -27.7036    1.0000 </r>
       <r>  -16.8749    1.0000 </r>
       <r>  -15.3743    1.0000 </r>
       <r>  -14.9842    1.0000 </r>
       <r>  -14.7735    1.0000 </r>
       <r>  -11.6543    1.0000 </r>
       <r>   -9.2366    1.0000 </r>
       <r>   -7.4353    1.0000 </r>
       <r>   -5.9007    1.0000 </r>
       <r>   -5.5789    1.0000 </r>
       <r>   -5.5607    1.0000 </r>
       <r>   -5.2169    1.0000 </r>
       <r>   -4.9992    1.0000 </r>
       <r>   -4.6539    1.0000 </r>
       <r>   -4.1096    1.0000 </r>
       <r>   -2.9548    1.0000 </r>
       <r>   -2.7421    1.0000 </r>
       <r>   -1.5843    0.0000 </r>
       <r>   -1.3235    0.0000 </r>
       <r>   -0.5608    0.0000 </r>
       <r>    0.2376    0.0000 </r>
       <r>    0.7413    0.0000 </r>
       <r>    1.9880    0.0000 </r>
      </set>
      <set comment="kpoint 11">
       <r>  -27.7540    1.0000 </r>
       <r>  -27.7499    1.0000 </r>
       <r>  -27.7494    1.0000 </r>
       <r>  -27.7423    1.0000 </r>
       <r>  -27.7405    1.0000 </r>
       <r>  -27.7267    1.0000 </r>
       <r>  -27.7234    1.0000 </r>
       <r>  -27.7219    1.0000 </r>
       <r>  -27.7091    1.0000 </r>
       <r>  -27.7038    1.0000 </r>
       <r>  -16.8252    1.0000 </r>
       <r>  -15.3553    1.0000 </r>
       <r>  -15.0145    1.0000 </r>
       <r>  -14.8573    1.0000 </r>
       <r>  -11.5418    1.0000 </r>
       <r>   -9.2858    1.0000 </r>
       <r>   -7.4191    1.0000 </r>
       <r>   -5.9372    1.0000 </r>
       <r>   -5.8362    1.0000 </r>
       <r>   -5.6557    1.0000 </r>
       <r>   -5.2661    1.0000 </r>
       <r>   -4.8306    1.0000 </r>
       <r>   -4.6700    1.0000 </r>
       <r>   -4.0657    1.0000 </r>
       <r>   -3.1467    1.0000 </r>
       <r>   -2.7593    1.0000 </r>
       <r>   -1.4333    0.0000 </r>
       <r>   -1.2949    0.0000 </r>
       <r>   -0.2082    0.0000 </r>
       <r>    0.3689    0.0000 </r>
       <r>    0.8678    0.0000 </r>
       <r>    1.8720    0.0000 </r>
      </set>
      <set comment="kpoint 12">
       <r>  -27.7535    1.0000 </r>
       <r>  -27.7495    1.0000 </r>
       <r>  -27.7488    1.0000 </r>
       <r>  -27.7429    1.0000 </r>
       <r>  -27.7403    1.0000 </r>
       <r>  -27.7264    1.0000 </r>
       <r>  -27.7247    1.0000 </r>
       <r>  -27.7221    1.0000 </r>
       <r>  -27.7088    1.0000 </r>
       <r>  -27.7041    1.0000 </r>
       <r>  -16.7434    1.0000 </r>
       <r>  -15.3252    1.0000 </r>
       <r>  -15.1112    1.0000 </r>
       <r>  -14.9342    1.0000 </r>
       <r>  -11.3702    1.0000 </r>
       <r>   -9.3727    1.0000 </r>
       <r>   -7.3901    1.0000 </r>
       <r>   -6.1080    1.0000 </r>
       <r>   -6.0122    1.0000 </r>
       <r>   -5.6850    1.0000 </r>
       <r>   -5.4174    1.0000 </r>
       <r>   -4.7153    1.0000 </r>
       <r>   -4.6671    1.0000 </r>
       <r>   -3.9946    1.0000 </r>
       <r>   -3.3591    1.0000 </r>
       <r>   -2.8461    1.0000 </r>
       <r>   -1.2227    0.0000 </r>
       <r>   -1.1710    0.0000 </r>
       <r>    0.2718    0.0000 </r>
       <r>    0.5590    0.0000 </r>
       <r>    1.0461    0.0000 </r>
       <r>    1.7079    0.0000 </r>
      </set>
      <set comment="kpoint 13">
       <r>  -27.7527    1.0000 </r>
       <r>  -27.7491    1.0000 </r>
       <r>  -27.7483    1.0000 </r>
       <r>  -27.7437    1.0000 </r>
       <r>  -27.7398    1.0000 </r>
       <r>  -27.7265    1.0000 </r>
       <r>  -27.7259    1.0000 </r>
       <r>  -27.7224    1.0000 </r>
       <r>  -27.7084    1.0000 </r>
       <r>  -27.7044    1.0000 </r>
       <r>  -16.6309    1.0000 </r>
       <r>  -15.2859    1.0000 </r>
       <r>  -15.2853    1.0000 </r>
       <r>  -14.9761    1.0000 </r>
       <r>  -11.1553    1.0000 </r>
       <r>   -9.5019    1.0000 </r>
       <r>   -7.3454    1.0000 </r>
       <r>   -6.3610    1.0000 </r>
       <r>   -6.0934    1.0000 </r>
       <r>   -5.6555    1.0000 </r>
       <r>   -5.6163    1.0000 </r>
       <r>   -4.8019    1.0000 </r>
       <r>   -4.5313    1.0000 </r>
       <r>   -3.9007    1.0000 </r>
       <r>   -3.5689    1.0000 </r>
       <r>   -2.9743    1.0000 </r>
       <r>   -1.0934    0.0000 </r>
       <r>   -0.8561    0.0000 </r>
       <r>    0.7772    0.0000 </r>
       <r>    0.8171    0.0000 </r>
       <r>    1.2287    0.0000 </r>
       <r>    1.5611    0.0000 </r>
      </set>
      <set comment="kpoint 14">
       <r>  -27.7518    1.0000 </r>
       <r>  -27.7485    1.0000 </r>
       <r>  -27.7481    1.0000 </r>
       <r>  -27.7445    1.0000 </r>
       <r>  -27.7389    1.0000 </r>
       <r>  -27.7285    1.0000 </r>
       <r>  -27.7254    1.0000 </r>
       <r>  -27.7227    1.0000 </r>
       <r>  -27.7079    1.0000 </r>
       <r>  -27.7049    1.0000 </r>
       <r>  -16.4898    1.0000 </r>
       <r>  -15.4931    1.0000 </r>
       <r>  -15.2400    1.0000 </r>
       <r>  -15.0110    1.0000 </r>
       <r>  -10.9118    1.0000 </r>
       <r>   -9.6745    1.0000 </r>
       <r>   -7.2809    1.0000 </r>
       <r>   -6.5830    1.0000 </r>
       <r>   -6.1508    1.0000 </r>
       <r>   -5.8141    1.0000 </r>
       <r>   -5.5877    1.0000 </r>
       <r>   -4.9258    1.0000 </r>
       <r>   -4.4203    1.0000 </r>
       <r>   -3.7906    1.0000 </r>
       <r>   -3.7620    1.0000 </r>
       <r>   -3.1196    1.0000 </r>
       <r>   -0.9121    0.0000 </r>
       <r>   -0.5724    0.0000 </r>
       <r>    0.9900    0.0000 </r>
       <r>    1.3246    0.0000 </r>
       <r>    1.3655    0.0000 </r>
       <r>    1.5230    0.0000 </r>
      </set>
      <set comment="kpoint 15">
       <r>  -27.7509    1.0000 </r>
       <r>  -27.7483    1.0000 </r>
       <r>  -27.7478    1.0000 </r>
       <r>  -27.7454    1.0000 </r>
       <r>  -27.7373    1.0000 </r>
       <r>  -27.7308    1.0000 </r>
       <r>  -27.7248    1.0000 </r>
       <r>  -27.7232    1.0000 </r>
       <r>  -27.7073    1.0000 </r>
       <r>  -27.7055    1.0000 </r>
       <r>  -16.3229    1.0000 </r>
       <r>  -15.7116    1.0000 </r>
       <r>  -15.1905    1.0000 </r>
       <r>  -15.0493    1.0000 </r>
       <r>  -10.6518    1.0000 </r>
       <r>   -9.8860    1.0000 </r>
       <r>   -7.1928    1.0000 </r>
       <r>   -6.7741    1.0000 </r>
       <r>   -6.1733    1.0000 </r>
       <r>   -5.9782    1.0000 </r>
       <r>   -5.4899    1.0000 </r>
       <r>   -5.0725    1.0000 </r>
       <r>   -4.3185    1.0000 </r>
       <r>   -3.9335    1.0000 </r>
       <r>   -3.6699    1.0000 </r>
       <r>   -3.2664    1.0000 </r>
       <r>   -0.7044    0.0000 </r>
       <r>   -0.4035    0.0000 </r>
       <r>    1.1680    0.0000 </r>
       <r>    1.3882    0.0000 </r>
       <r>    1.4357    0.0000 </r>
       <r>    1.5757    0.0000 </r>
      </set>
      <set comment="kpoint 16">
       <r>  -27.7499    1.0000 </r>
       <r>  -27.7490    1.0000 </r>
       <r>  -27.7470    1.0000 </r>
       <r>  -27.7462    1.0000 </r>
       <r>  -27.7353    1.0000 </r>
       <r>  -27.7331    1.0000 </r>
       <r>  -27.7243    1.0000 </r>
       <r>  -27.7237    1.0000 </r>
       <r>  -27.7067    1.0000 </r>
       <r>  -27.7061    1.0000 </r>
       <r>  -16.1340    1.0000 </r>
       <r>  -15.9281    1.0000 </r>
       <r>  -15.1404    1.0000 </r>
       <r>  -15.0927    1.0000 </r>
       <r>  -10.3865    1.0000 </r>
       <r>  -10.1273    1.0000 </r>
       <r>   -7.0787    1.0000 </r>
       <r>   -6.9388    1.0000 </r>
       <r>   -6.1558    1.0000 </r>
       <r>   -6.0926    1.0000 </r>
       <r>   -5.3669    1.0000 </r>
       <r>   -5.2244    1.0000 </r>
       <r>   -4.2095    1.0000 </r>
       <r>   -4.0825    1.0000 </r>
       <r>   -3.5421    1.0000 </r>
       <r>   -3.4077    1.0000 </r>
       <r>   -0.5124    0.0000 </r>
       <r>   -0.3921    0.0000 </r>
       <r>    1.3037    0.0000 </r>
       <r>    1.3994    0.0000 </r>
       <r>    1.4501    0.0000 </r>
       <r>    1.4523    0.0000 </r>
      </set>
      <set comment="kpoint 17">
       <r>  -27.7541    1.0000 </r>
       <r>  -27.7498    1.0000 </r>
       <r>  -27.7496    1.0000 </r>
       <r>  -27.7416    1.0000 </r>
       <r>  -27.7410    1.0000 </r>
       <r>  -27.7267    1.0000 </r>
       <r>  -27.7232    1.0000 </r>
       <r>  -27.7221    1.0000 </r>
       <r>  -27.7091    1.0000 </r>
       <r>  -27.7038    1.0000 </r>
       <r>  -16.8342    1.0000 </r>
       <r>  -15.3534    1.0000 </r>
       <r>  -15.1199    1.0000 </r>
       <r>  -14.7692    1.0000 </r>
       <r>  -11.5157    1.0000 </r>
       <r>   -9.2739    1.0000 </r>
       <r>   -7.3985    1.0000 </r>
       <r>   -5.9572    1.0000 </r>
       <r>   -5.5938    1.0000 </r>
       <r>   -5.4731    1.0000 </r>
       <r>   -5.4643    1.0000 </r>
       <r>   -4.9910    1.0000 </r>
       <r>   -4.6564    1.0000 </r>
       <r>   -4.0370    1.0000 </r>
       <r>   -2.9836    1.0000 </r>
       <r>   -2.8967    1.0000 </r>
       <r>   -1.3280    0.0000 </r>
       <r>   -1.2559    0.0000 </r>
       <r>   -0.3276    0.0000 </r>
       <r>    0.2471    0.0000 </r>
       <r>    0.7965    0.0000 </r>
       <r>    1.9459    0.0000 </r>
      </set>
      <set comment="kpoint 18">
       <r>  -27.7541    1.0000 </r>
       <r>  -27.7497    1.0000 </r>
       <r>  -27.7495    1.0000 </r>
       <r>  -27.7418    1.0000 </r>
       <r>  -27.7409    1.0000 </r>
       <r>  -27.7267    1.0000 </r>
       <r>  -27.7236    1.0000 </r>
       <r>  -27.7220    1.0000 </r>
       <r>  -27.7091    1.0000 </r>
       <r>  -27.7038    1.0000 </r>
       <r>  -16.8181    1.0000 </r>
       <r>  -15.3476    1.0000 </r>
       <r>  -15.1293    1.0000 </r>
       <r>  -14.7922    1.0000 </r>
       <r>  -11.4875    1.0000 </r>
       <r>   -9.2942    1.0000 </r>
       <r>   -7.3843    1.0000 </r>
       <r>   -5.9842    1.0000 </r>
       <r>   -5.8212    1.0000 </r>
       <r>   -5.5076    1.0000 </r>
       <r>   -5.2982    1.0000 </r>
       <r>   -4.9124    1.0000 </r>
       <r>   -4.6711    1.0000 </r>
       <r>   -4.0236    1.0000 </r>
       <r>   -3.1446    1.0000 </r>
       <r>   -2.7818    1.0000 </r>
       <r>   -1.3837    0.0000 </r>
       <r>   -1.2468    0.0000 </r>
       <r>   -0.1613    0.0000 </r>
       <r>    0.2886    0.0000 </r>
       <r>    0.8391    0.0000 </r>
       <r>    1.8193    0.0000 </r>
      </set>
      <set comment="kpoint 19">
       <r>  -27.7539    1.0000 </r>
       <r>  -27.7493    1.0000 </r>
       <r>  -27.7492    1.0000 </r>
       <r>  -27.7422    1.0000 </r>
       <r>  -27.7408    1.0000 </r>
       <r>  -27.7264    1.0000 </r>
       <r>  -27.7246    1.0000 </r>
       <r>  -27.7219    1.0000 </r>
       <r>  -27.7089    1.0000 </r>
       <r>  -27.7040    1.0000 </r>
       <r>  -16.7702    1.0000 </r>
       <r>  -15.3305    1.0000 </r>
       <r>  -15.1629    1.0000 </r>
       <r>  -14.8519    1.0000 </r>
       <r>  -11.4058    1.0000 </r>
       <r>   -9.3560    1.0000 </r>
       <r>   -7.3428    1.0000 </r>
       <r>   -6.1017    1.0000 </r>
       <r>   -6.0633    1.0000 </r>
       <r>   -5.5614    1.0000 </r>
       <r>   -5.1821    1.0000 </r>
       <r>   -4.7584    1.0000 </r>
       <r>   -4.7136    1.0000 </r>
       <r>   -3.9803    1.0000 </r>
       <r>   -3.3586    1.0000 </r>
       <r>   -2.7014    1.0000 </r>
       <r>   -1.4295    0.0000 </r>
       <r>   -1.2125    0.0000 </r>
       <r>    0.2165    0.0000 </r>
       <r>    0.4023    0.0000 </r>
       <r>    0.9607    0.0000 </r>
       <r>    1.6518    0.0000 </r>
      </set>
      <set comment="kpoint 20">
       <r>  -27.7535    1.0000 </r>
       <r>  -27.7489    1.0000 </r>
       <r>  -27.7488    1.0000 </r>
       <r>  -27.7426    1.0000 </r>
       <r>  -27.7405    1.0000 </r>
       <r>  -27.7261    1.0000 </r>
       <r>  -27.7259    1.0000 </r>
       <r>  -27.7220    1.0000 </r>
       <r>  -27.7086    1.0000 </r>
       <r>  -27.7043    1.0000 </r>
       <r>  -16.6914    1.0000 </r>
       <r>  -15.3034    1.0000 </r>
       <r>  -15.2376    1.0000 </r>
       <r>  -14.9223    1.0000 </r>
       <r>  -11.2781    1.0000 </r>
       <r>   -9.4615    1.0000 </r>
       <r>   -7.2765    1.0000 </r>
       <r>   -6.3534    1.0000 </r>
       <r>   -6.1681    1.0000 </r>
       <r>   -5.5743    1.0000 </r>
       <r>   -5.2013    1.0000 </r>
       <r>   -4.7873    1.0000 </r>
       <r>   -4.6116    1.0000 </r>
       <r>   -3.9021    1.0000 </r>
       <r>   -3.5638    1.0000 </r>
       <r>   -2.7007    1.0000 </r>
       <r>   -1.3484    0.0000 </r>
       <r>   -1.1387    0.0000 </r>
       <r>    0.5630    0.0000 </r>
       <r>    0.6619    0.0000 </r>
       <r>    1.1395    0.0000 </r>
       <r>    1.5072    0.0000 </r>
      </set>
      <set comment="kpoint 21">
       <r>  -27.7531    1.0000 </r>
       <r>  -27.7488    1.0000 </r>
       <r>  -27.7482    1.0000 </r>
       <r>  -27.7430    1.0000 </r>
       <r>  -27.7400    1.0000 </r>
       <r>  -27.7276    1.0000 </r>
       <r>  -27.7256    1.0000 </r>
       <r>  -27.7222    1.0000 </r>
       <r>  -27.7082    1.0000 </r>
       <r>  -27.7046    1.0000 </r>
       <r>  -16.5834    1.0000 </r>
       <r>  -15.3656    1.0000 </r>
       <r>  -15.2682    1.0000 </r>
       <r>  -14.9790    1.0000 </r>
       <r>  -11.1132    1.0000 </r>
       <r>   -9.6102    1.0000 </r>
       <r>   -7.1921    1.0000 </r>
       <r>   -6.5570    1.0000 </r>
       <r>   -6.2559    1.0000 </r>
       <r>   -5.5557    1.0000 </r>
       <r>   -5.3305    1.0000 </r>
       <r>   -4.9020    1.0000 </r>
       <r>   -4.4969    1.0000 </r>
       <r>   -3.7900    1.0000 </r>
       <r>   -3.7414    1.0000 </r>
       <r>   -2.7710    1.0000 </r>
       <r>   -1.1450    0.0000 </r>
       <r>   -1.0192    0.0000 </r>
       <r>    0.7432    0.0000 </r>
       <r>    1.0478    0.0000 </r>
       <r>    1.3329    0.0000 </r>
       <r>    1.4762    0.0000 </r>
      </set>
      <set comment="kpoint 22">
       <r>  -27.7525    1.0000 </r>
       <r>  -27.7490    1.0000 </r>
       <r>  -27.7474    1.0000 </r>
       <r>  -27.7435    1.0000 </r>
       <r>  -27.7391    1.0000 </r>
       <r>  -27.7295    1.0000 </r>
       <r>  -27.7251    1.0000 </r>
       <r>  -27.7225    1.0000 </r>
       <r>  -27.7077    1.0000 </r>
       <r>  -27.7050    1.0000 </r>
       <r>  -16.4485    1.0000 </r>
       <r>  -15.5352    1.0000 </r>
       <r>  -15.2275    1.0000 </r>
       <r>  -15.0217    1.0000 </r>
       <r>  -10.9198    1.0000 </r>
       <r>   -9.7972    1.0000 </r>
       <r>   -7.1014    1.0000 </r>
       <r>   -6.7084    1.0000 </r>
       <r>   -6.2922    1.0000 </r>
       <r>   -5.5236    1.0000 </r>
       <r>   -5.5186    1.0000 </r>
       <r>   -5.0450    1.0000 </r>
       <r>   -4.4067    1.0000 </r>
       <r>   -3.8897    1.0000 </r>
       <r>   -3.6547    1.0000 </r>
       <r>   -2.8897    1.0000 </r>
       <r>   -0.8930    0.0000 </r>
       <r>   -0.8665    0.0000 </r>
       <r>    0.9217    0.0000 </r>
       <r>    1.1730    0.0000 </r>
       <r>    1.4839    0.0000 </r>
       <r>    1.7437    0.0000 </r>
      </set>
      <set comment="kpoint 23">
       <r>  -27.7518    1.0000 </r>
       <r>  -27.7495    1.0000 </r>
       <r>  -27.7465    1.0000 </r>
       <r>  -27.7441    1.0000 </r>
       <r>  -27.7377    1.0000 </r>
       <r>  -27.7316    1.0000 </r>
       <r>  -27.7245    1.0000 </r>
       <r>  -27.7229    1.0000 </r>
       <r>  -27.7072    1.0000 </r>
       <r>  -27.7055    1.0000 </r>
       <r>  -16.2901    1.0000 </r>
       <r>  -15.7259    1.0000 </r>
       <r>  -15.1840    1.0000 </r>
       <r>  -15.0598    1.0000 </r>
       <r>  -10.7053    1.0000 </r>
       <r>  -10.0120    1.0000 </r>
       <r>   -7.0196    1.0000 </r>
       <r>   -6.8149    1.0000 </r>
       <r>   -6.2543    1.0000 </r>
       <r>   -5.7431    1.0000 </r>
       <r>   -5.4674    1.0000 </r>
       <r>   -5.1868    1.0000 </r>
       <r>   -4.3229    1.0000 </r>
       <r>   -4.0172    1.0000 </r>
       <r>   -3.5065    1.0000 </r>
       <r>   -3.0353    1.0000 </r>
       <r>   -0.7125    0.0000 </r>
       <r>   -0.6831    0.0000 </r>
       <r>    1.0877    0.0000 </r>
       <r>    1.2255    0.0000 </r>
       <r>    1.5503    0.0000 </r>
       <r>    1.7167    0.0000 </r>
      </set>
      <set comment="kpoint 24">
       <r>  -27.7510    1.0000 </r>
       <r>  -27.7502    1.0000 </r>
       <r>  -27.7457    1.0000 </r>
       <r>  -27.7448    1.0000 </r>
       <r>  -27.7358    1.0000 </r>
       <r>  -27.7338    1.0000 </r>
       <r>  -27.7239    1.0000 </r>
       <r>  -27.7234    1.0000 </r>
       <r>  -27.7066    1.0000 </r>
       <r>  -27.7061    1.0000 </r>
       <r>  -16.1127    1.0000 </r>
       <r>  -15.9220    1.0000 </r>
       <r>  -15.1405    1.0000 </r>
       <r>  -15.0988    1.0000 </r>
       <r>  -10.4769    1.0000 </r>
       <r>  -10.2425    1.0000 </r>
       <r>   -6.9528    1.0000 </r>
       <r>   -6.8907    1.0000 </r>
       <r>   -6.1370    1.0000 </r>
       <r>   -5.9573    1.0000 </r>
       <r>   -5.3990    1.0000 </r>
       <r>   -5.3068    1.0000 </r>
       <r>   -4.2326    1.0000 </r>
       <r>   -4.1308    1.0000 </r>
       <r>   -3.3512    1.0000 </r>
       <r>   -3.1923    1.0000 </r>
       <r>   -0.6021    0.0000 </r>
       <r>   -0.5819    0.0000 </r>
       <r>    1.2353    0.0000 </r>
       <r>    1.2927    0.0000 </r>
       <r>    1.5352    0.0000 </r>
       <r>    1.5551    0.0000 </r>
      </set>
      <set comment="kpoint 25">
       <r>  -27.7536    1.0000 </r>
       <r>  -27.7491    1.0000 </r>
       <r>  -27.7491    1.0000 </r>
       <r>  -27.7417    1.0000 </r>
       <r>  -27.7410    1.0000 </r>
       <r>  -27.7263    1.0000 </r>
       <r>  -27.7249    1.0000 </r>
       <r>  -27.7224    1.0000 </r>
       <r>  -27.7088    1.0000 </r>
       <r>  -27.7042    1.0000 </r>
       <r>  -16.7397    1.0000 </r>
       <r>  -15.3233    1.0000 </r>
       <r>  -15.3096    1.0000 </r>
       <r>  -14.8154    1.0000 </r>
       <r>  -11.2554    1.0000 </r>
       <r>   -9.3709    1.0000 </r>
       <r>   -7.3244    1.0000 </r>
       <r>   -6.0385    1.0000 </r>
       <r>   -5.7945    1.0000 </r>
       <r>   -5.7603    1.0000 </r>
       <r>   -5.4149    1.0000 </r>
       <r>   -4.8489    1.0000 </r>
       <r>   -4.6970    1.0000 </r>
       <r>   -3.9097    1.0000 </r>
       <r>   -3.2182    1.0000 </r>
       <r>   -3.0004    1.0000 </r>
       <r>   -1.1254    0.0000 </r>
       <r>   -0.9498    0.0000 </r>
       <r>    0.2160    0.0000 </r>
       <r>    0.3359    0.0000 </r>
       <r>    0.9368    0.0000 </r>
       <r>    1.6893    0.0000 </r>
      </set>
      <set comment="kpoint 26">
       <r>  -27.7536    1.0000 </r>
       <r>  -27.7491    1.0000 </r>
       <r>  -27.7489    1.0000 </r>
       <r>  -27.7418    1.0000 </r>
       <r>  -27.7410    1.0000 </r>
       <r>  -27.7262    1.0000 </r>
       <r>  -27.7253    1.0000 </r>
       <r>  -27.7223    1.0000 </r>
       <r>  -27.7087    1.0000 </r>
       <r>  -27.7043    1.0000 </r>
       <r>  -16.7246    1.0000 </r>
       <r>  -15.3302    1.0000 </r>
       <r>  -15.3047    1.0000 </r>
       <r>  -14.8312    1.0000 </r>
       <r>  -11.2421    1.0000 </r>
       <r>   -9.3976    1.0000 </r>
       <r>   -7.2984    1.0000 </r>
       <r>   -6.0738    1.0000 </r>
       <r>   -6.0722    1.0000 </r>
       <r>   -5.4840    1.0000 </r>
       <r>   -5.4478    1.0000 </r>
       <r>   -4.7828    1.0000 </r>
       <r>   -4.7202    1.0000 </r>
       <r>   -3.8945    1.0000 </r>
       <r>   -3.3611    1.0000 </r>
       <r>   -2.8766    1.0000 </r>
       <r>   -1.1142    0.0000 </r>
       <r>   -1.0642    0.0000 </r>
       <r>    0.3676    0.0000 </r>
       <r>    0.3775    0.0000 </r>
       <r>    0.9772    0.0000 </r>
       <r>    1.5849    0.0000 </r>
      </set>
      <set comment="kpoint 27">
       <r>  -27.7536    1.0000 </r>
       <r>  -27.7491    1.0000 </r>
       <r>  -27.7485    1.0000 </r>
       <r>  -27.7418    1.0000 </r>
       <r>  -27.7409    1.0000 </r>
       <r>  -27.7262    1.0000 </r>
       <r>  -27.7260    1.0000 </r>
       <r>  -27.7221    1.0000 </r>
       <r>  -27.7085    1.0000 </r>
       <r>  -27.7044    1.0000 </r>
       <r>  -16.6797    1.0000 </r>
       <r>  -15.3538    1.0000 </r>
       <r>  -15.2907    1.0000 </r>
       <r>  -14.8744    1.0000 </r>
       <r>  -11.2023    1.0000 </r>
       <r>   -9.4771    1.0000 </r>
       <r>   -7.2221    1.0000 </r>
       <r>   -6.3372    1.0000 </r>
       <r>   -6.1673    1.0000 </r>
       <r>   -5.4914    1.0000 </r>
       <r>   -5.2433    1.0000 </r>
       <r>   -4.7891    1.0000 </r>
       <r>   -4.6521    1.0000 </r>
       <r>   -3.8424    1.0000 </r>
       <r>   -3.5652    1.0000 </r>
       <r>   -2.7286    1.0000 </r>
       <r>   -1.2605    0.0000 </r>
       <r>   -1.0773    0.0000 </r>
       <r>    0.4537    0.0000 </r>
       <r>    0.7102    0.0000 </r>
       <r>    1.0951    0.0000 </r>
       <r>    1.4512    0.0000 </r>
      </set>
      <set comment="kpoint 28">
       <r>  -27.7535    1.0000 </r>
       <r>  -27.7493    1.0000 </r>
       <r>  -27.7478    1.0000 </r>
       <r>  -27.7419    1.0000 </r>
       <r>  -27.7408    1.0000 </r>
       <r>  -27.7276    1.0000 </r>
       <r>  -27.7256    1.0000 </r>
       <r>  -27.7220    1.0000 </r>
       <r>  -27.7082    1.0000 </r>
       <r>  -27.7046    1.0000 </r>
       <r>  -16.6060    1.0000 </r>
       <r>  -15.4022    1.0000 </r>
       <r>  -15.2685    1.0000 </r>
       <r>  -14.9326    1.0000 </r>
       <r>  -11.1351    1.0000 </r>
       <r>   -9.6061    1.0000 </r>
       <r>   -7.1021    1.0000 </r>
       <r>   -6.5479    1.0000 </r>
       <r>   -6.2950    1.0000 </r>
       <r>   -5.5025    1.0000 </r>
       <r>   -5.1079    1.0000 </r>
       <r>   -4.9004    1.0000 </r>
       <r>   -4.5372    1.0000 </r>
       <r>   -3.7441    1.0000 </r>
       <r>   -3.7431    1.0000 </r>
       <r>   -2.6401    1.0000 </r>
       <r>   -1.3768    0.0000 </r>
       <r>   -1.0099    0.0000 </r>
       <r>    0.5753    0.0000 </r>
       <r>    0.9897    0.0000 </r>
       <r>    1.2732    0.0000 </r>
       <r>    1.4321    0.0000 </r>
      </set>
      <set comment="kpoint 29">
       <r>  -27.7533    1.0000 </r>
       <r>  -27.7495    1.0000 </r>
       <r>  -27.7470    1.0000 </r>
       <r>  -27.7420    1.0000 </r>
       <r>  -27.7404    1.0000 </r>
       <r>  -27.7292    1.0000 </r>
       <r>  -27.7252    1.0000 </r>
       <r>  -27.7221    1.0000 </r>
       <r>  -27.7078    1.0000 </r>
       <r>  -27.7048    1.0000 </r>
       <r>  -16.5057    1.0000 </r>
       <r>  -15.4852    1.0000 </r>
       <r>  -15.2402    1.0000 </r>
       <r>  -14.9900    1.0000 </r>
       <r>  -11.0400    1.0000 </r>
       <r>   -9.7763    1.0000 </r>
       <r>   -6.9551    1.0000 </r>
       <r>   -6.6988    1.0000 </r>
       <r>   -6.4088    1.0000 </r>
       <r>   -5.4874    1.0000 </r>
       <r>   -5.1074    1.0000 </r>
       <r>   -5.0450    1.0000 </r>
       <r>   -4.4600    1.0000 </r>
       <r>   -3.8857    1.0000 </r>
       <r>   -3.6007    1.0000 </r>
       <r>   -2.6251    1.0000 </r>
       <r>   -1.3543    0.0000 </r>
       <r>   -0.9169    0.0000 </r>
       <r>    0.7173    0.0000 </r>
       <r>    1.0412    0.0000 </r>
       <r>    1.4696    0.0000 </r>
       <r>    1.6630    0.0000 </r>
      </set>
      <set comment="kpoint 30">
       <r>  -27.7530    1.0000 </r>
       <r>  -27.7500    1.0000 </r>
       <r>  -27.7461    1.0000 </r>
       <r>  -27.7423    1.0000 </r>
       <r>  -27.7395    1.0000 </r>
       <r>  -27.7310    1.0000 </r>
       <r>  -27.7246    1.0000 </r>
       <r>  -27.7223    1.0000 </r>
       <r>  -27.7074    1.0000 </r>
       <r>  -27.7052    1.0000 </r>
       <r>  -16.3816    1.0000 </r>
       <r>  -15.6050    1.0000 </r>
       <r>  -15.2081    1.0000 </r>
       <r>  -15.0371    1.0000 </r>
       <r>  -10.9167    1.0000 </r>
       <r>   -9.9744    1.0000 </r>
       <r>   -6.8334    1.0000 </r>
       <r>   -6.7938    1.0000 </r>
       <r>   -6.4387    1.0000 </r>
       <r>   -5.4603    1.0000 </r>
       <r>   -5.2694    1.0000 </r>
       <r>   -5.1593    1.0000 </r>
       <r>   -4.4043    1.0000 </r>
       <r>   -4.0004    1.0000 </r>
       <r>   -3.4346    1.0000 </r>
       <r>   -2.6792    1.0000 </r>
       <r>   -1.2116    0.0000 </r>
       <r>   -0.8201    0.0000 </r>
       <r>    0.8731    0.0000 </r>
       <r>    1.0399    0.0000 </r>
       <r>    1.6207    0.0000 </r>
       <r>    1.9458    0.0000 </r>
      </set>
      <set comment="kpoint 31">
       <r>  -27.7525    1.0000 </r>
       <r>  -27.7506    1.0000 </r>
       <r>  -27.7452    1.0000 </r>
       <r>  -27.7428    1.0000 </r>
       <r>  -27.7382    1.0000 </r>
       <r>  -27.7329    1.0000 </r>
       <r>  -27.7240    1.0000 </r>
       <r>  -27.7226    1.0000 </r>
       <r>  -27.7070    1.0000 </r>
       <r>  -27.7056    1.0000 </r>
       <r>  -16.2379    1.0000 </r>
       <r>  -15.7527    1.0000 </r>
       <r>  -15.1743    1.0000 </r>
       <r>  -15.0747    1.0000 </r>
       <r>  -10.7661    1.0000 </r>
       <r>  -10.1851    1.0000 </r>
       <r>   -6.8424    1.0000 </r>
       <r>   -6.8129    1.0000 </r>
       <r>   -6.3047    1.0000 </r>
       <r>   -5.5170    1.0000 </r>
       <r>   -5.4275    1.0000 </r>
       <r>   -5.2542    1.0000 </r>
       <r>   -4.3480    1.0000 </r>
       <r>   -4.1022    1.0000 </r>
       <r>   -3.2611    1.0000 </r>
       <r>   -2.7863    1.0000 </r>
       <r>   -1.0184    0.0000 </r>
       <r>   -0.7556    0.0000 </r>
       <r>    1.0369    0.0000 </r>
       <r>    1.0903    0.0000 </r>
       <r>    1.6694    0.0000 </r>
       <r>    1.8319    0.0000 </r>
      </set>
      <set comment="kpoint 32">
       <r>  -27.7520    1.0000 </r>
       <r>  -27.7513    1.0000 </r>
       <r>  -27.7443    1.0000 </r>
       <r>  -27.7435    1.0000 </r>
       <r>  -27.7366    1.0000 </r>
       <r>  -27.7348    1.0000 </r>
       <r>  -27.7235    1.0000 </r>
       <r>  -27.7230    1.0000 </r>
       <r>  -27.7065    1.0000 </r>
       <r>  -27.7060    1.0000 </r>
       <r>  -16.0800    1.0000 </r>
       <r>  -15.9151    1.0000 </r>
       <r>  -15.1407    1.0000 </r>
       <r>  -15.1080    1.0000 </r>
       <r>  -10.5903    1.0000 </r>
       <r>  -10.3941    1.0000 </r>
       <r>   -6.8545    1.0000 </r>
       <r>   -6.8391    1.0000 </r>
       <r>   -6.0664    1.0000 </r>
       <r>   -5.7927    1.0000 </r>
       <r>   -5.3871    1.0000 </r>
       <r>   -5.3314    1.0000 </r>
       <r>   -4.2791    1.0000 </r>
       <r>   -4.1959    1.0000 </r>
       <r>   -3.0897    1.0000 </r>
       <r>   -2.9280    1.0000 </r>
       <r>   -0.8511    0.0000 </r>
       <r>   -0.7596    0.0000 </r>
       <r>    1.1751    0.0000 </r>
       <r>    1.1793    0.0000 </r>
       <r>    1.6276    0.0000 </r>
       <r>    1.6671    0.0000 </r>
      </set>
      <set comment="kpoint 33">
       <r>  -27.7528    1.0000 </r>
       <r>  -27.7490    1.0000 </r>
       <r>  -27.7482    1.0000 </r>
       <r>  -27.7426    1.0000 </r>
       <r>  -27.7397    1.0000 </r>
       <r>  -27.7271    1.0000 </r>
       <r>  -27.7258    1.0000 </r>
       <r>  -27.7228    1.0000 </r>
       <r>  -27.7082    1.0000 </r>
       <r>  -27.7048    1.0000 </r>
       <r>  -16.6096    1.0000 </r>
       <r>  -15.5575    1.0000 </r>
       <r>  -15.2514    1.0000 </r>
       <r>  -14.8760    1.0000 </r>
       <r>  -10.9463    1.0000 </r>
       <r>   -9.5204    1.0000 </r>
       <r>   -7.2141    1.0000 </r>
       <r>   -6.1179    1.0000 </r>
       <r>   -6.0674    1.0000 </r>
       <r>   -5.9807    1.0000 </r>
       <r>   -5.3401    1.0000 </r>
       <r>   -4.7732    1.0000 </r>
       <r>   -4.6758    1.0000 </r>
       <r>   -3.7622    1.0000 </r>
       <r>   -3.4799    1.0000 </r>
       <r>   -3.1115    1.0000 </r>
       <r>   -0.9372    0.0000 </r>
       <r>   -0.5832    0.0000 </r>
       <r>    0.4512    0.0000 </r>
       <r>    0.8805    0.0000 </r>
       <r>    1.0813    0.0000 </r>
       <r>    1.4244    0.0000 </r>
      </set>
      <set comment="kpoint 34">
       <r>  -27.7529    1.0000 </r>
       <r>  -27.7491    1.0000 </r>
       <r>  -27.7480    1.0000 </r>
       <r>  -27.7425    1.0000 </r>
       <r>  -27.7398    1.0000 </r>
       <r>  -27.7275    1.0000 </r>
       <r>  -27.7257    1.0000 </r>
       <r>  -27.7227    1.0000 </r>
       <r>  -27.7082    1.0000 </r>
       <r>  -27.7048    1.0000 </r>
       <r>  -16.5960    1.0000 </r>
       <r>  -15.5600    1.0000 </r>
       <r>  -15.2480    1.0000 </r>
       <r>  -14.8868    1.0000 </r>
       <r>  -10.9491    1.0000 </r>
       <r>   -9.5538    1.0000 </r>
       <r>   -7.1774    1.0000 </r>
       <r>   -6.2986    1.0000 </r>
       <r>   -6.1462    1.0000 </r>
       <r>   -5.7190    1.0000 </r>
       <r>   -5.3760    1.0000 </r>
       <r>   -4.8064    1.0000 </r>
       <r>   -4.6233    1.0000 </r>
       <r>   -3.7399    1.0000 </r>
       <r>   -3.5863    1.0000 </r>
       <r>   -2.9974    1.0000 </r>
       <r>   -0.9277    0.0000 </r>
       <r>   -0.7105    0.0000 </r>
       <r>    0.4707    0.0000 </r>
       <r>    0.9862    0.0000 </r>
       <r>    1.1209    0.0000 </r>
       <r>    1.3692    0.0000 </r>
      </set>
      <set comment="kpoint 35">
       <r>  -27.7531    1.0000 </r>
       <r>  -27.7494    1.0000 </r>
       <r>  -27.7475    1.0000 </r>
       <r>  -27.7422    1.0000 </r>
       <r>  -27.7399    1.0000 </r>
       <r>  -27.7283    1.0000 </r>
       <r>  -27.7255    1.0000 </r>
       <r>  -27.7225    1.0000 </r>
       <r>  -27.7080    1.0000 </r>
       <r>  -27.7049    1.0000 </r>
       <r>  -16.5554    1.0000 </r>
       <r>  -15.5694    1.0000 </r>
       <r>  -15.2381    1.0000 </r>
       <r>  -14.9172    1.0000 </r>
       <r>  -10.9540    1.0000 </r>
       <r>   -9.6500    1.0000 </r>
       <r>   -7.0709    1.0000 </r>
       <r>   -6.5165    1.0000 </r>
       <r>   -6.2303    1.0000 </r>
       <r>   -5.4329    1.0000 </r>
       <r>   -5.4231    1.0000 </r>
       <r>   -4.9018    1.0000 </r>
       <r>   -4.5247    1.0000 </r>
       <r>   -3.7522    1.0000 </r>
       <r>   -3.6658    1.0000 </r>
       <r>   -2.8141    1.0000 </r>
       <r>   -0.9771    0.0000 </r>
       <r>   -0.9000    0.0000 </r>
       <r>    0.5258    0.0000 </r>
       <r>    1.0902    0.0000 </r>
       <r>    1.2356    0.0000 </r>
       <r>    1.4200    0.0000 </r>
[...]
       <r>    1.3479    0.0000 </r>
       <r>    1.4223    0.0000 </r>
      </set>
      <set comment="kpoint 54">
       <r>  -27.7530    1.0000 </r>
       <r>  -27.7526    1.0000 </r>
       <r>  -27.7425    1.0000 </r>
       <r>  -27.7416    1.0000 </r>
       <r>  -27.7378    1.0000 </r>
       <r>  -27.7361    1.0000 </r>
       <r>  -27.7230    1.0000 </r>
       <r>  -27.7226    1.0000 </r>
       <r>  -27.7063    1.0000 </r>
       <r>  -27.7060    1.0000 </r>
       <r>  -16.0635    1.0000 </r>
       <r>  -15.9370    1.0000 </r>
       <r>  -15.1281    1.0000 </r>
       <r>  -15.1015    1.0000 </r>
       <r>  -10.7118    1.0000 </r>
       <r>  -10.5625    1.0000 </r>
       <r>   -6.8212    1.0000 </r>
       <r>   -6.7757    1.0000 </r>
       <r>   -5.8333    1.0000 </r>
       <r>   -5.6437    1.0000 </r>
       <r>   -5.2596    1.0000 </r>
       <r>   -5.0939    1.0000 </r>
       <r>   -4.3298    1.0000 </r>
       <r>   -4.2627    1.0000 </r>
       <r>   -2.6964    1.0000 </r>
       <r>   -2.5627    1.0000 </r>
       <r>   -1.2752    0.0000 </r>
       <r>   -1.0749    0.0000 </r>
       <r>    1.1533    0.0000 </r>
       <r>    1.1664    0.0000 </r>
       <r>    1.4263    0.0000 </r>
       <r>    1.4319    0.0000 </r>
      </set>
      <set comment="kpoint 55">
       <r>  -27.7533    1.0000 </r>
       <r>  -27.7530    1.0000 </r>
       <r>  -27.7417    1.0000 </r>
       <r>  -27.7408    1.0000 </r>
       <r>  -27.7384    1.0000 </r>
       <r>  -27.7371    1.0000 </r>
       <r>  -27.7227    1.0000 </r>
       <r>  -27.7224    1.0000 </r>
       <r>  -27.7062    1.0000 </r>
       <r>  -27.7060    1.0000 </r>
       <r>  -16.0070    1.0000 </r>
       <r>  -15.9256    1.0000 </r>
       <r>  -15.1360    1.0000 </r>
       <r>  -15.1223    1.0000 </r>
       <r>  -10.7715    1.0000 </r>
       <r>  -10.6794    1.0000 </r>
       <r>   -6.8413    1.0000 </r>
       <r>   -6.8110    1.0000 </r>
       <r>   -5.7925    1.0000 </r>
       <r>   -5.6967    1.0000 </r>
       <r>   -5.1017    1.0000 </r>
       <r>   -4.9564    1.0000 </r>
       <r>   -4.3594    1.0000 </r>
       <r>   -4.3121    1.0000 </r>
       <r>   -2.5613    1.0000 </r>
       <r>   -2.4822    1.0000 </r>
       <r>   -1.4214    0.0000 </r>
       <r>   -1.2655    0.0000 </r>
       <r>    1.1828    0.0000 </r>
       <r>    1.2770    0.0000 </r>
       <r>    1.4132    0.0000 </r>
       <r>    1.4780    0.0000 </r>
      </set>
      <set comment="kpoint 56">
       <r>  -27.7533    1.0000 </r>
       <r>  -27.7532    1.0000 </r>
       <r>  -27.7409    1.0000 </r>
       <r>  -27.7405    1.0000 </r>
       <r>  -27.7385    1.0000 </r>
       <r>  -27.7380    1.0000 </r>
       <r>  -27.7224    1.0000 </r>
       <r>  -27.7224    1.0000 </r>
       <r>  -27.7061    1.0000 </r>
       <r>  -27.7060    1.0000 </r>
       <r>  -15.9610    1.0000 </r>
       <r>  -15.9328    1.0000 </r>
       <r>  -15.1398    1.0000 </r>
       <r>  -15.1358    1.0000 </r>
       <r>  -10.7878    1.0000 </r>
       <r>  -10.7567    1.0000 </r>
       <r>   -6.8491    1.0000 </r>
       <r>   -6.8389    1.0000 </r>
       <r>   -5.7616    1.0000 </r>
       <r>   -5.7328    1.0000 </r>
       <r>   -4.9699    1.0000 </r>
       <r>   -4.9137    1.0000 </r>
       <r>   -4.3647    1.0000 </r>
       <r>   -4.3465    1.0000 </r>
       <r>   -2.4825    1.0000 </r>
       <r>   -2.4579    1.0000 </r>
       <r>   -1.4647    0.0000 </r>
       <r>   -1.4066    0.0000 </r>
       <r>    1.2360    0.0000 </r>
       <r>    1.2908    0.0000 </r>
       <r>    1.4359    0.0000 </r>
       <r>    1.4749    0.0000 </r>
      </set>
     </set>
    </set>
   </array>
  </eigenvalues>
  <separator name="orbital magnetization" >
   <v name="MAGDIPOLOUT">      0.00000000      0.00000000      0.00000000</v>
  </separator>
  <dos>
   <i name="efermi">     -2.32962277 </i>
   <total>
    <array>
     <dimension dim="1">gridpoints</dimension>
     <dimension dim="2">spin</dimension>
     <field>energy</field>
     <field>total</field>
     <field>integrated</field>
     <set>
      <set comment="spin 1">
       <r>   -29.2451     0.0000     0.0000 </r>
       <r>   -29.1358     0.0000     0.0000 </r>
       <r>   -29.0265     0.0000     0.0000 </r>
       <r>   -28.9172     0.0000     0.0000 </r>
       <r>   -28.8079     0.0000     0.0000 </r>
       <r>   -28.6986     0.0000     0.0000 </r>
       <r>   -28.5893     0.0000     0.0000 </r>
       <r>   -28.4800     0.0000     0.0000 </r>
       <r>   -28.3707     0.0000     0.0000 </r>
       <r>   -28.2614     0.0000     0.0000 </r>
       <r>   -28.1521     0.0000     0.0000 </r>
       <r>   -28.0428     0.0000     0.0000 </r>
       <r>   -27.9335     0.0000     0.0000 </r>
       <r>   -27.8242     0.0000     0.0000 </r>
       <r>   -27.7149   142.1074    15.5325 </r>
       <r>   -27.6056    40.8728    20.0000 </r>
       <r>   -27.4963     0.0000    20.0000 </r>
       <r>   -27.3870     0.0000    20.0000 </r>
       <r>   -27.2777     0.0000    20.0000 </r>
       <r>   -27.1684     0.0000    20.0000 </r>
       <r>   -27.0591     0.0000    20.0000 </r>
       <r>   -26.9498     0.0000    20.0000 </r>
       <r>   -26.8405     0.0000    20.0000 </r>
       <r>   -26.7312     0.0000    20.0000 </r>
       <r>   -26.6219     0.0000    20.0000 </r>
       <r>   -26.5126     0.0000    20.0000 </r>
       <r>   -26.4033     0.0000    20.0000 </r>
       <r>   -26.2940     0.0000    20.0000 </r>
       <r>   -26.1847     0.0000    20.0000 </r>
       <r>   -26.0754     0.0000    20.0000 </r>
       <r>   -25.9661     0.0000    20.0000 </r>
       <r>   -25.8568     0.0000    20.0000 </r>
       <r>   -25.7475     0.0000    20.0000 </r>
       <r>   -25.6382     0.0000    20.0000 </r>
       <r>   -25.5289     0.0000    20.0000 </r>
       <r>   -25.4196     0.0000    20.0000 </r>
       <r>   -25.3103     0.0000    20.0000 </r>
       <r>   -25.2010     0.0000    20.0000 </r>
       <r>   -25.0917     0.0000    20.0000 </r>
       <r>   -24.9824     0.0000    20.0000 </r>
       <r>   -24.8731     0.0000    20.0000 </r>
       <r>   -24.7638     0.0000    20.0000 </r>
       <r>   -24.6545     0.0000    20.0000 </r>
       <r>   -24.5452     0.0000    20.0000 </r>
       <r>   -24.4358     0.0000    20.0000 </r>
       <r>   -24.3265     0.0000    20.0000 </r>
       <r>   -24.2172     0.0000    20.0000 </r>
       <r>   -24.1079     0.0000    20.0000 </r>
       <r>   -23.9986     0.0000    20.0000 </r>
       <r>   -23.8893     0.0000    20.0000 </r>
       <r>   -23.7800     0.0000    20.0000 </r>
       <r>   -23.6707     0.0000    20.0000 </r>
       <r>   -23.5614     0.0000    20.0000 </r>
       <r>   -23.4521     0.0000    20.0000 </r>
       <r>   -23.3428     0.0000    20.0000 </r>
       <r>   -23.2335     0.0000    20.0000 </r>
       <r>   -23.1242     0.0000    20.0000 </r>
       <r>   -23.0149     0.0000    20.0000 </r>
       <r>   -22.9056     0.0000    20.0000 </r>
       <r>   -22.7963     0.0000    20.0000 </r>
       <r>   -22.6870     0.0000    20.0000 </r>
       <r>   -22.5777     0.0000    20.0000 </r>
       <r>   -22.4684     0.0000    20.0000 </r>
       <r>   -22.3591     0.0000    20.0000 </r>
       <r>   -22.2498     0.0000    20.0000 </r>
       <r>   -22.1405     0.0000    20.0000 </r>
       <r>   -22.0312     0.0000    20.0000 </r>
       <r>   -21.9219     0.0000    20.0000 </r>
       <r>   -21.8126     0.0000    20.0000 </r>
       <r>   -21.7033     0.0000    20.0000 </r>
       <r>   -21.5940     0.0000    20.0000 </r>
       <r>   -21.4847     0.0000    20.0000 </r>
       <r>   -21.3754     0.0000    20.0000 </r>
       <r>   -21.2661     0.0000    20.0000 </r>
       <r>   -21.1568     0.0000    20.0000 </r>
       <r>   -21.0475     0.0000    20.0000 </r>
       <r>   -20.9382     0.0000    20.0000 </r>
       <r>   -20.8289     0.0000    20.0000 </r>
       <r>   -20.7196     0.0000    20.0000 </r>
       <r>   -20.6103     0.0000    20.0000 </r>
       <r>   -20.5010     0.0000    20.0000 </r>
       <r>   -20.3917     0.0000    20.0000 </r>
       <r>   -20.2824     0.0000    20.0000 </r>
       <r>   -20.1731     0.0000    20.0000 </r>
       <r>   -20.0638     0.0000    20.0000 </r>
       <r>   -19.9545     0.0000    20.0000 </r>
       <r>   -19.8452     0.0000    20.0000 </r>
       <r>   -19.7359     0.0000    20.0000 </r>
       <r>   -19.6266     0.0000    20.0000 </r>
       <r>   -19.5173     0.0000    20.0000 </r>
       <r>   -19.4080     0.0000    20.0000 </r>
       <r>   -19.2987     0.0000    20.0000 </r>
       <r>   -19.1894     0.0000    20.0000 </r>
       <r>   -19.0801     0.0000    20.0000 </r>
       <r>   -18.9708     0.0000    20.0000 </r>
       <r>   -18.8615     0.0000    20.0000 </r>
       <r>   -18.7522     0.0000    20.0000 </r>
       <r>   -18.6429     0.0000    20.0000 </r>
       <r>   -18.5336     0.0000    20.0000 </r>
       <r>   -18.4243     0.0000    20.0000 </r>
       <r>   -18.3150     0.0000    20.0000 </r>
       <r>   -18.2057     0.0000    20.0000 </r>
       <r>   -18.0964     0.0000    20.0000 </r>
       <r>   -17.9871     0.0000    20.0000 </r>
       <r>   -17.8778     0.0000    20.0000 </r>
       <r>   -17.7685     0.0000    20.0000 </r>
       <r>   -17.6592     0.0000    20.0000 </r>
       <r>   -17.5499     0.0000    20.0000 </r>
       <r>   -17.4406     0.0000    20.0000 </r>
       <r>   -17.3313     0.0000    20.0000 </r>
       <r>   -17.2220     0.0000    20.0000 </r>
       <r>   -17.1126     0.0000    20.0000 </r>
       <r>   -17.0033     0.0000    20.0000 </r>
       <r>   -16.8940     0.2886    20.0315 </r>
       <r>   -16.7847     1.7442    20.2222 </r>
       <r>   -16.6754     2.0021    20.4410 </r>
       <r>   -16.5661     2.0987    20.6704 </r>
       <r>   -16.4568     1.8158    20.8689 </r>
       <r>   -16.3475     2.1016    21.0986 </r>
       <r>   -16.2382     2.4814    21.3698 </r>
       <r>   -16.1289     2.3822    21.6302 </r>
       <r>   -16.0196     2.8941    21.9465 </r>
       <r>   -15.9103     4.7175    22.4622 </r>
       <r>   -15.8010     2.0017    22.6810 </r>
       <r>   -15.6917     2.9850    23.0072 </r>
       <r>   -15.5824     1.2646    23.1455 </r>
       <r>   -15.4731     2.1156    23.3767 </r>
       <r>   -15.3638     1.8517    23.5791 </r>
       <r>   -15.2545     6.3459    24.2727 </r>
       <r>   -15.1452     9.3081    25.2901 </r>
       <r>   -15.0359    12.5759    26.6647 </r>
       <r>   -14.9266     7.4115    27.4748 </r>
       <r>   -14.8173     3.2435    27.8293 </r>
       <r>   -14.7080     1.5545    27.9992 </r>
       <r>   -14.5987     0.0073    28.0000 </r>
       <r>   -14.4894     0.0000    28.0000 </r>
       <r>   -14.3801     0.0000    28.0000 </r>
       <r>   -14.2708     0.0000    28.0000 </r>
       <r>   -14.1615     0.0000    28.0000 </r>
       <r>   -14.0522     0.0000    28.0000 </r>
       <r>   -13.9429     0.0000    28.0000 </r>
       <r>   -13.8336     0.0000    28.0000 </r>
       <r>   -13.7243     0.0000    28.0000 </r>
       <r>   -13.6150     0.0000    28.0000 </r>
       <r>   -13.5057     0.0000    28.0000 </r>
       <r>   -13.3964     0.0000    28.0000 </r>
       <r>   -13.2871     0.0000    28.0000 </r>
       <r>   -13.1778     0.0000    28.0000 </r>
       <r>   -13.0685     0.0000    28.0000 </r>
       <r>   -12.9592     0.0000    28.0000 </r>
       <r>   -12.8499     0.0000    28.0000 </r>
       <r>   -12.7406     0.0000    28.0000 </r>
       <r>   -12.6313     0.0000    28.0000 </r>
       <r>   -12.5220     0.0000    28.0000 </r>
       <r>   -12.4127     0.0000    28.0000 </r>
       <r>   -12.3034     0.0000    28.0000 </r>
       <r>   -12.1941     0.0000    28.0000 </r>
       <r>   -12.0848     0.0000    28.0000 </r>
       <r>   -11.9755     0.0000    28.0000 </r>
       <r>   -11.8662     0.0000    28.0000 </r>
       <r>   -11.7569     0.0497    28.0054 </r>
       <r>   -11.6476     0.6761    28.0793 </r>
       <r>   -11.5383     0.5416    28.1385 </r>
       <r>   -11.4290     0.7275    28.2181 </r>
       <r>   -11.3197     0.9145    28.3180 </r>
       <r>   -11.2104     1.0397    28.4317 </r>
       <r>   -11.1011     1.5109    28.5968 </r>
       <r>   -10.9918     0.4544    28.6465 </r>
       <r>   -10.8825     3.2182    28.9982 </r>
       <r>   -10.7732     2.3805    29.2584 </r>
       <r>   -10.6639     3.6686    29.6594 </r>
       <r>   -10.5546     2.4335    29.9254 </r>
       <r>   -10.4453     1.4390    30.0827 </r>
       <r>   -10.3360     2.4535    30.3508 </r>
       <r>   -10.2267     1.2564    30.4882 </r>
       <r>   -10.1174     1.7043    30.6745 </r>
       <r>   -10.0081     1.3011    30.8167 </r>
       <r>    -9.8988     1.2376    30.9519 </r>
       <r>    -9.7894     1.4804    31.1137 </r>
       <r>    -9.6801     1.2061    31.2456 </r>
       <r>    -9.5708     1.5930    31.4197 </r>
       <r>    -9.4615     1.5181    31.5856 </r>
       <r>    -9.3522     1.4875    31.7482 </r>
       <r>    -9.2429     1.5828    31.9212 </r>
       <r>    -9.1336     0.7209    32.0000 </r>
       <r>    -9.0243     0.0000    32.0000 </r>
       <r>    -8.9150     0.0000    32.0000 </r>
       <r>    -8.8057     0.0000    32.0000 </r>
       <r>    -8.6964     0.0000    32.0000 </r>
       <r>    -8.5871     0.0000    32.0000 </r>
       <r>    -8.4778     0.0000    32.0000 </r>
       <r>    -8.3685     0.0000    32.0000 </r>
       <r>    -8.2592     0.0000    32.0000 </r>
       <r>    -8.1499     0.0000    32.0000 </r>
       <r>    -8.0406     0.0000    32.0000 </r>
       <r>    -7.9313     0.0000    32.0000 </r>
       <r>    -7.8220     0.0000    32.0000 </r>
       <r>    -7.7127     0.0000    32.0000 </r>
       <r>    -7.6034     0.0000    32.0000 </r>
       <r>    -7.4941     0.0006    32.0001 </r>
       <r>    -7.3848     2.3306    32.2548 </r>
       <r>    -7.2755     2.3322    32.5097 </r>
       <r>    -7.1662     2.0832    32.7374 </r>
       <r>    -7.0569     1.8409    32.9386 </r>
       <r>    -6.9476     1.6612    33.1202 </r>
       <r>    -6.8383     5.3922    33.7096 </r>
       <r>    -6.7290     9.2712    34.7229 </r>
       <r>    -6.6197     3.9093    35.1502 </r>
       <r>    -6.5104     1.6704    35.3328 </r>
       <r>    -6.4011     1.9600    35.5470 </r>
       <r>    -6.2918     2.7998    35.8531 </r>
       <r>    -6.1825     4.3613    36.3298 </r>
       <r>    -6.0732     7.2890    37.1265 </r>
       <r>    -5.9639     3.6882    37.5296 </r>
       <r>    -5.8546     3.8508    37.9505 </r>
       <r>    -5.7453     4.2197    38.4117 </r>
       <r>    -5.6360     4.7237    38.9280 </r>
       <r>    -5.5267     4.9325    39.4671 </r>
       <r>    -5.4174     8.1763    40.3608 </r>
       <r>    -5.3081     7.3690    41.1663 </r>
       <r>    -5.1988     6.6633    41.8946 </r>
       <r>    -5.0895     5.6913    42.5167 </r>
       <r>    -4.9802     5.2015    43.0852 </r>
       <r>    -4.8709     4.3413    43.5597 </r>
       <r>    -4.7616     3.0878    43.8972 </r>
       <r>    -4.6523     4.0835    44.3435 </r>
       <r>    -4.5430     1.9977    44.5619 </r>
       <r>    -4.4337     2.7024    44.8573 </r>
       <r>    -4.3244     7.1735    45.6413 </r>
       <r>    -4.2151     5.1786    46.2074 </r>
       <r>    -4.1058     3.7933    46.6220 </r>
       <r>    -3.9965     4.9637    47.1645 </r>
       <r>    -3.8872     3.6259    47.5608 </r>
       <r>    -3.7779     2.4706    47.8309 </r>
       <r>    -3.6686     3.4292    48.2057 </r>
       <r>    -3.5593     3.0189    48.5357 </r>
       <r>    -3.4500     2.5263    48.8118 </r>
       <r>    -3.3407     3.1511    49.1562 </r>
       <r>    -3.2314     2.4478    49.4238 </r>
       <r>    -3.1221     2.5196    49.6992 </r>
       <r>    -3.0128     2.6038    49.9838 </r>
       <r>    -2.9035     3.3211    50.3468 </r>
       <r>    -2.7942     3.6296    50.7435 </r>
       <r>    -2.6849     4.8725    51.2761 </r>
       <r>    -2.5756     3.0948    51.6143 </r>
       <r>    -2.4662     3.1453    51.9581 </r>
       <r>    -2.3569     0.3831    52.0000 </r>
       <r>    -2.2476     0.0000    52.0000 </r>
       <r>    -2.1383     0.0000    52.0000 </r>
       <r>    -2.0290     0.0000    52.0000 </r>
       <r>    -1.9197     0.0000    52.0000 </r>
       <r>    -1.8104     0.0000    52.0000 </r>
       <r>    -1.7011     0.0937    52.0102 </r>
       <r>    -1.5918     0.4857    52.0633 </r>
       <r>    -1.4825     0.3060    52.0968 </r>
       <r>    -1.3732     4.1220    52.5473 </r>
       <r>    -1.2639     4.1104    52.9966 </r>
       <r>    -1.1546     3.8067    53.4127 </r>
       <r>    -1.0453     3.7720    53.8250 </r>
       <r>    -0.9360     3.1126    54.1652 </r>
       <r>    -0.8267     5.0011    54.7118 </r>
       <r>    -0.7174     3.4053    55.0840 </r>
       <r>    -0.6081     3.3676    55.4521 </r>
       <r>    -0.4988     2.7226    55.7497 </r>
       <r>    -0.3895     1.9492    55.9627 </r>
       <r>    -0.2802     1.5052    56.1272 </r>
       <r>    -0.1709     0.5223    56.1843 </r>
       <r>    -0.0616     0.2842    56.2154 </r>
       <r>     0.0477     0.0039    56.2158 </r>
       <r>     0.1570     0.2007    56.2377 </r>
       <r>     0.2663     1.7059    56.4242 </r>
       <r>     0.3756     1.6828    56.6081 </r>
       <r>     0.4849     1.6903    56.7929 </r>
       <r>     0.5942     1.9936    57.0108 </r>
       <r>     0.7035     2.2699    57.2589 </r>
       <r>     0.8128     3.8143    57.6758 </r>
       <r>     0.9221     3.1766    58.0230 </r>
       <r>     1.0314     6.1292    58.6929 </r>
       <r>     1.1407     7.6835    59.5328 </r>
       <r>     1.2500     7.4050    60.3422 </r>
       <r>     1.3593     6.1465    61.0140 </r>
       <r>     1.4686     8.7663    61.9722 </r>
       <r>     1.5779     4.9329    62.5113 </r>
       <r>     1.6872     5.5583    63.1189 </r>
       <r>     1.7965     3.9436    63.5499 </r>
       <r>     1.9058     2.4533    63.8181 </r>
       <r>     2.0151     1.3949    63.9705 </r>
       <r>     2.1244     0.2697    64.0000 </r>
       <r>     2.2337     0.0000    64.0000 </r>
       <r>     2.3430     0.0000    64.0000 </r>
       <r>     2.4523     0.0000    64.0000 </r>
       <r>     2.5616     0.0000    64.0000 </r>
       <r>     2.6709     0.0000    64.0000 </r>
       <r>     2.7802     0.0000    64.0000 </r>
       <r>     2.8895     0.0000    64.0000 </r>
       <r>     2.9988     0.0000    64.0000 </r>
       <r>     3.1081     0.0000    64.0000 </r>
       <r>     3.2174     0.0000    64.0000 </r>
       <r>     3.3267     0.0000    64.0000 </r>
       <r>     3.4360     0.0000    64.0000 </r>
       <r>     3.5453     0.0000    64.0000 </r>
      </set>
     </set>
    </array>
   </total>
  </dos>
 </calculation>
 <structure name="finalpos" >
  <crystal>
   <varray name="basis" >
    <v>       4.90607700       0.00000000       0.00000000 </v>
    <v>       0.00000000       5.51520900       0.00000000 </v>
    <v>       0.00000000       0.00000000      18.07929100 </v>
   </varray>
   <i name="volume">    489.19017950 </i>
   <varray name="rec_basis" >
    <v>       0.20382884       0.00000000       0.00000000 </v>
    <v>       0.00000000       0.18131679       0.00000000 </v>
    <v>       0.00000000       0.00000000       0.05531190 </v>
   </varray>
  </crystal>
  <varray name="positions" >
   <v>       0.50000000       0.50000000       0.50000000 </v>
   <v>       0.00000000       0.00000000       0.50000000 </v>
   <v>       0.25000000       0.25000000       0.41476404 </v>
   <v>       0.75000000       0.75000000       0.41476404 </v>
   <v>       0.75000000       0.25000000       0.58523596 </v>
   <v>       0.25000000       0.75000000       0.58523596 </v>
  </varray>
 </structure>
</modeling>
