<?xml version="1.0" encoding="ISO-8859-1"?>
<modeling>
 <generator>
  <i name="program" type="string">vasp </i>
  <i name="version" type="string">5.4.1  </i>
  <i name="subversion" type="string">24Jun15 (build Nov 20 2020 10:29:34) complex                          parallel </i>
  <i name="platform" type="string">IFC91_ompi </i>
  <i name="date" type="string">2021 09 09 </i>
  <i name="time" type="string">13:43:42 </i>
 </generator>
 <incar>
  <i type="string" name="PREC">a</i>
  <i type="string" name="ALGO"> Normal</i>
  <i type="int" name="ISPIN">     1</i>
  <i type="int" name="ICHARG">     2</i>
  <i type="int" name="NELM">   250</i>
  <i type="int" name="NELMDL">    -5</i>
  <i type="int" name="NELMIN">     6</i>
  <i type="int" name="IBRION">     2</i>
  <i name="EDIFF">      0.00001000</i>
  <i name="EDIFFG">     -0.01000000</i>
  <i type="int" name="NSW">   200</i>
  <i type="int" name="ISIF">     2</i>
  <i name="ENCUT">    520.00000000</i>
  <i name="POTIM">      0.30000000</i>
  <i type="logical" name="LREAL"> F  </i>
  <i type="int" name="ISMEAR">     0</i>
  <i name="SIGMA">      0.02000000</i>
  <i type="logical" name="LWAVE"> F  </i>
  <i type="logical" name="LCHARG"> F  </i>
  <i type="logical" name="LAECHG"> F  </i>
  <v type="int" name="KPOINT_BSE">    -1     0     0     0</v>
  <i type="int" name="NELM">   250</i>
 </incar>
 <kpoints>
  <generation param="Gamma">
   <v type="int" name="divisions">      21       15        1 </v>
   <v name="usershift">      0.00000000       0.00000000       0.00000000 </v>
   <v name="genvec1">      0.04761905       0.00000000       0.00000000 </v>
   <v name="genvec2">      0.00000000       0.06666667       0.00000000 </v>
   <v name="genvec3">      0.00000000       0.00000000       1.00000000 </v>
   <v name="shift">      0.00000000       0.00000000       0.00000000 </v>
  </generation>
  <varray name="kpointlist" >
   <v>       0.00000000       0.00000000       0.00000000 </v>
   <v>       0.04761905       0.00000000       0.00000000 </v>
   <v>       0.09523810       0.00000000       0.00000000 </v>
   <v>       0.14285714       0.00000000       0.00000000 </v>
   <v>       0.19047619       0.00000000       0.00000000 </v>
   <v>       0.23809524       0.00000000       0.00000000 </v>
   <v>       0.28571429       0.00000000       0.00000000 </v>
   <v>       0.33333333       0.00000000       0.00000000 </v>
   <v>       0.38095238       0.00000000       0.00000000 </v>
   <v>       0.42857143       0.00000000       0.00000000 </v>
   <v>       0.47619048       0.00000000       0.00000000 </v>
   <v>       0.00000000       0.06666667       0.00000000 </v>
   <v>       0.04761905       0.06666667       0.00000000 </v>
   <v>       0.09523810       0.06666667       0.00000000 </v>
   <v>       0.14285714       0.06666667       0.00000000 </v>
   <v>       0.19047619       0.06666667       0.00000000 </v>
   <v>       0.23809524       0.06666667       0.00000000 </v>
   <v>       0.28571429       0.06666667       0.00000000 </v>
   <v>       0.33333333       0.06666667       0.00000000 </v>
   <v>       0.38095238       0.06666667       0.00000000 </v>
   <v>       0.42857143       0.06666667       0.00000000 </v>
   <v>       0.47619048       0.06666667       0.00000000 </v>
   <v>      -0.47619048       0.06666667       0.00000000 </v>
   <v>      -0.42857143       0.06666667       0.00000000 </v>
   <v>      -0.38095238       0.06666667       0.00000000 </v>
   <v>      -0.33333333       0.06666667       0.00000000 </v>
   <v>      -0.28571429       0.06666667       0.00000000 </v>
   <v>      -0.23809524       0.06666667       0.00000000 </v>
   <v>      -0.19047619       0.06666667       0.00000000 </v>
   <v>      -0.14285714       0.06666667       0.00000000 </v>
   <v>      -0.09523810       0.06666667       0.00000000 </v>
   <v>      -0.04761905       0.06666667       0.00000000 </v>
   <v>       0.00000000       0.13333333       0.00000000 </v>
   <v>       0.04761905       0.13333333       0.00000000 </v>
   <v>       0.09523810       0.13333333       0.00000000 </v>
   <v>       0.14285714       0.13333333       0.00000000 </v>
   <v>       0.19047619       0.13333333       0.00000000 </v>
   <v>       0.23809524       0.13333333       0.00000000 </v>
   <v>       0.28571429       0.13333333       0.00000000 </v>
   <v>       0.33333333       0.13333333       0.00000000 </v>
   <v>       0.38095238       0.13333333       0.00000000 </v>
   <v>       0.42857143       0.13333333       0.00000000 </v>
   <v>       0.47619048       0.13333333       0.00000000 </v>
   <v>      -0.47619048       0.13333333       0.00000000 </v>
   <v>      -0.42857143       0.13333333       0.00000000 </v>
   <v>      -0.38095238       0.13333333       0.00000000 </v>
   <v>      -0.33333333       0.13333333       0.00000000 </v>
   <v>      -0.28571429       0.13333333       0.00000000 </v>
   <v>      -0.23809524       0.13333333       0.00000000 </v>
   <v>      -0.19047619       0.13333333       0.00000000 </v>
   <v>      -0.14285714       0.13333333       0.00000000 </v>
   <v>      -0.09523810       0.13333333       0.00000000 </v>
   <v>      -0.04761905       0.13333333       0.00000000 </v>
   <v>       0.00000000       0.20000000       0.00000000 </v>
   <v>       0.04761905       0.20000000       0.00000000 </v>
   <v>       0.09523810       0.20000000       0.00000000 </v>
   <v>       0.14285714       0.20000000       0.00000000 </v>
   <v>       0.19047619       0.20000000       0.00000000 </v>
   <v>       0.23809524       0.20000000       0.00000000 </v>
   <v>       0.28571429       0.20000000       0.00000000 </v>
   <v>       0.33333333       0.20000000       0.00000000 </v>
   <v>       0.38095238       0.20000000       0.00000000 </v>
   <v>       0.42857143       0.20000000       0.00000000 </v>
   <v>       0.47619048       0.20000000       0.00000000 </v>
   <v>      -0.47619048       0.20000000       0.00000000 </v>
   <v>      -0.42857143       0.20000000       0.00000000 </v>
   <v>      -0.38095238       0.20000000       0.00000000 </v>
   <v>      -0.33333333       0.20000000       0.00000000 </v>
   <v>      -0.28571429       0.20000000       0.00000000 </v>
   <v>      -0.23809524       0.20000000       0.00000000 </v>
   <v>      -0.19047619       0.20000000       0.00000000 </v>
   <v>      -0.14285714       0.20000000       0.00000000 </v>
   <v>      -0.09523810       0.20000000       0.00000000 </v>
   <v>      -0.04761905       0.20000000       0.00000000 </v>
   <v>       0.00000000       0.26666667       0.00000000 </v>
   <v>       0.04761905       0.26666667       0.00000000 </v>
   <v>       0.09523810       0.26666667       0.00000000 </v>
   <v>       0.14285714       0.26666667       0.00000000 </v>
   <v>       0.19047619       0.26666667       0.00000000 </v>
   <v>       0.23809524       0.26666667       0.00000000 </v>
   <v>       0.28571429       0.26666667       0.00000000 </v>
   <v>       0.33333333       0.26666667       0.00000000 </v>
   <v>       0.38095238       0.26666667       0.00000000 </v>
   <v>       0.42857143       0.26666667       0.00000000 </v>
   <v>       0.47619048       0.26666667       0.00000000 </v>
   <v>      -0.47619048       0.26666667       0.00000000 </v>
   <v>      -0.42857143       0.26666667       0.00000000 </v>
   <v>      -0.38095238       0.26666667       0.00000000 </v>
   <v>      -0.33333333       0.26666667       0.00000000 </v>
   <v>      -0.28571429       0.26666667       0.00000000 </v>
   <v>      -0.23809524       0.26666667       0.00000000 </v>
   <v>      -0.19047619       0.26666667       0.00000000 </v>
   <v>      -0.14285714       0.26666667       0.00000000 </v>
   <v>      -0.09523810       0.26666667       0.00000000 </v>
   <v>      -0.04761905       0.26666667       0.00000000 </v>
   <v>       0.00000000       0.33333333       0.00000000 </v>
   <v>       0.04761905       0.33333333       0.00000000 </v>
   <v>       0.09523810       0.33333333       0.00000000 </v>
   <v>       0.14285714       0.33333333       0.00000000 </v>
   <v>       0.19047619       0.33333333       0.00000000 </v>
   <v>       0.23809524       0.33333333       0.00000000 </v>
   <v>       0.28571429       0.33333333       0.00000000 </v>
   <v>       0.33333333       0.33333333       0.00000000 </v>
   <v>       0.38095238       0.33333333       0.00000000 </v>
   <v>       0.42857143       0.33333333       0.00000000 </v>
   <v>       0.47619048       0.33333333       0.00000000 </v>
   <v>      -0.47619048       0.33333333       0.00000000 </v>
   <v>      -0.42857143       0.33333333       0.00000000 </v>
   <v>      -0.38095238       0.33333333       0.00000000 </v>
   <v>      -0.33333333       0.33333333       0.00000000 </v>
   <v>      -0.28571429       0.33333333       0.00000000 </v>
   <v>      -0.23809524       0.33333333       0.00000000 </v>
   <v>      -0.19047619       0.33333333       0.00000000 </v>
   <v>      -0.14285714       0.33333333       0.00000000 </v>
   <v>      -0.09523810       0.33333333       0.00000000 </v>
   <v>      -0.04761905       0.33333333       0.00000000 </v>
   <v>       0.00000000       0.40000000       0.00000000 </v>
   <v>       0.04761905       0.40000000       0.00000000 </v>
   <v>       0.09523810       0.40000000       0.00000000 </v>
   <v>       0.14285714       0.40000000       0.00000000 </v>
   <v>       0.19047619       0.40000000       0.00000000 </v>
   <v>       0.23809524       0.40000000       0.00000000 </v>
   <v>       0.28571429       0.40000000       0.00000000 </v>
   <v>       0.33333333       0.40000000       0.00000000 </v>
   <v>       0.38095238       0.40000000       0.00000000 </v>
   <v>       0.42857143       0.40000000       0.00000000 </v>
   <v>       0.47619048       0.40000000       0.00000000 </v>
   <v>      -0.47619048       0.40000000       0.00000000 </v>
   <v>      -0.42857143       0.40000000       0.00000000 </v>
   <v>      -0.38095238       0.40000000       0.00000000 </v>
   <v>      -0.33333333       0.40000000       0.00000000 </v>
   <v>      -0.28571429       0.40000000       0.00000000 </v>
   <v>      -0.23809524       0.40000000       0.00000000 </v>
   <v>      -0.19047619       0.40000000       0.00000000 </v>
   <v>      -0.14285714       0.40000000       0.00000000 </v>
   <v>      -0.09523810       0.40000000       0.00000000 </v>
   <v>      -0.04761905       0.40000000       0.00000000 </v>
   <v>       0.00000000       0.46666667       0.00000000 </v>
   <v>       0.04761905       0.46666667       0.00000000 </v>
   <v>       0.09523810       0.46666667       0.00000000 </v>
   <v>       0.14285714       0.46666667       0.00000000 </v>
   <v>       0.19047619       0.46666667       0.00000000 </v>
   <v>       0.23809524       0.46666667       0.00000000 </v>
   <v>       0.28571429       0.46666667       0.00000000 </v>
   <v>       0.33333333       0.46666667       0.00000000 </v>
   <v>       0.38095238       0.46666667       0.00000000 </v>
   <v>       0.42857143       0.46666667       0.00000000 </v>
   <v>       0.47619048       0.46666667       0.00000000 </v>
   <v>      -0.47619048       0.46666667       0.00000000 </v>
   <v>      -0.42857143       0.46666667       0.00000000 </v>
   <v>      -0.38095238       0.46666667       0.00000000 </v>
   <v>      -0.33333333       0.46666667       0.00000000 </v>
   <v>      -0.28571429       0.46666667       0.00000000 </v>
   <v>      -0.23809524       0.46666667       0.00000000 </v>
   <v>      -0.19047619       0.46666667       0.00000000 </v>
   <v>      -0.14285714       0.46666667       0.00000000 </v>
   <v>      -0.09523810       0.46666667       0.00000000 </v>
   <v>      -0.04761905       0.46666667       0.00000000 </v>
  </varray>
  <varray name="weights" >
   <v>       0.00317460 </v>
   <v>       0.00634921 </v>
   <v>       0.00634921 </v>
   <v>       0.00634921 </v>
   <v>       0.00634921 </v>
   <v>       0.00634921 </v>
   <v>       0.00634921 </v>
   <v>       0.00634921 </v>
   <v>       0.00634921 </v>
   <v>       0.00634921 </v>
   <v>       0.00634921 </v>
   <v>       0.00634921 </v>
   <v>       0.00634921 </v>
   <v>       0.00634921 </v>
   <v>       0.00634921 </v>
   <v>       0.00634921 </v>
   <v>       0.00634921 </v>
   <v>       0.00634921 </v>
   <v>       0.00634921 </v>
   <v>       0.00634921 </v>
   <v>       0.00634921 </v>
   <v>       0.00634921 </v>
   <v>       0.00634921 </v>
   <v>       0.00634921 </v>
   <v>       0.00634921 </v>
   <v>       0.00634921 </v>
   <v>       0.00634921 </v>
   <v>       0.00634921 </v>
   <v>       0.00634921 </v>
   <v>       0.00634921 </v>
   <v>       0.00634921 </v>
   <v>       0.00634921 </v>
   <v>       0.00634921 </v>
   <v>       0.00634921 </v>
   <v>       0.00634921 </v>
   <v>       0.00634921 </v>
   <v>       0.00634921 </v>
   <v>       0.00634921 </v>
   <v>       0.00634921 </v>
   <v>       0.00634921 </v>
   <v>       0.00634921 </v>
   <v>       0.00634921 </v>
   <v>       0.00634921 </v>
   <v>       0.00634921 </v>
   <v>       0.00634921 </v>
   <v>       0.00634921 </v>
   <v>       0.00634921 </v>
   <v>       0.00634921 </v>
   <v>       0.00634921 </v>
   <v>       0.00634921 </v>
   <v>       0.00634921 </v>
   <v>       0.00634921 </v>
   <v>       0.00634921 </v>
   <v>       0.00634921 </v>
   <v>       0.00634921 </v>
   <v>       0.00634921 </v>
   <v>       0.00634921 </v>
   <v>       0.00634921 </v>
   <v>       0.00634921 </v>
   <v>       0.00634921 </v>
   <v>       0.00634921 </v>
   <v>       0.00634921 </v>
   <v>       0.00634921 </v>
   <v>       0.00634921 </v>
   <v>       0.00634921 </v>
   <v>       0.00634921 </v>
   <v>       0.00634921 </v>
   <v>       0.00634921 </v>
   <v>       0.00634921 </v>
   <v>       0.00634921 </v>
   <v>       0.00634921 </v>
   <v>       0.00634921 </v>
   <v>       0.00634921 </v>
   <v>       0.00634921 </v>
   <v>       0.00634921 </v>
   <v>       0.00634921 </v>
   <v>       0.00634921 </v>
   <v>       0.00634921 </v>
   <v>       0.00634921 </v>
   <v>       0.00634921 </v>
   <v>       0.00634921 </v>
   <v>       0.00634921 </v>
   <v>       0.00634921 </v>
   <v>       0.00634921 </v>
   <v>       0.00634921 </v>
   <v>       0.00634921 </v>
   <v>       0.00634921 </v>
   <v>       0.00634921 </v>
   <v>       0.00634921 </v>
   <v>       0.00634921 </v>
   <v>       0.00634921 </v>
   <v>       0.00634921 </v>
   <v>       0.00634921 </v>
   <v>       0.00634921 </v>
   <v>       0.00634921 </v>
   <v>       0.00634921 </v>
   <v>       0.00634921 </v>
   <v>       0.00634921 </v>
   <v>       0.00634921 </v>
   <v>       0.00634921 </v>
   <v>       0.00634921 </v>
   <v>       0.00634921 </v>
   <v>       0.00634921 </v>
   <v>       0.00634921 </v>
   <v>       0.00634921 </v>
   <v>       0.00634921 </v>
   <v>       0.00634921 </v>
   <v>       0.00634921 </v>
   <v>       0.00634921 </v>
   <v>       0.00634921 </v>
   <v>       0.00634921 </v>
   <v>       0.00634921 </v>
   <v>       0.00634921 </v>
   <v>       0.00634921 </v>
   <v>       0.00634921 </v>
   <v>       0.00634921 </v>
   <v>       0.00634921 </v>
   <v>       0.00634921 </v>
   <v>       0.00634921 </v>
   <v>       0.00634921 </v>
   <v>       0.00634921 </v>
   <v>       0.00634921 </v>
   <v>       0.00634921 </v>
   <v>       0.00634921 </v>
   <v>       0.00634921 </v>
   <v>       0.00634921 </v>
   <v>       0.00634921 </v>
   <v>       0.00634921 </v>
   <v>       0.00634921 </v>
   <v>       0.00634921 </v>
   <v>       0.00634921 </v>
   <v>       0.00634921 </v>
   <v>       0.00634921 </v>
   <v>       0.00634921 </v>
   <v>       0.00634921 </v>
   <v>       0.00634921 </v>
   <v>       0.00634921 </v>
   <v>       0.00634921 </v>
   <v>       0.00634921 </v>
   <v>       0.00634921 </v>
   <v>       0.00634921 </v>
   <v>       0.00634921 </v>
   <v>       0.00634921 </v>
   <v>       0.00634921 </v>
   <v>       0.00634921 </v>
   <v>       0.00634921 </v>
   <v>       0.00634921 </v>
   <v>       0.00634921 </v>
   <v>       0.00634921 </v>
   <v>       0.00634921 </v>
   <v>       0.00634921 </v>
   <v>       0.00634921 </v>
   <v>       0.00634921 </v>
   <v>       0.00634921 </v>
   <v>       0.00634921 </v>
   <v>       0.00634921 </v>
   <v>       0.00634921 </v>
   <v>       0.00634921 </v>
  </varray>
 </kpoints>
 <parameters>
  <separator name="general" >
   <i type="string" name="SYSTEM">unknown system</i>
   <i type="logical" name="LCOMPAT"> F  </i>
  </separator>
  <separator name="electronic" >
   <i type="string" name="PREC">a</i>
   <i name="ENMAX">    520.00000000</i>
   <i name="ENAUG">    342.92400000</i>
   <i name="EDIFF">      0.00001000</i>
   <i type="int" name="IALGO">    38</i>
   <i type="int" name="IWAVPR">    11</i>
   <i type="int" name="NBANDS">    16</i>
   <i name="NELECT">     20.00000000</i>
   <i type="int" name="TURBO">     0</i>
   <i type="int" name="IRESTART">     0</i>
   <i type="int" name="NREBOOT">     0</i>
   <i type="int" name="NMIN">     0</i>
   <i name="EREF">      0.00000000</i>
   <separator name="electronic smearing" >
    <i type="int" name="ISMEAR">     0</i>
    <i name="SIGMA">      0.02000000</i>
    <i name="KSPACING">      0.50000000</i>
    <i type="logical" name="KGAMMA"> T  </i>
   </separator>
   <separator name="electronic projectors" >
    <i type="logical" name="LREAL"> F  </i>
    <v name="ROPT">      0.00000000</v>
    <i type="int" name="LMAXPAW">  -100</i>
    <i type="int" name="LMAXMIX">     2</i>
    <i type="logical" name="NLSPLINE"> F  </i>
   </separator>
   <separator name="electronic startup" >
    <i type="int" name="ISTART">     0</i>
    <i type="int" name="ICHARG">     2</i>
    <i type="int" name="INIWAV">     1</i>
   </separator>
   <separator name="electronic spin" >
    <i type="int" name="ISPIN">     1</i>
    <i type="logical" name="LNONCOLLINEAR"> F  </i>
    <v name="MAGMOM">      1.00000000      1.00000000      1.00000000      1.00000000</v>
    <i name="NUPDOWN">     -1.00000000</i>
    <i type="logical" name="LSORBIT"> F  </i>
    <v name="SAXIS">      0.00000000      0.00000000      1.00000000</v>
    <i type="logical" name="LSPIRAL"> F  </i>
    <v name="QSPIRAL">      0.00000000      0.00000000      0.00000000</v>
    <i type="logical" name="LZEROZ"> F  </i>
   </separator>
   <separator name="electronic exchange-correlation" >
    <i type="logical" name="LASPH"> F  </i>
    <i type="logical" name="LMETAGGA"> F  </i>
   </separator>
   <separator name="electronic convergence" >
    <i type="int" name="NELM">   250</i>
    <i type="int" name="NELMDL">    -5</i>
    <i type="int" name="NELMIN">     6</i>
    <i name="ENINI">    520.00000000</i>
    <separator name="electronic convergence detail" >
     <i type="logical" name="LDIAG"> T  </i>
     <i type="logical" name="LSUBROT"> F  </i>
     <i name="WEIMIN">      0.00100000</i>
     <i name="EBREAK">      0.00000016</i>
     <i name="DEPER">      0.30000000</i>
     <i type="int" name="NRMM">     4</i>
     <i name="TIME">      0.40000000</i>
    </separator>
   </separator>
   <separator name="electronic mixer" >
    <i name="AMIX">      0.40000000</i>
    <i name="BMIX">      1.00000000</i>
    <i name="AMIN">      0.10000000</i>
    <i name="AMIX_MAG">      1.60000000</i>
    <i name="BMIX_MAG">      1.00000000</i>
    <separator name="electronic mixer details" >
     <i type="int" name="IMIX">     4</i>
     <i type="logical" name="MIXFIRST"> F  </i>
     <i type="int" name="MAXMIX">   -45</i>
     <i name="WC">    100.00000000</i>
     <i type="int" name="INIMIX">     1</i>
     <i type="int" name="MIXPRE">     1</i>
     <i type="int" name="MREMOVE">     5</i>
    </separator>
   </separator>
   <separator name="electronic dipolcorrection" >
    <i type="logical" name="LDIPOL"> F  </i>
    <i type="logical" name="LMONO"> F  </i>
    <i type="int" name="IDIPOL">     0</i>
    <i name="EPSILON">      1.00000000</i>
    <v name="DIPOL">   -100.00000000   -100.00000000   -100.00000000</v>
    <i name="EFIELD">      0.00000000</i>
   </separator>
  </separator>
  <separator name="grids" >
   <i type="int" name="NGX">    28</i>
   <i type="int" name="NGY">    36</i>
   <i type="int" name="NGZ">   150</i>
   <i type="int" name="NGXF">    56</i>
   <i type="int" name="NGYF">    72</i>
   <i type="int" name="NGZF">   300</i>
   <i type="logical" name="ADDGRID"> F  </i>
  </separator>
  <separator name="ionic" >
   <i type="int" name="NSW">   200</i>
   <i type="int" name="IBRION">     2</i>
   <i type="int" name="ISIF">     2</i>
   <i name="PSTRESS">      0.00000000</i>
   <i name="EDIFFG">     -0.01000000</i>
   <i type="int" name="NFREE">     1</i>
   <i name="POTIM">      0.30000000</i>
   <i name="SMASS">     -3.00000000</i>
   <i name="SCALEE">      1.00000000</i>
  </separator>
  <separator name="ionic md" >
   <i name="TEBEG">      0.00010000</i>
   <i name="TEEND">      0.00010000</i>
   <i type="int" name="NBLOCK">     1</i>
   <i type="int" name="KBLOCK">   200</i>
   <i type="int" name="NPACO">   256</i>
   <i name="APACO">     16.00000000</i>
  </separator>
  <separator name="symmetry" >
   <i type="int" name="ISYM">     2</i>
   <i name="SYMPREC">      0.00001000</i>
  </separator>
  <separator name="dos" >
   <i type="logical" name="LORBIT"> F  </i>
   <v name="RWIGS">     -1.00000000</v>
   <i type="int" name="NEDOS">   301</i>
   <i name="EMIN">     10.00000000</i>
   <i name="EMAX">    -10.00000000</i>
   <i name="EFERMI">      0.00000000</i>
  </separator>
  <separator name="writing" >
   <i type="int" name="NWRITE">     2</i>
   <i type="logical" name="LWAVE"> F  </i>
   <i type="logical" name="LCHARG"> F  </i>
   <i type="logical" name="LPARD"> F  </i>
   <i type="logical" name="LVTOT"> F  </i>
   <i type="logical" name="LVHAR"> F  </i>
   <i type="logical" name="LELF"> F  </i>
   <i type="logical" name="LOPTICS"> F  </i>
   <v name="STM">      0.00000000      0.00000000      0.00000000      0.00000000      0.00000000      0.00000000      0.00000000</v>
  </separator>
  <separator name="performance" >
   <i type="int" name="NPAR">     4</i>
   <i type="int" name="NSIM">     4</i>
   <i type="int" name="NBLK">    -1</i>
   <i type="logical" name="LPLANE"> T  </i>
   <i type="logical" name="LSCALAPACK"> T  </i>
   <i type="logical" name="LSCAAWARE"> F  </i>
   <i type="logical" name="LSCALU"> F  </i>
   <i type="logical" name="LASYNC"> F  </i>
   <i type="logical" name="LORBITALREAL"> F  </i>
  </separator>
  <separator name="miscellaneous" >
   <i type="int" name="IDIOT">     3</i>
   <i type="logical" name="LMUSIC"> F  </i>
   <v name="POMASS">     30.97400000</v>
   <v name="DARWINR">      0.00000000</v>
   <v name="DARWINV">      1.00000000</v>
   <i type="logical" name="LCORR"> T  </i>
  </separator>
  <i type="logical" name="GGA_COMPAT"> T  </i>
  <i type="logical" name="LBERRY"> F  </i>
  <i type="int" name="ICORELEVEL">     0</i>
  <i type="logical" name="LDAU"> F  </i>
  <i type="int" name="I_CONSTRAINED_M">     0</i>
  <separator name="electronic exchange-correlation" >
   <i type="string" name="GGA">--</i>
   <i type="int" name="VOSKOWN">     0</i>
   <i type="logical" name="LHFCALC"> F  </i>
   <i type="string" name="PRECFOCK"></i>
   <i type="logical" name="LSYMGRAD"> F  </i>
   <i type="logical" name="LHFONE"> F  </i>
   <i type="logical" name="LRHFCALC"> F  </i>
   <i type="logical" name="LTHOMAS"> F  </i>
   <i type="logical" name="LMODELHF"> F  </i>
   <i name="ENCUT4O">     -1.00000000</i>
   <i type="int" name="EXXOEP">     0</i>
   <i type="int" name="FOURORBIT">     0</i>
   <i name="AEXX">      0.00000000</i>
   <i name="HFALPHA">      0.00000000</i>
   <i name="MCALPHA">      0.00000000</i>
   <i name="ALDAX">      1.00000000</i>
   <i name="AGGAX">      1.00000000</i>
   <i name="ALDAC">      1.00000000</i>
   <i name="AGGAC">      1.00000000</i>
   <i type="int" name="NKREDX">     1</i>
   <i type="int" name="NKREDY">     1</i>
   <i type="int" name="NKREDZ">     1</i>
   <i type="logical" name="SHIFTRED"> F  </i>
   <i type="logical" name="ODDONLY"> F  </i>
   <i type="logical" name="EVENONLY"> F  </i>
   <i type="int" name="LMAXFOCK">     0</i>
   <i type="int" name="NMAXFOCKAE">     0</i>
   <i type="logical" name="LFOCKAEDFT"> F  </i>
   <i name="HFSCREEN">      0.00000000</i>
   <i name="HFSCREENC">      0.00000000</i>
   <i type="int" name="NBANDSGWLOW">     0</i>
  </separator>
  <separator name="vdW DFT" >
   <i type="logical" name="LUSE_VDW"> F  </i>
   <i name="Zab_VDW">     -0.84910000</i>
   <i name="PARAM1">      0.12340000</i>
   <i name="PARAM2">      1.00000000</i>
   <i name="PARAM3">      0.00000000</i>
  </separator>
  <separator name="model GW" >
   <i type="int" name="MODEL_GW">     0</i>
   <i name="MODEL_EPS0">     46.81839193</i>
   <i name="MODEL_ALPHA">      1.00000000</i>
  </separator>
  <separator name="linear response parameters" >
   <i type="logical" name="LEPSILON"> F  </i>
   <i type="logical" name="LRPA"> F  </i>
   <i type="logical" name="LNABLA"> F  </i>
   <i type="logical" name="LVEL"> F  </i>
   <i type="int" name="KINTER">     0</i>
   <i name="CSHIFT">      0.10000000</i>
   <i name="OMEGAMAX">     -1.00000000</i>
   <i name="DEG_THRESHOLD">      0.00200000</i>
  </separator>
  <separator name="orbital magnetization" >
   <i type="logical" name="NUCIND"> F  </i>
   <v name="MAGPOS">      0.00000000      0.00000000      0.00000000</v>
   <i type="logical" name="LNICSALL"> T  </i>
   <i type="logical" name="ORBITALMAG"> F  </i>
   <i type="logical" name="LMAGBLOCH"> F  </i>
   <i type="logical" name="LCHIMAG"> F  </i>
   <i type="logical" name="LGAUGE"> T  </i>
   <i type="int" name="MAGATOM">     0</i>
   <v name="MAGDIPOL">      0.00000000      0.00000000      0.00000000</v>
   <v name="AVECCONST">      0.00000000      0.00000000      0.00000000</v>
  </separator>
  <separator name="response functions" >
   <i type="logical" name="LADDER"> F  </i>
   <i type="logical" name="LFXC"> F  </i>
   <i type="logical" name="LHARTREE"> T  </i>
   <i type="int" name="IBSE">     0</i>
   <v type="int" name="KPOINT">    -1     0     0     0</v>
   <i type="logical" name="LTCTE"> F  </i>
   <i type="logical" name="LTETE"> F  </i>
   <i type="logical" name="LTRIPLET"> F  </i>
   <i type="logical" name="LFXCEPS"> F  </i>
   <i type="logical" name="LFXHEG"> F  </i>
   <i type="int" name="NATURALO">     0</i>
   <i type="logical" name="L2ORDER"> F  </i>
   <i type="logical" name="LUSEW"> F  </i>
   <i name="ENCUTGW">     -2.00000000</i>
   <i name="ENCUTGWSOFT">     -2.00000000</i>
   <i name="ENCUTLF">     -1.00000000</i>
   <i type="int" name="LMAXMP2">    -1</i>
   <i name="SCISSOR">      0.00000000</i>
   <i type="int" name="NOMEGA">     0</i>
   <i type="int" name="NOMEGAR">     0</i>
   <i type="int" name="NBANDSGW">    -1</i>
   <i type="int" name="NBANDSO">    -1</i>
   <i type="int" name="NBANDSV">    -1</i>
   <i type="int" name="NELM">   250</i>
   <i type="int" name="NELMHF">     1</i>
   <i type="int" name="DIM">     3</i>
   <i type="int" name="ANTIRES">     0</i>
   <i name="OMEGAMAX">    -30.00000000</i>
   <i name="OMEGAMIN">    -30.00000000</i>
   <i name="OMEGATL">   -200.00000000</i>
   <i type="int" name="OMEGAGRID">     0</i>
   <i name="CSHIFT">     -0.10000000</i>
   <i type="logical" name="SELFENERGY"> F  </i>
   <i type="logical" name="LSPECTRAL"> F  </i>
   <i type="logical" name="LSPECTRALGW"> F  </i>
   <i type="logical" name="LSINGLES"> F  </i>
   <i type="logical" name="LFERMIGW"> F  </i>
   <i type="logical" name="ODDONLYGW"> F  </i>
   <i type="logical" name="EVENONLYGW"> F  </i>
   <i type="int" name="NKREDLFX">     1</i>
   <i type="int" name="NKREDLFY">     1</i>
   <i type="int" name="NKREDLFZ">     1</i>
   <i type="int" name="MAXMEM">  1800</i>
   <i type="int" name="TELESCOPE">     0</i>
   <i type="int" name="TAUPAR">     1</i>
   <i type="int" name="OMEGAPAR">    -1</i>
   <i name="LAMBDA">      1.00000000</i>
  </separator>
  <separator name="External order field" >
   <i name="OFIELD_KAPPA">      0.00000000</i>
   <v name="OFIELD_K">      0.00000000      0.00000000      0.00000000</v>
   <i name="OFIELD_Q6_NEAR">      0.00000000</i>
   <i name="OFIELD_Q6_FAR">      0.00000000</i>
   <i name="OFIELD_A">      0.00000000</i>
  </separator>
 </parameters>
 <atominfo>
  <atoms>       4 </atoms>
  <types>       1 </types>
  <array name="atoms" >
   <dimension dim="1">ion</dimension>
   <field type="string">element</field>
   <field type="int">atomtype</field>
   <set>
    <rc><c>P </c><c>   1</c></rc>
    <rc><c>P </c><c>   1</c></rc>
    <rc><c>P </c><c>   1</c></rc>
    <rc><c>P </c><c>   1</c></rc>
   </set>
  </array>
  <array name="atomtypes" >
   <dimension dim="1">type</dimension>
   <field type="int">atomspertype</field>
   <field type="string">element</field>
   <field>mass</field>
   <field>valence</field>
   <field type="string">pseudopotential</field>
   <set>
    <rc><c>   4</c><c>P </c><c>     30.97400000</c><c>      5.00000000</c><c>  PAW_PBE P 06Sep2000                   </c></rc>
   </set>
  </array>
 </atominfo>
 <structure name="initialpos" >
  <crystal>
   <varray name="basis" >
    <v>       3.33409100       0.00000000       0.00000000 </v>
    <v>       0.00000000       4.67507400      -0.00005300 </v>
    <v>       0.00000000       0.00000000      20.02439000 </v>
   </varray>
   <i name="volume">    312.12261286 </i>
   <varray name="rec_basis" >
    <v>       0.29993183       0.00000000       0.00000000 </v>
    <v>       0.00000000       0.21390036       0.00000000 </v>
    <v>       0.00000000       0.00000057       0.04993910 </v>
   </varray>
  </crystal>
  <varray name="positions" >
   <v>       0.50000000       0.91077300       0.55252100 </v>
   <v>       0.50000000       0.08922700       0.44747900 </v>
   <v>       0.00000000       0.41076900       0.44747900 </v>
   <v>       0.00000000       0.58923100       0.55252100 </v>
  </varray>
 </structure>
 <calculation>
  <scstep>
   <time name="dav">    1.50    1.50</time>
   <time name="total">    1.52    1.53</time>
   <energy>
    <i name="alphaZ">      5.13952201 </i>
    <i name="ewald">   1811.15089348 </i>
    <i name="hartreedc">  -2405.26437216 </i>
    <i name="XCdc">     12.82741283 </i>
    <i name="pawpsdc">    559.04011960 </i>
    <i name="pawaedc">   -526.39432044 </i>
    <i name="eentropy">     -0.00046871 </i>
    <i name="bandstr">    -27.78477954 </i>
    <i name="atom">    704.16778566 </i>
    <i name="e_fr_energy">    132.88179274 </i>
    <i name="e_wo_entrp">    132.88226145 </i>
    <i name="e_0_energy">    132.88202710 </i>
   </energy>
  </scstep>
  <scstep>
   <time name="dav">    1.99    1.99</time>
   <time name="total">    1.99    1.99</time>
   <energy>
    <i name="e_fr_energy">     -6.04707397 </i>
    <i name="e_wo_entrp">     -6.04707397 </i>
    <i name="e_0_energy">     -6.04707397 </i>
   </energy>
  </scstep>
  <scstep>
   <time name="dav">    1.84    1.84</time>
   <time name="total">    1.84    1.84</time>
   <energy>
    <i name="e_fr_energy">    -21.31546032 </i>
    <i name="e_wo_entrp">    -21.31546032 </i>
    <i name="e_0_energy">    -21.31546032 </i>
   </energy>
  </scstep>
  <scstep>
   <time name="dav">    1.88    1.88</time>
   <time name="total">    1.88    1.89</time>
   <energy>
    <i name="e_fr_energy">    -21.62854436 </i>
    <i name="e_wo_entrp">    -21.62854436 </i>
    <i name="e_0_energy">    -21.62854436 </i>
   </energy>
  </scstep>
  <scstep>
   <time name="dav">    2.00    2.00</time>
   <time name="total">    2.09    2.09</time>
   <energy>
    <i name="e_fr_energy">    -21.63828298 </i>
    <i name="e_wo_entrp">    -21.63828298 </i>
    <i name="e_0_energy">    -21.63828298 </i>
   </energy>
  </scstep>
  <scstep>
   <time name="dav">    1.79    1.79</time>
   <time name="total">    1.91    1.91</time>
   <energy>
    <i name="e_fr_energy">    -21.50782002 </i>
    <i name="e_wo_entrp">    -21.50782002 </i>
    <i name="e_0_energy">    -21.50782002 </i>
   </energy>
  </scstep>
  <scstep>
   <time name="dav">    1.75    1.75</time>
   <time name="total">    1.86    1.86</time>
   <energy>
    <i name="e_fr_energy">    -21.44420285 </i>
    <i name="e_wo_entrp">    -21.44420285 </i>
    <i name="e_0_energy">    -21.44420285 </i>
   </energy>
  </scstep>
  <scstep>
   <time name="dav">    1.82    1.82</time>
   <time name="total">    1.93    1.93</time>
   <energy>
    <i name="e_fr_energy">    -21.44385043 </i>
    <i name="e_wo_entrp">    -21.44385043 </i>
    <i name="e_0_energy">    -21.44385043 </i>
   </energy>
  </scstep>
  <scstep>
   <time name="dav">    2.11    2.11</time>
   <time name="total">    2.23    2.23</time>
   <energy>
    <i name="e_fr_energy">    -21.44371694 </i>
    <i name="e_wo_entrp">    -21.44371694 </i>
    <i name="e_0_energy">    -21.44371694 </i>
   </energy>
  </scstep>
  <scstep>
   <time name="dav">    1.84    1.84</time>
   <time name="total">    1.95    1.95</time>
   <energy>
    <i name="e_fr_energy">    -21.44360427 </i>
    <i name="e_wo_entrp">    -21.44360427 </i>
    <i name="e_0_energy">    -21.44360427 </i>
   </energy>
  </scstep>
  <scstep>
   <time name="dav">    1.80    1.80</time>
   <time name="total">    1.91    1.91</time>
   <energy>
    <i name="e_fr_energy">    -21.44353422 </i>
    <i name="e_wo_entrp">    -21.44353422 </i>
    <i name="e_0_energy">    -21.44353422 </i>
   </energy>
  </scstep>
  <scstep>
   <time name="dav">    1.63    1.63</time>
   <time name="total">    1.74    1.74</time>
   <energy>
    <i name="e_fr_energy">    -21.44390325 </i>
    <i name="e_wo_entrp">    -21.44390325 </i>
    <i name="e_0_energy">    -21.44390325 </i>
   </energy>
  </scstep>
  <scstep>
   <time name="dav">    1.61    1.61</time>
   <time name="total">    1.72    1.72</time>
   <energy>
    <i name="e_fr_energy">    -21.44399769 </i>
    <i name="e_wo_entrp">    -21.44399769 </i>
    <i name="e_0_energy">    -21.44399769 </i>
   </energy>
  </scstep>
  <scstep>
   <time name="dav">    1.51    1.51</time>
   <time name="total">    1.62    1.62</time>
   <energy>
    <i name="e_fr_energy">    -21.44411530 </i>
    <i name="e_wo_entrp">    -21.44411530 </i>
    <i name="e_0_energy">    -21.44411530 </i>
   </energy>
  </scstep>
  <scstep>
   <time name="dav">    1.55    1.55</time>
   <time name="total">    1.67    1.67</time>
   <energy>
    <i name="e_fr_energy">    -21.44414283 </i>
    <i name="e_wo_entrp">    -21.44414283 </i>
    <i name="e_0_energy">    -21.44414283 </i>
   </energy>
  </scstep>
  <scstep>
   <time name="dav">    1.49    1.49</time>
   <time name="total">    1.60    1.61</time>
   <energy>
    <i name="e_fr_energy">    -21.44417144 </i>
    <i name="e_wo_entrp">    -21.44417144 </i>
    <i name="e_0_energy">    -21.44417144 </i>
   </energy>
  </scstep>
  <scstep>
   <time name="dav">    1.47    1.47</time>
   <time name="total">    1.49    1.50</time>
   <energy>
    <i name="alphaZ">      5.13952201 </i>
    <i name="ewald">   1811.15089348 </i>
    <i name="hartreedc">  -2419.71301602 </i>
    <i name="XCdc">     13.86122567 </i>
    <i name="pawpsdc">   2008.72791119 </i>
    <i name="pawaedc">  -1976.38759288 </i>
    <i name="eentropy">     -0.00000000 </i>
    <i name="bandstr">   -168.39090296 </i>
    <i name="atom">    704.16778566 </i>
    <i name="e_fr_energy">    -21.44417385 </i>
    <i name="e_wo_entrp">    -21.44417385 </i>
    <i name="e_0_energy">    -21.44417385 </i>
   </energy>
  </scstep>
  <structure>
   <crystal>
    <varray name="basis" >
     <v>       3.33409100       0.00000000       0.00000000 </v>
     <v>       0.00000000       4.67507400      -0.00005300 </v>
     <v>       0.00000000       0.00000000      20.02439000 </v>
    </varray>
    <i name="volume">    312.12261286 </i>
    <varray name="rec_basis" >
     <v>       0.29993183       0.00000000       0.00000000 </v>
     <v>       0.00000000       0.21390036       0.00000000 </v>
     <v>       0.00000000       0.00000057       0.04993910 </v>
    </varray>
   </crystal>
   <varray name="positions" >
    <v>       0.50000000       0.91077300       0.55252100 </v>
    <v>       0.50000000       0.08922700       0.44747900 </v>
    <v>       0.00000000       0.41076900       0.44747900 </v>
    <v>       0.00000000       0.58923100       0.55252100 </v>
   </varray>
  </structure>
  <varray name="forces" >
   <v>       0.00000006      -0.19320387      -0.04580116 </v>
   <v>      -0.00000006       0.19320387       0.04580116 </v>
   <v>      -0.00000008      -0.19323205       0.04580785 </v>
   <v>       0.00000008       0.19323205      -0.04580785 </v>
  </varray>
  <varray name="stress" >
   <v>      -7.12470855       0.00000517       0.00000067 </v>
   <v>       0.00000519      -5.30028842       0.00036322 </v>
   <v>       0.00000064       0.00036316      -1.05236273 </v>
  </varray>
  <energy>
   <i name="e_fr_energy">    -21.44417385 </i>
   <i name="e_wo_entrp">    -21.44417385 </i>
   <i name="e_0_energy">     -0.00000000 </i>
  </energy>
  <time name="totalsc">   31.75   31.79</time>
 </calculation>
 <calculation>
  <scstep>
   <time name="dav">    1.60    1.60</time>
   <time name="total">    1.71    1.72</time>
   <energy>
    <i name="alphaZ">      5.13952201 </i>
    <i name="ewald">   1813.16017498 </i>
    <i name="hartreedc">  -2421.40534589 </i>
    <i name="XCdc">     13.89484273 </i>
    <i name="pawpsdc">   2008.48643114 </i>
    <i name="pawaedc">  -1976.14614741 </i>
    <i name="eentropy">     -0.00000000 </i>
    <i name="bandstr">   -168.74434229 </i>
    <i name="atom">    704.16778566 </i>
    <i name="e_fr_energy">    -21.44707906 </i>
    <i name="e_wo_entrp">    -21.44707906 </i>
    <i name="e_0_energy">    -21.44707906 </i>
   </energy>
  </scstep>
  <scstep>
   <time name="dav">    1.89    1.90</time>
   <time name="total">    2.01    2.01</time>
   <energy>
    <i name="e_fr_energy">    -21.44750582 </i>
    <i name="e_wo_entrp">    -21.44750582 </i>
    <i name="e_0_energy">    -21.44750582 </i>
   </energy>
  </scstep>
  <scstep>
   <time name="dav">    2.01    2.01</time>
   <time name="total">    2.12    2.12</time>
   <energy>
    <i name="e_fr_energy">    -21.44750554 </i>
    <i name="e_wo_entrp">    -21.44750554 </i>
    <i name="e_0_energy">    -21.44750554 </i>
   </energy>
  </scstep>
  <scstep>
   <time name="dav">    1.49    1.49</time>
   <time name="total">    1.60    1.60</time>
   <energy>
    <i name="e_fr_energy">    -21.44750724 </i>
    <i name="e_wo_entrp">    -21.44750724 </i>
    <i name="e_0_energy">    -21.44750724 </i>
   </energy>
  </scstep>
  <scstep>
   <time name="dav">    1.28    1.28</time>
   <time name="total">    1.39    1.39</time>
   <energy>
    <i name="e_fr_energy">    -21.44750788 </i>
    <i name="e_wo_entrp">    -21.44750788 </i>
    <i name="e_0_energy">    -21.44750788 </i>
   </energy>
  </scstep>
  <scstep>
   <time name="dav">    1.20    1.20</time>
   <time name="total">    1.22    1.23</time>
   <energy>
    <i name="alphaZ">      5.13952201 </i>
    <i name="ewald">   1813.16017498 </i>
    <i name="hartreedc">  -2421.41579442 </i>
    <i name="XCdc">     13.89837335 </i>
    <i name="pawpsdc">   2028.97031544 </i>
    <i name="pawaedc">  -1996.63764088 </i>
    <i name="eentropy">     -0.00000000 </i>
    <i name="bandstr">   -168.73024462 </i>
    <i name="atom">    704.16778566 </i>
    <i name="e_fr_energy">    -21.44750846 </i>
    <i name="e_wo_entrp">    -21.44750846 </i>
    <i name="e_0_energy">    -21.44750846 </i>
   </energy>
  </scstep>
  <structure>
   <crystal>
    <varray name="basis" >
     <v>       3.33409100       0.00000000       0.00000000 </v>
     <v>       0.00000000       4.67507400      -0.00005300 </v>
     <v>       0.00000000       0.00000000      20.02439000 </v>
    </varray>
    <i name="volume">    312.12261286 </i>
    <varray name="rec_basis" >
     <v>       0.29993183       0.00000000       0.00000000 </v>
     <v>       0.00000000       0.21390036       0.00000000 </v>
     <v>       0.00000000       0.00000057       0.04993910 </v>
    </varray>
   </crystal>
   <varray name="positions" >
    <v>       0.50000000       0.90957678       0.55245479 </v>
    <v>       0.50000000       0.09042322       0.44754521 </v>
    <v>      -0.00000000       0.40957261       0.44754521 </v>
    <v>       0.00000000       0.59042739       0.55245479 </v>
   </varray>
  </structure>
  <varray name="forces" >
   <v>      -0.00000000      -0.08123538      -0.04415348 </v>
   <v>       0.00000000       0.08123538       0.04415348 </v>
   <v>      -0.00000002      -0.08125867       0.04415569 </v>
   <v>       0.00000002       0.08125867      -0.04415569 </v>
  </varray>
  <varray name="stress" >
   <v>      -6.69257484      -0.00000116      -0.00000043 </v>
   <v>      -0.00000118      -3.65747387       0.00029036 </v>
   <v>      -0.00000044       0.00029040      -1.04899383 </v>
  </varray>
  <energy>
   <i name="e_fr_energy">    -21.44750846 </i>
   <i name="e_wo_entrp">    -21.44750846 </i>
   <i name="e_0_energy">     -0.00000000 </i>
  </energy>
  <time name="totalsc">   10.84   10.85</time>
 </calculation>
 <calculation>
  <scstep>
   <time name="dav">    1.58    1.58</time>
   <time name="total">    1.69    1.70</time>
   <energy>
    <i name="alphaZ">      5.13952201 </i>
    <i name="ewald">   1814.80632715 </i>
    <i name="hartreedc">  -2422.78248676 </i>
    <i name="XCdc">     13.92576802 </i>
    <i name="pawpsdc">   2029.17465450 </i>
    <i name="pawaedc">  -1996.84191226 </i>
    <i name="eentropy">     -0.00000000 </i>
    <i name="bandstr">   -169.03771048 </i>
    <i name="atom">    704.16778566 </i>
    <i name="e_fr_energy">    -21.44805216 </i>
    <i name="e_wo_entrp">    -21.44805216 </i>
    <i name="e_0_energy">    -21.44805216 </i>
   </energy>
  </scstep>
  <scstep>
   <time name="dav">    1.91    1.91</time>
   <time name="total">    2.02    2.02</time>
   <energy>
    <i name="e_fr_energy">    -21.44834048 </i>
    <i name="e_wo_entrp">    -21.44834048 </i>
    <i name="e_0_energy">    -21.44834048 </i>
   </energy>
  </scstep>
  <scstep>
   <time name="dav">    1.99    1.99</time>
   <time name="total">    2.10    2.10</time>
   <energy>
    <i name="e_fr_energy">    -21.44833960 </i>
    <i name="e_wo_entrp">    -21.44833960 </i>
    <i name="e_0_energy">    -21.44833960 </i>
   </energy>
  </scstep>
  <scstep>
   <time name="dav">    1.44    1.44</time>
   <time name="total">    1.56    1.56</time>
   <energy>
    <i name="e_fr_energy">    -21.44834061 </i>
    <i name="e_wo_entrp">    -21.44834061 </i>
    <i name="e_0_energy">    -21.44834061 </i>
   </energy>
  </scstep>
  <scstep>
   <time name="dav">    1.25    1.25</time>
   <time name="total">    1.36    1.36</time>
   <energy>
    <i name="e_fr_energy">    -21.44834070 </i>
    <i name="e_wo_entrp">    -21.44834070 </i>
    <i name="e_0_energy">    -21.44834070 </i>
   </energy>
  </scstep>
  <scstep>
   <time name="dav">    1.17    1.17</time>
   <time name="total">    1.19    1.19</time>
   <energy>
    <i name="alphaZ">      5.13952201 </i>
    <i name="ewald">   1814.80632715 </i>
    <i name="hartreedc">  -2422.78303223 </i>
    <i name="XCdc">     13.92865293 </i>
    <i name="pawpsdc">   2046.24993319 </i>
    <i name="pawaedc">  -2013.92351848 </i>
    <i name="eentropy">     -0.00000000 </i>
    <i name="bandstr">   -169.03401125 </i>
    <i name="atom">    704.16778566 </i>
    <i name="e_fr_energy">    -21.44834102 </i>
    <i name="e_wo_entrp">    -21.44834102 </i>
    <i name="e_0_energy">    -21.44834102 </i>
   </energy>
  </scstep>
  <structure>
   <crystal>
    <varray name="basis" >
     <v>       3.33409100       0.00000000       0.00000000 </v>
     <v>       0.00000000       4.67507400      -0.00005300 </v>
     <v>       0.00000000       0.00000000      20.02439000 </v>
    </varray>
    <i name="volume">    312.12261286 </i>
    <varray name="rec_basis" >
     <v>       0.29993183       0.00000000       0.00000000 </v>
     <v>       0.00000000       0.21390036       0.00000000 </v>
     <v>       0.00000000       0.00000057       0.04993910 </v>
    </varray>
   </crystal>
   <varray name="positions" >
    <v>       0.50000000       0.90860038       0.55240075 </v>
    <v>       0.50000000       0.09139962       0.44759925 </v>
    <v>      -0.00000000       0.40859607       0.44759926 </v>
    <v>       0.00000000       0.59140393       0.55240074 </v>
   </varray>
  </structure>
  <varray name="forces" >
   <v>       0.00000002       0.01204651      -0.04329825 </v>
   <v>      -0.00000002      -0.01204651       0.04329825 </v>
   <v>       0.00000006       0.01202699       0.04329659 </v>
   <v>      -0.00000006      -0.01202699      -0.04329659 </v>
  </varray>
  <varray name="stress" >
   <v>      -6.30909355       0.00000041      -0.00000098 </v>
   <v>       0.00000047      -2.29927804       0.00023314 </v>
   <v>      -0.00000096       0.00023314      -1.02759757 </v>
  </varray>
  <energy>
   <i name="e_fr_energy">    -21.44834102 </i>
   <i name="e_wo_entrp">    -21.44834102 </i>
   <i name="e_0_energy">     -0.00000000 </i>
  </energy>
  <time name="totalsc">   10.71   10.72</time>
 </calculation>
 <calculation>
  <scstep>
   <time name="dav">    1.46    1.46</time>
   <time name="total">    1.57    1.58</time>
   <energy>
    <i name="alphaZ">      5.13952201 </i>
    <i name="ewald">   1816.19909639 </i>
    <i name="hartreedc">  -2424.09253882 </i>
    <i name="XCdc">     13.93796038 </i>
    <i name="pawpsdc">   2046.43040088 </i>
    <i name="pawaedc">  -2014.10393881 </i>
    <i name="eentropy">     -0.00000000 </i>
    <i name="bandstr">   -169.12678978 </i>
    <i name="atom">    704.16778566 </i>
    <i name="e_fr_energy">    -21.44850208 </i>
    <i name="e_wo_entrp">    -21.44850208 </i>
    <i name="e_0_energy">    -21.44850208 </i>
   </energy>
  </scstep>
  <scstep>
   <time name="dav">    1.82    1.82</time>
   <time name="total">    1.93    1.93</time>
   <energy>
    <i name="e_fr_energy">    -21.44854518 </i>
    <i name="e_wo_entrp">    -21.44854518 </i>
    <i name="e_0_energy">    -21.44854518 </i>
   </energy>
  </scstep>
  <scstep>
   <time name="dav">    1.34    1.34</time>
   <time name="total">    1.45    1.46</time>
   <energy>
    <i name="e_fr_energy">    -21.44854448 </i>
    <i name="e_wo_entrp">    -21.44854448 </i>
    <i name="e_0_energy">    -21.44854448 </i>
   </energy>
  </scstep>
  <scstep>
   <time name="dav">    1.19    1.19</time>
   <time name="total">    1.30    1.30</time>
   <energy>
    <i name="e_fr_energy">    -21.44854529 </i>
    <i name="e_wo_entrp">    -21.44854529 </i>
    <i name="e_0_energy">    -21.44854529 </i>
   </energy>
  </scstep>
  <scstep>
   <time name="dav">    1.18    1.18</time>
   <time name="total">    1.29    1.29</time>
   <energy>
    <i name="e_fr_energy">    -21.44854541 </i>
    <i name="e_wo_entrp">    -21.44854541 </i>
    <i name="e_0_energy">    -21.44854541 </i>
   </energy>
  </scstep>
  <scstep>
   <time name="dav">    1.16    1.16</time>
   <time name="total">    1.18    1.18</time>
   <energy>
    <i name="alphaZ">      5.13952201 </i>
    <i name="ewald">   1816.19909639 </i>
    <i name="hartreedc">  -2424.08613095 </i>
    <i name="XCdc">     13.93851152 </i>
    <i name="pawpsdc">   2050.94961627 </i>
    <i name="pawaedc">  -2018.62469701 </i>
    <i name="eentropy">     -0.00000000 </i>
    <i name="bandstr">   -169.13224952 </i>
    <i name="atom">    704.16778566 </i>
    <i name="e_fr_energy">    -21.44854564 </i>
    <i name="e_wo_entrp">    -21.44854564 </i>
    <i name="e_0_energy">    -21.44854564 </i>
   </energy>
  </scstep>
  <structure>
   <crystal>
    <varray name="basis" >
     <v>       3.33409100       0.00000000       0.00000000 </v>
     <v>       0.00000000       4.67507400      -0.00005300 </v>
     <v>       0.00000000       0.00000000      20.02439000 </v>
    </varray>
    <i name="volume">    312.12261286 </i>
    <varray name="rec_basis" >
     <v>       0.29993183       0.00000000       0.00000000 </v>
     <v>       0.00000000       0.21390036       0.00000000 </v>
     <v>       0.00000000       0.00000057       0.04993910 </v>
    </varray>
   </crystal>
   <varray name="positions" >
    <v>       0.50000000       0.90860379       0.55232333 </v>
    <v>       0.50000000       0.09139621       0.44767667 </v>
    <v>      -0.00000000       0.40859932       0.44767668 </v>
    <v>       0.00000000       0.59140068       0.55232332 </v>
   </varray>
  </structure>
  <varray name="forces" >
   <v>      -0.00000006       0.00670336      -0.02111015 </v>
   <v>       0.00000006      -0.00670336       0.02111015 </v>
   <v>       0.00000003       0.00668753       0.02110891 </v>
   <v>      -0.00000003      -0.00668753      -0.02110891 </v>
  </varray>
  <varray name="stress" >
   <v>      -6.27514021      -0.00000034      -0.00000048 </v>
   <v>      -0.00000039      -2.21964481       0.00019453 </v>
   <v>      -0.00000052       0.00019455      -0.53524548 </v>
  </varray>
  <energy>
   <i name="e_fr_energy">    -21.44854564 </i>
   <i name="e_wo_entrp">    -21.44854564 </i>
   <i name="e_0_energy">     -0.00000000 </i>
  </energy>
  <time name="totalsc">    9.50    9.52</time>
 </calculation>
 <calculation>
  <scstep>
   <time name="dav">    1.46    1.46</time>
   <time name="total">    1.57    1.58</time>
   <energy>
    <i name="alphaZ">      5.13952201 </i>
    <i name="ewald">   1817.52569681 </i>
    <i name="hartreedc">  -2425.33416186 </i>
    <i name="XCdc">     13.94738467 </i>
    <i name="pawpsdc">   2051.08599161 </i>
    <i name="pawaedc">  -2018.76104390 </i>
    <i name="eentropy">     -0.00000000 </i>
    <i name="bandstr">   -169.21974740 </i>
    <i name="atom">    704.16778566 </i>
    <i name="e_fr_energy">    -21.44857240 </i>
    <i name="e_wo_entrp">    -21.44857240 </i>
    <i name="e_0_energy">    -21.44857240 </i>
   </energy>
  </scstep>
  <scstep>
   <time name="dav">    1.82    1.82</time>
   <time name="total">    1.93    1.93</time>
   <energy>
    <i name="e_fr_energy">    -21.44861176 </i>
    <i name="e_wo_entrp">    -21.44861176 </i>
    <i name="e_0_energy">    -21.44861176 </i>
   </energy>
  </scstep>
  <scstep>
   <time name="dav">    1.33    1.33</time>
   <time name="total">    1.44    1.45</time>
   <energy>
    <i name="e_fr_energy">    -21.44861103 </i>
    <i name="e_wo_entrp">    -21.44861103 </i>
    <i name="e_0_energy">    -21.44861103 </i>
   </energy>
  </scstep>
  <scstep>
   <time name="dav">    1.20    1.20</time>
   <time name="total">    1.31    1.32</time>
   <energy>
    <i name="e_fr_energy">    -21.44861158 </i>
    <i name="e_wo_entrp">    -21.44861158 </i>
    <i name="e_0_energy">    -21.44861158 </i>
   </energy>
  </scstep>
  <scstep>
   <time name="dav">    1.16    1.16</time>
   <time name="total">    1.27    1.27</time>
   <energy>
    <i name="e_fr_energy">    -21.44861154 </i>
    <i name="e_wo_entrp">    -21.44861154 </i>
    <i name="e_0_energy">    -21.44861154 </i>
   </energy>
  </scstep>
  <scstep>
   <time name="dav">    1.12    1.12</time>
   <time name="total">    1.14    1.14</time>
   <energy>
    <i name="alphaZ">      5.13952201 </i>
    <i name="ewald">   1817.52569681 </i>
    <i name="hartreedc">  -2425.33302140 </i>
    <i name="XCdc">     13.94797915 </i>
    <i name="pawpsdc">   2055.29261539 </i>
    <i name="pawaedc">  -2022.96915731 </i>
    <i name="eentropy">     -0.00000000 </i>
    <i name="bandstr">   -169.22003195 </i>
    <i name="atom">    704.16778566 </i>
    <i name="e_fr_energy">    -21.44861164 </i>
    <i name="e_wo_entrp">    -21.44861164 </i>
    <i name="e_0_energy">    -21.44861164 </i>
   </energy>
  </scstep>
  <structure>
   <crystal>
    <varray name="basis" >
     <v>       3.33409100       0.00000000       0.00000000 </v>
     <v>       0.00000000       4.67507400      -0.00005300 </v>
     <v>       0.00000000       0.00000000      20.02439000 </v>
    </varray>
    <i name="volume">    312.12261286 </i>
    <varray name="rec_basis" >
     <v>       0.29993183       0.00000000       0.00000000 </v>
     <v>       0.00000000       0.21390036       0.00000000 </v>
     <v>       0.00000000       0.00000057       0.04993910 </v>
    </varray>
   </crystal>
   <varray name="positions" >
    <v>       0.50000000       0.90860703       0.55224962 </v>
    <v>       0.50000000       0.09139297       0.44775038 </v>
    <v>      -0.00000000       0.40860242       0.44775039 </v>
    <v>       0.00000000       0.59139758       0.55224961 </v>
   </varray>
  </structure>
  <varray name="forces" >
   <v>      -0.00000009       0.00147300       0.00011104 </v>
   <v>       0.00000009      -0.00147300      -0.00011104 </v>
   <v>      -0.00000000       0.00146063      -0.00011168 </v>
   <v>       0.00000000      -0.00146063       0.00011168 </v>
  </varray>
  <varray name="stress" >
   <v>      -6.23597003      -0.00000041      -0.00000045 </v>
   <v>      -0.00000029      -2.14630653       0.00015589 </v>
   <v>      -0.00000050       0.00015597      -0.07647607 </v>
  </varray>
  <energy>
   <i name="e_fr_energy">    -21.44861164 </i>
   <i name="e_wo_entrp">    -21.44861164 </i>
   <i name="e_0_energy">     -0.00000000 </i>
  </energy>
  <time name="totalsc">    9.39    9.41</time>
  <eigenvalues>
   <array>
    <dimension dim="1">band</dimension>
    <dimension dim="2">kpoint</dimension>
    <dimension dim="3">spin</dimension>
    <field>eigene</field>
    <field>occ</field>
    <set>
     <set comment="spin 1">
      <set comment="kpoint 1">
       <r>  -17.2001    1.0000 </r>
       <r>  -14.7605    1.0000 </r>
       <r>  -11.5760    1.0000 </r>
       <r>   -7.9334    1.0000 </r>
       <r>   -7.0811    1.0000 </r>
       <r>   -6.7422    1.0000 </r>
       <r>   -5.7584    1.0000 </r>
       <r>   -4.1950    1.0000 </r>
       <r>   -3.8920    1.0000 </r>
       <r>   -2.3581    1.0000 </r>
       <r>   -1.3469    0.0000 </r>
       <r>   -0.8336    0.0000 </r>
       <r>    0.1308    0.0000 </r>
       <r>    0.7946    0.0000 </r>
       <r>    2.0929    0.0000 </r>
       <r>    2.2747    0.0000 </r>
      </set>
      <set comment="kpoint 2">
       <r>  -17.1738    1.0000 </r>
       <r>  -14.7329    1.0000 </r>
       <r>  -11.5862    1.0000 </r>
       <r>   -7.9138    1.0000 </r>
       <r>   -7.1032    1.0000 </r>
       <r>   -6.7191    1.0000 </r>
       <r>   -5.9236    1.0000 </r>
       <r>   -4.3681    1.0000 </r>
       <r>   -3.8833    1.0000 </r>
       <r>   -2.3604    1.0000 </r>
       <r>   -1.3226    0.0000 </r>
       <r>   -0.5991    0.0000 </r>
       <r>    0.3643    0.0000 </r>
       <r>    0.6392    0.0000 </r>
       <r>    2.1200    0.0000 </r>
       <r>    2.3041    0.0000 </r>
      </set>
      <set comment="kpoint 3">
       <r>  -17.0950    1.0000 </r>
       <r>  -14.6503    1.0000 </r>
       <r>  -11.6217    1.0000 </r>
       <r>   -7.8558    1.0000 </r>
       <r>   -7.1896    1.0000 </r>
       <r>   -6.6505    1.0000 </r>
       <r>   -6.3282    1.0000 </r>
       <r>   -4.7642    1.0000 </r>
       <r>   -3.8611    1.0000 </r>
       <r>   -2.3841    1.0000 </r>
       <r>   -1.2502    0.0000 </r>
       <r>    0.0306    0.0000 </r>
       <r>    0.2533    0.0000 </r>
       <r>    0.9382    0.0000 </r>
       <r>    2.1958    0.0000 </r>
       <r>    2.3920    0.0000 </r>
      </set>
      <set comment="kpoint 4">
       <r>  -16.9642    1.0000 </r>
       <r>  -14.5128    1.0000 </r>
       <r>  -11.6978    1.0000 </r>
       <r>   -7.7618    1.0000 </r>
       <r>   -7.3993    1.0000 </r>
       <r>   -6.8120    1.0000 </r>
       <r>   -6.5375    1.0000 </r>
       <r>   -5.1610    1.0000 </r>
       <r>   -3.8383    1.0000 </r>
       <r>   -2.4479    1.0000 </r>
       <r>   -1.1313    0.0000 </r>
       <r>   -0.2208    0.0000 </r>
       <r>    0.9125    0.0000 </r>
       <r>    1.5573    0.0000 </r>
       <r>    2.2371    0.0000 </r>
       <r>    2.5381    0.0000 </r>
      </set>
      <set comment="kpoint 5">
       <r>  -16.7820    1.0000 </r>
       <r>  -14.3206    1.0000 </r>
       <r>  -11.8375    1.0000 </r>
       <r>   -7.7904    1.0000 </r>
       <r>   -7.6369    1.0000 </r>
       <r>   -7.2554    1.0000 </r>
       <r>   -6.3829    1.0000 </r>
       <r>   -5.4017    1.0000 </r>
       <r>   -3.8388    1.0000 </r>
       <r>   -2.5619    1.0000 </r>
       <r>   -0.9698    0.0000 </r>
       <r>   -0.6684    0.0000 </r>
       <r>    1.6383    0.0000 </r>
       <r>    1.8149    0.0000 </r>
       <r>    1.9050    0.0000 </r>
       <r>    2.6284    0.0000 </r>
      </set>
      <set comment="kpoint 6">
       <r>  -16.5493    1.0000 </r>
       <r>  -14.0743    1.0000 </r>
       <r>  -12.0637    1.0000 </r>
       <r>   -8.3416    1.0000 </r>
       <r>   -7.5859    1.0000 </r>
       <r>   -7.4897    1.0000 </r>
       <r>   -6.1908    1.0000 </r>
       <r>   -5.4627    1.0000 </r>
       <r>   -3.8953    1.0000 </r>
       <r>   -2.7342    1.0000 </r>
       <r>   -1.0027    0.0000 </r>
       <r>   -0.7751    0.0000 </r>
       <r>    1.1270    0.0000 </r>
       <r>    1.2564    0.0000 </r>
       <r>    2.4362    0.0000 </r>
       <r>    2.8785    0.0000 </r>
      </set>
      <set comment="kpoint 7">
       <r>  -16.2676    1.0000 </r>
       <r>  -13.7744    1.0000 </r>
       <r>  -12.3858    1.0000 </r>
       <r>   -8.9775    1.0000 </r>
       <r>   -7.7705    1.0000 </r>
       <r>   -7.3349    1.0000 </r>
       <r>   -5.9682    1.0000 </r>
       <r>   -5.4033    1.0000 </r>
       <r>   -4.0285    1.0000 </r>
       <r>   -2.9667    1.0000 </r>
       <r>   -1.1641    0.0000 </r>
       <r>   -0.5772    0.0000 </r>
       <r>    0.5130    0.0000 </r>
       <r>    0.7501    0.0000 </r>
       <r>    2.0529    0.0000 </r>
       <r>    3.2197    0.0000 </r>
      </set>
      <set comment="kpoint 8">
       <r>  -15.9389    1.0000 </r>
       <r>  -13.4217    1.0000 </r>
       <r>  -12.7911    1.0000 </r>
       <r>   -9.6385    1.0000 </r>
       <r>   -7.8121    1.0000 </r>
       <r>   -7.1969    1.0000 </r>
       <r>   -5.7261    1.0000 </r>
       <r>   -5.2839    1.0000 </r>
       <r>   -4.2129    1.0000 </r>
       <r>   -3.2507    1.0000 </r>
       <r>   -1.1409    0.0000 </r>
       <r>   -0.4882    0.0000 </r>
       <r>   -0.0634    0.0000 </r>
       <r>    0.4432    0.0000 </r>
       <r>    1.5724    0.0000 </r>
       <r>    2.9402    0.0000 </r>
      </set>
      <set comment="kpoint 9">
       <r>  -15.5660    1.0000 </r>
       <r>  -13.2523    1.0000 </r>
       <r>  -13.0172    1.0000 </r>
       <r>  -10.2914    1.0000 </r>
       <r>   -7.7375    1.0000 </r>
       <r>   -7.1120    1.0000 </r>
       <r>   -5.4818    1.0000 </r>
       <r>   -5.1522    1.0000 </r>
       <r>   -4.3760    1.0000 </r>
       <r>   -3.5657    1.0000 </r>
       <r>   -0.9636    0.0000 </r>
       <r>   -0.6630    0.0000 </r>
       <r>   -0.5501    0.0000 </r>
       <r>    0.5175    0.0000 </r>
       <r>    1.0831    0.0000 </r>
       <r>    2.5471    0.0000 </r>
      </set>
      <set comment="kpoint 10">
       <r>  -15.1526    1.0000 </r>
       <r>  -13.7398    1.0000 </r>
       <r>  -12.5623    1.0000 </r>
       <r>  -10.9184    1.0000 </r>
       <r>   -7.5848    1.0000 </r>
       <r>   -7.1175    1.0000 </r>
       <r>   -5.2615    1.0000 </r>
       <r>   -5.0528    1.0000 </r>
       <r>   -4.4388    1.0000 </r>
       <r>   -3.8818    1.0000 </r>
       <r>   -0.9235    0.0000 </r>
       <r>   -0.9052    0.0000 </r>
       <r>   -0.6727    0.0000 </r>
       <r>    0.5969    0.0000 </r>
       <r>    0.8249    0.0000 </r>
       <r>    2.1057    0.0000 </r>
      </set>
      <set comment="kpoint 11">
       <r>  -14.7045    1.0000 </r>
       <r>  -14.2296    1.0000 </r>
       <r>  -12.0589    1.0000 </r>
       <r>  -11.5096    1.0000 </r>
       <r>   -7.3968    1.0000 </r>
       <r>   -7.2235    1.0000 </r>
       <r>   -5.0995    1.0000 </r>
       <r>   -5.0272    1.0000 </r>
       <r>   -4.3622    1.0000 </r>
       <r>   -4.1620    1.0000 </r>
       <r>   -1.0912    0.0000 </r>
       <r>   -1.0902    0.0000 </r>
       <r>   -0.3004    0.0000 </r>
       <r>    0.1295    0.0000 </r>
       <r>    1.2191    0.0000 </r>
       <r>    1.6543    0.0000 </r>
      </set>
      <set comment="kpoint 12">
       <r>  -17.1793    1.0000 </r>
       <r>  -14.7929    1.0000 </r>
       <r>  -11.5751    1.0000 </r>
       <r>   -8.1035    1.0000 </r>
       <r>   -6.9615    1.0000 </r>
       <r>   -6.6583    1.0000 </r>
       <r>   -5.7424    1.0000 </r>
       <r>   -4.2110    1.0000 </r>
       <r>   -3.8097    1.0000 </r>
       <r>   -2.5423    1.0000 </r>
       <r>   -1.1749    0.0000 </r>
       <r>   -0.8166    0.0000 </r>
       <r>    0.0835    0.0000 </r>
       <r>    0.7856    0.0000 </r>
       <r>    2.1477    0.0000 </r>
       <r>    2.3039    0.0000 </r>
      </set>
      <set comment="kpoint 13">
       <r>  -17.1530    1.0000 </r>
       <r>  -14.7656    1.0000 </r>
       <r>  -11.5840    1.0000 </r>
       <r>   -8.0889    1.0000 </r>
       <r>   -6.9768    1.0000 </r>
       <r>   -6.6451    1.0000 </r>
       <r>   -5.8981    1.0000 </r>
       <r>   -4.3894    1.0000 </r>
       <r>   -3.8016    1.0000 </r>
       <r>   -2.5408    1.0000 </r>
       <r>   -1.1541    0.0000 </r>
       <r>   -0.5829    0.0000 </r>
       <r>    0.3109    0.0000 </r>
       <r>    0.6417    0.0000 </r>
       <r>    2.1736    0.0000 </r>
       <r>    2.3332    0.0000 </r>
      </set>
      <set comment="kpoint 14">
       <r>  -17.0744    1.0000 </r>
       <r>  -14.6836    1.0000 </r>
       <r>  -11.6158    1.0000 </r>
       <r>   -8.0500    1.0000 </r>
       <r>   -7.0388    1.0000 </r>
       <r>   -6.6433    1.0000 </r>
       <r>   -6.2383    1.0000 </r>
       <r>   -4.7949    1.0000 </r>
       <r>   -3.7861    1.0000 </r>
       <r>   -2.5502    1.0000 </r>
       <r>   -1.0962    0.0000 </r>
       <r>    0.0456    0.0000 </r>
       <r>    0.2431    0.0000 </r>
       <r>    0.9141    0.0000 </r>
       <r>    2.2456    0.0000 </r>
       <r>    2.4210    0.0000 </r>
      </set>
      <set comment="kpoint 15">
       <r>  -16.9437    1.0000 </r>
       <r>  -14.5472    1.0000 </r>
       <r>  -11.6857    1.0000 </r>
       <r>   -8.0117    1.0000 </r>
       <r>   -7.1870    1.0000 </r>
       <r>   -6.9053    1.0000 </r>
       <r>   -6.3529    1.0000 </r>
       <r>   -5.1996    1.0000 </r>
       <r>   -3.7782    1.0000 </r>
       <r>   -2.5896    1.0000 </r>
       <r>   -1.0007    0.0000 </r>
       <r>   -0.2078    0.0000 </r>
       <r>    0.9220    0.0000 </r>
       <r>    1.5496    0.0000 </r>
       <r>    2.2171    0.0000 </r>
       <r>    2.4776    0.0000 </r>
      </set>
      <set comment="kpoint 16">
       <r>  -16.7616    1.0000 </r>
       <r>  -14.3571    1.0000 </r>
       <r>  -11.8169    1.0000 </r>
       <r>   -8.0804    1.0000 </r>
       <r>   -7.3839    1.0000 </r>
       <r>   -7.3163    1.0000 </r>
       <r>   -6.2397    1.0000 </r>
       <r>   -5.4422    1.0000 </r>
       <r>   -3.8020    1.0000 </r>
       <r>   -2.6741    1.0000 </r>
       <r>   -0.8668    0.0000 </r>
       <r>   -0.6270    0.0000 </r>
       <r>    1.6055    0.0000 </r>
       <r>    1.6940    0.0000 </r>
       <r>    2.0055    0.0000 </r>
       <r>    2.5963    0.0000 </r>
      </set>
      <set comment="kpoint 17">
       <r>  -16.5292    1.0000 </r>
       <r>  -14.1146    1.0000 </r>
       <r>  -12.0327    1.0000 </r>
       <r>   -8.4524    1.0000 </r>
       <r>   -7.6403    1.0000 </r>
       <r>   -7.4191    1.0000 </r>
       <r>   -6.0661    1.0000 </r>
       <r>   -5.5022    1.0000 </r>
       <r>   -3.8861    1.0000 </r>
       <r>   -2.8162    1.0000 </r>
       <r>   -0.9269    0.0000 </r>
       <r>   -0.6998    0.0000 </r>
       <r>    1.0826    0.0000 </r>
       <r>    1.2142    0.0000 </r>
       <r>    2.5215    0.0000 </r>
       <r>    2.9436    0.0000 </r>
      </set>
      <set comment="kpoint 18">
       <r>  -16.2479    1.0000 </r>
       <r>  -13.8228    1.0000 </r>
       <r>  -12.3413    1.0000 </r>
       <r>   -9.0332    1.0000 </r>
       <r>   -7.8225    1.0000 </r>
       <r>   -7.3197    1.0000 </r>
       <r>   -5.8607    1.0000 </r>
       <r>   -5.4494    1.0000 </r>
       <r>   -4.0383    1.0000 </r>
       <r>   -3.0204    1.0000 </r>
       <r>   -1.0571    0.0000 </r>
       <r>   -0.5285    0.0000 </r>
       <r>    0.5814    0.0000 </r>
       <r>    0.6068    0.0000 </r>
       <r>    2.2221    0.0000 </r>
       <r>    3.1544    0.0000 </r>
      </set>
      <set comment="kpoint 19">
       <r>  -15.9198    1.0000 </r>
       <r>  -13.4963    1.0000 </r>
       <r>  -12.7170    1.0000 </r>
       <r>   -9.6743    1.0000 </r>
       <r>   -7.8609    1.0000 </r>
       <r>   -7.1972    1.0000 </r>
       <r>   -5.6415    1.0000 </r>
       <r>   -5.3546    1.0000 </r>
       <r>   -4.2143    1.0000 </r>
       <r>   -3.2771    1.0000 </r>
       <r>   -1.0178    0.0000 </r>
       <r>   -0.4839    0.0000 </r>
       <r>    0.0310    0.0000 </r>
       <r>    0.2994    0.0000 </r>
       <r>    1.7864    0.0000 </r>
       <r>    2.8885    0.0000 </r>
      </set>
      <set comment="kpoint 20">
       <r>  -15.5478    1.0000 </r>
       <r>  -13.3492    1.0000 </r>
       <r>  -12.9193    1.0000 </r>
       <r>  -10.3178    1.0000 </r>
       <r>   -7.7809    1.0000 </r>
       <r>   -7.1149    1.0000 </r>
       <r>   -5.4324    1.0000 </r>
       <r>   -5.2729    1.0000 </r>
       <r>   -4.3292    1.0000 </r>
       <r>   -3.5616    1.0000 </r>
       <r>   -0.8649    0.0000 </r>
       <r>   -0.7099    0.0000 </r>
       <r>   -0.4350    0.0000 </r>
       <r>    0.3945    0.0000 </r>
       <r>    1.3404    0.0000 </r>
       <r>    2.5036    0.0000 </r>
      </set>
      <set comment="kpoint 21">
       <r>  -15.1360    1.0000 </r>
       <r>  -13.7465    1.0000 </r>
       <r>  -12.5544    1.0000 </r>
       <r>  -10.9389    1.0000 </r>
       <r>   -7.6202    1.0000 </r>
       <r>   -7.1231    1.0000 </r>
       <r>   -5.2678    1.0000 </r>
       <r>   -5.2216    1.0000 </r>
       <r>   -4.3276    1.0000 </r>
       <r>   -3.8375    1.0000 </r>
       <r>   -0.9779    0.0000 </r>
       <r>   -0.9240    0.0000 </r>
       <r>   -0.4615    0.0000 </r>
       <r>    0.5491    0.0000 </r>
       <r>    1.0259    0.0000 </r>
       <r>    2.0717    0.0000 </r>
      </set>
      <set comment="kpoint 22">
       <r>  -14.6906    1.0000 </r>
       <r>  -14.2213    1.0000 </r>
       <r>  -12.0668    1.0000 </r>
       <r>  -11.5247    1.0000 </r>
       <r>   -7.4218    1.0000 </r>
       <r>   -7.2372    1.0000 </r>
       <r>   -5.1839    1.0000 </r>
       <r>   -5.1836    1.0000 </r>
       <r>   -4.2312    1.0000 </r>
       <r>   -4.0672    1.0000 </r>
       <r>   -1.1304    0.0000 </r>
       <r>   -1.1101    0.0000 </r>
       <r>   -0.1251    0.0000 </r>
       <r>    0.2698    0.0000 </r>
       <r>    1.2341    0.0000 </r>
       <r>    1.6351    0.0000 </r>
      </set>
      <set comment="kpoint 23">
       <r>  -14.6906    1.0000 </r>
       <r>  -14.2213    1.0000 </r>
       <r>  -12.0668    1.0000 </r>
       <r>  -11.5247    1.0000 </r>
       <r>   -7.4218    1.0000 </r>
       <r>   -7.2372    1.0000 </r>
       <r>   -5.1839    1.0000 </r>
       <r>   -5.1836    1.0000 </r>
       <r>   -4.2312    1.0000 </r>
       <r>   -4.0672    1.0000 </r>
       <r>   -1.1304    0.0000 </r>
       <r>   -1.1101    0.0000 </r>
       <r>   -0.1251    0.0000 </r>
       <r>    0.2698    0.0000 </r>
       <r>    1.2341    0.0000 </r>
       <r>    1.6351    0.0000 </r>
      </set>
      <set comment="kpoint 24">
       <r>  -15.1360    1.0000 </r>
       <r>  -13.7465    1.0000 </r>
       <r>  -12.5544    1.0000 </r>
       <r>  -10.9389    1.0000 </r>
       <r>   -7.6202    1.0000 </r>
       <r>   -7.1231    1.0000 </r>
       <r>   -5.2678    1.0000 </r>
       <r>   -5.2216    1.0000 </r>
       <r>   -4.3276    1.0000 </r>
       <r>   -3.8375    1.0000 </r>
       <r>   -0.9779    0.0000 </r>
       <r>   -0.9240    0.0000 </r>
       <r>   -0.4615    0.0000 </r>
       <r>    0.5491    0.0000 </r>
       <r>    1.0259    0.0000 </r>
       <r>    2.0717    0.0000 </r>
      </set>
      <set comment="kpoint 25">
       <r>  -15.5478    1.0000 </r>
       <r>  -13.3492    1.0000 </r>
       <r>  -12.9193    1.0000 </r>
       <r>  -10.3178    1.0000 </r>
       <r>   -7.7809    1.0000 </r>
       <r>   -7.1149    1.0000 </r>
       <r>   -5.4324    1.0000 </r>
       <r>   -5.2729    1.0000 </r>
       <r>   -4.3292    1.0000 </r>
       <r>   -3.5616    1.0000 </r>
       <r>   -0.8649    0.0000 </r>
       <r>   -0.7099    0.0000 </r>
       <r>   -0.4350    0.0000 </r>
       <r>    0.3945    0.0000 </r>
       <r>    1.3404    0.0000 </r>
       <r>    2.5036    0.0000 </r>
      </set>
      <set comment="kpoint 26">
       <r>  -15.9198    1.0000 </r>
       <r>  -13.4963    1.0000 </r>
       <r>  -12.7170    1.0000 </r>
       <r>   -9.6743    1.0000 </r>
       <r>   -7.8609    1.0000 </r>
       <r>   -7.1972    1.0000 </r>
       <r>   -5.6415    1.0000 </r>
       <r>   -5.3546    1.0000 </r>
       <r>   -4.2143    1.0000 </r>
       <r>   -3.2771    1.0000 </r>
       <r>   -1.0178    0.0000 </r>
       <r>   -0.4839    0.0000 </r>
       <r>    0.0310    0.0000 </r>
       <r>    0.2994    0.0000 </r>
       <r>    1.7864    0.0000 </r>
       <r>    2.8885    0.0000 </r>
      </set>
      <set comment="kpoint 27">
       <r>  -16.2479    1.0000 </r>
       <r>  -13.8228    1.0000 </r>
       <r>  -12.3413    1.0000 </r>
       <r>   -9.0332    1.0000 </r>
       <r>   -7.8225    1.0000 </r>
       <r>   -7.3197    1.0000 </r>
       <r>   -5.8607    1.0000 </r>
       <r>   -5.4494    1.0000 </r>
       <r>   -4.0383    1.0000 </r>
       <r>   -3.0204    1.0000 </r>
       <r>   -1.0571    0.0000 </r>
       <r>   -0.5285    0.0000 </r>
       <r>    0.5814    0.0000 </r>
       <r>    0.6068    0.0000 </r>
       <r>    2.2221    0.0000 </r>
       <r>    3.1544    0.0000 </r>
      </set>
      <set comment="kpoint 28">
       <r>  -16.5292    1.0000 </r>
       <r>  -14.1146    1.0000 </r>
       <r>  -12.0327    1.0000 </r>
       <r>   -8.4524    1.0000 </r>
       <r>   -7.6403    1.0000 </r>
       <r>   -7.4191    1.0000 </r>
       <r>   -6.0661    1.0000 </r>
       <r>   -5.5022    1.0000 </r>
       <r>   -3.8861    1.0000 </r>
       <r>   -2.8162    1.0000 </r>
       <r>   -0.9269    0.0000 </r>
       <r>   -0.6998    0.0000 </r>
       <r>    1.0826    0.0000 </r>
       <r>    1.2142    0.0000 </r>
       <r>    2.5215    0.0000 </r>
       <r>    2.9436    0.0000 </r>
      </set>
      <set comment="kpoint 29">
       <r>  -16.7616    1.0000 </r>
       <r>  -14.3571    1.0000 </r>
       <r>  -11.8169    1.0000 </r>
       <r>   -8.0804    1.0000 </r>
       <r>   -7.3839    1.0000 </r>
       <r>   -7.3163    1.0000 </r>
       <r>   -6.2397    1.0000 </r>
       <r>   -5.4422    1.0000 </r>
       <r>   -3.8020    1.0000 </r>
       <r>   -2.6741    1.0000 </r>
       <r>   -0.8668    0.0000 </r>
       <r>   -0.6270    0.0000 </r>
       <r>    1.6055    0.0000 </r>
       <r>    1.6940    0.0000 </r>
       <r>    2.0055    0.0000 </r>
       <r>    2.5963    0.0000 </r>
      </set>
      <set comment="kpoint 30">
       <r>  -16.9437    1.0000 </r>
       <r>  -14.5472    1.0000 </r>
       <r>  -11.6857    1.0000 </r>
       <r>   -8.0117    1.0000 </r>
       <r>   -7.1870    1.0000 </r>
       <r>   -6.9053    1.0000 </r>
       <r>   -6.3529    1.0000 </r>
       <r>   -5.1996    1.0000 </r>
       <r>   -3.7782    1.0000 </r>
       <r>   -2.5896    1.0000 </r>
       <r>   -1.0007    0.0000 </r>
       <r>   -0.2078    0.0000 </r>
       <r>    0.9220    0.0000 </r>
       <r>    1.5496    0.0000 </r>
       <r>    2.2171    0.0000 </r>
       <r>    2.4776    0.0000 </r>
      </set>
      <set comment="kpoint 31">
       <r>  -17.0744    1.0000 </r>
       <r>  -14.6836    1.0000 </r>
       <r>  -11.6158    1.0000 </r>
       <r>   -8.0500    1.0000 </r>
       <r>   -7.0388    1.0000 </r>
       <r>   -6.6433    1.0000 </r>
       <r>   -6.2383    1.0000 </r>
       <r>   -4.7949    1.0000 </r>
       <r>   -3.7861    1.0000 </r>
       <r>   -2.5502    1.0000 </r>
       <r>   -1.0962    0.0000 </r>
       <r>    0.0456    0.0000 </r>
       <r>    0.2431    0.0000 </r>
       <r>    0.9141    0.0000 </r>
       <r>    2.2456    0.0000 </r>
       <r>    2.4210    0.0000 </r>
      </set>
      <set comment="kpoint 32">
       <r>  -17.1530    1.0000 </r>
       <r>  -14.7656    1.0000 </r>
       <r>  -11.5840    1.0000 </r>
       <r>   -8.0889    1.0000 </r>
       <r>   -6.9768    1.0000 </r>
       <r>   -6.6451    1.0000 </r>
       <r>   -5.8981    1.0000 </r>
       <r>   -4.3894    1.0000 </r>
       <r>   -3.8016    1.0000 </r>
       <r>   -2.5408    1.0000 </r>
       <r>   -1.1541    0.0000 </r>
       <r>   -0.5829    0.0000 </r>
       <r>    0.3109    0.0000 </r>
       <r>    0.6417    0.0000 </r>
       <r>    2.1736    0.0000 </r>
       <r>    2.3332    0.0000 </r>
      </set>
      <set comment="kpoint 33">
       <r>  -17.1173    1.0000 </r>
       <r>  -14.8890    1.0000 </r>
       <r>  -11.5637    1.0000 </r>
       <r>   -8.4668    1.0000 </r>
       <r>   -6.7334    1.0000 </r>
       <r>   -6.4175    1.0000 </r>
       <r>   -5.6948    1.0000 </r>
       <r>   -4.2590    1.0000 </r>
       <r>   -3.5877    1.0000 </r>
       <r>   -2.9213    1.0000 </r>
       <r>   -0.8275    0.0000 </r>
       <r>   -0.7669    0.0000 </r>
       <r>   -0.0526    0.0000 </r>
       <r>    0.7660    0.0000 </r>
       <r>    2.3059    0.0000 </r>
       <r>    2.3910    0.0000 </r>
      </set>
      <set comment="kpoint 34">
       <r>  -17.0911    1.0000 </r>
       <r>  -14.8622    1.0000 </r>
       <r>  -11.5694    1.0000 </r>
       <r>   -8.4559    1.0000 </r>
       <r>   -6.7403    1.0000 </r>
       <r>   -6.4414    1.0000 </r>
       <r>   -5.8146    1.0000 </r>
       <r>   -4.4472    1.0000 </r>
       <r>   -3.5866    1.0000 </r>
       <r>   -2.9156    1.0000 </r>
       <r>   -0.8128    0.0000 </r>
       <r>   -0.5335    0.0000 </r>
       <r>    0.1712    0.0000 </r>
       <r>    0.6434    0.0000 </r>
       <r>    2.3286    0.0000 </r>
       <r>    2.4201    0.0000 </r>
      </set>
      <set comment="kpoint 35">
       <r>  -17.0126    1.0000 </r>
       <r>  -14.7817    1.0000 </r>
       <r>  -11.5916    1.0000 </r>
       <r>   -8.4292    1.0000 </r>
       <r>   -6.7771    1.0000 </r>
       <r>   -6.6069    1.0000 </r>
       <r>   -5.9940    1.0000 </r>
       <r>   -4.8749    1.0000 </r>
       <r>   -3.5946    1.0000 </r>
       <r>   -2.9079    1.0000 </r>
       <r>   -0.7730    0.0000 </r>
       <r>    0.0912    0.0000 </r>
       <r>    0.2316    0.0000 </r>
       <r>    0.8389    0.0000 </r>
       <r>    2.3881    0.0000 </r>
       <r>    2.5166    0.0000 </r>
      </set>
      <set comment="kpoint 36">
       <r>  -16.8823    1.0000 </r>
       <r>  -14.6484    1.0000 </r>
       <r>  -11.6452    1.0000 </r>
       <r>   -8.4101    1.0000 </r>
       <r>   -6.9937    1.0000 </r>
       <r>   -6.8930    1.0000 </r>
       <r>   -5.9996    1.0000 </r>
       <r>   -5.2994    1.0000 </r>
       <r>   -3.6306    1.0000 </r>
       <r>   -2.9137    1.0000 </r>
       <r>   -0.7074    0.0000 </r>
       <r>   -0.1477    0.0000 </r>
       <r>    0.9445    0.0000 </r>
       <r>    1.5084    0.0000 </r>
       <r>    1.9785    0.0000 </r>
       <r>    2.5036    0.0000 </r>
      </set>
      <set comment="kpoint 37">
       <r>  -16.7008    1.0000 </r>
       <r>  -14.4634    1.0000 </r>
       <r>  -11.7539    1.0000 </r>
       <r>   -8.4642    1.0000 </r>
       <r>   -7.4178    1.0000 </r>
       <r>   -7.1092    1.0000 </r>
       <r>   -5.8996    1.0000 </r>
       <r>   -5.5418    1.0000 </r>
       <r>   -3.7176    1.0000 </r>
       <r>   -2.9489    1.0000 </r>
       <r>   -0.6162    0.0000 </r>
       <r>   -0.4871    0.0000 </r>
       <r>    1.2549    0.0000 </r>
       <r>    1.8182    0.0000 </r>
       <r>    2.0965    0.0000 </r>
       <r>    2.6207    0.0000 </r>
      </set>
      <set comment="kpoint 38">
       <r>  -16.4691    1.0000 </r>
       <r>  -14.2298    1.0000 </r>
       <r>  -11.9426    1.0000 </r>
       <r>   -8.7137    1.0000 </r>
       <r>   -7.7497    1.0000 </r>
       <r>   -7.2811    1.0000 </r>
       <r>   -5.7542    1.0000 </r>
       <r>   -5.5951    1.0000 </r>
       <r>   -3.8695    1.0000 </r>
       <r>   -3.0299    1.0000 </r>
       <r>   -0.6998    0.0000 </r>
       <r>   -0.5020    0.0000 </r>
       <r>    0.7306    0.0000 </r>
       <r>    1.4468    0.0000 </r>
       <r>    2.6426    0.0000 </r>
       <r>    3.0358    0.0000 </r>
      </set>
      <set comment="kpoint 39">
       <r>  -16.1891    1.0000 </r>
       <r>  -13.9550    1.0000 </r>
       <r>  -12.2192    1.0000 </r>
       <r>   -9.1896    1.0000 </r>
       <r>   -7.9368    1.0000 </r>
       <r>   -7.2894    1.0000 </r>
       <r>   -5.5908    1.0000 </r>
       <r>   -5.5595    1.0000 </r>
       <r>   -4.0613    1.0000 </r>
       <r>   -3.1650    1.0000 </r>
       <r>   -0.7569    0.0000 </r>
       <r>   -0.3952    0.0000 </r>
       <r>    0.2568    0.0000 </r>
       <r>    0.8667    0.0000 </r>
       <r>    2.5119    0.0000 </r>
       <r>    3.0049    0.0000 </r>
      </set>
      <set comment="kpoint 40">
       <r>  -15.8628    1.0000 </r>
       <r>  -13.6670    1.0000 </r>
       <r>  -12.5474    1.0000 </r>
       <r>   -9.7795    1.0000 </r>
       <r>   -7.9733    1.0000 </r>
       <r>   -7.2045    1.0000 </r>
       <r>   -5.5272    1.0000 </r>
       <r>   -5.4373    1.0000 </r>
       <r>   -4.2151    1.0000 </r>
       <r>   -3.3447    1.0000 </r>
       <r>   -0.6805    0.0000 </r>
       <r>   -0.4973    0.0000 </r>
       <r>    0.0932    0.0000 </r>
       <r>    0.2966    0.0000 </r>
       <r>    2.2128    0.0000 </r>
       <r>    2.7484    0.0000 </r>
      </set>
      <set comment="kpoint 41">
       <r>  -15.4936    1.0000 </r>
       <r>  -13.5166    1.0000 </r>
       <r>  -12.7491    1.0000 </r>
       <r>  -10.3965    1.0000 </r>
       <r>   -7.8838    1.0000 </r>
       <r>   -7.1254    1.0000 </r>
       <r>   -5.5423    1.0000 </r>
       <r>   -5.3310    1.0000 </r>
       <r>   -4.2471    1.0000 </r>
       <r>   -3.5384    1.0000 </r>
       <r>   -0.8114    0.0000 </r>
       <r>   -0.5820    0.0000 </r>
       <r>   -0.1203    0.0000 </r>
       <r>    0.2653    0.0000 </r>
       <r>    1.8352    0.0000 </r>
       <r>    2.3840    0.0000 </r>
      </set>
      <set comment="kpoint 42">
       <r>  -15.0865    1.0000 </r>
       <r>  -13.7694    1.0000 </r>
       <r>  -12.5287    1.0000 </r>
       <r>  -11.0001    1.0000 </r>
       <r>   -7.7059    1.0000 </r>
       <r>   -7.1358    1.0000 </r>
       <r>   -5.5517    1.0000 </r>
       <r>   -5.3107    1.0000 </r>
       <r>   -4.1572    1.0000 </r>
       <r>   -3.7124    1.0000 </r>
       <r>   -1.0598    0.0000 </r>
       <r>   -0.7973    0.0000 </r>
       <r>   -0.0407    0.0000 </r>
       <r>    0.4904    0.0000 </r>
       <r>    1.4706    0.0000 </r>
       <r>    1.9812    0.0000 </r>
[...]
       <r>    3.2363    0.0000 </r>
       <r>    3.3400    0.0000 </r>
      </set>
      <set comment="kpoint 153">
       <r>  -15.3726    1.0000 </r>
       <r>  -15.1310    1.0000 </r>
       <r>  -10.9929    1.0000 </r>
       <r>  -10.6756    1.0000 </r>
       <r>   -7.9485    1.0000 </r>
       <r>   -7.7957    1.0000 </r>
       <r>   -5.3214    1.0000 </r>
       <r>   -5.1089    1.0000 </r>
       <r>   -3.8897    1.0000 </r>
       <r>   -3.8097    1.0000 </r>
       <r>    0.1527    0.0000 </r>
       <r>    0.5220    0.0000 </r>
       <r>    1.0297    0.0000 </r>
       <r>    1.3144    0.0000 </r>
       <r>    3.1752    0.0000 </r>
       <r>    3.2831    0.0000 </r>
      </set>
      <set comment="kpoint 154">
       <r>  -15.6348    1.0000 </r>
       <r>  -15.3882    1.0000 </r>
       <r>  -10.8204    1.0000 </r>
       <r>  -10.4927    1.0000 </r>
       <r>   -7.6567    1.0000 </r>
       <r>   -7.5020    1.0000 </r>
       <r>   -5.1790    1.0000 </r>
       <r>   -4.9137    1.0000 </r>
       <r>   -3.8286    1.0000 </r>
       <r>   -3.7957    1.0000 </r>
       <r>    0.1662    0.0000 </r>
       <r>    0.4476    0.0000 </r>
       <r>    1.1439    0.0000 </r>
       <r>    1.4695    0.0000 </r>
       <r>    2.8277    0.0000 </r>
       <r>    3.0977    0.0000 </r>
      </set>
      <set comment="kpoint 155">
       <r>  -15.8553    1.0000 </r>
       <r>  -15.6059    1.0000 </r>
       <r>  -10.7588    1.0000 </r>
       <r>  -10.4321    1.0000 </r>
       <r>   -7.1745    1.0000 </r>
       <r>   -7.0098    1.0000 </r>
       <r>   -5.1745    1.0000 </r>
       <r>   -4.8661    1.0000 </r>
       <r>   -3.7714    1.0000 </r>
       <r>   -3.6117    1.0000 </r>
       <r>    0.2623    0.0000 </r>
       <r>    0.4311    0.0000 </r>
       <r>    1.1651    0.0000 </r>
       <r>    1.5203    0.0000 </r>
       <r>    2.1911    0.0000 </r>
       <r>    2.4221    0.0000 </r>
      </set>
      <set comment="kpoint 156">
       <r>  -16.0298    1.0000 </r>
       <r>  -15.7789    1.0000 </r>
       <r>  -10.7626    1.0000 </r>
       <r>  -10.4406    1.0000 </r>
       <r>   -6.5702    1.0000 </r>
       <r>   -6.3943    1.0000 </r>
       <r>   -5.2281    1.0000 </r>
       <r>   -4.8996    1.0000 </r>
       <r>   -3.7198    1.0000 </r>
       <r>   -3.4457    1.0000 </r>
       <r>    0.3749    0.0000 </r>
       <r>    0.4252    0.0000 </r>
       <r>    1.0880    0.0000 </r>
       <r>    1.3537    0.0000 </r>
       <r>    1.6453    0.0000 </r>
       <r>    1.7143    0.0000 </r>
      </set>
      <set comment="kpoint 157">
       <r>  -16.1559    1.0000 </r>
       <r>  -15.9041    1.0000 </r>
       <r>  -10.7896    1.0000 </r>
       <r>  -10.4720    1.0000 </r>
       <r>   -5.9243    1.0000 </r>
       <r>   -5.7457    1.0000 </r>
       <r>   -5.2841    1.0000 </r>
       <r>   -4.9513    1.0000 </r>
       <r>   -3.7446    1.0000 </r>
       <r>   -3.3741    1.0000 </r>
       <r>    0.1760    0.0000 </r>
       <r>    0.1960    0.0000 </r>
       <r>    1.0390    0.0000 </r>
       <r>    1.0596    0.0000 </r>
       <r>    1.3868    0.0000 </r>
       <r>    1.5467    0.0000 </r>
      </set>
      <set comment="kpoint 158">
       <r>  -16.2320    1.0000 </r>
       <r>  -15.9798    1.0000 </r>
       <r>  -10.8141    1.0000 </r>
       <r>  -10.4993    1.0000 </r>
       <r>   -5.3543    1.0000 </r>
       <r>   -5.3469    1.0000 </r>
       <r>   -5.1484    1.0000 </r>
       <r>   -4.9906    1.0000 </r>
       <r>   -3.8667    1.0000 </r>
       <r>   -3.4194    1.0000 </r>
       <r>   -0.2516    0.0000 </r>
       <r>   -0.2088    0.0000 </r>
       <r>    1.0883    0.0000 </r>
       <r>    1.1319    0.0000 </r>
       <r>    1.3404    0.0000 </r>
       <r>    1.5021    0.0000 </r>
      </set>
     </set>
    </set>
   </array>
  </eigenvalues>
  <separator name="orbital magnetization" >
   <v name="MAGDIPOLOUT">      0.00000000      0.00000000      0.00000000</v>
  </separator>
  <dos>
   <i name="efermi">     -2.26315182 </i>
   <total>
    <array>
     <dimension dim="1">gridpoints</dimension>
     <dimension dim="2">spin</dimension>
     <field>energy</field>
     <field>total</field>
     <field>integrated</field>
     <set>
      <set comment="spin 1">
       <r>   -18.2367     0.0000     0.0000 </r>
       <r>   -18.1607     0.0000     0.0000 </r>
       <r>   -18.0847     0.0000     0.0000 </r>
       <r>   -18.0086     0.0000     0.0000 </r>
       <r>   -17.9326     0.0000     0.0000 </r>
       <r>   -17.8566     0.0000     0.0000 </r>
       <r>   -17.7806     0.0000     0.0000 </r>
       <r>   -17.7046     0.0000     0.0000 </r>
       <r>   -17.6285     0.0000     0.0000 </r>
       <r>   -17.5525     0.0000     0.0000 </r>
       <r>   -17.4765     0.0000     0.0000 </r>
       <r>   -17.4005     0.0000     0.0000 </r>
       <r>   -17.3245     0.0000     0.0000 </r>
       <r>   -17.2484     0.0000     0.0000 </r>
       <r>   -17.1724     0.3145     0.0239 </r>
       <r>   -17.0964     0.8080     0.0853 </r>
       <r>   -17.0204     0.7931     0.1456 </r>
       <r>   -16.9444     0.9902     0.2209 </r>
       <r>   -16.8684     0.9385     0.2923 </r>
       <r>   -16.7923     0.5525     0.3343 </r>
       <r>   -16.7163     1.0953     0.4175 </r>
       <r>   -16.6403     0.9524     0.4899 </r>
       <r>   -16.5643     0.8420     0.5539 </r>
       <r>   -16.4883     0.6605     0.6041 </r>
       <r>   -16.4122     1.3404     0.7060 </r>
       <r>   -16.3362     0.6488     0.7554 </r>
       <r>   -16.2602     0.7832     0.8149 </r>
       <r>   -16.1842     1.4435     0.9246 </r>
       <r>   -16.1082     0.5099     0.9634 </r>
       <r>   -16.0321     1.0866     1.0460 </r>
       <r>   -15.9561     0.8870     1.1134 </r>
       <r>   -15.8801     1.0402     1.1925 </r>
       <r>   -15.8041     1.0136     1.2695 </r>
       <r>   -15.7281     1.1519     1.3571 </r>
       <r>   -15.6520     0.4638     1.3924 </r>
       <r>   -15.5760     1.4897     1.5056 </r>
       <r>   -15.5000     0.9520     1.5780 </r>
       <r>   -15.4240     1.0714     1.6594 </r>
       <r>   -15.3480     1.4402     1.7689 </r>
       <r>   -15.2719     0.8335     1.8323 </r>
       <r>   -15.1959     0.8596     1.8976 </r>
       <r>   -15.1199     1.5836     2.0180 </r>
       <r>   -15.0439     1.3695     2.1221 </r>
       <r>   -14.9679     1.1362     2.2085 </r>
       <r>   -14.8919     0.9688     2.2821 </r>
       <r>   -14.8158     1.9049     2.4269 </r>
       <r>   -14.7398     1.8088     2.5645 </r>
       <r>   -14.6638     1.1054     2.6485 </r>
       <r>   -14.5878     2.4760     2.8367 </r>
       <r>   -14.5118     1.0886     2.9195 </r>
       <r>   -14.4357     0.9705     2.9932 </r>
       <r>   -14.3597     1.2614     3.0891 </r>
       <r>   -14.2837     1.4630     3.2003 </r>
       <r>   -14.2077     1.2188     3.2930 </r>
       <r>   -14.1317     1.8370     3.4326 </r>
       <r>   -14.0556     2.1024     3.5925 </r>
       <r>   -13.9796     0.3283     3.6174 </r>
       <r>   -13.9036     0.5869     3.6620 </r>
       <r>   -13.8276     0.9566     3.7347 </r>
       <r>   -13.7516     1.0945     3.8180 </r>
       <r>   -13.6755     0.8064     3.8793 </r>
       <r>   -13.5995     0.2520     3.8984 </r>
       <r>   -13.5235     0.1135     3.9070 </r>
       <r>   -13.4475     0.5603     3.9496 </r>
       <r>   -13.3715     0.1807     3.9634 </r>
       <r>   -13.2954     0.3150     3.9873 </r>
       <r>   -13.2194     0.1652     3.9999 </r>
       <r>   -13.1434     0.0017     4.0000 </r>
       <r>   -13.0674     0.0000     4.0000 </r>
       <r>   -12.9914     0.1613     4.0123 </r>
       <r>   -12.9153     0.2094     4.0282 </r>
       <r>   -12.8393     0.1304     4.0381 </r>
       <r>   -12.7633     0.2159     4.0545 </r>
       <r>   -12.6873     0.6132     4.1011 </r>
       <r>   -12.6113     0.0061     4.1016 </r>
       <r>   -12.5353     1.1593     4.1897 </r>
       <r>   -12.4592     0.6518     4.2393 </r>
       <r>   -12.3832     0.4198     4.2712 </r>
       <r>   -12.3072     1.1249     4.3567 </r>
       <r>   -12.2312     0.3861     4.3860 </r>
       <r>   -12.1552     1.3277     4.4870 </r>
       <r>   -12.0791     2.0783     4.6450 </r>
       <r>   -12.0031     1.5404     4.7621 </r>
       <r>   -11.9271     0.9556     4.8347 </r>
       <r>   -11.8511     0.7182     4.8893 </r>
       <r>   -11.7751     1.7591     5.0230 </r>
       <r>   -11.6990     0.8755     5.0896 </r>
       <r>   -11.6230     1.8812     5.2326 </r>
       <r>   -11.5470     3.9016     5.5292 </r>
       <r>   -11.4710     1.6720     5.6563 </r>
       <r>   -11.3950     1.6347     5.7806 </r>
       <r>   -11.3189     0.5784     5.8245 </r>
       <r>   -11.2429     2.2451     5.9952 </r>
       <r>   -11.1669     0.2435     6.0137 </r>
       <r>   -11.0909     1.0219     6.0914 </r>
       <r>   -11.0149     1.5415     6.2086 </r>
       <r>   -10.9388     1.1152     6.2934 </r>
       <r>   -10.8628     0.6518     6.3429 </r>
       <r>   -10.7868     1.0371     6.4218 </r>
       <r>   -10.7108     0.9506     6.4940 </r>
       <r>   -10.6348     0.8506     6.5587 </r>
       <r>   -10.5588     0.0036     6.5590 </r>
       <r>   -10.4827     1.1160     6.6438 </r>
       <r>   -10.4067     1.4013     6.7503 </r>
       <r>   -10.3307     0.6788     6.8019 </r>
       <r>   -10.2547     0.4750     6.8380 </r>
       <r>   -10.1787     0.0652     6.8430 </r>
       <r>   -10.1026     1.3655     6.9468 </r>
       <r>   -10.0266     0.8563     7.0119 </r>
       <r>    -9.9506     0.3520     7.0386 </r>
       <r>    -9.8746     0.2015     7.0540 </r>
       <r>    -9.7986     0.0475     7.0576 </r>
       <r>    -9.7225     1.2323     7.1513 </r>
       <r>    -9.6465     1.5971     7.2727 </r>
       <r>    -9.5705     0.1298     7.2825 </r>
       <r>    -9.4945     0.0000     7.2825 </r>
       <r>    -9.4185     0.2599     7.3023 </r>
       <r>    -9.3424     0.4480     7.3364 </r>
       <r>    -9.2664     1.2341     7.4302 </r>
       <r>    -9.1904     0.3886     7.4597 </r>
       <r>    -9.1144     0.1749     7.4730 </r>
       <r>    -9.0384     0.3367     7.4986 </r>
       <r>    -8.9623     0.4748     7.5347 </r>
       <r>    -8.8863     0.2965     7.5572 </r>
       <r>    -8.8103     1.2199     7.6500 </r>
       <r>    -8.7343     0.0349     7.6526 </r>
       <r>    -8.6583     0.3099     7.6762 </r>
       <r>    -8.5823     0.0000     7.6762 </r>
       <r>    -8.5062     0.0010     7.6763 </r>
       <r>    -8.4302     1.3170     7.7764 </r>
       <r>    -8.3542     0.5506     7.8182 </r>
       <r>    -8.2782     0.1360     7.8286 </r>
       <r>    -8.2022     0.0282     7.8307 </r>
       <r>    -8.1261     1.0184     7.9081 </r>
       <r>    -8.0501     3.0093     8.1369 </r>
       <r>    -7.9741     1.9330     8.2838 </r>
       <r>    -7.8981     1.4835     8.3966 </r>
       <r>    -7.8221     3.0391     8.6276 </r>
       <r>    -7.7460     2.8311     8.8429 </r>
       <r>    -7.6700     1.2983     8.9416 </r>
       <r>    -7.5940     1.8254     9.0803 </r>
       <r>    -7.5180     1.6738     9.2076 </r>
       <r>    -7.4420     2.6943     9.4124 </r>
       <r>    -7.3659     2.3094     9.5879 </r>
       <r>    -7.2899     3.8345     9.8794 </r>
       <r>    -7.2139     3.4335    10.1405 </r>
       <r>    -7.1379     3.8777    10.4352 </r>
       <r>    -7.0619     2.3022    10.6102 </r>
       <r>    -6.9858     1.3481    10.7127 </r>
       <r>    -6.9098     0.9942    10.7883 </r>
       <r>    -6.8338     1.4629    10.8995 </r>
       <r>    -6.7578     1.0454    10.9790 </r>
       <r>    -6.6818     1.9683    11.1286 </r>
       <r>    -6.6058     1.7207    11.2594 </r>
       <r>    -6.5297     1.0873    11.3421 </r>
       <r>    -6.4537     1.9653    11.4915 </r>
       <r>    -6.3777     1.8917    11.6353 </r>
       <r>    -6.3017     0.8013    11.6962 </r>
       <r>    -6.2257     2.5428    11.8895 </r>
       <r>    -6.1496     2.1153    12.0503 </r>
       <r>    -6.0736     0.9347    12.1214 </r>
       <r>    -5.9976     1.5803    12.2415 </r>
       <r>    -5.9216     1.8858    12.3848 </r>
       <r>    -5.8456     2.6099    12.5832 </r>
       <r>    -5.7695     1.9861    12.7342 </r>
       <r>    -5.6935     3.0587    12.9667 </r>
       <r>    -5.6175     4.6012    13.3165 </r>
       <r>    -5.5415     3.4953    13.5822 </r>
       <r>    -5.4655     3.0664    13.8154 </r>
       <r>    -5.3894     4.1837    14.1334 </r>
       <r>    -5.3134     3.1565    14.3733 </r>
       <r>    -5.2374     3.6257    14.6490 </r>
       <r>    -5.1614     3.0409    14.8801 </r>
       <r>    -5.0854     2.2686    15.0526 </r>
       <r>    -5.0093     1.1189    15.1377 </r>
       <r>    -4.9333     2.3451    15.3159 </r>
       <r>    -4.8573     2.1058    15.4760 </r>
       <r>    -4.7813     0.9074    15.5450 </r>
       <r>    -4.7053     0.6106    15.5914 </r>
       <r>    -4.6293     1.2554    15.6868 </r>
       <r>    -4.5532     1.9933    15.8384 </r>
       <r>    -4.4772     0.7145    15.8927 </r>
       <r>    -4.4012     0.7388    15.9488 </r>
       <r>    -4.3252     1.6217    16.0721 </r>
       <r>    -4.2492     0.6209    16.1193 </r>
       <r>    -4.1731     3.1631    16.3598 </r>
       <r>    -4.0971     1.6892    16.4882 </r>
       <r>    -4.0211     3.1277    16.7260 </r>
       <r>    -3.9451     2.2949    16.9004 </r>
       <r>    -3.8691     2.4844    17.0893 </r>
       <r>    -3.7930     5.8272    17.5323 </r>
       <r>    -3.7170     3.6706    17.8113 </r>
       <r>    -3.6410     2.9504    18.0356 </r>
       <r>    -3.5650     3.6187    18.3107 </r>
       <r>    -3.4890     3.4593    18.5736 </r>
       <r>    -3.4129     3.7174    18.8562 </r>
       <r>    -3.3369     3.6602    19.1345 </r>
       <r>    -3.2609     3.1476    19.3738 </r>
       <r>    -3.1849     0.3415    19.3997 </r>
       <r>    -3.1089     1.1074    19.4839 </r>
       <r>    -3.0328     1.3267    19.5848 </r>
       <r>    -2.9568     1.0782    19.6667 </r>
       <r>    -2.8808     1.6126    19.7893 </r>
       <r>    -2.8048     0.2794    19.8106 </r>
       <r>    -2.7288     0.1787    19.8241 </r>
       <r>    -2.6528     0.3706    19.8523 </r>
       <r>    -2.5767     0.3333    19.8776 </r>
       <r>    -2.5007     1.0238    19.9555 </r>
       <r>    -2.4247     0.1600    19.9676 </r>
       <r>    -2.3487     0.3698    19.9957 </r>
       <r>    -2.2727     0.0560    20.0000 </r>
       <r>    -2.1966     0.0000    20.0000 </r>
       <r>    -2.1206     0.0000    20.0000 </r>
       <r>    -2.0446     0.0000    20.0000 </r>
       <r>    -1.9686     0.0000    20.0000 </r>
       <r>    -1.8926     0.0000    20.0000 </r>
       <r>    -1.8165     0.0000    20.0000 </r>
       <r>    -1.7405     0.0000    20.0000 </r>
       <r>    -1.6645     0.0000    20.0000 </r>
       <r>    -1.5885     0.0000    20.0000 </r>
       <r>    -1.5125     0.0000    20.0000 </r>
       <r>    -1.4364     0.0000    20.0000 </r>
       <r>    -1.3604     0.0148    20.0011 </r>
       <r>    -1.2844     0.2365    20.0191 </r>
       <r>    -1.2084     0.1677    20.0319 </r>
       <r>    -1.1324     1.3165    20.1319 </r>
       <r>    -1.0563     1.9462    20.2799 </r>
       <r>    -0.9803     2.0804    20.4380 </r>
       <r>    -0.9043     1.3738    20.5425 </r>
       <r>    -0.8283     1.9239    20.6887 </r>
       <r>    -0.7523     2.5682    20.8840 </r>
       <r>    -0.6762     2.1837    21.0500 </r>
       <r>    -0.6002     1.6258    21.1735 </r>
       <r>    -0.5242     3.0176    21.4029 </r>
       <r>    -0.4482     3.7289    21.6864 </r>
       <r>    -0.3722     2.5748    21.8821 </r>
       <r>    -0.2962     2.6504    22.0836 </r>
       <r>    -0.2201     2.6331    22.2838 </r>
       <r>    -0.1441     3.2142    22.5281 </r>
       <r>    -0.0681     2.0484    22.6839 </r>
       <r>     0.0079     3.1760    22.9253 </r>
       <r>     0.0839     3.3121    23.1771 </r>
       <r>     0.1600     3.5503    23.4470 </r>
       <r>     0.2360     4.3041    23.7742 </r>
       <r>     0.3120     5.4528    24.1887 </r>
       <r>     0.3880     4.0008    24.4928 </r>
       <r>     0.4640     4.2196    24.8136 </r>
       <r>     0.5401     3.1947    25.0564 </r>
       <r>     0.6161     3.5856    25.3290 </r>
       <r>     0.6921     4.8910    25.7008 </r>
       <r>     0.7681     2.9194    25.9228 </r>
       <r>     0.8441     3.8744    26.2173 </r>
       <r>     0.9202     3.8886    26.5129 </r>
       <r>     0.9962     1.6496    26.6383 </r>
       <r>     1.0722     2.0146    26.7915 </r>
       <r>     1.1482     3.7519    27.0767 </r>
       <r>     1.2242     1.9578    27.2255 </r>
       <r>     1.3003     3.0702    27.4589 </r>
       <r>     1.3763     2.4257    27.6433 </r>
       <r>     1.4523     1.1401    27.7300 </r>
       <r>     1.5283     2.5060    27.9205 </r>
       <r>     1.6043     2.7569    28.1300 </r>
       <r>     1.6803     2.6057    28.3281 </r>
       <r>     1.7564     1.9633    28.4774 </r>
       <r>     1.8324     2.8779    28.6962 </r>
       <r>     1.9084     2.1135    28.8568 </r>
       <r>     1.9844     1.8207    28.9952 </r>
       <r>     2.0604     1.4369    29.1045 </r>
       <r>     2.1365     2.2045    29.2720 </r>
       <r>     2.2125     2.9367    29.4953 </r>
       <r>     2.2885     2.7502    29.7044 </r>
       <r>     2.3645     1.4968    29.8181 </r>
       <r>     2.4405     3.8599    30.1116 </r>
       <r>     2.5166     2.8915    30.3314 </r>
       <r>     2.5926     3.7756    30.6184 </r>
       <r>     2.6686     3.1683    30.8593 </r>
       <r>     2.7446     1.4257    30.9676 </r>
       <r>     2.8206     1.4933    31.0812 </r>
       <r>     2.8967     3.1673    31.3219 </r>
       <r>     2.9727     1.0759    31.4037 </r>
       <r>     3.0487     1.7348    31.5356 </r>
       <r>     3.1247     1.0513    31.6155 </r>
       <r>     3.2007     2.0104    31.7684 </r>
       <r>     3.2768     1.1777    31.8579 </r>
       <r>     3.3528     0.8309    31.9210 </r>
       <r>     3.4288     0.6856    31.9732 </r>
       <r>     3.5048     0.0274    31.9752 </r>
       <r>     3.5808     0.3255    32.0000 </r>
       <r>     3.6568     0.0001    32.0000 </r>
       <r>     3.7329     0.0000    32.0000 </r>
       <r>     3.8089     0.0000    32.0000 </r>
       <r>     3.8849     0.0000    32.0000 </r>
       <r>     3.9609     0.0000    32.0000 </r>
       <r>     4.0369     0.0000    32.0000 </r>
       <r>     4.1130     0.0000    32.0000 </r>
       <r>     4.1890     0.0000    32.0000 </r>
       <r>     4.2650     0.0000    32.0000 </r>
       <r>     4.3410     0.0000    32.0000 </r>
       <r>     4.4170     0.0000    32.0000 </r>
       <r>     4.4931     0.0000    32.0000 </r>
       <r>     4.5691     0.0000    32.0000 </r>
      </set>
     </set>
    </array>
   </total>
  </dos>
 </calculation>
 <structure name="finalpos" >
  <crystal>
   <varray name="basis" >
    <v>       3.33409100       0.00000000       0.00000000 </v>
    <v>       0.00000000       4.67507400      -0.00005300 </v>
    <v>       0.00000000       0.00000000      20.02439000 </v>
   </varray>
   <i name="volume">    312.12261286 </i>
   <varray name="rec_basis" >
    <v>       0.29993183       0.00000000       0.00000000 </v>
    <v>       0.00000000       0.21390036       0.00000000 </v>
    <v>       0.00000000       0.00000057       0.04993910 </v>
   </varray>
  </crystal>
  <varray name="positions" >
   <v>       0.50000000       0.90860703       0.55224962 </v>
   <v>       0.50000000       0.09139297       0.44775038 </v>
   <v>      -0.00000000       0.40860242       0.44775039 </v>
   <v>       0.00000000       0.59139758       0.55224961 </v>
  </varray>
 </structure>
</modeling>
