<?xml version="1.0" encoding="ISO-8859-1"?>
<modeling>
 <generator>
  <i name="program" type="string">vasp </i>
  <i name="version" type="string">5.4.1  </i>
  <i name="subversion" type="string">24Jun15 (build Nov 20 2020 10:29:34) complex                          parallel </i>
  <i name="platform" type="string">IFC91_ompi </i>
  <i name="date" type="string">2021 09 14 </i>
  <i name="time" type="string">00:24:02 </i>
 </generator>
 <incar>
  <i type="int" name="ISTART">     1</i>
  <i type="string" name="PREC">a</i>
  <i type="string" name="ALGO"> Normal</i>
  <i type="int" name="ISPIN">     1</i>
  <i type="int" name="ICHARG">     2</i>
  <i type="int" name="NELM">   250</i>
  <i type="int" name="NELMDL">    -5</i>
  <i type="int" name="NELMIN">     6</i>
  <i type="int" name="IBRION">     2</i>
  <i name="EDIFF">      0.00001000</i>
  <i name="EDIFFG">     -0.00500000</i>
  <i type="int" name="NSW">     0</i>
  <i type="int" name="ISIF">     2</i>
  <i name="ENCUT">    520.00000000</i>
  <i name="POTIM">      0.25000000</i>
  <v name="MAGMOM">      0.60000000      0.60000000</v>
  <i type="string" name="LREAL"> Auto</i>
  <i type="int" name="ISMEAR">     0</i>
  <i name="SIGMA">      0.02000000</i>
  <i type="logical" name="LWAVE"> F  </i>
  <i type="logical" name="LCHARG"> F  </i>
  <i type="logical" name="LVHAR"> F  </i>
  <v type="int" name="KPOINT_BSE">    -1     0     0     0</v>
  <i type="int" name="NELM">   250</i>
 </incar>
 <kpoints>
  <generation param="Gamma">
   <v type="int" name="divisions">      25       24        1 </v>
   <v name="usershift">      0.00000000       0.00000000       0.00000000 </v>
   <v name="genvec1">      0.04000000       0.00000000       0.00000000 </v>
   <v name="genvec2">      0.00000000       0.04166667       0.00000000 </v>
   <v name="genvec3">      0.00000000       0.00000000       1.00000000 </v>
   <v name="shift">      0.00000000       0.00000000       0.00000000 </v>
  </generation>
  <varray name="kpointlist" >
   <v>       0.00000000       0.00000000       0.00000000 </v>
   <v>       0.04000000      -0.00000000       0.00000000 </v>
   <v>       0.08000000      -0.00000000       0.00000000 </v>
   <v>       0.12000000       0.00000000       0.00000000 </v>
   <v>       0.16000000      -0.00000000       0.00000000 </v>
   <v>       0.20000000       0.00000000       0.00000000 </v>
   <v>       0.24000000       0.00000000       0.00000000 </v>
   <v>       0.28000000       0.00000000       0.00000000 </v>
   <v>       0.32000000      -0.00000000       0.00000000 </v>
   <v>       0.36000000       0.00000000       0.00000000 </v>
   <v>       0.40000000       0.00000000       0.00000000 </v>
   <v>       0.44000000       0.00000000       0.00000000 </v>
   <v>       0.48000000       0.00000000       0.00000000 </v>
   <v>       0.00000000       0.04166667       0.00000000 </v>
   <v>       0.04000000       0.04166667       0.00000000 </v>
   <v>       0.08000000       0.04166667       0.00000000 </v>
   <v>       0.12000000       0.04166667       0.00000000 </v>
   <v>       0.16000000       0.04166667       0.00000000 </v>
   <v>       0.20000000       0.04166667       0.00000000 </v>
   <v>       0.24000000       0.04166667       0.00000000 </v>
   <v>       0.28000000       0.04166667       0.00000000 </v>
   <v>       0.32000000       0.04166667       0.00000000 </v>
   <v>       0.36000000       0.04166667       0.00000000 </v>
   <v>       0.40000000       0.04166667       0.00000000 </v>
   <v>       0.44000000       0.04166667       0.00000000 </v>
   <v>       0.48000000       0.04166667       0.00000000 </v>
   <v>      -0.48000000       0.04166667       0.00000000 </v>
   <v>      -0.44000000       0.04166667       0.00000000 </v>
   <v>      -0.40000000       0.04166667       0.00000000 </v>
   <v>      -0.36000000       0.04166667       0.00000000 </v>
   <v>      -0.32000000       0.04166667       0.00000000 </v>
   <v>      -0.28000000       0.04166667       0.00000000 </v>
   <v>      -0.24000000       0.04166667       0.00000000 </v>
   <v>      -0.20000000       0.04166667       0.00000000 </v>
   <v>      -0.16000000       0.04166667       0.00000000 </v>
   <v>      -0.12000000       0.04166667       0.00000000 </v>
   <v>      -0.08000000       0.04166667       0.00000000 </v>
   <v>      -0.04000000       0.04166667       0.00000000 </v>
   <v>       0.00000000       0.08333333       0.00000000 </v>
   <v>       0.04000000       0.08333333       0.00000000 </v>
   <v>       0.08000000       0.08333333       0.00000000 </v>
   <v>       0.12000000       0.08333333       0.00000000 </v>
   <v>       0.16000000       0.08333333       0.00000000 </v>
   <v>       0.20000000       0.08333333       0.00000000 </v>
   <v>       0.24000000       0.08333333       0.00000000 </v>
   <v>       0.28000000       0.08333333       0.00000000 </v>
   <v>       0.32000000       0.08333333       0.00000000 </v>
   <v>       0.36000000       0.08333333       0.00000000 </v>
   <v>       0.40000000       0.08333333       0.00000000 </v>
   <v>       0.44000000       0.08333333       0.00000000 </v>
   <v>       0.48000000       0.08333333       0.00000000 </v>
   <v>      -0.48000000       0.08333333       0.00000000 </v>
   <v>      -0.44000000       0.08333333       0.00000000 </v>
   <v>      -0.40000000       0.08333333       0.00000000 </v>
   <v>      -0.36000000       0.08333333       0.00000000 </v>
   <v>      -0.32000000       0.08333333       0.00000000 </v>
   <v>      -0.28000000       0.08333333       0.00000000 </v>
   <v>      -0.24000000       0.08333333       0.00000000 </v>
   <v>      -0.20000000       0.08333333       0.00000000 </v>
   <v>      -0.16000000       0.08333333       0.00000000 </v>
   <v>      -0.12000000       0.08333333       0.00000000 </v>
   <v>      -0.08000000       0.08333333       0.00000000 </v>
   <v>      -0.04000000       0.08333333       0.00000000 </v>
   <v>       0.00000000       0.12500000       0.00000000 </v>
   <v>       0.04000000       0.12500000       0.00000000 </v>
   <v>       0.08000000       0.12500000       0.00000000 </v>
   <v>       0.12000000       0.12500000       0.00000000 </v>
   <v>       0.16000000       0.12500000       0.00000000 </v>
   <v>       0.20000000       0.12500000       0.00000000 </v>
   <v>       0.24000000       0.12500000       0.00000000 </v>
   <v>       0.28000000       0.12500000       0.00000000 </v>
   <v>       0.32000000       0.12500000       0.00000000 </v>
   <v>       0.36000000       0.12500000       0.00000000 </v>
   <v>       0.40000000       0.12500000       0.00000000 </v>
   <v>       0.44000000       0.12500000       0.00000000 </v>
   <v>       0.48000000       0.12500000       0.00000000 </v>
   <v>      -0.48000000       0.12500000       0.00000000 </v>
   <v>      -0.44000000       0.12500000       0.00000000 </v>
   <v>      -0.40000000       0.12500000       0.00000000 </v>
   <v>      -0.36000000       0.12500000       0.00000000 </v>
   <v>      -0.32000000       0.12500000       0.00000000 </v>
   <v>      -0.28000000       0.12500000       0.00000000 </v>
   <v>      -0.24000000       0.12500000       0.00000000 </v>
   <v>      -0.20000000       0.12500000       0.00000000 </v>
   <v>      -0.16000000       0.12500000       0.00000000 </v>
   <v>      -0.12000000       0.12500000       0.00000000 </v>
   <v>      -0.08000000       0.12500000       0.00000000 </v>
   <v>      -0.04000000       0.12500000       0.00000000 </v>
   <v>       0.00000000       0.16666667       0.00000000 </v>
   <v>       0.04000000       0.16666667       0.00000000 </v>
   <v>       0.08000000       0.16666667       0.00000000 </v>
   <v>       0.12000000       0.16666667       0.00000000 </v>
   <v>       0.16000000       0.16666667       0.00000000 </v>
   <v>       0.20000000       0.16666667       0.00000000 </v>
   <v>       0.24000000       0.16666667       0.00000000 </v>
   <v>       0.28000000       0.16666667       0.00000000 </v>
   <v>       0.32000000       0.16666667       0.00000000 </v>
   <v>       0.36000000       0.16666667       0.00000000 </v>
   <v>       0.40000000       0.16666667       0.00000000 </v>
   <v>       0.44000000       0.16666667       0.00000000 </v>
   <v>       0.48000000       0.16666667       0.00000000 </v>
   <v>      -0.48000000       0.16666667       0.00000000 </v>
   <v>      -0.44000000       0.16666667       0.00000000 </v>
   <v>      -0.40000000       0.16666667       0.00000000 </v>
   <v>      -0.36000000       0.16666667       0.00000000 </v>
   <v>      -0.32000000       0.16666667       0.00000000 </v>
   <v>      -0.28000000       0.16666667       0.00000000 </v>
   <v>      -0.24000000       0.16666667       0.00000000 </v>
   <v>      -0.20000000       0.16666667       0.00000000 </v>
   <v>      -0.16000000       0.16666667       0.00000000 </v>
   <v>      -0.12000000       0.16666667       0.00000000 </v>
   <v>      -0.08000000       0.16666667       0.00000000 </v>
   <v>      -0.04000000       0.16666667       0.00000000 </v>
   <v>       0.00000000       0.20833333       0.00000000 </v>
   <v>       0.04000000       0.20833333       0.00000000 </v>
   <v>       0.08000000       0.20833333       0.00000000 </v>
   <v>       0.12000000       0.20833333       0.00000000 </v>
   <v>       0.16000000       0.20833333       0.00000000 </v>
   <v>       0.20000000       0.20833333       0.00000000 </v>
   <v>       0.24000000       0.20833333       0.00000000 </v>
   <v>       0.28000000       0.20833333       0.00000000 </v>
   <v>       0.32000000       0.20833333       0.00000000 </v>
   <v>       0.36000000       0.20833333       0.00000000 </v>
   <v>       0.40000000       0.20833333       0.00000000 </v>
   <v>       0.44000000       0.20833333       0.00000000 </v>
   <v>       0.48000000       0.20833333       0.00000000 </v>
   <v>      -0.48000000       0.20833333       0.00000000 </v>
   <v>      -0.44000000       0.20833333       0.00000000 </v>
   <v>      -0.40000000       0.20833333       0.00000000 </v>
   <v>      -0.36000000       0.20833333       0.00000000 </v>
   <v>      -0.32000000       0.20833333       0.00000000 </v>
   <v>      -0.28000000       0.20833333       0.00000000 </v>
   <v>      -0.24000000       0.20833333       0.00000000 </v>
   <v>      -0.20000000       0.20833333       0.00000000 </v>
   <v>      -0.16000000       0.20833333       0.00000000 </v>
   <v>      -0.12000000       0.20833333       0.00000000 </v>
   <v>      -0.08000000       0.20833333       0.00000000 </v>
   <v>      -0.04000000       0.20833333       0.00000000 </v>
   <v>       0.00000000       0.25000000       0.00000000 </v>
   <v>       0.04000000       0.25000000       0.00000000 </v>
   <v>       0.08000000       0.25000000       0.00000000 </v>
   <v>       0.12000000       0.25000000       0.00000000 </v>
   <v>       0.16000000       0.25000000       0.00000000 </v>
   <v>       0.20000000       0.25000000       0.00000000 </v>
   <v>       0.24000000       0.25000000       0.00000000 </v>
   <v>       0.28000000       0.25000000       0.00000000 </v>
   <v>       0.32000000       0.25000000       0.00000000 </v>
   <v>       0.36000000       0.25000000       0.00000000 </v>
   <v>       0.40000000       0.25000000       0.00000000 </v>
   <v>       0.44000000       0.25000000       0.00000000 </v>
   <v>       0.48000000       0.25000000       0.00000000 </v>
   <v>      -0.48000000       0.25000000       0.00000000 </v>
   <v>      -0.44000000       0.25000000       0.00000000 </v>
   <v>      -0.40000000       0.25000000       0.00000000 </v>
   <v>      -0.36000000       0.25000000       0.00000000 </v>
   <v>      -0.32000000       0.25000000       0.00000000 </v>
   <v>      -0.28000000       0.25000000       0.00000000 </v>
   <v>      -0.24000000       0.25000000       0.00000000 </v>
   <v>      -0.20000000       0.25000000       0.00000000 </v>
   <v>      -0.16000000       0.25000000       0.00000000 </v>
   <v>      -0.12000000       0.25000000       0.00000000 </v>
   <v>      -0.08000000       0.25000000       0.00000000 </v>
   <v>      -0.04000000       0.25000000       0.00000000 </v>
   <v>       0.00000000       0.29166667       0.00000000 </v>
   <v>       0.04000000       0.29166667       0.00000000 </v>
   <v>       0.08000000       0.29166667       0.00000000 </v>
   <v>       0.12000000       0.29166667       0.00000000 </v>
   <v>       0.16000000       0.29166667       0.00000000 </v>
   <v>       0.20000000       0.29166667       0.00000000 </v>
   <v>       0.24000000       0.29166667       0.00000000 </v>
   <v>       0.28000000       0.29166667       0.00000000 </v>
   <v>       0.32000000       0.29166667       0.00000000 </v>
   <v>       0.36000000       0.29166667       0.00000000 </v>
   <v>       0.40000000       0.29166667       0.00000000 </v>
   <v>       0.44000000       0.29166667       0.00000000 </v>
   <v>       0.48000000       0.29166667       0.00000000 </v>
   <v>      -0.48000000       0.29166667       0.00000000 </v>
   <v>      -0.44000000       0.29166667       0.00000000 </v>
   <v>      -0.40000000       0.29166667       0.00000000 </v>
   <v>      -0.36000000       0.29166667       0.00000000 </v>
   <v>      -0.32000000       0.29166667       0.00000000 </v>
   <v>      -0.28000000       0.29166667       0.00000000 </v>
   <v>      -0.24000000       0.29166667       0.00000000 </v>
   <v>      -0.20000000       0.29166667       0.00000000 </v>
   <v>      -0.16000000       0.29166667       0.00000000 </v>
   <v>      -0.12000000       0.29166667       0.00000000 </v>
   <v>      -0.08000000       0.29166667       0.00000000 </v>
   <v>      -0.04000000       0.29166667       0.00000000 </v>
   <v>       0.00000000       0.33333333       0.00000000 </v>
   <v>       0.04000000       0.33333333       0.00000000 </v>
   <v>       0.08000000       0.33333333       0.00000000 </v>
   <v>       0.12000000       0.33333333       0.00000000 </v>
   <v>       0.16000000       0.33333333       0.00000000 </v>
   <v>       0.20000000       0.33333333       0.00000000 </v>
   <v>       0.24000000       0.33333333       0.00000000 </v>
   <v>       0.28000000       0.33333333       0.00000000 </v>
   <v>       0.32000000       0.33333333       0.00000000 </v>
   <v>       0.36000000       0.33333333       0.00000000 </v>
   <v>       0.40000000       0.33333333       0.00000000 </v>
   <v>       0.44000000       0.33333333       0.00000000 </v>
   <v>       0.48000000       0.33333333       0.00000000 </v>
   <v>      -0.48000000       0.33333333       0.00000000 </v>
   <v>      -0.44000000       0.33333333       0.00000000 </v>
   <v>      -0.40000000       0.33333333       0.00000000 </v>
   <v>      -0.36000000       0.33333333       0.00000000 </v>
   <v>      -0.32000000       0.33333333       0.00000000 </v>
   <v>      -0.28000000       0.33333333       0.00000000 </v>
   <v>      -0.24000000       0.33333333       0.00000000 </v>
   <v>      -0.20000000       0.33333333       0.00000000 </v>
   <v>      -0.16000000       0.33333333       0.00000000 </v>
   <v>      -0.12000000       0.33333333       0.00000000 </v>
   <v>      -0.08000000       0.33333333       0.00000000 </v>
   <v>      -0.04000000       0.33333333       0.00000000 </v>
   <v>       0.00000000       0.37500000       0.00000000 </v>
   <v>       0.04000000       0.37500000       0.00000000 </v>
   <v>       0.08000000       0.37500000       0.00000000 </v>
   <v>       0.12000000       0.37500000       0.00000000 </v>
   <v>       0.16000000       0.37500000       0.00000000 </v>
   <v>       0.20000000       0.37500000       0.00000000 </v>
   <v>       0.24000000       0.37500000       0.00000000 </v>
   <v>       0.28000000       0.37500000       0.00000000 </v>
   <v>       0.32000000       0.37500000       0.00000000 </v>
   <v>       0.36000000       0.37500000       0.00000000 </v>
   <v>       0.40000000       0.37500000       0.00000000 </v>
   <v>       0.44000000       0.37500000       0.00000000 </v>
   <v>       0.48000000       0.37500000       0.00000000 </v>
   <v>      -0.48000000       0.37500000       0.00000000 </v>
   <v>      -0.44000000       0.37500000       0.00000000 </v>
   <v>      -0.40000000       0.37500000       0.00000000 </v>
   <v>      -0.36000000       0.37500000       0.00000000 </v>
   <v>      -0.32000000       0.37500000       0.00000000 </v>
   <v>      -0.28000000       0.37500000       0.00000000 </v>
   <v>      -0.24000000       0.37500000       0.00000000 </v>
   <v>      -0.20000000       0.37500000       0.00000000 </v>
   <v>      -0.16000000       0.37500000       0.00000000 </v>
   <v>      -0.12000000       0.37500000       0.00000000 </v>
   <v>      -0.08000000       0.37500000       0.00000000 </v>
   <v>      -0.04000000       0.37500000       0.00000000 </v>
   <v>       0.00000000       0.41666667       0.00000000 </v>
   <v>       0.04000000       0.41666667       0.00000000 </v>
   <v>       0.08000000       0.41666667       0.00000000 </v>
   <v>       0.12000000       0.41666667       0.00000000 </v>
   <v>       0.16000000       0.41666667       0.00000000 </v>
   <v>       0.20000000       0.41666667       0.00000000 </v>
   <v>       0.24000000       0.41666667       0.00000000 </v>
   <v>       0.28000000       0.41666667       0.00000000 </v>
   <v>       0.32000000       0.41666667       0.00000000 </v>
   <v>       0.36000000       0.41666667       0.00000000 </v>
   <v>       0.40000000       0.41666667       0.00000000 </v>
   <v>       0.44000000       0.41666667       0.00000000 </v>
   <v>       0.48000000       0.41666667       0.00000000 </v>
   <v>      -0.48000000       0.41666667       0.00000000 </v>
   <v>      -0.44000000       0.41666667       0.00000000 </v>
   <v>      -0.40000000       0.41666667       0.00000000 </v>
   <v>      -0.36000000       0.41666667       0.00000000 </v>
   <v>      -0.32000000       0.41666667       0.00000000 </v>
   <v>      -0.28000000       0.41666667       0.00000000 </v>
   <v>      -0.24000000       0.41666667       0.00000000 </v>
   <v>      -0.20000000       0.41666667       0.00000000 </v>
   <v>      -0.16000000       0.41666667       0.00000000 </v>
   <v>      -0.12000000       0.41666667       0.00000000 </v>
   <v>      -0.08000000       0.41666667       0.00000000 </v>
   <v>      -0.04000000       0.41666667       0.00000000 </v>
   <v>       0.00000000       0.45833333       0.00000000 </v>
   <v>       0.04000000       0.45833333       0.00000000 </v>
   <v>       0.08000000       0.45833333       0.00000000 </v>
   <v>       0.12000000       0.45833333       0.00000000 </v>
   <v>       0.16000000       0.45833333       0.00000000 </v>
   <v>       0.20000000       0.45833333       0.00000000 </v>
   <v>       0.24000000       0.45833333       0.00000000 </v>
   <v>       0.28000000       0.45833333       0.00000000 </v>
   <v>       0.32000000       0.45833333       0.00000000 </v>
   <v>       0.36000000       0.45833333       0.00000000 </v>
   <v>       0.40000000       0.45833333       0.00000000 </v>
   <v>       0.44000000       0.45833333       0.00000000 </v>
   <v>       0.48000000       0.45833333       0.00000000 </v>
   <v>      -0.48000000       0.45833333       0.00000000 </v>
   <v>      -0.44000000       0.45833333       0.00000000 </v>
   <v>      -0.40000000       0.45833333       0.00000000 </v>
   <v>      -0.36000000       0.45833333       0.00000000 </v>
   <v>      -0.32000000       0.45833333       0.00000000 </v>
   <v>      -0.28000000       0.45833333       0.00000000 </v>
   <v>      -0.24000000       0.45833333       0.00000000 </v>
   <v>      -0.20000000       0.45833333       0.00000000 </v>
   <v>      -0.16000000       0.45833333       0.00000000 </v>
   <v>      -0.12000000       0.45833333       0.00000000 </v>
   <v>      -0.08000000       0.45833333       0.00000000 </v>
   <v>      -0.04000000       0.45833333       0.00000000 </v>
   <v>       0.00000000       0.50000000       0.00000000 </v>
   <v>       0.04000000       0.50000000       0.00000000 </v>
   <v>       0.08000000       0.50000000       0.00000000 </v>
   <v>       0.12000000       0.50000000       0.00000000 </v>
   <v>       0.16000000       0.50000000       0.00000000 </v>
   <v>       0.20000000       0.50000000       0.00000000 </v>
   <v>       0.24000000       0.50000000       0.00000000 </v>
   <v>       0.28000000       0.50000000       0.00000000 </v>
   <v>       0.32000000       0.50000000       0.00000000 </v>
   <v>       0.36000000       0.50000000       0.00000000 </v>
   <v>       0.40000000       0.50000000       0.00000000 </v>
   <v>       0.44000000       0.50000000       0.00000000 </v>
   <v>       0.48000000       0.50000000       0.00000000 </v>
  </varray>
  <varray name="weights" >
   <v>       0.00166667 </v>
   <v>       0.00333333 </v>
   <v>       0.00333333 </v>
   <v>       0.00333333 </v>
   <v>       0.00333333 </v>
   <v>       0.00333333 </v>
   <v>       0.00333333 </v>
   <v>       0.00333333 </v>
   <v>       0.00333333 </v>
   <v>       0.00333333 </v>
   <v>       0.00333333 </v>
   <v>       0.00333333 </v>
   <v>       0.00333333 </v>
   <v>       0.00333333 </v>
   <v>       0.00333333 </v>
   <v>       0.00333333 </v>
   <v>       0.00333333 </v>
   <v>       0.00333333 </v>
   <v>       0.00333333 </v>
   <v>       0.00333333 </v>
   <v>       0.00333333 </v>
   <v>       0.00333333 </v>
   <v>       0.00333333 </v>
   <v>       0.00333333 </v>
   <v>       0.00333333 </v>
   <v>       0.00333333 </v>
   <v>       0.00333333 </v>
   <v>       0.00333333 </v>
   <v>       0.00333333 </v>
   <v>       0.00333333 </v>
   <v>       0.00333333 </v>
   <v>       0.00333333 </v>
   <v>       0.00333333 </v>
   <v>       0.00333333 </v>
   <v>       0.00333333 </v>
   <v>       0.00333333 </v>
   <v>       0.00333333 </v>
   <v>       0.00333333 </v>
   <v>       0.00333333 </v>
   <v>       0.00333333 </v>
   <v>       0.00333333 </v>
   <v>       0.00333333 </v>
   <v>       0.00333333 </v>
   <v>       0.00333333 </v>
   <v>       0.00333333 </v>
   <v>       0.00333333 </v>
   <v>       0.00333333 </v>
   <v>       0.00333333 </v>
   <v>       0.00333333 </v>
   <v>       0.00333333 </v>
   <v>       0.00333333 </v>
   <v>       0.00333333 </v>
   <v>       0.00333333 </v>
   <v>       0.00333333 </v>
   <v>       0.00333333 </v>
   <v>       0.00333333 </v>
   <v>       0.00333333 </v>
   <v>       0.00333333 </v>
   <v>       0.00333333 </v>
   <v>       0.00333333 </v>
   <v>       0.00333333 </v>
   <v>       0.00333333 </v>
   <v>       0.00333333 </v>
   <v>       0.00333333 </v>
   <v>       0.00333333 </v>
   <v>       0.00333333 </v>
   <v>       0.00333333 </v>
   <v>       0.00333333 </v>
   <v>       0.00333333 </v>
   <v>       0.00333333 </v>
   <v>       0.00333333 </v>
   <v>       0.00333333 </v>
   <v>       0.00333333 </v>
   <v>       0.00333333 </v>
   <v>       0.00333333 </v>
   <v>       0.00333333 </v>
   <v>       0.00333333 </v>
   <v>       0.00333333 </v>
   <v>       0.00333333 </v>
   <v>       0.00333333 </v>
   <v>       0.00333333 </v>
   <v>       0.00333333 </v>
   <v>       0.00333333 </v>
   <v>       0.00333333 </v>
   <v>       0.00333333 </v>
   <v>       0.00333333 </v>
   <v>       0.00333333 </v>
   <v>       0.00333333 </v>
   <v>       0.00333333 </v>
   <v>       0.00333333 </v>
   <v>       0.00333333 </v>
   <v>       0.00333333 </v>
   <v>       0.00333333 </v>
   <v>       0.00333333 </v>
   <v>       0.00333333 </v>
   <v>       0.00333333 </v>
   <v>       0.00333333 </v>
   <v>       0.00333333 </v>
   <v>       0.00333333 </v>
   <v>       0.00333333 </v>
   <v>       0.00333333 </v>
   <v>       0.00333333 </v>
   <v>       0.00333333 </v>
   <v>       0.00333333 </v>
   <v>       0.00333333 </v>
   <v>       0.00333333 </v>
   <v>       0.00333333 </v>
   <v>       0.00333333 </v>
   <v>       0.00333333 </v>
   <v>       0.00333333 </v>
   <v>       0.00333333 </v>
   <v>       0.00333333 </v>
   <v>       0.00333333 </v>
   <v>       0.00333333 </v>
   <v>       0.00333333 </v>
   <v>       0.00333333 </v>
   <v>       0.00333333 </v>
   <v>       0.00333333 </v>
   <v>       0.00333333 </v>
   <v>       0.00333333 </v>
   <v>       0.00333333 </v>
   <v>       0.00333333 </v>
   <v>       0.00333333 </v>
   <v>       0.00333333 </v>
   <v>       0.00333333 </v>
   <v>       0.00333333 </v>
   <v>       0.00333333 </v>
   <v>       0.00333333 </v>
   <v>       0.00333333 </v>
   <v>       0.00333333 </v>
   <v>       0.00333333 </v>
   <v>       0.00333333 </v>
   <v>       0.00333333 </v>
   <v>       0.00333333 </v>
   <v>       0.00333333 </v>
   <v>       0.00333333 </v>
   <v>       0.00333333 </v>
   <v>       0.00333333 </v>
   <v>       0.00333333 </v>
   <v>       0.00333333 </v>
   <v>       0.00333333 </v>
   <v>       0.00333333 </v>
   <v>       0.00333333 </v>
   <v>       0.00333333 </v>
   <v>       0.00333333 </v>
   <v>       0.00333333 </v>
   <v>       0.00333333 </v>
   <v>       0.00333333 </v>
   <v>       0.00333333 </v>
   <v>       0.00333333 </v>
   <v>       0.00333333 </v>
   <v>       0.00333333 </v>
   <v>       0.00333333 </v>
   <v>       0.00333333 </v>
   <v>       0.00333333 </v>
   <v>       0.00333333 </v>
   <v>       0.00333333 </v>
   <v>       0.00333333 </v>
   <v>       0.00333333 </v>
   <v>       0.00333333 </v>
   <v>       0.00333333 </v>
   <v>       0.00333333 </v>
   <v>       0.00333333 </v>
   <v>       0.00333333 </v>
   <v>       0.00333333 </v>
   <v>       0.00333333 </v>
   <v>       0.00333333 </v>
   <v>       0.00333333 </v>
   <v>       0.00333333 </v>
   <v>       0.00333333 </v>
   <v>       0.00333333 </v>
   <v>       0.00333333 </v>
   <v>       0.00333333 </v>
   <v>       0.00333333 </v>
   <v>       0.00333333 </v>
   <v>       0.00333333 </v>
   <v>       0.00333333 </v>
   <v>       0.00333333 </v>
   <v>       0.00333333 </v>
   <v>       0.00333333 </v>
   <v>       0.00333333 </v>
   <v>       0.00333333 </v>
   <v>       0.00333333 </v>
   <v>       0.00333333 </v>
   <v>       0.00333333 </v>
   <v>       0.00333333 </v>
   <v>       0.00333333 </v>
   <v>       0.00333333 </v>
   <v>       0.00333333 </v>
   <v>       0.00333333 </v>
   <v>       0.00333333 </v>
   <v>       0.00333333 </v>
   <v>       0.00333333 </v>
   <v>       0.00333333 </v>
   <v>       0.00333333 </v>
   <v>       0.00333333 </v>
   <v>       0.00333333 </v>
   <v>       0.00333333 </v>
   <v>       0.00333333 </v>
   <v>       0.00333333 </v>
   <v>       0.00333333 </v>
   <v>       0.00333333 </v>
   <v>       0.00333333 </v>
   <v>       0.00333333 </v>
   <v>       0.00333333 </v>
   <v>       0.00333333 </v>
   <v>       0.00333333 </v>
   <v>       0.00333333 </v>
   <v>       0.00333333 </v>
   <v>       0.00333333 </v>
   <v>       0.00333333 </v>
   <v>       0.00333333 </v>
   <v>       0.00333333 </v>
   <v>       0.00333333 </v>
   <v>       0.00333333 </v>
   <v>       0.00333333 </v>
   <v>       0.00333333 </v>
   <v>       0.00333333 </v>
   <v>       0.00333333 </v>
   <v>       0.00333333 </v>
   <v>       0.00333333 </v>
   <v>       0.00333333 </v>
   <v>       0.00333333 </v>
   <v>       0.00333333 </v>
   <v>       0.00333333 </v>
   <v>       0.00333333 </v>
   <v>       0.00333333 </v>
   <v>       0.00333333 </v>
   <v>       0.00333333 </v>
   <v>       0.00333333 </v>
   <v>       0.00333333 </v>
   <v>       0.00333333 </v>
   <v>       0.00333333 </v>
   <v>       0.00333333 </v>
   <v>       0.00333333 </v>
   <v>       0.00333333 </v>
   <v>       0.00333333 </v>
   <v>       0.00333333 </v>
   <v>       0.00333333 </v>
   <v>       0.00333333 </v>
   <v>       0.00333333 </v>
   <v>       0.00333333 </v>
   <v>       0.00333333 </v>
   <v>       0.00333333 </v>
   <v>       0.00333333 </v>
   <v>       0.00333333 </v>
   <v>       0.00333333 </v>
   <v>       0.00333333 </v>
   <v>       0.00333333 </v>
   <v>       0.00333333 </v>
   <v>       0.00333333 </v>
   <v>       0.00333333 </v>
   <v>       0.00333333 </v>
   <v>       0.00333333 </v>
   <v>       0.00333333 </v>
   <v>       0.00333333 </v>
   <v>       0.00333333 </v>
   <v>       0.00333333 </v>
   <v>       0.00333333 </v>
   <v>       0.00333333 </v>
   <v>       0.00333333 </v>
   <v>       0.00333333 </v>
   <v>       0.00333333 </v>
   <v>       0.00333333 </v>
   <v>       0.00333333 </v>
   <v>       0.00333333 </v>
   <v>       0.00333333 </v>
   <v>       0.00333333 </v>
   <v>       0.00333333 </v>
   <v>       0.00333333 </v>
   <v>       0.00333333 </v>
   <v>       0.00333333 </v>
   <v>       0.00333333 </v>
   <v>       0.00333333 </v>
   <v>       0.00333333 </v>
   <v>       0.00333333 </v>
   <v>       0.00333333 </v>
   <v>       0.00333333 </v>
   <v>       0.00333333 </v>
   <v>       0.00333333 </v>
   <v>       0.00333333 </v>
   <v>       0.00333333 </v>
   <v>       0.00333333 </v>
   <v>       0.00333333 </v>
   <v>       0.00333333 </v>
   <v>       0.00333333 </v>
   <v>       0.00333333 </v>
   <v>       0.00333333 </v>
   <v>       0.00166667 </v>
   <v>       0.00333333 </v>
   <v>       0.00333333 </v>
   <v>       0.00333333 </v>
   <v>       0.00333333 </v>
   <v>       0.00333333 </v>
   <v>       0.00333333 </v>
   <v>       0.00333333 </v>
   <v>       0.00333333 </v>
   <v>       0.00333333 </v>
   <v>       0.00333333 </v>
   <v>       0.00333333 </v>
   <v>       0.00333333 </v>
  </varray>
 </kpoints>
 <parameters>
  <separator name="general" >
   <i type="string" name="SYSTEM">unknown system</i>
   <i type="logical" name="LCOMPAT"> F  </i>
  </separator>
  <separator name="electronic" >
   <i type="string" name="PREC">a</i>
   <i name="ENMAX">    520.00000000</i>
   <i name="ENAUG">    644.87300000</i>
   <i name="EDIFF">      0.00001000</i>
   <i type="int" name="IALGO">    38</i>
   <i type="int" name="IWAVPR">    10</i>
   <i type="int" name="NBANDS">    12</i>
   <i name="NELECT">      8.00000000</i>
   <i type="int" name="TURBO">     0</i>
   <i type="int" name="IRESTART">     0</i>
   <i type="int" name="NREBOOT">     0</i>
   <i type="int" name="NMIN">     0</i>
   <i name="EREF">      0.00000000</i>
   <separator name="electronic smearing" >
    <i type="int" name="ISMEAR">     0</i>
    <i name="SIGMA">      0.02000000</i>
    <i name="KSPACING">      0.50000000</i>
    <i type="logical" name="KGAMMA"> T  </i>
   </separator>
   <separator name="electronic projectors" >
    <i type="logical" name="LREAL"> T  </i>
    <v name="ROPT">     -0.00025000</v>
    <i type="int" name="LMAXPAW">  -100</i>
    <i type="int" name="LMAXMIX">     2</i>
    <i type="logical" name="NLSPLINE"> F  </i>
   </separator>
   <separator name="electronic startup" >
    <i type="int" name="ISTART">     0</i>
    <i type="int" name="ICHARG">     2</i>
    <i type="int" name="INIWAV">     1</i>
   </separator>
   <separator name="electronic spin" >
    <i type="int" name="ISPIN">     1</i>
    <i type="logical" name="LNONCOLLINEAR"> F  </i>
    <v name="MAGMOM">      0.60000000      0.60000000</v>
    <i name="NUPDOWN">     -1.00000000</i>
    <i type="logical" name="LSORBIT"> F  </i>
    <v name="SAXIS">      0.00000000      0.00000000      1.00000000</v>
    <i type="logical" name="LSPIRAL"> F  </i>
    <v name="QSPIRAL">      0.00000000      0.00000000      0.00000000</v>
    <i type="logical" name="LZEROZ"> F  </i>
   </separator>
   <separator name="electronic exchange-correlation" >
    <i type="logical" name="LASPH"> F  </i>
    <i type="logical" name="LMETAGGA"> F  </i>
   </separator>
   <separator name="electronic convergence" >
    <i type="int" name="NELM">   250</i>
    <i type="int" name="NELMDL">    -5</i>
    <i type="int" name="NELMIN">     6</i>
    <i name="ENINI">    520.00000000</i>
    <separator name="electronic convergence detail" >
     <i type="logical" name="LDIAG"> T  </i>
     <i type="logical" name="LSUBROT"> F  </i>
     <i name="WEIMIN">      0.00000000</i>
     <i name="EBREAK">      0.00000021</i>
     <i name="DEPER">      0.30000000</i>
     <i type="int" name="NRMM">     4</i>
     <i name="TIME">      0.40000000</i>
    </separator>
   </separator>
   <separator name="electronic mixer" >
    <i name="AMIX">      0.40000000</i>
    <i name="BMIX">      1.00000000</i>
    <i name="AMIN">      0.10000000</i>
    <i name="AMIX_MAG">      1.60000000</i>
    <i name="BMIX_MAG">      1.00000000</i>
    <separator name="electronic mixer details" >
     <i type="int" name="IMIX">     4</i>
     <i type="logical" name="MIXFIRST"> F  </i>
     <i type="int" name="MAXMIX">   -45</i>
     <i name="WC">    100.00000000</i>
     <i type="int" name="INIMIX">     1</i>
     <i type="int" name="MIXPRE">     1</i>
     <i type="int" name="MREMOVE">     5</i>
    </separator>
   </separator>
   <separator name="electronic dipolcorrection" >
    <i type="logical" name="LDIPOL"> F  </i>
    <i type="logical" name="LMONO"> F  </i>
    <i type="int" name="IDIPOL">     0</i>
    <i name="EPSILON">      1.00000000</i>
    <v name="DIPOL">   -100.00000000   -100.00000000   -100.00000000</v>
    <i name="EFIELD">      0.00000000</i>
   </separator>
  </separator>
  <separator name="grids" >
   <i type="int" name="NGX">    18</i>
   <i type="int" name="NGY">    18</i>
   <i type="int" name="NGZ">   112</i>
   <i type="int" name="NGXF">    36</i>
   <i type="int" name="NGYF">    36</i>
   <i type="int" name="NGZF">   224</i>
   <i type="logical" name="ADDGRID"> F  </i>
  </separator>
  <separator name="ionic" >
   <i type="int" name="NSW">     0</i>
   <i type="int" name="IBRION">    -1</i>
   <i type="int" name="ISIF">     2</i>
   <i name="PSTRESS">      0.00000000</i>
   <i name="EDIFFG">     -0.00500000</i>
   <i type="int" name="NFREE">     1</i>
   <i name="POTIM">      0.25000000</i>
   <i name="SMASS">     -3.00000000</i>
   <i name="SCALEE">      1.00000000</i>
  </separator>
  <separator name="ionic md" >
   <i name="TEBEG">      0.00010000</i>
   <i name="TEEND">      0.00010000</i>
   <i type="int" name="NBLOCK">     1</i>
   <i type="int" name="KBLOCK">     1</i>
   <i type="int" name="NPACO">   256</i>
   <i name="APACO">     16.00000000</i>
  </separator>
  <separator name="symmetry" >
   <i type="int" name="ISYM">     2</i>
   <i name="SYMPREC">      0.00001000</i>
  </separator>
  <separator name="dos" >
   <i type="logical" name="LORBIT"> F  </i>
   <v name="RWIGS">     -1.00000000</v>
   <i type="int" name="NEDOS">   301</i>
   <i name="EMIN">     10.00000000</i>
   <i name="EMAX">    -10.00000000</i>
   <i name="EFERMI">      0.00000000</i>
  </separator>
  <separator name="writing" >
   <i type="int" name="NWRITE">     2</i>
   <i type="logical" name="LWAVE"> F  </i>
   <i type="logical" name="LCHARG"> F  </i>
   <i type="logical" name="LPARD"> F  </i>
   <i type="logical" name="LVTOT"> F  </i>
   <i type="logical" name="LVHAR"> F  </i>
   <i type="logical" name="LELF"> F  </i>
   <i type="logical" name="LOPTICS"> F  </i>
   <v name="STM">      0.00000000      0.00000000      0.00000000      0.00000000      0.00000000      0.00000000      0.00000000</v>
  </separator>
  <separator name="performance" >
   <i type="int" name="NPAR">     6</i>
   <i type="int" name="NSIM">     4</i>
   <i type="int" name="NBLK">    -1</i>
   <i type="logical" name="LPLANE"> T  </i>
   <i type="logical" name="LSCALAPACK"> T  </i>
   <i type="logical" name="LSCAAWARE"> F  </i>
   <i type="logical" name="LSCALU"> F  </i>
   <i type="logical" name="LASYNC"> F  </i>
   <i type="logical" name="LORBITALREAL"> F  </i>
  </separator>
  <separator name="miscellaneous" >
   <i type="int" name="IDIOT">     3</i>
   <i type="logical" name="LMUSIC"> F  </i>
   <v name="POMASS">     12.01100000</v>
   <v name="DARWINR">      0.00000000</v>
   <v name="DARWINV">      1.00000000</v>
   <i type="logical" name="LCORR"> T  </i>
  </separator>
  <i type="logical" name="GGA_COMPAT"> T  </i>
  <i type="logical" name="LBERRY"> F  </i>
  <i type="int" name="ICORELEVEL">     0</i>
  <i type="logical" name="LDAU"> F  </i>
  <i type="int" name="I_CONSTRAINED_M">     0</i>
  <separator name="electronic exchange-correlation" >
   <i type="string" name="GGA">--</i>
   <i type="int" name="VOSKOWN">     0</i>
   <i type="logical" name="LHFCALC"> F  </i>
   <i type="string" name="PRECFOCK"></i>
   <i type="logical" name="LSYMGRAD"> F  </i>
   <i type="logical" name="LHFONE"> F  </i>
   <i type="logical" name="LRHFCALC"> F  </i>
   <i type="logical" name="LTHOMAS"> F  </i>
   <i type="logical" name="LMODELHF"> F  </i>
   <i name="ENCUT4O">     -1.00000000</i>
   <i type="int" name="EXXOEP">     0</i>
   <i type="int" name="FOURORBIT">     0</i>
   <i name="AEXX">      0.00000000</i>
   <i name="HFALPHA">      0.00000000</i>
   <i name="MCALPHA">      0.00000000</i>
   <i name="ALDAX">      1.00000000</i>
   <i name="AGGAX">      1.00000000</i>
   <i name="ALDAC">      1.00000000</i>
   <i name="AGGAC">      1.00000000</i>
   <i type="int" name="NKREDX">     1</i>
   <i type="int" name="NKREDY">     1</i>
   <i type="int" name="NKREDZ">     1</i>
   <i type="logical" name="SHIFTRED"> F  </i>
   <i type="logical" name="ODDONLY"> F  </i>
   <i type="logical" name="EVENONLY"> F  </i>
   <i type="int" name="LMAXFOCK">     0</i>
   <i type="int" name="NMAXFOCKAE">     0</i>
   <i type="logical" name="LFOCKAEDFT"> F  </i>
   <i name="HFSCREEN">      0.00000000</i>
   <i name="HFSCREENC">      0.00000000</i>
   <i type="int" name="NBANDSGWLOW">     0</i>
  </separator>
  <separator name="vdW DFT" >
   <i type="logical" name="LUSE_VDW"> F  </i>
   <i name="Zab_VDW">     -0.84910000</i>
   <i name="PARAM1">      0.12340000</i>
   <i name="PARAM2">      1.00000000</i>
   <i name="PARAM3">      0.00000000</i>
  </separator>
  <separator name="model GW" >
   <i type="int" name="MODEL_GW">     0</i>
   <i name="MODEL_EPS0">     23.28831676</i>
   <i name="MODEL_ALPHA">      1.00000000</i>
  </separator>
  <separator name="linear response parameters" >
   <i type="logical" name="LEPSILON"> F  </i>
   <i type="logical" name="LRPA"> F  </i>
   <i type="logical" name="LNABLA"> F  </i>
   <i type="logical" name="LVEL"> F  </i>
   <i type="int" name="KINTER">     0</i>
   <i name="CSHIFT">      0.10000000</i>
   <i name="OMEGAMAX">     -1.00000000</i>
   <i name="DEG_THRESHOLD">      0.00200000</i>
  </separator>
  <separator name="orbital magnetization" >
   <i type="logical" name="NUCIND"> F  </i>
   <v name="MAGPOS">      0.00000000      0.00000000      0.00000000</v>
   <i type="logical" name="LNICSALL"> T  </i>
   <i type="logical" name="ORBITALMAG"> F  </i>
   <i type="logical" name="LMAGBLOCH"> F  </i>
   <i type="logical" name="LCHIMAG"> F  </i>
   <i type="logical" name="LGAUGE"> T  </i>
   <i type="int" name="MAGATOM">     0</i>
   <v name="MAGDIPOL">      0.00000000      0.00000000      0.00000000</v>
   <v name="AVECCONST">      0.00000000      0.00000000      0.00000000</v>
  </separator>
  <separator name="response functions" >
   <i type="logical" name="LADDER"> F  </i>
   <i type="logical" name="LFXC"> F  </i>
   <i type="logical" name="LHARTREE"> T  </i>
   <i type="int" name="IBSE">     0</i>
   <v type="int" name="KPOINT">    -1     0     0     0</v>
   <i type="logical" name="LTCTE"> F  </i>
   <i type="logical" name="LTETE"> F  </i>
   <i type="logical" name="LTRIPLET"> F  </i>
   <i type="logical" name="LFXCEPS"> F  </i>
   <i type="logical" name="LFXHEG"> F  </i>
   <i type="int" name="NATURALO">     0</i>
   <i type="logical" name="L2ORDER"> F  </i>
   <i type="logical" name="LUSEW"> F  </i>
   <i name="ENCUTGW">     -2.00000000</i>
   <i name="ENCUTGWSOFT">     -2.00000000</i>
   <i name="ENCUTLF">     -1.00000000</i>
   <i type="int" name="LMAXMP2">    -1</i>
   <i name="SCISSOR">      0.00000000</i>
   <i type="int" name="NOMEGA">     0</i>
   <i type="int" name="NOMEGAR">     0</i>
   <i type="int" name="NBANDSGW">    -1</i>
   <i type="int" name="NBANDSO">    -1</i>
   <i type="int" name="NBANDSV">    -1</i>
   <i type="int" name="NELM">   250</i>
   <i type="int" name="NELMHF">     1</i>
   <i type="int" name="DIM">     3</i>
   <i type="int" name="ANTIRES">     0</i>
   <i name="OMEGAMAX">    -30.00000000</i>
   <i name="OMEGAMIN">    -30.00000000</i>
   <i name="OMEGATL">   -200.00000000</i>
   <i type="int" name="OMEGAGRID">     0</i>
   <i name="CSHIFT">     -0.10000000</i>
   <i type="logical" name="SELFENERGY"> F  </i>
   <i type="logical" name="LSPECTRAL"> F  </i>
   <i type="logical" name="LSPECTRALGW"> F  </i>
   <i type="logical" name="LSINGLES"> F  </i>
   <i type="logical" name="LFERMIGW"> F  </i>
   <i type="logical" name="ODDONLYGW"> F  </i>
   <i type="logical" name="EVENONLYGW"> F  </i>
   <i type="int" name="NKREDLFX">     1</i>
   <i type="int" name="NKREDLFY">     1</i>
   <i type="int" name="NKREDLFZ">     1</i>
   <i type="int" name="MAXMEM">  1800</i>
   <i type="int" name="TELESCOPE">     0</i>
   <i type="int" name="TAUPAR">     1</i>
   <i type="int" name="OMEGAPAR">    -1</i>
   <i name="LAMBDA">      1.00000000</i>
  </separator>
  <separator name="External order field" >
   <i name="OFIELD_KAPPA">      0.00000000</i>
   <v name="OFIELD_K">      0.00000000      0.00000000      0.00000000</v>
   <i name="OFIELD_Q6_NEAR">      0.00000000</i>
   <i name="OFIELD_Q6_FAR">      0.00000000</i>
   <i name="OFIELD_A">      0.00000000</i>
  </separator>
 </parameters>
 <atominfo>
  <atoms>       2 </atoms>
  <types>       1 </types>
  <array name="atoms" >
   <dimension dim="1">ion</dimension>
   <field type="string">element</field>
   <field type="int">atomtype</field>
   <set>
    <rc><c>C </c><c>   1</c></rc>
    <rc><c>C </c><c>   1</c></rc>
   </set>
  </array>
  <array name="atomtypes" >
   <dimension dim="1">type</dimension>
   <field type="int">atomspertype</field>
   <field type="string">element</field>
   <field>mass</field>
   <field>valence</field>
   <field type="string">pseudopotential</field>
   <set>
    <rc><c>   2</c><c>C </c><c>     12.01100000</c><c>      4.00000000</c><c>  PAW_PBE C 08Apr2002                   </c></rc>
   </set>
  </array>
 </atominfo>
 <structure name="initialpos" >
  <crystal>
   <varray name="basis" >
    <v>       2.42129500       0.00000000       0.00000000 </v>
    <v>      -1.21064700       2.13736100       0.00000000 </v>
    <v>       0.00000000       0.00000000      15.00000000 </v>
   </varray>
   <i name="volume">     77.62772254 </i>
   <varray name="rec_basis" >
    <v>       0.41300213       0.23393324       0.00000000 </v>
    <v>       0.00000000       0.46786668       0.00000000 </v>
    <v>       0.00000000       0.00000000       0.06666667 </v>
   </varray>
  </crystal>
  <varray name="positions" >
   <v>       0.00020369       0.00040738       0.50000000 </v>
   <v>       0.33312931       0.66625962       0.50000000 </v>
  </varray>
 </structure>
 <calculation>
  <scstep>
   <time name="dav">    0.87    0.87</time>
   <time name="total">    0.88    0.88</time>
   <energy>
    <i name="alphaZ">      4.23285462 </i>
    <i name="ewald">    856.16128949 </i>
    <i name="hartreedc">  -1073.61535561 </i>
    <i name="XCdc">     26.47814028 </i>
    <i name="pawpsdc">    217.04409276 </i>
    <i name="pawaedc">   -218.18290438 </i>
    <i name="eentropy">     -0.00019142 </i>
    <i name="bandstr">    -71.67717527 </i>
    <i name="atom">    294.29778662 </i>
    <i name="e_fr_energy">     34.73853709 </i>
    <i name="e_wo_entrp">     34.73872851 </i>
    <i name="e_0_energy">     34.73863280 </i>
   </energy>
  </scstep>
  <scstep>
   <time name="dav">    1.14    1.14</time>
   <time name="total">    1.14    1.14</time>
   <energy>
    <i name="e_fr_energy">    -18.25065006 </i>
    <i name="e_wo_entrp">    -18.25065006 </i>
    <i name="e_0_energy">    -18.25065006 </i>
   </energy>
  </scstep>
  <scstep>
   <time name="dav">    1.30    1.30</time>
   <time name="total">    1.30    1.30</time>
   <energy>
    <i name="e_fr_energy">    -19.80376580 </i>
    <i name="e_wo_entrp">    -19.80376580 </i>
    <i name="e_0_energy">    -19.80376580 </i>
   </energy>
  </scstep>
  <scstep>
   <time name="dav">    1.25    1.25</time>
   <time name="total">    1.25    1.25</time>
   <energy>
    <i name="e_fr_energy">    -19.81038155 </i>
    <i name="e_wo_entrp">    -19.81038155 </i>
    <i name="e_0_energy">    -19.81038155 </i>
   </energy>
  </scstep>
  <scstep>
   <time name="dav">    1.25    1.25</time>
   <time name="total">    1.28    1.28</time>
   <energy>
    <i name="e_fr_energy">    -19.81039679 </i>
    <i name="e_wo_entrp">    -19.81039679 </i>
    <i name="e_0_energy">    -19.81039679 </i>
   </energy>
  </scstep>
  <scstep>
   <time name="dav">    1.08    1.08</time>
   <time name="total">    1.12    1.12</time>
   <energy>
    <i name="e_fr_energy">    -18.81901754 </i>
    <i name="e_wo_entrp">    -18.81901754 </i>
    <i name="e_0_energy">    -18.81901754 </i>
   </energy>
  </scstep>
  <scstep>
   <time name="dav">    1.24    1.24</time>
   <time name="total">    1.28    1.28</time>
   <energy>
    <i name="e_fr_energy">    -18.43797050 </i>
    <i name="e_wo_entrp">    -18.43797050 </i>
    <i name="e_0_energy">    -18.43797050 </i>
   </energy>
  </scstep>
  <scstep>
   <time name="dav">    1.18    1.18</time>
   <time name="total">    1.22    1.22</time>
   <energy>
    <i name="e_fr_energy">    -18.42965484 </i>
    <i name="e_wo_entrp">    -18.42965484 </i>
    <i name="e_0_energy">    -18.42965484 </i>
   </energy>
  </scstep>
  <scstep>
   <time name="dav">    1.11    1.11</time>
   <time name="total">    1.15    1.15</time>
   <energy>
    <i name="e_fr_energy">    -18.42765066 </i>
    <i name="e_wo_entrp">    -18.42765066 </i>
    <i name="e_0_energy">    -18.42765066 </i>
   </energy>
  </scstep>
  <scstep>
   <time name="dav">    1.00    1.00</time>
   <time name="total">    1.03    1.03</time>
   <energy>
    <i name="e_fr_energy">    -18.42585461 </i>
    <i name="e_wo_entrp">    -18.42585461 </i>
    <i name="e_0_energy">    -18.42585461 </i>
   </energy>
  </scstep>
  <scstep>
   <time name="dav">    0.93    0.93</time>
   <time name="total">    0.96    0.96</time>
   <energy>
    <i name="e_fr_energy">    -18.42607239 </i>
    <i name="e_wo_entrp">    -18.42607239 </i>
    <i name="e_0_energy">    -18.42607239 </i>
   </energy>
  </scstep>
  <scstep>
   <time name="dav">    0.98    0.98</time>
   <time name="total">    1.01    1.01</time>
   <energy>
    <i name="e_fr_energy">    -18.42631790 </i>
    <i name="e_wo_entrp">    -18.42631790 </i>
    <i name="e_0_energy">    -18.42631790 </i>
   </energy>
  </scstep>
  <scstep>
   <time name="dav">    0.94    0.94</time>
   <time name="total">    0.98    0.98</time>
   <energy>
    <i name="e_fr_energy">    -18.42706061 </i>
    <i name="e_wo_entrp">    -18.42706061 </i>
    <i name="e_0_energy">    -18.42706061 </i>
   </energy>
  </scstep>
  <scstep>
   <time name="dav">    1.13    1.13</time>
   <time name="total">    1.16    1.16</time>
   <energy>
    <i name="e_fr_energy">    -18.42711752 </i>
    <i name="e_wo_entrp">    -18.42711752 </i>
    <i name="e_0_energy">    -18.42711752 </i>
   </energy>
  </scstep>
  <scstep>
   <time name="dav">    0.91    0.91</time>
   <time name="total">    0.95    0.95</time>
   <energy>
    <i name="e_fr_energy">    -18.42722309 </i>
    <i name="e_wo_entrp">    -18.42722309 </i>
    <i name="e_0_energy">    -18.42722309 </i>
   </energy>
  </scstep>
  <scstep>
   <time name="dav">    0.95    0.95</time>
   <time name="total">    0.96    0.96</time>
   <energy>
    <i name="alphaZ">      4.23285462 </i>
    <i name="ewald">    856.16128949 </i>
    <i name="hartreedc">  -1108.33759451 </i>
    <i name="XCdc">     27.70289494 </i>
    <i name="pawpsdc">    870.21731427 </i>
    <i name="pawaedc">   -871.59903089 </i>
    <i name="eentropy">     -0.00000000 </i>
    <i name="bandstr">    -91.10274684 </i>
    <i name="atom">    294.29778662 </i>
    <i name="e_fr_energy">    -18.42723230 </i>
    <i name="e_wo_entrp">    -18.42723230 </i>
    <i name="e_0_energy">    -18.42723230 </i>
   </energy>
  </scstep>
  <structure>
   <crystal>
    <varray name="basis" >
     <v>       2.42129500       0.00000000       0.00000000 </v>
     <v>      -1.21064700       2.13736100       0.00000000 </v>
     <v>       0.00000000       0.00000000      15.00000000 </v>
    </varray>
    <i name="volume">     77.62772254 </i>
    <varray name="rec_basis" >
     <v>       0.41300213       0.23393324       0.00000000 </v>
     <v>       0.00000000       0.46786668       0.00000000 </v>
     <v>       0.00000000       0.00000000       0.06666667 </v>
    </varray>
   </crystal>
   <varray name="positions" >
    <v>       0.00020369       0.00040738       0.50000000 </v>
    <v>       0.33312931       0.66625962       0.50000000 </v>
   </varray>
  </structure>
  <varray name="forces" >
   <v>       0.00000004       0.15754517       0.00000000 </v>
   <v>      -0.00000004      -0.15754517       0.00000000 </v>
  </varray>
  <varray name="stress" >
   <v>      47.84068241       0.00000182       0.00000000 </v>
   <v>       0.00000182       7.79420518       0.00000000 </v>
   <v>       0.00000000       0.00000000      -0.09761794 </v>
  </varray>
  <energy>
   <i name="e_fr_energy">    -18.42723230 </i>
   <i name="e_wo_entrp">    -18.42723230 </i>
   <i name="e_0_energy">     -0.00000000 </i>
  </energy>
  <time name="totalsc">   18.37   18.41</time>
  <eigenvalues>
   <array>
    <dimension dim="1">band</dimension>
    <dimension dim="2">kpoint</dimension>
    <dimension dim="3">spin</dimension>
    <field>eigene</field>
    <field>occ</field>
    <set>
     <set comment="spin 1">
      <set comment="kpoint 1">
       <r>  -21.8784    1.0000 </r>
       <r>   -9.9475    1.0000 </r>
       <r>   -5.2459    1.0000 </r>
       <r>   -5.0939    1.0000 </r>
       <r>    1.0247    0.0000 </r>
       <r>    1.9459    0.0000 </r>
       <r>    2.3792    0.0000 </r>
       <r>    4.3550    0.0000 </r>
       <r>    5.0955    0.0000 </r>
       <r>    6.1213    0.0000 </r>
       <r>    6.5305    0.0000 </r>
       <r>    8.2328    0.0000 </r>
      </set>
      <set comment="kpoint 2">
       <r>  -21.8396    1.0000 </r>
       <r>   -9.9009    1.0000 </r>
       <r>   -5.3522    1.0000 </r>
       <r>   -5.2298    1.0000 </r>
       <r>    1.0774    0.0000 </r>
       <r>    1.9992    0.0000 </r>
       <r>    2.4330    0.0000 </r>
       <r>    4.4080    0.0000 </r>
       <r>    5.1472    0.0000 </r>
       <r>    6.2401    0.0000 </r>
       <r>    6.5917    0.0000 </r>
       <r>    8.2843    0.0000 </r>
      </set>
      <set comment="kpoint 3">
       <r>  -21.7233    1.0000 </r>
       <r>   -9.7613    1.0000 </r>
       <r>   -5.7425    1.0000 </r>
       <r>   -5.5282    1.0000 </r>
       <r>    1.2357    0.0000 </r>
       <r>    2.1588    0.0000 </r>
       <r>    2.5943    0.0000 </r>
       <r>    4.5668    0.0000 </r>
       <r>    5.3023    0.0000 </r>
       <r>    6.3877    0.0000 </r>
       <r>    6.9491    0.0000 </r>
       <r>    8.4384    0.0000 </r>
      </set>
      <set comment="kpoint 4">
       <r>  -21.5297    1.0000 </r>
       <r>   -9.5294    1.0000 </r>
       <r>   -6.4141    1.0000 </r>
       <r>   -5.8974    1.0000 </r>
       <r>    1.4996    0.0000 </r>
       <r>    2.4246    0.0000 </r>
       <r>    2.8632    0.0000 </r>
       <r>    4.8311    0.0000 </r>
       <r>    5.5587    0.0000 </r>
       <r>    6.3986    0.0000 </r>
       <r>    7.6907    0.0000 </r>
       <r>    8.4191    0.0000 </r>
      </set>
      <set comment="kpoint 5">
       <r>  -21.2594    1.0000 </r>
       <r>   -9.2069    1.0000 </r>
       <r>   -7.2679    1.0000 </r>
       <r>   -6.3247    1.0000 </r>
       <r>    1.8689    0.0000 </r>
       <r>    2.7962    0.0000 </r>
       <r>    3.2395    0.0000 </r>
       <r>    5.2001    0.0000 </r>
       <r>    5.9012    0.0000 </r>
       <r>    6.3485    0.0000 </r>
       <r>    7.6060    0.0000 </r>
       <r>    8.6825    0.0000 </r>
      </set>
      <set comment="kpoint 6">
       <r>  -20.9130    1.0000 </r>
       <r>   -8.7960    1.0000 </r>
       <r>   -8.2394    1.0000 </r>
       <r>   -6.7737    1.0000 </r>
       <r>    2.3433    0.0000 </r>
       <r>    3.2722    0.0000 </r>
       <r>    3.7233    0.0000 </r>
       <r>    5.6688    0.0000 </r>
       <r>    6.1041    0.0000 </r>
       <r>    6.4881    0.0000 </r>
       <r>    6.6540    0.0000 </r>
       <r>    9.5091    0.0000 </r>
      </set>
      <set comment="kpoint 7">
       <r>  -20.4916    1.0000 </r>
       <r>   -9.2804    1.0000 </r>
       <r>   -8.3002    1.0000 </r>
       <r>   -7.2127    1.0000 </r>
       <r>    2.9222    0.0000 </r>
       <r>    3.8478    0.0000 </r>
       <r>    4.3141    0.0000 </r>
       <r>    5.5693    0.0000 </r>
       <r>    5.9832    0.0000 </r>
       <r>    6.2772    0.0000 </r>
       <r>    7.0251    0.0000 </r>
       <r>   10.0616    0.0000 </r>
      </set>
      <set comment="kpoint 8">
       <r>  -19.9964    1.0000 </r>
       <r>  -10.3543    1.0000 </r>
       <r>   -7.7253    1.0000 </r>
       <r>   -7.6185    1.0000 </r>
       <r>    3.6046    0.0000 </r>
       <r>    4.3105    0.0000 </r>
       <r>    4.6797    0.0000 </r>
       <r>    5.0098    0.0000 </r>
       <r>    5.8218    0.0000 </r>
       <r>    6.9486    0.0000 </r>
       <r>    7.7007    0.0000 </r>
       <r>   10.7043    0.0000 </r>
      </set>
      <set comment="kpoint 9">
       <r>  -19.4293    1.0000 </r>
       <r>  -11.4337    1.0000 </r>
       <r>   -7.9749    1.0000 </r>
       <r>   -7.0806    1.0000 </r>
       <r>    3.2715    0.0000 </r>
       <r>    4.3873    0.0000 </r>
       <r>    5.3621    0.0000 </r>
       <r>    5.6279    0.0000 </r>
       <r>    5.8513    0.0000 </r>
       <r>    7.7312    0.0000 </r>
       <r>    8.4855    0.0000 </r>
       <r>   11.4255    0.0000 </r>
      </set>
      <set comment="kpoint 10">
       <r>  -18.7931    1.0000 </r>
       <r>  -12.4978    1.0000 </r>
       <r>   -8.2706    1.0000 </r>
       <r>   -6.3827    1.0000 </r>
       <r>    2.1468    0.0000 </r>
       <r>    5.2305    0.0000 </r>
       <r>    5.5533    0.0000 </r>
       <r>    6.2495    0.0000 </r>
       <r>    6.7414    0.0000 </r>
       <r>    8.6133    0.0000 </r>
       <r>    9.3746    0.0000 </r>
       <r>   12.1936    0.0000 </r>
      </set>
      <set comment="kpoint 11">
       <r>  -18.0925    1.0000 </r>
       <r>  -13.5291    1.0000 </r>
       <r>   -8.4981    1.0000 </r>
       <r>   -5.6644    1.0000 </r>
       <r>    1.0883    0.0000 </r>
       <r>    5.3621    0.0000 </r>
       <r>    6.2988    0.0000 </r>
       <r>    7.2407    0.0000 </r>
       <r>    7.7596    0.0000 </r>
       <r>    9.5879    0.0000 </r>
       <r>   10.3646    0.0000 </r>
       <r>   12.4558    0.0000 </r>
      </set>
      <set comment="kpoint 12">
       <r>  -17.3396    1.0000 </r>
       <r>  -14.5068    1.0000 </r>
       <r>   -8.6522    1.0000 </r>
       <r>   -4.9990    1.0000 </r>
       <r>    0.1874    0.0000 </r>
       <r>    5.2915    0.0000 </r>
       <r>    7.3778    0.0000 </r>
       <r>    8.3267    0.0000 </r>
       <r>    8.8853    0.0000 </r>
       <r>   10.6335    0.0000 </r>
       <r>   11.1371    0.0000 </r>
       <r>   11.4568    0.0000 </r>
      </set>
      <set comment="kpoint 13">
       <r>  -16.6024    1.0000 </r>
       <r>  -15.3577    1.0000 </r>
       <r>   -8.7300    1.0000 </r>
       <r>   -4.5501    1.0000 </r>
       <r>   -0.3817    0.0000 </r>
       <r>    5.2527    0.0000 </r>
       <r>    8.5538    0.0000 </r>
       <r>    9.4908    0.0000 </r>
       <r>    9.8208    0.0000 </r>
       <r>   10.1190    0.0000 </r>
       <r>   10.7403    0.0000 </r>
       <r>   11.4519    0.0000 </r>
      </set>
      <set comment="kpoint 14">
       <r>  -21.8375    1.0000 </r>
       <r>   -9.8985    1.0000 </r>
       <r>   -5.4229    1.0000 </r>
       <r>   -5.1802    1.0000 </r>
       <r>    1.0801    0.0000 </r>
       <r>    2.0020    0.0000 </r>
       <r>    2.4359    0.0000 </r>
       <r>    4.4108    0.0000 </r>
       <r>    5.1493    0.0000 </r>
       <r>    6.1835    0.0000 </r>
       <r>    6.7064    0.0000 </r>
       <r>    8.2869    0.0000 </r>
      </set>
      <set comment="kpoint 15">
       <r>  -21.7596    1.0000 </r>
       <r>   -9.8049    1.0000 </r>
       <r>   -5.6959    1.0000 </r>
       <r>   -5.3818    1.0000 </r>
       <r>    1.1862    0.0000 </r>
       <r>    2.1091    0.0000 </r>
       <r>    2.5440    0.0000 </r>
       <r>    4.5173    0.0000 </r>
       <r>    5.2528    0.0000 </r>
       <r>    6.3091    0.0000 </r>
       <r>    6.9669    0.0000 </r>
       <r>    8.3899    0.0000 </r>
      </set>
      <set comment="kpoint 16">
       <r>  -21.6042    1.0000 </r>
       <r>   -9.6188    1.0000 </r>
       <r>   -6.1886    1.0000 </r>
       <r>   -5.7611    1.0000 </r>
       <r>    1.3978    0.0000 </r>
       <r>    2.3224    0.0000 </r>
       <r>    2.7597    0.0000 </r>
       <r>    4.7295    0.0000 </r>
       <r>    5.4597    0.0000 </r>
       <r>    6.4466    0.0000 </r>
       <r>    7.4899    0.0000 </r>
       <r>    8.5950    0.0000 </r>
      </set>
      <set comment="kpoint 17">
       <r>  -21.3719    1.0000 </r>
       <r>   -9.3411    1.0000 </r>
       <r>   -6.8998    1.0000 </r>
       <r>   -6.2160    1.0000 </r>
       <r>    1.7150    0.0000 </r>
       <r>    2.6418    0.0000 </r>
       <r>    3.0830    0.0000 </r>
       <r>    5.0469    0.0000 </r>
       <r>    5.7659    0.0000 </r>
       <r>    6.4919    0.0000 </r>
       <r>    7.9195    0.0000 </r>
       <r>    8.3013    0.0000 </r>
      </set>
      <set comment="kpoint 18">
       <r>  -21.0632    1.0000 </r>
       <r>   -8.9739    1.0000 </r>
       <r>   -7.7799    1.0000 </r>
       <r>   -6.6894    1.0000 </r>
       <r>    2.1375    0.0000 </r>
       <r>    3.0664    0.0000 </r>
       <r>    3.5138    0.0000 </r>
       <r>    5.4680    0.0000 </r>
       <r>    6.1352    0.0000 </r>
       <r>    6.4835    0.0000 </r>
       <r>    7.0422    0.0000 </r>
       <r>    9.3085    0.0000 </r>
      </set>
      <set comment="kpoint 19">
       <r>  -20.6789    1.0000 </r>
       <r>   -8.7677    1.0000 </r>
       <r>   -8.5199    1.0000 </r>
       <r>   -7.1521    1.0000 </r>
       <r>    2.6649    0.0000 </r>
       <r>    3.5942    0.0000 </r>
       <r>    4.0519    0.0000 </r>
       <r>    5.9284    0.0000 </r>
       <r>    6.1114    0.0000 </r>
       <r>    6.2295    0.0000 </r>
       <r>    6.7902    0.0000 </r>
       <r>    9.8118    0.0000 </r>
      </set>
      <set comment="kpoint 20">
       <r>  -20.2204    1.0000 </r>
       <r>   -9.8146    1.0000 </r>
       <r>   -7.9837    1.0000 </r>
       <r>   -7.5831    1.0000 </r>
       <r>    3.2964    0.0000 </r>
       <r>    4.2070    0.0000 </r>
       <r>    4.6966    0.0000 </r>
       <r>    4.9733    0.0000 </r>
       <r>    6.0959    0.0000 </r>
       <r>    6.6375    0.0000 </r>
       <r>    7.3972    0.0000 </r>
       <r>   10.4069    0.0000 </r>
      </set>
      <set comment="kpoint 21">
       <r>  -19.6890    1.0000 </r>
       <r>  -10.8854    1.0000 </r>
       <r>   -7.9666    1.0000 </r>
       <r>   -7.3725    1.0000 </r>
       <r>    3.7910    0.0000 </r>
       <r>    4.0305    0.0000 </r>
       <r>    5.0037    0.0000 </r>
       <r>    5.4427    0.0000 </r>
       <r>    5.9432    0.0000 </r>
       <r>    7.3685    0.0000 </r>
       <r>    8.1270    0.0000 </r>
       <r>   11.0839    0.0000 </r>
      </set>
      <set comment="kpoint 22">
       <r>  -19.0871    1.0000 </r>
       <r>  -11.9539    1.0000 </r>
       <r>   -8.2913    1.0000 </r>
       <r>   -6.6984    1.0000 </r>
       <r>    2.6706    0.0000 </r>
       <r>    4.8610    0.0000 </r>
       <r>    5.7746    0.0000 </r>
       <r>    5.8339    0.0000 </r>
       <r>    6.3252    0.0000 </r>
       <r>    8.2004    0.0000 </r>
       <r>    8.9640    0.0000 </r>
       <r>   11.8197    0.0000 </r>
      </set>
      <set comment="kpoint 23">
       <r>  -18.4183    1.0000 </r>
       <r>  -13.0001    1.0000 </r>
       <r>   -8.5492    1.0000 </r>
       <r>   -5.9844    1.0000 </r>
       <r>    1.5794    0.0000 </r>
       <r>    5.5665    0.0000 </r>
       <r>    5.8834    0.0000 </r>
       <r>    6.7741    0.0000 </r>
       <r>    7.2859    0.0000 </r>
       <r>    9.1268    0.0000 </r>
       <r>    9.9035    0.0000 </r>
       <r>   12.5302    0.0000 </r>
      </set>
      <set comment="kpoint 24">
       <r>  -17.6898    1.0000 </r>
       <r>  -14.0054    1.0000 </r>
       <r>   -8.7348    1.0000 </r>
       <r>   -5.2789    1.0000 </r>
       <r>    0.5917    0.0000 </r>
       <r>    5.5168    0.0000 </r>
       <r>    6.8721    0.0000 </r>
       <r>    7.8115    0.0000 </r>
       <r>    8.3585    0.0000 </r>
       <r>   10.1345    0.0000 </r>
       <r>   10.9408    0.0000 </r>
       <r>   11.8361    0.0000 </r>
      </set>
      <set comment="kpoint 25">
       <r>  -16.9266    1.0000 </r>
       <r>  -14.9377    1.0000 </r>
       <r>   -8.8447    1.0000 </r>
       <r>   -4.6932    1.0000 </r>
       <r>   -0.1679    0.0000 </r>
       <r>    5.4575    0.0000 </r>
       <r>    8.0005    0.0000 </r>
       <r>    8.9346    0.0000 </r>
       <r>    9.5370    0.0000 </r>
       <r>   10.5084    0.0000 </r>
       <r>   11.0820    0.0000 </r>
       <r>   11.5648    0.0000 </r>
      </set>
      <set comment="kpoint 26">
       <r>  -16.3900    1.0000 </r>
       <r>  -15.5316    1.0000 </r>
       <r>   -8.8769    1.0000 </r>
       <r>   -4.4466    1.0000 </r>
       <r>   -0.4722    0.0000 </r>
       <r>    5.4342    0.0000 </r>
       <r>    9.1476    0.0000 </r>
       <r>    9.2857    0.0000 </r>
       <r>    9.9807    0.0000 </r>
       <r>   10.2878    0.0000 </r>
       <r>   10.8011    0.0000 </r>
       <r>   10.8270    0.0000 </r>
      </set>
      <set comment="kpoint 27">
       <r>  -16.9318    1.0000 </r>
       <r>  -14.9340    1.0000 </r>
       <r>   -8.8308    1.0000 </r>
       <r>   -4.6980    1.0000 </r>
       <r>   -0.1598    0.0000 </r>
       <r>    5.4501    0.0000 </r>
       <r>    7.9894    0.0000 </r>
       <r>    8.9227    0.0000 </r>
       <r>    9.5230    0.0000 </r>
       <r>   10.5110    0.0000 </r>
       <r>   11.0817    0.0000 </r>
       <r>   11.5703    0.0000 </r>
      </set>
      <set comment="kpoint 28">
       <r>  -17.6956    1.0000 </r>
       <r>  -14.0026    1.0000 </r>
       <r>   -8.7073    1.0000 </r>
       <r>   -5.2859    1.0000 </r>
       <r>    0.6054    0.0000 </r>
       <r>    5.5027    0.0000 </r>
       <r>    6.8600    0.0000 </r>
       <r>    7.8004    0.0000 </r>
       <r>    8.3453    0.0000 </r>
       <r>   10.1255    0.0000 </r>
       <r>   10.9308    0.0000 </r>
       <r>   11.8167    0.0000 </r>
      </set>
      <set comment="kpoint 29">
       <r>  -18.4242    1.0000 </r>
       <r>  -12.9988    1.0000 </r>
       <r>   -8.5084    1.0000 </r>
       <r>   -5.9917    1.0000 </r>
       <r>    1.5975    0.0000 </r>
       <r>    5.5526    0.0000 </r>
       <r>    5.8648    0.0000 </r>
       <r>    6.7640    0.0000 </r>
       <r>    7.2737    0.0000 </r>
       <r>    9.1179    0.0000 </r>
       <r>    9.8932    0.0000 </r>
       <r>   12.5395    0.0000 </r>
      </set>
      <set comment="kpoint 30">
       <r>  -19.0928    1.0000 </r>
       <r>  -11.9547    1.0000 </r>
       <r>   -8.2381    1.0000 </r>
       <r>   -6.7054    1.0000 </r>
       <r>    2.6926    0.0000 </r>
       <r>    4.8533    0.0000 </r>
       <r>    5.7460    0.0000 </r>
       <r>    5.8251    0.0000 </r>
       <r>    6.3132    0.0000 </r>
       <r>    8.1922    0.0000 </r>
       <r>    8.9539    0.0000 </r>
       <r>   11.8209    0.0000 </r>
      </set>
      <set comment="kpoint 31">
       <r>  -19.6944    1.0000 </r>
       <r>  -10.8883    1.0000 </r>
       <r>   -7.9026    1.0000 </r>
       <r>   -7.3788    1.0000 </r>
       <r>    3.8161    0.0000 </r>
       <r>    4.0229    0.0000 </r>
       <r>    4.9975    0.0000 </r>
       <r>    5.4339    0.0000 </r>
       <r>    5.9101    0.0000 </r>
       <r>    7.3612    0.0000 </r>
       <r>    8.1173    0.0000 </r>
       <r>   11.0820    0.0000 </r>
      </set>
      <set comment="kpoint 32">
       <r>  -20.2253    1.0000 </r>
       <r>   -9.8192    1.0000 </r>
       <r>   -7.9893    1.0000 </r>
       <r>   -7.5112    1.0000 </r>
       <r>    3.2897    0.0000 </r>
       <r>    4.1988    0.0000 </r>
       <r>    4.6887    0.0000 </r>
       <r>    5.0062    0.0000 </r>
       <r>    6.0645    0.0000 </r>
       <r>    6.6317    0.0000 </r>
       <r>    7.3873    0.0000 </r>
       <r>   10.4039    0.0000 </r>
      </set>
      <set comment="kpoint 33">
       <r>  -20.6833    1.0000 </r>
       <r>   -8.7718    1.0000 </r>
       <r>   -8.5247    1.0000 </r>
       <r>   -7.0776    1.0000 </r>
       <r>    2.6591    0.0000 </r>
       <r>    3.5873    0.0000 </r>
       <r>    4.0452    0.0000 </r>
       <r>    5.9299    0.0000 </r>
       <r>    6.1428    0.0000 </r>
       <r>    6.2092    0.0000 </r>
       <r>    6.7773    0.0000 </r>
       <r>    9.8085    0.0000 </r>
      </set>
      <set comment="kpoint 34">
       <r>  -21.0668    1.0000 </r>
       <r>   -8.9778    1.0000 </r>
       <r>   -7.7780    1.0000 </r>
       <r>   -6.6224    1.0000 </r>
       <r>    2.1328    0.0000 </r>
       <r>    3.0608    0.0000 </r>
       <r>    3.5083    0.0000 </r>
       <r>    5.4623    0.0000 </r>
       <r>    6.1378    0.0000 </r>
       <r>    6.4683    0.0000 </r>
       <r>    7.0852    0.0000 </r>
       <r>    8.9223    0.0000 </r>
      </set>
      <set comment="kpoint 35">
       <r>  -21.3748    1.0000 </r>
       <r>   -9.3442    1.0000 </r>
       <r>   -6.8784    1.0000 </r>
       <r>   -6.1755    1.0000 </r>
       <r>    1.7114    0.0000 </r>
       <r>    2.6374    0.0000 </r>
       <r>    3.0787    0.0000 </r>
       <r>    5.0427    0.0000 </r>
       <r>    5.7664    0.0000 </r>
       <r>    6.5224    0.0000 </r>
       <r>    7.9343    0.0000 </r>
       <r>    7.9624    0.0000 </r>
      </set>
      <set comment="kpoint 36">
       <r>  -21.6063    1.0000 </r>
       <r>   -9.6210    1.0000 </r>
       <r>   -6.1217    1.0000 </r>
       <r>   -5.7789    1.0000 </r>
       <r>    1.3953    0.0000 </r>
       <r>    2.3193    0.0000 </r>
       <r>    2.7567    0.0000 </r>
       <r>    4.7265    0.0000 </r>
       <r>    5.4598    0.0000 </r>
       <r>    6.5637    0.0000 </r>
       <r>    7.1309    0.0000 </r>
       <r>    8.5928    0.0000 </r>
      </set>
      <set comment="kpoint 37">
       <r>  -21.7608    1.0000 </r>
       <r>   -9.8063    1.0000 </r>
       <r>   -5.5630    1.0000 </r>
       <r>   -5.4833    1.0000 </r>
       <r>    1.1847    0.0000 </r>
       <r>    2.1072    0.0000 </r>
       <r>    2.5422    0.0000 </r>
       <r>    4.5155    0.0000 </r>
       <r>    5.2530    0.0000 </r>
       <r>    6.5530    0.0000 </r>
       <r>    6.5774    0.0000 </r>
       <r>    8.3887    0.0000 </r>
      </set>
      <set comment="kpoint 38">
       <r>  -21.8380    1.0000 </r>
       <r>   -9.8989    1.0000 </r>
       <r>   -5.3599    1.0000 </r>
       <r>   -5.2325    1.0000 </r>
       <r>    1.0797    0.0000 </r>
       <r>    2.0014    0.0000 </r>
       <r>    2.4353    0.0000 </r>
       <r>    4.4102    0.0000 </r>
       <r>    5.1494    0.0000 </r>
       <r>    6.2407    0.0000 </r>
       <r>    6.6005    0.0000 </r>
       <r>    8.2864    0.0000 </r>
      </set>
      <set comment="kpoint 39">
       <r>  -21.7151    1.0000 </r>
       <r>   -9.7517    1.0000 </r>
       <r>   -5.9247    1.0000 </r>
       <r>   -5.4218    1.0000 </r>
       <r>    1.2467    0.0000 </r>
       <r>    2.1702    0.0000 </r>
       <r>    2.6058    0.0000 </r>
       <r>    4.5780    0.0000 </r>
       <r>    5.3112    0.0000 </r>
       <r>    6.3318    0.0000 </r>
       <r>    7.2156    0.0000 </r>
       <r>    8.4472    0.0000 </r>
      </set>
      <set comment="kpoint 40">
       <r>  -21.5981    1.0000 </r>
       <r>   -9.6116    1.0000 </r>
       <r>   -6.3145    1.0000 </r>
       <r>   -5.6854    1.0000 </r>
       <r>    1.4061    0.0000 </r>
       <r>    2.3309    0.0000 </r>
       <r>    2.7683    0.0000 </r>
       <r>    4.7378    0.0000 </r>
       <r>    5.4671    0.0000 </r>
       <r>    6.4752    0.0000 </r>
       <r>    7.5960    0.0000 </r>
       <r>    8.5582    0.0000 </r>
      </set>
      <set comment="kpoint 41">
       <r>  -21.4040    1.0000 </r>
       <r>   -9.3797    1.0000 </r>
       <r>   -6.8499    1.0000 </r>
       <r>   -6.1438    1.0000 </r>
       <r>    1.6712    0.0000 </r>
       <r>    2.5978    0.0000 </r>
       <r>    3.0385    0.0000 </r>
       <r>    5.0031    0.0000 </r>
       <r>    5.7270    0.0000 </r>
       <r>    6.6856    0.0000 </r>
       <r>    7.9884    0.0000 </r>
       <r>    8.1019    0.0000 </r>
      </set>
      <set comment="kpoint 42">
       <r>  -21.1333    1.0000 </r>
       <r>   -9.0573    1.0000 </r>
       <r>   -7.5330    1.0000 </r>
       <r>   -6.6969    1.0000 </r>
       <r>    2.0418    0.0000 </r>
       <r>    2.9704    0.0000 </r>
       <r>    3.4163    0.0000 </r>
       <r>    5.3733    0.0000 </r>
       <r>    6.0865    0.0000 </r>
       <r>    6.8307    0.0000 </r>
       <r>    7.2169    0.0000 </r>
       <r>    8.7964    0.0000 </r>
      </set>
      <set comment="kpoint 43">
       <r>  -20.7867    1.0000 </r>
       <r>   -8.6469    1.0000 </r>
       <r>   -8.3689    1.0000 </r>
       <r>   -7.2431    1.0000 </r>
       <r>    2.5175    0.0000 </r>
       <r>    3.4476    0.0000 </r>
       <r>    3.9016    0.0000 </r>
       <r>    5.8449    0.0000 </r>
       <r>    6.3157    0.0000 </r>
       <r>    6.5093    0.0000 </r>
       <r>    6.8860    0.0000 </r>
       <r>    9.6643    0.0000 </r>
      </set>
      <set comment="kpoint 44">
       <r>  -20.3654    1.0000 </r>
       <r>   -9.3226    1.0000 </r>
       <r>   -8.1519    1.0000 </r>
       <r>   -7.7373    1.0000 </r>
       <r>    3.0978    0.0000 </r>
       <r>    4.0255    0.0000 </r>
       <r>    4.4941    0.0000 </r>
       <r>    5.3113    0.0000 </r>
       <r>    6.4298    0.0000 </r>
       <r>    6.6544    0.0000 </r>
       <r>    7.2266    0.0000 </r>
       <r>   10.2059    0.0000 </r>
      </set>
      <set comment="kpoint 45">
       <r>  -19.8707    1.0000 </r>
       <r>  -10.3428    1.0000 </r>
       <r>   -8.1693    1.0000 </r>
       <r>   -7.5780    1.0000 </r>
       <r>    3.7818    0.0000 </r>
       <r>    4.2066    0.0000 </r>
       <r>    4.7506    0.0000 </r>
       <r>    5.1930    0.0000 </r>
       <r>    6.5416    0.0000 </r>
       <r>    7.1088    0.0000 </r>
       <r>    7.8827    0.0000 </r>
       <r>   10.8275    0.0000 </r>
      </set>
      <set comment="kpoint 46">
       <r>  -19.3046    1.0000 </r>
       <r>  -11.3887    1.0000 </r>
       <r>   -8.5349    1.0000 </r>
       <r>   -6.9343    1.0000 </r>
       <r>    3.1293    0.0000 </r>
       <r>    4.5675    0.0000 </r>
       <r>    5.5199    0.0000 </r>
       <r>    5.9913    0.0000 </r>
       <r>    6.4045    0.0000 </r>
       <r>    7.8873    0.0000 </r>
       <r>    8.6636    0.0000 </r>
       <r>   11.5037    0.0000 </r>
      </set>
      <set comment="kpoint 47">
       <r>  -18.6699    1.0000 </r>
       <r>  -12.4311    1.0000 </r>
       <r>   -8.8302    1.0000 </r>
       <r>   -6.2369    1.0000 </r>
       <r>    2.0424    0.0000 </r>
       <r>    5.4472    0.0000 </r>
       <r>    6.2505    0.0000 </r>
       <r>    6.4069    0.0000 </r>
       <r>    6.9274    0.0000 </r>
       <r>    8.7589    0.0000 </r>
       <r>    9.5506    0.0000 </r>
       <r>   12.1604    0.0000 </r>
      </set>
      <set comment="kpoint 48">
       <r>  -17.9717    1.0000 </r>
       <r>  -13.4479    1.0000 </r>
       <r>   -9.0514    1.0000 </r>
       <r>   -5.5179    1.0000 </r>
       <r>    1.0136    0.0000 </r>
       <r>    6.0765    0.0000 </r>
       <r>    6.4962    0.0000 </r>
       <r>    7.3902    0.0000 </r>
       <r>    7.9435    0.0000 </r>
       <r>    9.7100    0.0000 </r>
       <r>   10.5377    0.0000 </r>
       <r>   12.5026    0.0000 </r>
      </set>
      <set comment="kpoint 49">
       <r>  -17.2225    1.0000 </r>
       <r>  -14.4155    1.0000 </r>
       <r>   -9.1959    1.0000 </r>
       <r>   -4.8495    1.0000 </r>
       <r>    0.1310    0.0000 </r>
       <r>    6.0204    0.0000 </r>
       <r>    7.5520    0.0000 </r>
       <r>    8.4574    0.0000 </r>
       <r>    9.0691    0.0000 </r>
       <r>   10.6863    0.0000 </r>
       <r>   11.2525    0.0000 </r>
       <r>   11.6255    0.0000 </r>
      </set>
      <set comment="kpoint 50">
       <r>  -16.4916    1.0000 </r>
       <r>  -15.2579    1.0000 </r>
       <r>   -9.2620    1.0000 </r>
       <r>   -4.3973    1.0000 </r>
       <r>   -0.4291    0.0000 </r>
       <r>    5.9764    0.0000 </r>
       <r>    8.7191    0.0000 </r>
       <r>    9.5668    0.0000 </r>
       <r>    9.9584    0.0000 </r>
       <r>   10.3020    0.0000 </r>
       <r>   10.7608    0.0000 </r>
       <r>   11.6035    0.0000 </r>
      </set>
      <set comment="kpoint 51">
       <r>  -16.4992    1.0000 </r>
       <r>  -15.2518    1.0000 </r>
       <r>   -9.2486    1.0000 </r>
       <r>   -4.4028    1.0000 </r>
       <r>   -0.4203    0.0000 </r>
       <r>    5.9699    0.0000 </r>
       <r>    8.6991    0.0000 </r>
       <r>    9.5454    0.0000 </r>
       <r>    9.9694    0.0000 </r>
       <r>   10.2739    0.0000 </r>
       <r>   10.7821    0.0000 </r>
       <r>   11.6314    0.0000 </r>
      </set>
      <set comment="kpoint 52">
       <r>  -17.2333    1.0000 </r>
       <r>  -14.4095    1.0000 </r>
       <r>   -9.1561    1.0000 </r>
       <r>   -4.8619    1.0000 </r>
       <r>    0.1537    0.0000 </r>
       <r>    6.0015    0.0000 </r>
       <r>    7.5286    0.0000 </r>
       <r>    8.4356    0.0000 </r>
       <r>    9.0420    0.0000 </r>
       <r>   10.6739    0.0000 </r>
       <r>   11.2354    0.0000 </r>
       <r>   11.6072    0.0000 </r>
      </set>
      <set comment="kpoint 53">
       <r>  -17.9831    1.0000 </r>
       <r>  -13.4450    1.0000 </r>
       <r>   -8.9857    1.0000 </r>
       <r>   -5.5322    1.0000 </r>
       <r>    1.0457    0.0000 </r>
       <r>    6.0523    0.0000 </r>
       <r>    6.4657    0.0000 </r>
       <r>    7.3696    0.0000 </r>
       <r>    7.9181    0.0000 </r>
       <r>    9.6936    0.0000 </r>
       <r>   10.5173    0.0000 </r>
       <r>   12.3681    0.0000 </r>
      </set>
      <set comment="kpoint 54">
       <r>  -18.6813    1.0000 </r>
       <r>  -12.4321    1.0000 </r>
       <r>   -8.7397    1.0000 </r>
       <r>   -6.2510    1.0000 </r>
       <r>    2.0829    0.0000 </r>
       <r>    5.4314    0.0000 </r>
       <r>    6.2029    0.0000 </r>
       <r>    6.3882    0.0000 </r>
       <r>    6.9030    0.0000 </r>
       <r>    8.7425    0.0000 </r>
       <r>    9.5302    0.0000 </r>
       <r>   12.1772    0.0000 </r>
      </set>
      <set comment="kpoint 55">
       <r>  -19.3156    1.0000 </r>
       <r>  -11.3940    1.0000 </r>
       <r>   -8.4222    1.0000 </r>
       <r>   -6.9474    1.0000 </r>
       <r>    3.1783    0.0000 </r>
       <r>    4.5513    0.0000 </r>
       <r>    5.5037    0.0000 </r>
       <r>    5.9728    0.0000 </r>
       <r>    6.3476    0.0000 </r>
       <r>    7.8719    0.0000 </r>
       <r>    8.6436    0.0000 </r>
       <r>   11.5056    0.0000 </r>
      </set>
      <set comment="kpoint 56">
       <r>  -19.8809    1.0000 </r>
       <r>  -10.3515    1.0000 </r>
       <r>   -8.0393    1.0000 </r>
       <r>   -7.5897    1.0000 </r>
       <r>    3.7670    0.0000 </r>
       <r>    4.2562    0.0000 </r>
       <r>    4.7460    0.0000 </r>
       <r>    5.1761    0.0000 </r>
       <r>    6.4847    0.0000 </r>
       <r>    7.0952    0.0000 </r>
       <r>    7.8625    0.0000 </r>
       <r>   10.8233    0.0000 </r>
      </set>
      <set comment="kpoint 57">
       <r>  -20.3746    1.0000 </r>
       <r>   -9.3298    1.0000 </r>
       <r>   -8.1621    1.0000 </r>
       <r>   -7.6005    1.0000 </r>
       <r>    3.0850    0.0000 </r>
       <r>    4.0101    0.0000 </r>
       <r>    4.4794    0.0000 </r>
       <r>    5.3833    0.0000 </r>
       <r>    6.4192    0.0000 </r>
       <r>    6.6119    0.0000 </r>
       <r>    7.2005    0.0000 </r>
       <r>   10.1994    0.0000 </r>
      </set>
      <set comment="kpoint 58">
       <r>  -20.7947    1.0000 </r>
       <r>   -8.6555    1.0000 </r>
       <r>   -8.3609    1.0000 </r>
       <r>   -7.1208    1.0000 </r>
       <r>    2.5068    0.0000 </r>
       <r>    3.4353    0.0000 </r>
       <r>    3.8893    0.0000 </r>
       <r>    5.8316    0.0000 </r>
       <r>    6.4010    0.0000 </r>
       <r>    6.5078    0.0000 </r>
       <r>    6.8432    0.0000 </r>
       <r>    8.9729    0.0000 </r>
      </set>
      <set comment="kpoint 59">
       <r>  -21.1398    1.0000 </r>
       <r>   -9.0643    1.0000 </r>
       <r>   -7.4828    1.0000 </r>
       <r>   -6.6255    1.0000 </r>
       <r>    2.0333    0.0000 </r>
       <r>    2.9606    0.0000 </r>
       <r>    3.4065    0.0000 </r>
       <r>    5.3637    0.0000 </r>
       <r>    6.0845    0.0000 </r>
       <r>    6.8333    0.0000 </r>
       <r>    7.3047    0.0000 </r>
       <r>    8.1382    0.0000 </r>
      </set>
      <set comment="kpoint 60">
       <r>  -21.4089    1.0000 </r>
       <r>   -9.3849    1.0000 </r>
       <r>   -6.7328    1.0000 </r>
       <r>   -6.1589    1.0000 </r>
       <r>    1.6649    0.0000 </r>
       <r>    2.5905    0.0000 </r>
       <r>    3.0312    0.0000 </r>
       <r>    4.9961    0.0000 </r>
       <r>    5.7252    0.0000 </r>
       <r>    6.7334    0.0000 </r>
       <r>    7.5404    0.0000 </r>
       <r>    8.0725    0.0000 </r>
      </set>
      <set comment="kpoint 61">
       <r>  -21.6014    1.0000 </r>
       <r>   -9.6151    1.0000 </r>
       <r>   -6.1430    1.0000 </r>
       <r>   -5.7843    1.0000 </r>
       <r>    1.4020    0.0000 </r>
       <r>    2.3261    0.0000 </r>
       <r>    2.7635    0.0000 </r>
       <r>    4.7332    0.0000 </r>
       <r>    5.4661    0.0000 </r>
       <r>    6.5359    0.0000 </r>
       <r>    7.1849    0.0000 </r>
       <r>    8.5989    0.0000 </r>
      </set>
      <set comment="kpoint 62">
       <r>  -21.7168    1.0000 </r>
       <r>   -9.7534    1.0000 </r>
       <r>   -5.7696    1.0000 </r>
       <r>   -5.5396    1.0000 </r>
       <r>    1.2446    0.0000 </r>
       <r>    2.1678    0.0000 </r>
       <r>    2.6034    0.0000 </r>
       <r>    4.5757    0.0000 </r>
       <r>    5.3109    0.0000 </r>
       <r>    6.3836    0.0000 </r>
       <r>    6.9882    0.0000 </r>
       <r>    8.4470    0.0000 </r>
      </set>
      <set comment="kpoint 63">
       <r>  -21.7547    1.0000 </r>
       <r>   -9.7990    1.0000 </r>
       <r>   -5.7157    1.0000 </r>
       <r>   -5.3914    1.0000 </r>
       <r>    1.1929    0.0000 </r>
       <r>    2.1158    0.0000 </r>
       <r>    2.5508    0.0000 </r>
       <r>    4.5240    0.0000 </r>
       <r>    5.2593    0.0000 </r>
[...]
       <r>   10.2356    0.0000 </r>
       <r>   11.3089    0.0000 </r>
       <r>   11.6822    0.0000 </r>
      </set>
      <set comment="kpoint 294">
       <r>  -17.5363    1.0000 </r>
       <r>  -13.2052    1.0000 </r>
       <r>  -10.6644    1.0000 </r>
       <r>   -5.0047    1.0000 </r>
       <r>    0.6157    0.0000 </r>
       <r>    7.0951    0.0000 </r>
       <r>    7.8830    0.0000 </r>
       <r>    8.6113    0.0000 </r>
       <r>    9.6014    0.0000 </r>
       <r>    9.9651    0.0000 </r>
       <r>   11.1481    0.0000 </r>
       <r>   11.5899    0.0000 </r>
      </set>
      <set comment="kpoint 295">
       <r>  -17.5724    1.0000 </r>
       <r>  -12.7332    1.0000 </r>
       <r>  -11.1754    1.0000 </r>
       <r>   -5.0118    1.0000 </r>
       <r>    0.7472    0.0000 </r>
       <r>    7.0362    0.0000 </r>
       <r>    7.7835    0.0000 </r>
       <r>    8.5513    0.0000 </r>
       <r>    9.8349    0.0000 </r>
       <r>   10.3740    0.0000 </r>
       <r>   11.0274    0.0000 </r>
       <r>   11.1786    0.0000 </r>
      </set>
      <set comment="kpoint 296">
       <r>  -17.5379    1.0000 </r>
       <r>  -12.7994    1.0000 </r>
       <r>  -11.1301    1.0000 </r>
       <r>   -4.9762    1.0000 </r>
       <r>    0.7203    0.0000 </r>
       <r>    7.0797    0.0000 </r>
       <r>    7.8270    0.0000 </r>
       <r>    8.5948    0.0000 </r>
       <r>    9.4582    0.0000 </r>
       <r>    9.8759    0.0000 </r>
       <r>   11.1541    0.0000 </r>
       <r>   11.6188    0.0000 </r>
      </set>
      <set comment="kpoint 297">
       <r>  -17.4326    1.0000 </r>
       <r>  -13.3321    1.0000 </r>
       <r>  -10.6038    1.0000 </r>
       <r>   -4.8998    1.0000 </r>
       <r>    0.5418    0.0000 </r>
       <r>    7.2225    0.0000 </r>
       <r>    8.0124    0.0000 </r>
       <r>    8.3038    0.0000 </r>
       <r>    8.7636    0.0000 </r>
       <r>   10.0853    0.0000 </r>
       <r>   11.3022    0.0000 </r>
       <r>   11.7919    0.0000 </r>
      </set>
      <set comment="kpoint 298">
       <r>  -17.2582    1.0000 </r>
       <r>  -13.9551    1.0000 </r>
       <r>   -9.9907    1.0000 </r>
       <r>   -4.7918    1.0000 </r>
       <r>    0.2641    0.0000 </r>
       <r>    7.1817    0.0000 </r>
       <r>    7.5294    0.0000 </r>
       <r>    8.3188    0.0000 </r>
       <r>    9.0172    0.0000 </r>
       <r>   10.4281    0.0000 </r>
       <r>   11.5461    0.0000 </r>
       <r>   11.8341    0.0000 </r>
      </set>
      <set comment="kpoint 299">
       <r>  -17.0199    1.0000 </r>
       <r>  -14.5582    1.0000 </r>
       <r>   -9.4312    1.0000 </r>
       <r>   -4.6697    1.0000 </r>
       <r>   -0.0397    0.0000 </r>
       <r>    6.3068    0.0000 </r>
       <r>    7.8519    0.0000 </r>
       <r>    8.7250    0.0000 </r>
       <r>    9.3843    0.0000 </r>
       <r>   10.8428    0.0000 </r>
       <r>   11.0477    0.0000 </r>
       <r>   11.8718    0.0000 </r>
      </set>
      <set comment="kpoint 300">
       <r>  -16.7337    1.0000 </r>
       <r>  -15.0964    1.0000 </r>
       <r>   -9.0034    1.0000 </r>
       <r>   -4.5598    1.0000 </r>
       <r>   -0.2960    0.0000 </r>
       <r>    5.6454    0.0000 </r>
       <r>    8.3057    0.0000 </r>
       <r>    9.2177    0.0000 </r>
       <r>    9.8580    0.0000 </r>
       <r>   10.2568    0.0000 </r>
       <r>   11.0101    0.0000 </r>
       <r>   11.6314    0.0000 </r>
      </set>
      <set comment="kpoint 301">
       <r>  -16.4675    1.0000 </r>
       <r>  -15.4908    1.0000 </r>
       <r>   -8.7699    1.0000 </r>
       <r>   -4.4934    1.0000 </r>
       <r>   -0.4431    0.0000 </r>
       <r>    5.2930    0.0000 </r>
       <r>    8.8575    0.0000 </r>
       <r>    9.5229    0.0000 </r>
       <r>    9.7771    0.0000 </r>
       <r>   10.4418    0.0000 </r>
       <r>   10.4630    0.0000 </r>
       <r>   11.1287    0.0000 </r>
      </set>
     </set>
    </set>
   </array>
  </eigenvalues>
  <separator name="orbital magnetization" >
   <v name="MAGDIPOLOUT">      0.00000000      0.00000000      0.00000000</v>
  </separator>
  <dos>
   <i name="efermi">     -2.36795340 </i>
   <total>
    <array>
     <dimension dim="1">gridpoints</dimension>
     <dimension dim="2">spin</dimension>
     <field>energy</field>
     <field>total</field>
     <field>integrated</field>
     <set>
      <set comment="spin 1">
       <r>   -23.6566     0.0000     0.0000 </r>
       <r>   -23.5262     0.0000     0.0000 </r>
       <r>   -23.3958     0.0000     0.0000 </r>
       <r>   -23.2654     0.0000     0.0000 </r>
       <r>   -23.1350     0.0000     0.0000 </r>
       <r>   -23.0046     0.0000     0.0000 </r>
       <r>   -22.8742     0.0000     0.0000 </r>
       <r>   -22.7438     0.0000     0.0000 </r>
       <r>   -22.6134     0.0000     0.0000 </r>
       <r>   -22.4830     0.0000     0.0000 </r>
       <r>   -22.3526     0.0000     0.0000 </r>
       <r>   -22.2222     0.0000     0.0000 </r>
       <r>   -22.0918     0.0000     0.0000 </r>
       <r>   -21.9614     0.0000     0.0000 </r>
       <r>   -21.8310     0.1328     0.0173 </r>
       <r>   -21.7006     0.3358     0.0611 </r>
       <r>   -21.5702     0.3136     0.1020 </r>
       <r>   -21.4398     0.1632     0.1235 </r>
       <r>   -21.3093     0.4585     0.1833 </r>
       <r>   -21.1789     0.1535     0.2034 </r>
       <r>   -21.0485     0.4230     0.2585 </r>
       <r>   -20.9181     0.2087     0.2857 </r>
       <r>   -20.7877     0.3125     0.3265 </r>
       <r>   -20.6573     0.3910     0.3775 </r>
       <r>   -20.5269     0.1984     0.4034 </r>
       <r>   -20.3965     0.3555     0.4497 </r>
       <r>   -20.2661     0.4042     0.5026 </r>
       <r>   -20.1357     0.2565     0.5360 </r>
       <r>   -20.0053     0.1292     0.5529 </r>
       <r>   -19.8749     0.5621     0.6262 </r>
       <r>   -19.7445     0.2791     0.6626 </r>
       <r>   -19.6141     0.1449     0.6816 </r>
       <r>   -19.4837     0.3493     0.7272 </r>
       <r>   -19.3533     0.3848     0.7774 </r>
       <r>   -19.2229     0.3682     0.8254 </r>
       <r>   -19.0925     0.1816     0.8491 </r>
       <r>   -18.9620     0.2820     0.8859 </r>
       <r>   -18.8316     0.4298     0.9420 </r>
       <r>   -18.7012     0.3117     0.9828 </r>
       <r>   -18.5708     0.3162     1.0240 </r>
       <r>   -18.4404     0.1578     1.0446 </r>
       <r>   -18.3100     0.3926     1.0958 </r>
       <r>   -18.1796     0.4904     1.1597 </r>
       <r>   -18.0492     0.2829     1.1966 </r>
       <r>   -17.9188     0.2814     1.2334 </r>
       <r>   -17.7884     0.1814     1.2570 </r>
       <r>   -17.6580     0.4613     1.3172 </r>
       <r>   -17.5276     0.4168     1.3717 </r>
       <r>   -17.3972     0.3453     1.4167 </r>
       <r>   -17.2668     0.1893     1.4415 </r>
       <r>   -17.1364     0.2693     1.4766 </r>
       <r>   -17.0060     0.4774     1.5389 </r>
       <r>   -16.8756     0.3640     1.5864 </r>
       <r>   -16.7452     0.4483     1.6448 </r>
       <r>   -16.6147     0.3717     1.6933 </r>
       <r>   -16.4843     0.2696     1.7284 </r>
       <r>   -16.3539     0.3305     1.7715 </r>
       <r>   -16.2235     0.4546     1.8309 </r>
       <r>   -16.0931     0.4274     1.8866 </r>
       <r>   -15.9627     0.0935     1.8989 </r>
       <r>   -15.8323     0.0183     1.9012 </r>
       <r>   -15.7019     0.1256     1.9176 </r>
       <r>   -15.5715     0.3400     1.9620 </r>
       <r>   -15.4411     0.2771     1.9981 </r>
       <r>   -15.3107     0.3284     2.0409 </r>
       <r>   -15.1803     0.1855     2.0651 </r>
       <r>   -15.0499     0.3480     2.1105 </r>
       <r>   -14.9195     0.4832     2.1735 </r>
       <r>   -14.7891     0.2261     2.2031 </r>
       <r>   -14.6587     0.4799     2.2657 </r>
       <r>   -14.5283     0.3742     2.3145 </r>
       <r>   -14.3979     0.4635     2.3751 </r>
       <r>   -14.2675     0.3173     2.4165 </r>
       <r>   -14.1370     0.3897     2.4675 </r>
       <r>   -14.0066     0.3102     2.5080 </r>
       <r>   -13.8762     0.2975     2.5468 </r>
       <r>   -13.7458     0.3465     2.5920 </r>
       <r>   -13.6154     0.2919     2.6301 </r>
       <r>   -13.4850     0.4078     2.6833 </r>
       <r>   -13.3546     0.1598     2.7042 </r>
       <r>   -13.2242     0.3307     2.7474 </r>
       <r>   -13.0938     0.3234     2.7896 </r>
       <r>   -12.9634     0.3063     2.8295 </r>
       <r>   -12.8330     0.2877     2.8671 </r>
       <r>   -12.7026     0.2559     2.9005 </r>
       <r>   -12.5722     0.3440     2.9454 </r>
       <r>   -12.4418     0.4223     3.0005 </r>
       <r>   -12.3114     0.3310     3.0437 </r>
       <r>   -12.1810     0.3285     3.0866 </r>
       <r>   -12.0506     0.3606     3.1336 </r>
       <r>   -11.9202     0.5082     3.1999 </r>
       <r>   -11.7897     0.3786     3.2495 </r>
       <r>   -11.6593     0.1694     3.2716 </r>
       <r>   -11.5289     0.3851     3.3218 </r>
       <r>   -11.3985     0.5161     3.3891 </r>
       <r>   -11.2681     0.4364     3.4463 </r>
       <r>   -11.1377     0.2980     3.4852 </r>
       <r>   -11.0073     0.2891     3.5230 </r>
       <r>   -10.8769     0.3954     3.5746 </r>
       <r>   -10.7465     0.5442     3.6456 </r>
       <r>   -10.6161     0.3288     3.6886 </r>
       <r>   -10.4857     0.5100     3.7551 </r>
       <r>   -10.3553     0.2712     3.7906 </r>
       <r>   -10.2249     0.4831     3.8536 </r>
       <r>   -10.0945     0.3956     3.9052 </r>
       <r>    -9.9641     0.3963     3.9570 </r>
       <r>    -9.8337     0.6811     4.0458 </r>
       <r>    -9.7033     1.0069     4.1771 </r>
       <r>    -9.5729     0.4802     4.2398 </r>
       <r>    -9.4424     0.6664     4.3268 </r>
       <r>    -9.3120     0.9721     4.4536 </r>
       <r>    -9.1816     0.7882     4.5564 </r>
       <r>    -9.0512     0.6127     4.6364 </r>
       <r>    -8.9208     1.1151     4.7818 </r>
       <r>    -8.7904     0.6949     4.8725 </r>
       <r>    -8.6600     1.1150     5.0180 </r>
       <r>    -8.5296     1.0290     5.1522 </r>
       <r>    -8.3992     0.9886     5.2812 </r>
       <r>    -8.2688     0.8387     5.3906 </r>
       <r>    -8.1384     1.0485     5.5275 </r>
       <r>    -8.0080     0.5974     5.6055 </r>
       <r>    -7.8776     0.7538     5.7039 </r>
       <r>    -7.7472     0.5481     5.7755 </r>
       <r>    -7.6168     0.8863     5.8914 </r>
       <r>    -7.4864     0.8803     6.0062 </r>
       <r>    -7.3560     0.3913     6.0573 </r>
       <r>    -7.2256     0.6006     6.1357 </r>
       <r>    -7.0952     0.6744     6.2237 </r>
       <r>    -6.9647     0.6832     6.3128 </r>
       <r>    -6.8343     0.6502     6.3976 </r>
       <r>    -6.7039     0.4206     6.4525 </r>
       <r>    -6.5735     0.6638     6.5391 </r>
       <r>    -6.4431     0.5577     6.6118 </r>
       <r>    -6.3127     0.6165     6.6922 </r>
       <r>    -6.1823     0.6401     6.7758 </r>
       <r>    -6.0519     0.6151     6.8561 </r>
       <r>    -5.9215     0.1761     6.8792 </r>
       <r>    -5.7911     0.7013     6.9707 </r>
       <r>    -5.6607     0.8376     7.0800 </r>
       <r>    -5.5303     0.4380     7.1372 </r>
       <r>    -5.3999     0.4765     7.1994 </r>
       <r>    -5.2695     0.3693     7.2477 </r>
       <r>    -5.1391     0.6547     7.3331 </r>
       <r>    -5.0087     0.3836     7.3833 </r>
       <r>    -4.8783     0.5138     7.4503 </r>
       <r>    -4.7479     0.4229     7.5055 </r>
       <r>    -4.6174     0.2472     7.5377 </r>
       <r>    -4.4870     0.3410     7.5822 </r>
       <r>    -4.3566     1.0023     7.7129 </r>
       <r>    -4.2262     0.2591     7.7467 </r>
       <r>    -4.0958     0.2039     7.7733 </r>
       <r>    -3.9654     0.0741     7.7830 </r>
       <r>    -3.8350     0.2907     7.8209 </r>
       <r>    -3.7046     0.4043     7.8736 </r>
       <r>    -3.5742     0.1140     7.8885 </r>
       <r>    -3.4438     0.1673     7.9103 </r>
       <r>    -3.3134     0.0741     7.9200 </r>
       <r>    -3.1830     0.1030     7.9334 </r>
       <r>    -3.0526     0.1952     7.9589 </r>
       <r>    -2.9222     0.1101     7.9733 </r>
       <r>    -2.7918     0.0511     7.9800 </r>
       <r>    -2.6614     0.0105     7.9814 </r>
       <r>    -2.5310     0.0409     7.9867 </r>
       <r>    -2.4006     0.1021     8.0000 </r>
       <r>    -2.2701     0.0000     8.0000 </r>
       <r>    -2.1397     0.0000     8.0000 </r>
       <r>    -2.0093     0.0000     8.0000 </r>
       <r>    -1.8789     0.0001     8.0000 </r>
       <r>    -1.7485     0.1022     8.0133 </r>
       <r>    -1.6181     0.0511     8.0200 </r>
       <r>    -1.4877     0.0119     8.0215 </r>
       <r>    -1.3573     0.0443     8.0273 </r>
       <r>    -1.2269     0.1696     8.0494 </r>
       <r>    -1.0965     0.2308     8.0795 </r>
       <r>    -0.9661     0.1056     8.0933 </r>
       <r>    -0.8357     0.0523     8.1002 </r>
       <r>    -0.7053     0.3008     8.1394 </r>
       <r>    -0.5749     0.5365     8.2093 </r>
       <r>    -0.4445     0.5588     8.2823 </r>
       <r>    -0.3141     0.4740     8.3441 </r>
       <r>    -0.1837     0.4078     8.3973 </r>
       <r>    -0.0533     0.4584     8.4571 </r>
       <r>     0.0771     0.3353     8.5008 </r>
       <r>     0.2076     0.5198     8.5686 </r>
       <r>     0.3380     0.1956     8.5941 </r>
       <r>     0.4684     0.2105     8.6216 </r>
       <r>     0.5988     0.2800     8.6581 </r>
       <r>     0.7292     0.2903     8.6959 </r>
       <r>     0.8596     0.2982     8.7348 </r>
       <r>     0.9900     0.2721     8.7703 </r>
       <r>     1.1204     0.5546     8.8427 </r>
       <r>     1.2508     0.3438     8.8877 </r>
       <r>     1.3812     0.2138     8.9156 </r>
       <r>     1.5116     0.6108     8.9952 </r>
       <r>     1.6420     0.4175     9.0497 </r>
       <r>     1.7724     0.6584     9.1356 </r>
       <r>     1.9028     0.3062     9.1756 </r>
       <r>     2.0332     0.4814     9.2385 </r>
       <r>     2.1636     0.8136     9.3448 </r>
       <r>     2.2940     0.4029     9.3974 </r>
       <r>     2.4244     0.6642     9.4840 </r>
       <r>     2.5549     1.0232     9.6175 </r>
       <r>     2.6853     1.0797     9.7583 </r>
       <r>     2.8157     0.8443     9.8685 </r>
       <r>     2.9461     0.3924     9.9198 </r>
       <r>     3.0765     1.0057    10.0509 </r>
       <r>     3.2069     1.0206    10.1841 </r>
       <r>     3.3373     0.5948    10.2616 </r>
       <r>     3.4677     1.0047    10.3927 </r>
       <r>     3.5981     0.8279    10.5008 </r>
       <r>     3.7285     0.8505    10.6118 </r>
       <r>     3.8589     0.7354    10.7078 </r>
       <r>     3.9893     0.9445    10.8310 </r>
       <r>     4.1197     0.7337    10.9267 </r>
       <r>     4.2501     0.8005    11.0311 </r>
       <r>     4.3805     0.7397    11.1276 </r>
       <r>     4.5109     1.1467    11.2771 </r>
       <r>     4.6413     0.9765    11.4045 </r>
       <r>     4.7717     1.2603    11.5690 </r>
       <r>     4.9022     0.7282    11.6642 </r>
       <r>     5.0326     0.7754    11.7653 </r>
       <r>     5.1630     1.4063    11.9489 </r>
       <r>     5.2934     1.5459    12.1505 </r>
       <r>     5.4238     1.5668    12.3550 </r>
       <r>     5.5542     1.8112    12.5912 </r>
       <r>     5.6846     1.2315    12.7521 </r>
       <r>     5.8150     1.4478    12.9410 </r>
       <r>     5.9454     1.7012    13.1629 </r>
       <r>     6.0758     1.8843    13.4088 </r>
       <r>     6.2062     2.3969    13.7214 </r>
       <r>     6.3366     1.7866    13.9545 </r>
       <r>     6.4670     2.0786    14.2258 </r>
       <r>     6.5974     2.8020    14.5914 </r>
       <r>     6.7278     1.5219    14.7901 </r>
       <r>     6.8582     2.1284    15.0677 </r>
       <r>     6.9886     2.1421    15.3474 </r>
       <r>     7.1190     1.9818    15.6062 </r>
       <r>     7.2494     1.6506    15.8215 </r>
       <r>     7.3799     1.4497    16.0108 </r>
       <r>     7.5103     1.2928    16.1794 </r>
       <r>     7.6407     2.1831    16.4642 </r>
       <r>     7.7711     1.6435    16.6786 </r>
       <r>     7.9015     1.7735    16.9100 </r>
       <r>     8.0319     1.5644    17.1142 </r>
       <r>     8.1623     1.4564    17.3043 </r>
       <r>     8.2927     1.4326    17.4912 </r>
       <r>     8.4231     2.2515    17.7850 </r>
       <r>     8.5535     1.9676    18.0418 </r>
       <r>     8.6839     2.3935    18.3539 </r>
       <r>     8.8143     1.6525    18.5696 </r>
       <r>     8.9447     1.4826    18.7629 </r>
       <r>     9.0751     1.3537    18.9395 </r>
       <r>     9.2055     1.8566    19.1818 </r>
       <r>     9.3359     1.5285    19.3811 </r>
       <r>     9.4663     1.6856    19.6009 </r>
       <r>     9.5967     1.6710    19.8190 </r>
       <r>     9.7272     1.2367    19.9805 </r>
       <r>     9.8576     1.7643    20.2107 </r>
       <r>     9.9880     1.6320    20.4237 </r>
       <r>    10.1184     1.0779    20.5647 </r>
       <r>    10.2488     1.7165    20.7887 </r>
       <r>    10.3792     1.5682    20.9934 </r>
       <r>    10.5096     1.7082    21.2162 </r>
       <r>    10.6400     1.8414    21.4565 </r>
       <r>    10.7704     1.7965    21.6913 </r>
       <r>    10.9008     2.0119    21.9538 </r>
       <r>    11.0312     1.7137    22.1774 </r>
       <r>    11.1616     1.4354    22.3647 </r>
       <r>    11.2920     1.5713    22.5699 </r>
       <r>    11.4224     0.9062    22.6881 </r>
       <r>    11.5528     1.5504    22.8905 </r>
       <r>    11.6832     1.6218    23.1023 </r>
       <r>    11.8136     0.9224    23.2227 </r>
       <r>    11.9440     1.4719    23.4147 </r>
       <r>    12.0745     1.1259    23.5616 </r>
       <r>    12.2049     0.7220    23.6558 </r>
       <r>    12.3353     0.5697    23.7301 </r>
       <r>    12.4657     0.3692    23.7783 </r>
       <r>    12.5961     0.3792    23.8279 </r>
       <r>    12.7265     0.4884    23.8916 </r>
       <r>    12.8569     0.2362    23.9224 </r>
       <r>    12.9873     0.2339    23.9529 </r>
       <r>    13.1177     0.0106    23.9543 </r>
       <r>    13.2481     0.1972    23.9800 </r>
       <r>    13.3785     0.0000    23.9800 </r>
       <r>    13.5089     0.0045    23.9806 </r>
       <r>    13.6393     0.0978    23.9933 </r>
       <r>    13.7697     0.0511    24.0000 </r>
       <r>    13.9001     0.0000    24.0000 </r>
       <r>    14.0305     0.0000    24.0000 </r>
       <r>    14.1609     0.0000    24.0000 </r>
       <r>    14.2913     0.0000    24.0000 </r>
       <r>    14.4217     0.0000    24.0000 </r>
       <r>    14.5522     0.0000    24.0000 </r>
       <r>    14.6826     0.0000    24.0000 </r>
       <r>    14.8130     0.0000    24.0000 </r>
       <r>    14.9434     0.0000    24.0000 </r>
       <r>    15.0738     0.0000    24.0000 </r>
       <r>    15.2042     0.0000    24.0000 </r>
       <r>    15.3346     0.0000    24.0000 </r>
       <r>    15.4650     0.0000    24.0000 </r>
      </set>
     </set>
    </array>
   </total>
  </dos>
 </calculation>
 <structure name="finalpos" >
  <crystal>
   <varray name="basis" >
    <v>       2.42129500       0.00000000       0.00000000 </v>
    <v>      -1.21064700       2.13736100       0.00000000 </v>
    <v>       0.00000000       0.00000000      15.00000000 </v>
   </varray>
   <i name="volume">     77.62772254 </i>
   <varray name="rec_basis" >
    <v>       0.41300213       0.23393324       0.00000000 </v>
    <v>       0.00000000       0.46786668       0.00000000 </v>
    <v>       0.00000000       0.00000000       0.06666667 </v>
   </varray>
  </crystal>
  <varray name="positions" >
   <v>       0.00020369       0.00040738       0.50000000 </v>
   <v>       0.33312931       0.66625962       0.50000000 </v>
  </varray>
 </structure>
</modeling>
