<?xml version="1.0" encoding="ISO-8859-1"?>
<modeling>
 <generator>
  <i name="program" type="string">vasp </i>
  <i name="version" type="string">5.4.1  </i>
  <i name="subversion" type="string">24Jun15 (build Nov 20 2020 10:29:34) complex                          parallel </i>
  <i name="platform" type="string">IFC91_ompi </i>
  <i name="date" type="string">2021 09 09 </i>
  <i name="time" type="string">14:58:16 </i>
 </generator>
 <incar>
  <i type="string" name="PREC">a</i>
  <i type="string" name="ALGO"> Normal</i>
  <i type="int" name="ISPIN">     1</i>
  <i type="int" name="ICHARG">     2</i>
  <i type="int" name="NELM">   250</i>
  <i type="int" name="NELMDL">    -5</i>
  <i type="int" name="NELMIN">     6</i>
  <i type="int" name="IBRION">     2</i>
  <i name="EDIFF">      0.00001000</i>
  <i name="EDIFFG">     -0.01000000</i>
  <i type="int" name="NSW">   200</i>
  <i type="int" name="ISIF">     2</i>
  <i name="ENCUT">    520.00000000</i>
  <i name="POTIM">      0.30000000</i>
  <i type="logical" name="LREAL"> F  </i>
  <i type="int" name="ISMEAR">     0</i>
  <i name="SIGMA">      0.02000000</i>
  <i type="logical" name="LWAVE"> F  </i>
  <i type="logical" name="LCHARG"> F  </i>
  <i type="logical" name="LAECHG"> F  </i>
  <v type="int" name="KPOINT_BSE">    -1     0     0     0</v>
  <i type="int" name="NELM">   250</i>
 </incar>
 <kpoints>
  <generation param="Gamma">
   <v type="int" name="divisions">      15       13        1 </v>
   <v name="usershift">      0.00000000       0.00000000       0.00000000 </v>
   <v name="genvec1">      0.06666667       0.00000000       0.00000000 </v>
   <v name="genvec2">     -0.00000000       0.07692308       0.00000000 </v>
   <v name="genvec3">      0.00000000       0.00000000       1.00000000 </v>
   <v name="shift">      0.00000000       0.00000000       0.00000000 </v>
  </generation>
  <varray name="kpointlist" >
   <v>       0.00000000       0.00000000       0.00000000 </v>
   <v>       0.06666667       0.00000000       0.00000000 </v>
   <v>       0.13333333       0.00000000       0.00000000 </v>
   <v>       0.20000000       0.00000000       0.00000000 </v>
   <v>       0.26666667       0.00000000       0.00000000 </v>
   <v>       0.33333333       0.00000000       0.00000000 </v>
   <v>       0.40000000       0.00000000       0.00000000 </v>
   <v>       0.46666667       0.00000000       0.00000000 </v>
   <v>      -0.00000000       0.07692308       0.00000000 </v>
   <v>       0.06666667       0.07692308       0.00000000 </v>
   <v>       0.13333333       0.07692308       0.00000000 </v>
   <v>       0.20000000       0.07692308       0.00000000 </v>
   <v>       0.26666667       0.07692308       0.00000000 </v>
   <v>       0.33333333       0.07692308       0.00000000 </v>
   <v>       0.40000000       0.07692308       0.00000000 </v>
   <v>       0.46666667       0.07692308       0.00000000 </v>
   <v>      -0.46666667       0.07692308       0.00000000 </v>
   <v>      -0.40000000       0.07692308       0.00000000 </v>
   <v>      -0.33333333       0.07692308       0.00000000 </v>
   <v>      -0.26666667       0.07692308       0.00000000 </v>
   <v>      -0.20000000       0.07692308       0.00000000 </v>
   <v>      -0.13333333       0.07692308       0.00000000 </v>
   <v>      -0.06666667       0.07692308       0.00000000 </v>
   <v>      -0.00000000       0.15384615       0.00000000 </v>
   <v>       0.06666667       0.15384615       0.00000000 </v>
   <v>       0.13333333       0.15384615       0.00000000 </v>
   <v>       0.20000000       0.15384615       0.00000000 </v>
   <v>       0.26666667       0.15384615       0.00000000 </v>
   <v>       0.33333333       0.15384615       0.00000000 </v>
   <v>       0.40000000       0.15384615       0.00000000 </v>
   <v>       0.46666667       0.15384615       0.00000000 </v>
   <v>      -0.46666667       0.15384615       0.00000000 </v>
   <v>      -0.40000000       0.15384615       0.00000000 </v>
   <v>      -0.33333333       0.15384615       0.00000000 </v>
   <v>      -0.26666667       0.15384615       0.00000000 </v>
   <v>      -0.20000000       0.15384615       0.00000000 </v>
   <v>      -0.13333333       0.15384615       0.00000000 </v>
   <v>      -0.06666667       0.15384615       0.00000000 </v>
   <v>      -0.00000000       0.23076923       0.00000000 </v>
   <v>       0.06666667       0.23076923       0.00000000 </v>
   <v>       0.13333333       0.23076923       0.00000000 </v>
   <v>       0.20000000       0.23076923       0.00000000 </v>
   <v>       0.26666667       0.23076923       0.00000000 </v>
   <v>       0.33333333       0.23076923       0.00000000 </v>
   <v>       0.40000000       0.23076923       0.00000000 </v>
   <v>       0.46666667       0.23076923       0.00000000 </v>
   <v>      -0.46666667       0.23076923       0.00000000 </v>
   <v>      -0.40000000       0.23076923       0.00000000 </v>
   <v>      -0.33333333       0.23076923       0.00000000 </v>
   <v>      -0.26666667       0.23076923       0.00000000 </v>
   <v>      -0.20000000       0.23076923       0.00000000 </v>
   <v>      -0.13333333       0.23076923       0.00000000 </v>
   <v>      -0.06666667       0.23076923       0.00000000 </v>
   <v>      -0.00000000       0.30769231       0.00000000 </v>
   <v>       0.06666667       0.30769231       0.00000000 </v>
   <v>       0.13333333       0.30769231       0.00000000 </v>
   <v>       0.20000000       0.30769231       0.00000000 </v>
   <v>       0.26666667       0.30769231       0.00000000 </v>
   <v>       0.33333333       0.30769231       0.00000000 </v>
   <v>       0.40000000       0.30769231       0.00000000 </v>
   <v>       0.46666667       0.30769231       0.00000000 </v>
   <v>      -0.46666667       0.30769231       0.00000000 </v>
   <v>      -0.40000000       0.30769231       0.00000000 </v>
   <v>      -0.33333333       0.30769231       0.00000000 </v>
   <v>      -0.26666667       0.30769231       0.00000000 </v>
   <v>      -0.20000000       0.30769231       0.00000000 </v>
   <v>      -0.13333333       0.30769231       0.00000000 </v>
   <v>      -0.06666667       0.30769231       0.00000000 </v>
   <v>      -0.00000000       0.38461538       0.00000000 </v>
   <v>       0.06666667       0.38461538       0.00000000 </v>
   <v>       0.13333333       0.38461538       0.00000000 </v>
   <v>       0.20000000       0.38461538       0.00000000 </v>
   <v>       0.26666667       0.38461538       0.00000000 </v>
   <v>       0.33333333       0.38461538       0.00000000 </v>
   <v>       0.40000000       0.38461538       0.00000000 </v>
   <v>       0.46666667       0.38461538       0.00000000 </v>
   <v>      -0.46666667       0.38461538       0.00000000 </v>
   <v>      -0.40000000       0.38461538       0.00000000 </v>
   <v>      -0.33333333       0.38461538       0.00000000 </v>
   <v>      -0.26666667       0.38461538       0.00000000 </v>
   <v>      -0.20000000       0.38461538       0.00000000 </v>
   <v>      -0.13333333       0.38461538       0.00000000 </v>
   <v>      -0.06666667       0.38461538       0.00000000 </v>
   <v>      -0.00000000       0.46153846       0.00000000 </v>
   <v>       0.06666667       0.46153846       0.00000000 </v>
   <v>       0.13333333       0.46153846       0.00000000 </v>
   <v>       0.20000000       0.46153846       0.00000000 </v>
   <v>       0.26666667       0.46153846       0.00000000 </v>
   <v>       0.33333333       0.46153846       0.00000000 </v>
   <v>       0.40000000       0.46153846       0.00000000 </v>
   <v>       0.46666667       0.46153846       0.00000000 </v>
   <v>      -0.46666667       0.46153846       0.00000000 </v>
   <v>      -0.40000000       0.46153846       0.00000000 </v>
   <v>      -0.33333333       0.46153846       0.00000000 </v>
   <v>      -0.26666667       0.46153846       0.00000000 </v>
   <v>      -0.20000000       0.46153846       0.00000000 </v>
   <v>      -0.13333333       0.46153846       0.00000000 </v>
   <v>      -0.06666667       0.46153846       0.00000000 </v>
  </varray>
  <varray name="weights" >
   <v>       0.00512821 </v>
   <v>       0.01025641 </v>
   <v>       0.01025641 </v>
   <v>       0.01025641 </v>
   <v>       0.01025641 </v>
   <v>       0.01025641 </v>
   <v>       0.01025641 </v>
   <v>       0.01025641 </v>
   <v>       0.01025641 </v>
   <v>       0.01025641 </v>
   <v>       0.01025641 </v>
   <v>       0.01025641 </v>
   <v>       0.01025641 </v>
   <v>       0.01025641 </v>
   <v>       0.01025641 </v>
   <v>       0.01025641 </v>
   <v>       0.01025641 </v>
   <v>       0.01025641 </v>
   <v>       0.01025641 </v>
   <v>       0.01025641 </v>
   <v>       0.01025641 </v>
   <v>       0.01025641 </v>
   <v>       0.01025641 </v>
   <v>       0.01025641 </v>
   <v>       0.01025641 </v>
   <v>       0.01025641 </v>
   <v>       0.01025641 </v>
   <v>       0.01025641 </v>
   <v>       0.01025641 </v>
   <v>       0.01025641 </v>
   <v>       0.01025641 </v>
   <v>       0.01025641 </v>
   <v>       0.01025641 </v>
   <v>       0.01025641 </v>
   <v>       0.01025641 </v>
   <v>       0.01025641 </v>
   <v>       0.01025641 </v>
   <v>       0.01025641 </v>
   <v>       0.01025641 </v>
   <v>       0.01025641 </v>
   <v>       0.01025641 </v>
   <v>       0.01025641 </v>
   <v>       0.01025641 </v>
   <v>       0.01025641 </v>
   <v>       0.01025641 </v>
   <v>       0.01025641 </v>
   <v>       0.01025641 </v>
   <v>       0.01025641 </v>
   <v>       0.01025641 </v>
   <v>       0.01025641 </v>
   <v>       0.01025641 </v>
   <v>       0.01025641 </v>
   <v>       0.01025641 </v>
   <v>       0.01025641 </v>
   <v>       0.01025641 </v>
   <v>       0.01025641 </v>
   <v>       0.01025641 </v>
   <v>       0.01025641 </v>
   <v>       0.01025641 </v>
   <v>       0.01025641 </v>
   <v>       0.01025641 </v>
   <v>       0.01025641 </v>
   <v>       0.01025641 </v>
   <v>       0.01025641 </v>
   <v>       0.01025641 </v>
   <v>       0.01025641 </v>
   <v>       0.01025641 </v>
   <v>       0.01025641 </v>
   <v>       0.01025641 </v>
   <v>       0.01025641 </v>
   <v>       0.01025641 </v>
   <v>       0.01025641 </v>
   <v>       0.01025641 </v>
   <v>       0.01025641 </v>
   <v>       0.01025641 </v>
   <v>       0.01025641 </v>
   <v>       0.01025641 </v>
   <v>       0.01025641 </v>
   <v>       0.01025641 </v>
   <v>       0.01025641 </v>
   <v>       0.01025641 </v>
   <v>       0.01025641 </v>
   <v>       0.01025641 </v>
   <v>       0.01025641 </v>
   <v>       0.01025641 </v>
   <v>       0.01025641 </v>
   <v>       0.01025641 </v>
   <v>       0.01025641 </v>
   <v>       0.01025641 </v>
   <v>       0.01025641 </v>
   <v>       0.01025641 </v>
   <v>       0.01025641 </v>
   <v>       0.01025641 </v>
   <v>       0.01025641 </v>
   <v>       0.01025641 </v>
   <v>       0.01025641 </v>
   <v>       0.01025641 </v>
   <v>       0.01025641 </v>
  </varray>
 </kpoints>
 <parameters>
  <separator name="general" >
   <i type="string" name="SYSTEM">unknown system</i>
   <i type="logical" name="LCOMPAT"> F  </i>
  </separator>
  <separator name="electronic" >
   <i type="string" name="PREC">a</i>
   <i name="ENMAX">    520.00000000</i>
   <i name="ENAUG">    531.35600000</i>
   <i name="EDIFF">      0.00001000</i>
   <i type="int" name="IALGO">    38</i>
   <i type="int" name="IWAVPR">    11</i>
   <i type="int" name="NBANDS">    32</i>
   <i name="NELECT">     52.00000000</i>
   <i type="int" name="TURBO">     0</i>
   <i type="int" name="IRESTART">     0</i>
   <i type="int" name="NREBOOT">     0</i>
   <i type="int" name="NMIN">     0</i>
   <i name="EREF">      0.00000000</i>
   <separator name="electronic smearing" >
    <i type="int" name="ISMEAR">     0</i>
    <i name="SIGMA">      0.02000000</i>
    <i name="KSPACING">      0.50000000</i>
    <i type="logical" name="KGAMMA"> T  </i>
   </separator>
   <separator name="electronic projectors" >
    <i type="logical" name="LREAL"> F  </i>
    <v name="ROPT">      0.00000000      0.00000000</v>
    <i type="int" name="LMAXPAW">  -100</i>
    <i type="int" name="LMAXMIX">     2</i>
    <i type="logical" name="NLSPLINE"> F  </i>
   </separator>
   <separator name="electronic startup" >
    <i type="int" name="ISTART">     0</i>
    <i type="int" name="ICHARG">     2</i>
    <i type="int" name="INIWAV">     1</i>
   </separator>
   <separator name="electronic spin" >
    <i type="int" name="ISPIN">     1</i>
    <i type="logical" name="LNONCOLLINEAR"> F  </i>
    <v name="MAGMOM">      1.00000000      1.00000000      1.00000000      1.00000000      1.00000000      1.00000000</v>
    <i name="NUPDOWN">     -1.00000000</i>
    <i type="logical" name="LSORBIT"> F  </i>
    <v name="SAXIS">      0.00000000      0.00000000      1.00000000</v>
    <i type="logical" name="LSPIRAL"> F  </i>
    <v name="QSPIRAL">      0.00000000      0.00000000      0.00000000</v>
    <i type="logical" name="LZEROZ"> F  </i>
   </separator>
   <separator name="electronic exchange-correlation" >
    <i type="logical" name="LASPH"> F  </i>
    <i type="logical" name="LMETAGGA"> F  </i>
   </separator>
   <separator name="electronic convergence" >
    <i type="int" name="NELM">   250</i>
    <i type="int" name="NELMDL">    -5</i>
    <i type="int" name="NELMIN">     6</i>
    <i name="ENINI">    520.00000000</i>
    <separator name="electronic convergence detail" >
     <i type="logical" name="LDIAG"> T  </i>
     <i type="logical" name="LSUBROT"> F  </i>
     <i name="WEIMIN">      0.00100000</i>
     <i name="EBREAK">      0.00000008</i>
     <i name="DEPER">      0.30000000</i>
     <i type="int" name="NRMM">     4</i>
     <i name="TIME">      0.40000000</i>
    </separator>
   </separator>
   <separator name="electronic mixer" >
    <i name="AMIX">      0.40000000</i>
    <i name="BMIX">      1.00000000</i>
    <i name="AMIN">      0.10000000</i>
    <i name="AMIX_MAG">      1.60000000</i>
    <i name="BMIX_MAG">      1.00000000</i>
    <separator name="electronic mixer details" >
     <i type="int" name="IMIX">     4</i>
     <i type="logical" name="MIXFIRST"> F  </i>
     <i type="int" name="MAXMIX">   -45</i>
     <i name="WC">    100.00000000</i>
     <i type="int" name="INIMIX">     1</i>
     <i type="int" name="MIXPRE">     1</i>
     <i type="int" name="MREMOVE">     5</i>
    </separator>
   </separator>
   <separator name="electronic dipolcorrection" >
    <i type="logical" name="LDIPOL"> F  </i>
    <i type="logical" name="LMONO"> F  </i>
    <i type="int" name="IDIPOL">     0</i>
    <i name="EPSILON">      1.00000000</i>
    <v name="DIPOL">   -100.00000000   -100.00000000   -100.00000000</v>
    <i name="EFIELD">      0.00000000</i>
   </separator>
  </separator>
  <separator name="grids" >
   <i type="int" name="NGX">    36</i>
   <i type="int" name="NGY">    42</i>
   <i type="int" name="NGZ">   140</i>
   <i type="int" name="NGXF">    72</i>
   <i type="int" name="NGYF">    84</i>
   <i type="int" name="NGZF">   280</i>
   <i type="logical" name="ADDGRID"> F  </i>
  </separator>
  <separator name="ionic" >
   <i type="int" name="NSW">   200</i>
   <i type="int" name="IBRION">     2</i>
   <i type="int" name="ISIF">     2</i>
   <i name="PSTRESS">      0.00000000</i>
   <i name="EDIFFG">     -0.01000000</i>
   <i type="int" name="NFREE">     1</i>
   <i name="POTIM">      0.30000000</i>
   <i name="SMASS">     -3.00000000</i>
   <i name="SCALEE">      1.00000000</i>
  </separator>
  <separator name="ionic md" >
   <i name="TEBEG">      0.00010000</i>
   <i name="TEEND">      0.00010000</i>
   <i type="int" name="NBLOCK">     1</i>
   <i type="int" name="KBLOCK">   200</i>
   <i type="int" name="NPACO">   256</i>
   <i name="APACO">     16.00000000</i>
  </separator>
  <separator name="symmetry" >
   <i type="int" name="ISYM">     2</i>
   <i name="SYMPREC">      0.00001000</i>
  </separator>
  <separator name="dos" >
   <i type="logical" name="LORBIT"> F  </i>
   <v name="RWIGS">     -1.00000000     -1.00000000</v>
   <i type="int" name="NEDOS">   301</i>
   <i name="EMIN">     10.00000000</i>
   <i name="EMAX">    -10.00000000</i>
   <i name="EFERMI">      0.00000000</i>
  </separator>
  <separator name="writing" >
   <i type="int" name="NWRITE">     2</i>
   <i type="logical" name="LWAVE"> F  </i>
   <i type="logical" name="LCHARG"> F  </i>
   <i type="logical" name="LPARD"> F  </i>
   <i type="logical" name="LVTOT"> F  </i>
   <i type="logical" name="LVHAR"> F  </i>
   <i type="logical" name="LELF"> F  </i>
   <i type="logical" name="LOPTICS"> F  </i>
   <v name="STM">      0.00000000      0.00000000      0.00000000      0.00000000      0.00000000      0.00000000      0.00000000</v>
  </separator>
  <separator name="performance" >
   <i type="int" name="NPAR">     4</i>
   <i type="int" name="NSIM">     4</i>
   <i type="int" name="NBLK">    -1</i>
   <i type="logical" name="LPLANE"> T  </i>
   <i type="logical" name="LSCALAPACK"> T  </i>
   <i type="logical" name="LSCAAWARE"> F  </i>
   <i type="logical" name="LSCALU"> F  </i>
   <i type="logical" name="LASYNC"> F  </i>
   <i type="logical" name="LORBITALREAL"> F  </i>
  </separator>
  <separator name="miscellaneous" >
   <i type="int" name="IDIOT">     3</i>
   <i type="logical" name="LMUSIC"> F  </i>
   <v name="POMASS">     72.61000000     78.96000000</v>
   <v name="DARWINR">      0.00000000      0.00000000</v>
   <v name="DARWINV">      1.00000000      1.00000000</v>
   <i type="logical" name="LCORR"> T  </i>
  </separator>
  <i type="logical" name="GGA_COMPAT"> T  </i>
  <i type="logical" name="LBERRY"> F  </i>
  <i type="int" name="ICORELEVEL">     0</i>
  <i type="logical" name="LDAU"> F  </i>
  <i type="int" name="I_CONSTRAINED_M">     0</i>
  <separator name="electronic exchange-correlation" >
   <i type="string" name="GGA">--</i>
   <i type="int" name="VOSKOWN">     0</i>
   <i type="logical" name="LHFCALC"> F  </i>
   <i type="string" name="PRECFOCK"></i>
   <i type="logical" name="LSYMGRAD"> F  </i>
   <i type="logical" name="LHFONE"> F  </i>
   <i type="logical" name="LRHFCALC"> F  </i>
   <i type="logical" name="LTHOMAS"> F  </i>
   <i type="logical" name="LMODELHF"> F  </i>
   <i name="ENCUT4O">     -1.00000000</i>
   <i type="int" name="EXXOEP">     0</i>
   <i type="int" name="FOURORBIT">     0</i>
   <i name="AEXX">      0.00000000</i>
   <i name="HFALPHA">      0.00000000</i>
   <i name="MCALPHA">      0.00000000</i>
   <i name="ALDAX">      1.00000000</i>
   <i name="AGGAX">      1.00000000</i>
   <i name="ALDAC">      1.00000000</i>
   <i name="AGGAC">      1.00000000</i>
   <i type="int" name="NKREDX">     1</i>
   <i type="int" name="NKREDY">     1</i>
   <i type="int" name="NKREDZ">     1</i>
   <i type="logical" name="SHIFTRED"> F  </i>
   <i type="logical" name="ODDONLY"> F  </i>
   <i type="logical" name="EVENONLY"> F  </i>
   <i type="int" name="LMAXFOCK">     0</i>
   <i type="int" name="NMAXFOCKAE">     0</i>
   <i type="logical" name="LFOCKAEDFT"> F  </i>
   <i name="HFSCREEN">      0.00000000</i>
   <i name="HFSCREENC">      0.00000000</i>
   <i type="int" name="NBANDSGWLOW">     0</i>
  </separator>
  <separator name="vdW DFT" >
   <i type="logical" name="LUSE_VDW"> F  </i>
   <i name="Zab_VDW">     -0.84910000</i>
   <i name="PARAM1">      0.12340000</i>
   <i name="PARAM2">      1.00000000</i>
   <i name="PARAM3">      0.00000000</i>
  </separator>
  <separator name="model GW" >
   <i type="int" name="MODEL_GW">     0</i>
   <i name="MODEL_EPS0">     49.40578253</i>
   <i name="MODEL_ALPHA">      1.00000000</i>
  </separator>
  <separator name="linear response parameters" >
   <i type="logical" name="LEPSILON"> F  </i>
   <i type="logical" name="LRPA"> F  </i>
   <i type="logical" name="LNABLA"> F  </i>
   <i type="logical" name="LVEL"> F  </i>
   <i type="int" name="KINTER">     0</i>
   <i name="CSHIFT">      0.10000000</i>
   <i name="OMEGAMAX">     -1.00000000</i>
   <i name="DEG_THRESHOLD">      0.00200000</i>
  </separator>
  <separator name="orbital magnetization" >
   <i type="logical" name="NUCIND"> F  </i>
   <v name="MAGPOS">      0.00000000      0.00000000      0.00000000</v>
   <i type="logical" name="LNICSALL"> T  </i>
   <i type="logical" name="ORBITALMAG"> F  </i>
   <i type="logical" name="LMAGBLOCH"> F  </i>
   <i type="logical" name="LCHIMAG"> F  </i>
   <i type="logical" name="LGAUGE"> T  </i>
   <i type="int" name="MAGATOM">     0</i>
   <v name="MAGDIPOL">      0.00000000      0.00000000      0.00000000</v>
   <v name="AVECCONST">      0.00000000      0.00000000      0.00000000</v>
  </separator>
  <separator name="response functions" >
   <i type="logical" name="LADDER"> F  </i>
   <i type="logical" name="LFXC"> F  </i>
   <i type="logical" name="LHARTREE"> T  </i>
   <i type="int" name="IBSE">     0</i>
   <v type="int" name="KPOINT">    -1     0     0     0</v>
   <i type="logical" name="LTCTE"> F  </i>
   <i type="logical" name="LTETE"> F  </i>
   <i type="logical" name="LTRIPLET"> F  </i>
   <i type="logical" name="LFXCEPS"> F  </i>
   <i type="logical" name="LFXHEG"> F  </i>
   <i type="int" name="NATURALO">     0</i>
   <i type="logical" name="L2ORDER"> F  </i>
   <i type="logical" name="LUSEW"> F  </i>
   <i name="ENCUTGW">     -2.00000000</i>
   <i name="ENCUTGWSOFT">     -2.00000000</i>
   <i name="ENCUTLF">     -1.00000000</i>
   <i type="int" name="LMAXMP2">    -1</i>
   <i name="SCISSOR">      0.00000000</i>
   <i type="int" name="NOMEGA">     0</i>
   <i type="int" name="NOMEGAR">     0</i>
   <i type="int" name="NBANDSGW">    -1</i>
   <i type="int" name="NBANDSO">    -1</i>
   <i type="int" name="NBANDSV">    -1</i>
   <i type="int" name="NELM">   250</i>
   <i type="int" name="NELMHF">     1</i>
   <i type="int" name="DIM">     3</i>
   <i type="int" name="ANTIRES">     0</i>
   <i name="OMEGAMAX">    -30.00000000</i>
   <i name="OMEGAMIN">    -30.00000000</i>
   <i name="OMEGATL">   -200.00000000</i>
   <i type="int" name="OMEGAGRID">     0</i>
   <i name="CSHIFT">     -0.10000000</i>
   <i type="logical" name="SELFENERGY"> F  </i>
   <i type="logical" name="LSPECTRAL"> F  </i>
   <i type="logical" name="LSPECTRALGW"> F  </i>
   <i type="logical" name="LSINGLES"> F  </i>
   <i type="logical" name="LFERMIGW"> F  </i>
   <i type="logical" name="ODDONLYGW"> F  </i>
   <i type="logical" name="EVENONLYGW"> F  </i>
   <i type="int" name="NKREDLFX">     1</i>
   <i type="int" name="NKREDLFY">     1</i>
   <i type="int" name="NKREDLFZ">     1</i>
   <i type="int" name="MAXMEM">  1800</i>
   <i type="int" name="TELESCOPE">     0</i>
   <i type="int" name="TAUPAR">     1</i>
   <i type="int" name="OMEGAPAR">    -1</i>
   <i name="LAMBDA">      1.00000000</i>
  </separator>
  <separator name="External order field" >
   <i name="OFIELD_KAPPA">      0.00000000</i>
   <v name="OFIELD_K">      0.00000000      0.00000000      0.00000000</v>
   <i name="OFIELD_Q6_NEAR">      0.00000000</i>
   <i name="OFIELD_Q6_FAR">      0.00000000</i>
   <i name="OFIELD_A">      0.00000000</i>
  </separator>
 </parameters>
 <atominfo>
  <atoms>       6 </atoms>
  <types>       2 </types>
  <array name="atoms" >
   <dimension dim="1">ion</dimension>
   <field type="string">element</field>
   <field type="int">atomtype</field>
   <set>
    <rc><c>Ge</c><c>   1</c></rc>
    <rc><c>Ge</c><c>   1</c></rc>
    <rc><c>Se</c><c>   2</c></rc>
    <rc><c>Se</c><c>   2</c></rc>
    <rc><c>Se</c><c>   2</c></rc>
    <rc><c>Se</c><c>   2</c></rc>
   </set>
  </array>
  <array name="atomtypes" >
   <dimension dim="1">type</dimension>
   <field type="int">atomspertype</field>
   <field type="string">element</field>
   <field>mass</field>
   <field>valence</field>
   <field type="string">pseudopotential</field>
   <set>
    <rc><c>   2</c><c>Ge</c><c>     72.61000000</c><c>     14.00000000</c><c>  PAW_PBE Ge_d 03Jul2007                </c></rc>
    <rc><c>   4</c><c>Se</c><c>     78.96000000</c><c>      6.00000000</c><c>  PAW_PBE Se 06Sep2000                  </c></rc>
   </set>
  </array>
 </atominfo>
 <structure name="initialpos" >
  <crystal>
   <varray name="basis" >
    <v>       4.90583200       0.04906300       0.00000000 </v>
    <v>       0.05571500       5.57092300       0.00000000 </v>
    <v>       0.00000000       0.00000000      18.07929100 </v>
   </varray>
   <i name="volume">    494.05782526 </i>
   <varray name="rec_basis" >
    <v>       0.20385941      -0.00203881       0.00000000 </v>
    <v>      -0.00179539       0.17952142       0.00000000 </v>
    <v>       0.00000000       0.00000000       0.05531190 </v>
   </varray>
  </crystal>
  <varray name="positions" >
   <v>       0.50000000       0.50000000       0.50000000 </v>
   <v>       0.00000000       0.00000000       0.50000000 </v>
   <v>       0.25000000       0.25000000       0.41502600 </v>
   <v>       0.75000000       0.75000000       0.41502600 </v>
   <v>       0.75000000       0.25000000       0.58497400 </v>
   <v>       0.25000000       0.75000000       0.58497400 </v>
  </varray>
 </structure>
 <calculation>
  <scstep>
   <time name="dav">    2.84    2.84</time>
   <time name="total">    2.88    2.88</time>
   <energy>
    <i name="alphaZ">     46.49463335 </i>
    <i name="ewald">   4983.70355626 </i>
    <i name="hartreedc">  -9770.97702710 </i>
    <i name="XCdc">    142.45219483 </i>
    <i name="pawpsdc">   4514.43351212 </i>
    <i name="pawaedc">  -5329.26418529 </i>
    <i name="eentropy">     -0.00037020 </i>
    <i name="bandstr">   -370.87503276 </i>
    <i name="atom">   6220.98622430 </i>
    <i name="e_fr_energy">    436.95350551 </i>
    <i name="e_wo_entrp">    436.95387572 </i>
    <i name="e_0_energy">    436.95369062 </i>
   </energy>
  </scstep>
  <scstep>
   <time name="dav">    3.03    3.03</time>
   <time name="total">    3.03    3.03</time>
   <energy>
    <i name="e_fr_energy">     45.41806119 </i>
    <i name="e_wo_entrp">     45.41817901 </i>
    <i name="e_0_energy">     45.41812010 </i>
   </energy>
  </scstep>
  <scstep>
   <time name="dav">    3.26    3.26</time>
   <time name="total">    3.26    3.26</time>
   <energy>
    <i name="e_fr_energy">    -21.49005878 </i>
    <i name="e_wo_entrp">    -21.49005878 </i>
    <i name="e_0_energy">    -21.49005878 </i>
   </energy>
  </scstep>
  <scstep>
   <time name="dav">    2.97    2.97</time>
   <time name="total">    2.97    2.97</time>
   <energy>
    <i name="e_fr_energy">    -24.74592946 </i>
    <i name="e_wo_entrp">    -24.74592946 </i>
    <i name="e_0_energy">    -24.74592946 </i>
   </energy>
  </scstep>
  <scstep>
   <time name="dav">    3.48    3.48</time>
   <time name="total">    3.63    3.63</time>
   <energy>
    <i name="e_fr_energy">    -24.85395219 </i>
    <i name="e_wo_entrp">    -24.85395219 </i>
    <i name="e_0_energy">    -24.85395219 </i>
   </energy>
  </scstep>
  <scstep>
   <time name="dav">    3.38    3.38</time>
   <time name="total">    3.55    3.56</time>
   <energy>
    <i name="e_fr_energy">    -24.35296521 </i>
    <i name="e_wo_entrp">    -24.35296521 </i>
    <i name="e_0_energy">    -24.35296521 </i>
   </energy>
  </scstep>
  <scstep>
   <time name="dav">    3.06    3.06</time>
   <time name="total">    3.23    3.23</time>
   <energy>
    <i name="e_fr_energy">    -24.25711429 </i>
    <i name="e_wo_entrp">    -24.25711429 </i>
    <i name="e_0_energy">    -24.25711429 </i>
   </energy>
  </scstep>
  <scstep>
   <time name="dav">    3.24    3.24</time>
   <time name="total">    3.41    3.41</time>
   <energy>
    <i name="e_fr_energy">    -24.25131829 </i>
    <i name="e_wo_entrp">    -24.25131829 </i>
    <i name="e_0_energy">    -24.25131829 </i>
   </energy>
  </scstep>
  <scstep>
   <time name="dav">    3.27    3.27</time>
   <time name="total">    3.44    3.45</time>
   <energy>
    <i name="e_fr_energy">    -24.25078144 </i>
    <i name="e_wo_entrp">    -24.25078144 </i>
    <i name="e_0_energy">    -24.25078144 </i>
   </energy>
  </scstep>
  <scstep>
   <time name="dav">    3.43    3.43</time>
   <time name="total">    3.60    3.60</time>
   <energy>
    <i name="e_fr_energy">    -24.25055054 </i>
    <i name="e_wo_entrp">    -24.25055054 </i>
    <i name="e_0_energy">    -24.25055054 </i>
   </energy>
  </scstep>
  <scstep>
   <time name="dav">    2.81    2.81</time>
   <time name="total">    2.98    2.98</time>
   <energy>
    <i name="e_fr_energy">    -24.25034608 </i>
    <i name="e_wo_entrp">    -24.25034608 </i>
    <i name="e_0_energy">    -24.25034608 </i>
   </energy>
  </scstep>
  <scstep>
   <time name="dav">    2.70    2.70</time>
   <time name="total">    2.87    2.87</time>
   <energy>
    <i name="e_fr_energy">    -24.25046425 </i>
    <i name="e_wo_entrp">    -24.25046425 </i>
    <i name="e_0_energy">    -24.25046425 </i>
   </energy>
  </scstep>
  <scstep>
   <time name="dav">    2.68    2.69</time>
   <time name="total">    2.86    2.86</time>
   <energy>
    <i name="e_fr_energy">    -24.25072773 </i>
    <i name="e_wo_entrp">    -24.25072773 </i>
    <i name="e_0_energy">    -24.25072773 </i>
   </energy>
  </scstep>
  <scstep>
   <time name="dav">    2.54    2.54</time>
   <time name="total">    2.71    2.72</time>
   <energy>
    <i name="e_fr_energy">    -24.25083626 </i>
    <i name="e_wo_entrp">    -24.25083626 </i>
    <i name="e_0_energy">    -24.25083626 </i>
   </energy>
  </scstep>
  <scstep>
   <time name="dav">    2.48    2.48</time>
   <time name="total">    2.65    2.66</time>
   <energy>
    <i name="e_fr_energy">    -24.25089368 </i>
    <i name="e_wo_entrp">    -24.25089368 </i>
    <i name="e_0_energy">    -24.25089368 </i>
   </energy>
  </scstep>
  <scstep>
   <time name="dav">    2.40    2.40</time>
   <time name="total">    2.57    2.57</time>
   <energy>
    <i name="e_fr_energy">    -24.25094111 </i>
    <i name="e_wo_entrp">    -24.25094111 </i>
    <i name="e_0_energy">    -24.25094111 </i>
   </energy>
  </scstep>
  <scstep>
   <time name="dav">    2.27    2.27</time>
   <time name="total">    2.44    2.44</time>
   <energy>
    <i name="e_fr_energy">    -24.25099197 </i>
    <i name="e_wo_entrp">    -24.25099197 </i>
    <i name="e_0_energy">    -24.25099197 </i>
   </energy>
  </scstep>
  <scstep>
   <time name="dav">    2.29    2.29</time>
   <time name="total">    2.46    2.46</time>
   <energy>
    <i name="e_fr_energy">    -24.25103464 </i>
    <i name="e_wo_entrp">    -24.25103464 </i>
    <i name="e_0_energy">    -24.25103464 </i>
   </energy>
  </scstep>
  <scstep>
   <time name="dav">    2.36    2.36</time>
   <time name="total">    2.53    2.53</time>
   <energy>
    <i name="e_fr_energy">    -24.25104555 </i>
    <i name="e_wo_entrp">    -24.25104555 </i>
    <i name="e_0_energy">    -24.25104555 </i>
   </energy>
  </scstep>
  <scstep>
   <time name="dav">    2.29    2.29</time>
   <time name="total">    2.32    2.32</time>
   <energy>
    <i name="alphaZ">     46.49463335 </i>
    <i name="ewald">   4983.70355626 </i>
    <i name="hartreedc">  -9775.51407683 </i>
    <i name="XCdc">    142.99016275 </i>
    <i name="pawpsdc">   5762.55637820 </i>
    <i name="pawaedc">  -6582.68263320 </i>
    <i name="eentropy">     -0.00000000 </i>
    <i name="bandstr">   -822.78529366 </i>
    <i name="atom">   6220.98622430 </i>
    <i name="e_fr_energy">    -24.25104882 </i>
    <i name="e_wo_entrp">    -24.25104882 </i>
    <i name="e_0_energy">    -24.25104882 </i>
   </energy>
  </scstep>
  <structure>
   <crystal>
    <varray name="basis" >
     <v>       4.90583200       0.04906300       0.00000000 </v>
     <v>       0.05571500       5.57092300       0.00000000 </v>
     <v>       0.00000000       0.00000000      18.07929100 </v>
    </varray>
    <i name="volume">    494.05782526 </i>
    <varray name="rec_basis" >
     <v>       0.20385941      -0.00203881       0.00000000 </v>
     <v>      -0.00179539       0.17952142       0.00000000 </v>
     <v>       0.00000000       0.00000000       0.05531190 </v>
    </varray>
   </crystal>
   <varray name="positions" >
    <v>       0.50000000       0.50000000       0.50000000 </v>
    <v>       0.00000000       0.00000000       0.50000000 </v>
    <v>       0.25000000       0.25000000       0.41502600 </v>
    <v>       0.75000000       0.75000000       0.41502600 </v>
    <v>       0.75000000       0.25000000       0.58497400 </v>
    <v>       0.25000000       0.75000000       0.58497400 </v>
   </varray>
  </structure>
  <varray name="forces" >
   <v>       0.00000000       0.00000000      -0.19690165 </v>
   <v>       0.00000000       0.00000000      -0.19690165 </v>
   <v>      -0.00000000       0.00000000       0.09475091 </v>
   <v>       0.00000000      -0.00000000       0.09475091 </v>
   <v>      -0.00000000      -0.00000000       0.10215075 </v>
   <v>       0.00000000       0.00000000       0.10215075 </v>
  </varray>
  <varray name="stress" >
   <v>       0.28145993      -4.10159585       0.00000000 </v>
   <v>      -4.10159588       0.22350945       0.00000000 </v>
   <v>       0.00000000       0.00000000       0.01884624 </v>
  </varray>
  <energy>
   <i name="e_fr_energy">    -24.25104882 </i>
   <i name="e_wo_entrp">    -24.25104882 </i>
   <i name="e_0_energy">     -0.00000000 </i>
  </energy>
  <time name="totalsc">   61.38   61.44</time>
 </calculation>
 <calculation>
  <scstep>
   <time name="dav">    3.05    3.05</time>
   <time name="total">    3.22    3.23</time>
   <energy>
    <i name="alphaZ">     46.49463335 </i>
    <i name="ewald">   4983.32454648 </i>
    <i name="hartreedc">  -9775.16284292 </i>
    <i name="XCdc">    142.98779092 </i>
    <i name="pawpsdc">   5762.54319996 </i>
    <i name="pawaedc">  -6582.66922043 </i>
    <i name="eentropy">     -0.00000000 </i>
    <i name="bandstr">   -822.75670340 </i>
    <i name="atom">   6220.98622430 </i>
    <i name="e_fr_energy">    -24.25237174 </i>
    <i name="e_wo_entrp">    -24.25237174 </i>
    <i name="e_0_energy">    -24.25237174 </i>
   </energy>
  </scstep>
  <scstep>
   <time name="dav">    3.21    3.21</time>
   <time name="total">    3.38    3.38</time>
   <energy>
    <i name="e_fr_energy">    -24.25292828 </i>
    <i name="e_wo_entrp">    -24.25292828 </i>
    <i name="e_0_energy">    -24.25292828 </i>
   </energy>
  </scstep>
  <scstep>
   <time name="dav">    3.43    3.43</time>
   <time name="total">    3.60    3.61</time>
   <energy>
    <i name="e_fr_energy">    -24.25293361 </i>
    <i name="e_wo_entrp">    -24.25293361 </i>
    <i name="e_0_energy">    -24.25293361 </i>
   </energy>
  </scstep>
  <scstep>
   <time name="dav">    2.37    2.37</time>
   <time name="total">    2.54    2.54</time>
   <energy>
    <i name="e_fr_energy">    -24.25292722 </i>
    <i name="e_wo_entrp">    -24.25292722 </i>
    <i name="e_0_energy">    -24.25292722 </i>
   </energy>
  </scstep>
  <scstep>
   <time name="dav">    2.43    2.43</time>
   <time name="total">    2.60    2.60</time>
   <energy>
    <i name="e_fr_energy">    -24.25292485 </i>
    <i name="e_wo_entrp">    -24.25292485 </i>
    <i name="e_0_energy">    -24.25292485 </i>
   </energy>
  </scstep>
  <scstep>
   <time name="dav">    2.28    2.28</time>
   <time name="total">    2.31    2.32</time>
   <energy>
    <i name="alphaZ">     46.49463335 </i>
    <i name="ewald">   4983.32454648 </i>
    <i name="hartreedc">  -9775.16000063 </i>
    <i name="XCdc">    142.98790916 </i>
    <i name="pawpsdc">   5761.48975654 </i>
    <i name="pawaedc">  -6581.60899105 </i>
    <i name="eentropy">     -0.00000000 </i>
    <i name="bandstr">   -822.76700432 </i>
    <i name="atom">   6220.98622430 </i>
    <i name="e_fr_energy">    -24.25292617 </i>
    <i name="e_wo_entrp">    -24.25292617 </i>
    <i name="e_0_energy">    -24.25292617 </i>
   </energy>
  </scstep>
  <structure>
   <crystal>
    <varray name="basis" >
     <v>       4.90583200       0.04906300       0.00000000 </v>
     <v>       0.05571500       5.57092300       0.00000000 </v>
     <v>       0.00000000       0.00000000      18.07929100 </v>
    </varray>
    <i name="volume">    494.05782526 </i>
    <varray name="rec_basis" >
     <v>       0.20385941      -0.00203881       0.00000000 </v>
     <v>      -0.00179539       0.17952142       0.00000000 </v>
     <v>       0.00000000       0.00000000       0.05531190 </v>
    </varray>
   </crystal>
   <varray name="positions" >
    <v>       0.50000000       0.50000000       0.49968475 </v>
    <v>       0.00000000       0.00000000       0.49968475 </v>
    <v>       0.25000000       0.25000000       0.41517770 </v>
    <v>       0.75000000       0.75000000       0.41517770 </v>
    <v>       0.75000000       0.25000000       0.58513755 </v>
    <v>       0.25000000       0.75000000       0.58513755 </v>
   </varray>
  </structure>
  <varray name="forces" >
   <v>      -0.00000000      -0.00000000      -0.02098031 </v>
   <v>      -0.00000000       0.00000000      -0.02098031 </v>
   <v>       0.00000000      -0.00000000       0.01105297 </v>
   <v>       0.00000000      -0.00000000       0.01105297 </v>
   <v>       0.00000000      -0.00000000       0.00992734 </v>
   <v>       0.00000000      -0.00000000       0.00992734 </v>
  </varray>
  <varray name="stress" >
   <v>       0.24200361      -3.54917950       0.00000000 </v>
   <v>      -3.54917957       0.17539095       0.00000000 </v>
   <v>       0.00000000       0.00000000      -0.07342917 </v>
  </varray>
  <energy>
   <i name="e_fr_energy">    -24.25292617 </i>
   <i name="e_wo_entrp">    -24.25292617 </i>
   <i name="e_0_energy">     -0.00000000 </i>
  </energy>
  <time name="totalsc">   19.63   19.66</time>
 </calculation>
 <calculation>
  <scstep>
   <time name="dav">    3.09    3.10</time>
   <time name="total">    3.26    3.27</time>
   <energy>
    <i name="alphaZ">     46.49463335 </i>
    <i name="ewald">   4983.27879724 </i>
    <i name="hartreedc">  -9775.11640718 </i>
    <i name="XCdc">    142.98763022 </i>
    <i name="pawpsdc">   5761.48520607 </i>
    <i name="pawaedc">  -6581.60401928 </i>
    <i name="eentropy">     -0.00000000 </i>
    <i name="bandstr">   -822.76500951 </i>
    <i name="atom">   6220.98622430 </i>
    <i name="e_fr_energy">    -24.25294479 </i>
    <i name="e_wo_entrp">    -24.25294479 </i>
    <i name="e_0_energy">    -24.25294479 </i>
   </energy>
  </scstep>
  <scstep>
   <time name="dav">    3.31    3.31</time>
   <time name="total">    3.48    3.48</time>
   <energy>
    <i name="e_fr_energy">    -24.25295351 </i>
    <i name="e_wo_entrp">    -24.25295351 </i>
    <i name="e_0_energy">    -24.25295351 </i>
   </energy>
  </scstep>
  <scstep>
   <time name="dav">    2.17    2.17</time>
   <time name="total">    2.34    2.34</time>
   <energy>
    <i name="e_fr_energy">    -24.25295412 </i>
    <i name="e_wo_entrp">    -24.25295412 </i>
    <i name="e_0_energy">    -24.25295412 </i>
   </energy>
  </scstep>
  <scstep>
   <time name="dav">    2.16    2.17</time>
   <time name="total">    2.33    2.34</time>
   <energy>
    <i name="e_fr_energy">    -24.25295484 </i>
    <i name="e_wo_entrp">    -24.25295484 </i>
    <i name="e_0_energy">    -24.25295484 </i>
   </energy>
  </scstep>
  <scstep>
   <time name="dav">    2.19    2.19</time>
   <time name="total">    2.36    2.36</time>
   <energy>
    <i name="e_fr_energy">    -24.25295552 </i>
    <i name="e_wo_entrp">    -24.25295552 </i>
    <i name="e_0_energy">    -24.25295552 </i>
   </energy>
  </scstep>
  <scstep>
   <time name="dav">    2.01    2.01</time>
   <time name="total">    2.04    2.05</time>
   <energy>
    <i name="alphaZ">     46.49463335 </i>
    <i name="ewald">   4983.27879724 </i>
    <i name="hartreedc">  -9775.11660312 </i>
    <i name="XCdc">    142.98764537 </i>
    <i name="pawpsdc">   5761.37228387 </i>
    <i name="pawaedc">  -6581.49021545 </i>
    <i name="eentropy">     -0.00000000 </i>
    <i name="bandstr">   -822.76572147 </i>
    <i name="atom">   6220.98622430 </i>
    <i name="e_fr_energy">    -24.25295591 </i>
    <i name="e_wo_entrp">    -24.25295591 </i>
    <i name="e_0_energy">    -24.25295591 </i>
   </energy>
  </scstep>
  <structure>
   <crystal>
    <varray name="basis" >
     <v>       4.90583200       0.04906300       0.00000000 </v>
     <v>       0.05571500       5.57092300       0.00000000 </v>
     <v>       0.00000000       0.00000000      18.07929100 </v>
    </varray>
    <i name="volume">    494.05782526 </i>
    <varray name="rec_basis" >
     <v>       0.20385941      -0.00203881       0.00000000 </v>
     <v>      -0.00179539       0.17952142       0.00000000 </v>
     <v>       0.00000000       0.00000000       0.05531190 </v>
    </varray>
   </crystal>
   <varray name="positions" >
    <v>       0.50000000       0.50000000       0.49964721 </v>
    <v>       0.00000000       0.00000000       0.49964721 </v>
    <v>       0.25000000       0.25000000       0.41519577 </v>
    <v>       0.75000000       0.75000000       0.41519577 </v>
    <v>       0.75000000       0.25000000       0.58515703 </v>
    <v>       0.25000000       0.75000000       0.58515703 </v>
   </varray>
  </structure>
  <varray name="forces" >
   <v>       0.00000000       0.00000000      -0.00098151 </v>
   <v>       0.00000000      -0.00000000      -0.00098151 </v>
   <v>      -0.00000000       0.00000000       0.00150800 </v>
   <v>      -0.00000000       0.00000000       0.00150800 </v>
   <v>      -0.00000000       0.00000000      -0.00052649 </v>
   <v>      -0.00000000       0.00000000      -0.00052649 </v>
  </varray>
  <varray name="stress" >
   <v>       0.24857410      -3.49023724       0.00000000 </v>
   <v>      -3.49023730       0.18137829       0.00000000 </v>
   <v>       0.00000000       0.00000000      -0.07510635 </v>
  </varray>
  <energy>
   <i name="e_fr_energy">    -24.25295591 </i>
   <i name="e_wo_entrp">    -24.25295591 </i>
   <i name="e_0_energy">     -0.00000000 </i>
  </energy>
  <time name="totalsc">   17.67   17.69</time>
  <eigenvalues>
   <array>
    <dimension dim="1">band</dimension>
    <dimension dim="2">kpoint</dimension>
    <dimension dim="3">spin</dimension>
    <field>eigene</field>
    <field>occ</field>
    <set>
     <set comment="spin 1">
      <set comment="kpoint 1">
       <r>  -27.7946    1.0000 </r>
       <r>  -27.7886    1.0000 </r>
       <r>  -27.7879    1.0000 </r>
       <r>  -27.7820    1.0000 </r>
       <r>  -27.7795    1.0000 </r>
       <r>  -27.7674    1.0000 </r>
       <r>  -27.7626    1.0000 </r>
       <r>  -27.7606    1.0000 </r>
       <r>  -27.7480    1.0000 </r>
       <r>  -27.7425    1.0000 </r>
       <r>  -16.9062    1.0000 </r>
       <r>  -15.3940    1.0000 </r>
       <r>  -14.9701    1.0000 </r>
       <r>  -14.7587    1.0000 </r>
       <r>  -11.7908    1.0000 </r>
       <r>   -9.2177    1.0000 </r>
       <r>   -7.4584    1.0000 </r>
       <r>   -5.9014    1.0000 </r>
       <r>   -5.4916    1.0000 </r>
       <r>   -5.4800    1.0000 </r>
       <r>   -5.1754    1.0000 </r>
       <r>   -5.1359    1.0000 </r>
       <r>   -4.6515    1.0000 </r>
       <r>   -4.1529    1.0000 </r>
       <r>   -2.9103    1.0000 </r>
       <r>   -2.7172    1.0000 </r>
       <r>   -1.8579    0.0000 </r>
       <r>   -1.3773    0.0000 </r>
       <r>   -0.8810    0.0000 </r>
       <r>    0.1343    0.0000 </r>
       <r>    0.6728    0.0000 </r>
       <r>    1.9480    0.0000 </r>
      </set>
      <set comment="kpoint 2">
       <r>  -27.7945    1.0000 </r>
       <r>  -27.7886    1.0000 </r>
       <r>  -27.7878    1.0000 </r>
       <r>  -27.7821    1.0000 </r>
       <r>  -27.7796    1.0000 </r>
       <r>  -27.7673    1.0000 </r>
       <r>  -27.7627    1.0000 </r>
       <r>  -27.7609    1.0000 </r>
       <r>  -27.7480    1.0000 </r>
       <r>  -27.7425    1.0000 </r>
       <r>  -16.8896    1.0000 </r>
       <r>  -15.3877    1.0000 </r>
       <r>  -14.9730    1.0000 </r>
       <r>  -14.7975    1.0000 </r>
       <r>  -11.7479    1.0000 </r>
       <r>   -9.2330    1.0000 </r>
       <r>   -7.4569    1.0000 </r>
       <r>   -5.8963    1.0000 </r>
       <r>   -5.5826    1.0000 </r>
       <r>   -5.5528    1.0000 </r>
       <r>   -5.2419    1.0000 </r>
       <r>   -5.0354    1.0000 </r>
       <r>   -4.6477    1.0000 </r>
       <r>   -4.1383    1.0000 </r>
       <r>   -2.9573    1.0000 </r>
       <r>   -2.7604    1.0000 </r>
       <r>   -1.7586    0.0000 </r>
       <r>   -1.3729    0.0000 </r>
       <r>   -0.7701    0.0000 </r>
       <r>    0.1828    0.0000 </r>
       <r>    0.7201    0.0000 </r>
       <r>    1.9774    0.0000 </r>
      </set>
      <set comment="kpoint 3">
       <r>  -27.7941    1.0000 </r>
       <r>  -27.7884    1.0000 </r>
       <r>  -27.7874    1.0000 </r>
       <r>  -27.7823    1.0000 </r>
       <r>  -27.7796    1.0000 </r>
       <r>  -27.7671    1.0000 </r>
       <r>  -27.7629    1.0000 </r>
       <r>  -27.7616    1.0000 </r>
       <r>  -27.7478    1.0000 </r>
       <r>  -27.7427    1.0000 </r>
       <r>  -16.8399    1.0000 </r>
       <r>  -15.3692    1.0000 </r>
       <r>  -14.9837    1.0000 </r>
       <r>  -14.9050    1.0000 </r>
       <r>  -11.6259    1.0000 </r>
       <r>   -9.2809    1.0000 </r>
       <r>   -7.4514    1.0000 </r>
       <r>   -5.8818    1.0000 </r>
       <r>   -5.7429    1.0000 </r>
       <r>   -5.7311    1.0000 </r>
       <r>   -5.4103    1.0000 </r>
       <r>   -4.8590    1.0000 </r>
       <r>   -4.6540    1.0000 </r>
       <r>   -4.0960    1.0000 </r>
       <r>   -3.0881    1.0000 </r>
       <r>   -2.8667    1.0000 </r>
       <r>   -1.5017    0.0000 </r>
       <r>   -1.3487    0.0000 </r>
       <r>   -0.4589    0.0000 </r>
       <r>    0.3184    0.0000 </r>
       <r>    0.8510    0.0000 </r>
       <r>    2.0017    0.0000 </r>
      </set>
      <set comment="kpoint 4">
       <r>  -27.7935    1.0000 </r>
       <r>  -27.7881    1.0000 </r>
       <r>  -27.7870    1.0000 </r>
       <r>  -27.7827    1.0000 </r>
       <r>  -27.7794    1.0000 </r>
       <r>  -27.7668    1.0000 </r>
       <r>  -27.7635    1.0000 </r>
       <r>  -27.7625    1.0000 </r>
       <r>  -27.7475    1.0000 </r>
       <r>  -27.7430    1.0000 </r>
       <r>  -16.7580    1.0000 </r>
       <r>  -15.3398    1.0000 </r>
       <r>  -15.0791    1.0000 </r>
       <r>  -14.9879    1.0000 </r>
       <r>  -11.4407    1.0000 </r>
       <r>   -9.3658    1.0000 </r>
       <r>   -7.4382    1.0000 </r>
       <r>   -5.9979    1.0000 </r>
       <r>   -5.9098    1.0000 </r>
       <r>   -5.8037    1.0000 </r>
       <r>   -5.6206    1.0000 </r>
       <r>   -4.6928    1.0000 </r>
       <r>   -4.6900    1.0000 </r>
       <r>   -4.0304    1.0000 </r>
       <r>   -3.2783    1.0000 </r>
       <r>   -3.0010    1.0000 </r>
       <r>   -1.2810    0.0000 </r>
       <r>   -1.1631    0.0000 </r>
       <r>    0.0050    0.0000 </r>
       <r>    0.5169    0.0000 </r>
       <r>    1.0320    0.0000 </r>
       <r>    1.8417    0.0000 </r>
      </set>
      <set comment="kpoint 5">
       <r>  -27.7927    1.0000 </r>
       <r>  -27.7877    1.0000 </r>
       <r>  -27.7868    1.0000 </r>
       <r>  -27.7832    1.0000 </r>
       <r>  -27.7789    1.0000 </r>
       <r>  -27.7664    1.0000 </r>
       <r>  -27.7650    1.0000 </r>
       <r>  -27.7630    1.0000 </r>
       <r>  -27.7471    1.0000 </r>
       <r>  -27.7433    1.0000 </r>
       <r>  -16.6453    1.0000 </r>
       <r>  -15.3015    1.0000 </r>
       <r>  -15.2763    1.0000 </r>
       <r>  -15.0109    1.0000 </r>
       <r>  -11.2102    1.0000 </r>
       <r>   -9.4930    1.0000 </r>
       <r>   -7.4108    1.0000 </r>
       <r>   -6.2749    1.0000 </r>
       <r>   -6.0126    1.0000 </r>
       <r>   -5.8220    1.0000 </r>
       <r>   -5.7460    1.0000 </r>
       <r>   -4.7719    1.0000 </r>
       <r>   -4.5494    1.0000 </r>
       <r>   -3.9468    1.0000 </r>
       <r>   -3.4969    1.0000 </r>
       <r>   -3.1416    1.0000 </r>
       <r>   -1.1537    0.0000 </r>
       <r>   -0.8160    0.0000 </r>
       <r>    0.5737    0.0000 </r>
       <r>    0.7482    0.0000 </r>
       <r>    1.2096    0.0000 </r>
       <r>    1.6806    0.0000 </r>
      </set>
      <set comment="kpoint 6">
       <r>  -27.7917    1.0000 </r>
       <r>  -27.7872    1.0000 </r>
       <r>  -27.7869    1.0000 </r>
       <r>  -27.7839    1.0000 </r>
       <r>  -27.7777    1.0000 </r>
       <r>  -27.7669    1.0000 </r>
       <r>  -27.7659    1.0000 </r>
       <r>  -27.7634    1.0000 </r>
       <r>  -27.7466    1.0000 </r>
       <r>  -27.7438    1.0000 </r>
       <r>  -16.5038    1.0000 </r>
       <r>  -15.4943    1.0000 </r>
       <r>  -15.2568    1.0000 </r>
       <r>  -15.0388    1.0000 </r>
       <r>  -10.9504    1.0000 </r>
       <r>   -9.6650    1.0000 </r>
       <r>   -7.3607    1.0000 </r>
       <r>   -6.5449    1.0000 </r>
       <r>   -6.0961    1.0000 </r>
       <r>   -5.9841    1.0000 </r>
       <r>   -5.6460    1.0000 </r>
       <r>   -4.8892    1.0000 </r>
       <r>   -4.4354    1.0000 </r>
       <r>   -3.8505    1.0000 </r>
       <r>   -3.7160    1.0000 </r>
       <r>   -3.2770    1.0000 </r>
       <r>   -0.9697    0.0000 </r>
       <r>   -0.5331    0.0000 </r>
       <r>    0.9777    0.0000 </r>
       <r>    1.1976    0.0000 </r>
       <r>    1.3308    0.0000 </r>
       <r>    1.5586    0.0000 </r>
      </set>
      <set comment="kpoint 7">
       <r>  -27.7906    1.0000 </r>
       <r>  -27.7875    1.0000 </r>
       <r>  -27.7866    1.0000 </r>
       <r>  -27.7846    1.0000 </r>
       <r>  -27.7759    1.0000 </r>
       <r>  -27.7692    1.0000 </r>
       <r>  -27.7654    1.0000 </r>
       <r>  -27.7638    1.0000 </r>
       <r>  -27.7461    1.0000 </r>
       <r>  -27.7443    1.0000 </r>
       <r>  -16.3362    1.0000 </r>
       <r>  -15.7184    1.0000 </r>
       <r>  -15.2087    1.0000 </r>
       <r>  -15.0734    1.0000 </r>
       <r>  -10.6748    1.0000 </r>
       <r>   -9.8789    1.0000 </r>
       <r>   -7.2791    1.0000 </r>
       <r>   -6.7887    1.0000 </r>
       <r>   -6.1498    1.0000 </r>
       <r>   -6.0948    1.0000 </r>
       <r>   -5.5158    1.0000 </r>
       <r>   -5.0359    1.0000 </r>
       <r>   -4.3327    1.0000 </r>
       <r>   -3.9156    1.0000 </r>
       <r>   -3.7458    1.0000 </r>
       <r>   -3.4034    1.0000 </r>
       <r>   -0.7527    0.0000 </r>
       <r>   -0.3831    0.0000 </r>
       <r>    1.1689    0.0000 </r>
       <r>    1.3821    0.0000 </r>
       <r>    1.4405    0.0000 </r>
       <r>    1.4588    0.0000 </r>
      </set>
      <set comment="kpoint 8">
       <r>  -27.7895    1.0000 </r>
       <r>  -27.7884    1.0000 </r>
       <r>  -27.7860    1.0000 </r>
       <r>  -27.7853    1.0000 </r>
       <r>  -27.7738    1.0000 </r>
       <r>  -27.7715    1.0000 </r>
       <r>  -27.7648    1.0000 </r>
       <r>  -27.7643    1.0000 </r>
       <r>  -27.7455    1.0000 </r>
       <r>  -27.7449    1.0000 </r>
       <r>  -16.1461    1.0000 </r>
       <r>  -15.9382    1.0000 </r>
       <r>  -15.1603    1.0000 </r>
       <r>  -15.1144    1.0000 </r>
       <r>  -10.3960    1.0000 </r>
       <r>  -10.1265    1.0000 </r>
       <r>   -7.1586    1.0000 </r>
       <r>   -6.9951    1.0000 </r>
       <r>   -6.1709    1.0000 </r>
       <r>   -6.1549    1.0000 </r>
       <r>   -5.3631    1.0000 </r>
       <r>   -5.1987    1.0000 </r>
       <r>   -4.2211    1.0000 </r>
       <r>   -4.0846    1.0000 </r>
       <r>   -3.6358    1.0000 </r>
       <r>   -3.5221    1.0000 </r>
       <r>   -0.5430    0.0000 </r>
       <r>   -0.3978    0.0000 </r>
       <r>    1.2970    0.0000 </r>
       <r>    1.3753    0.0000 </r>
       <r>    1.3955    0.0000 </r>
       <r>    1.4088    0.0000 </r>
      </set>
      <set comment="kpoint 9">
       <r>  -27.7945    1.0000 </r>
       <r>  -27.7885    1.0000 </r>
       <r>  -27.7878    1.0000 </r>
       <r>  -27.7820    1.0000 </r>
       <r>  -27.7796    1.0000 </r>
       <r>  -27.7673    1.0000 </r>
       <r>  -27.7627    1.0000 </r>
       <r>  -27.7610    1.0000 </r>
       <r>  -27.7480    1.0000 </r>
       <r>  -27.7426    1.0000 </r>
       <r>  -16.8875    1.0000 </r>
       <r>  -15.3851    1.0000 </r>
       <r>  -15.0205    1.0000 </r>
       <r>  -14.7682    1.0000 </r>
       <r>  -11.7277    1.0000 </r>
       <r>   -9.2357    1.0000 </r>
       <r>   -7.4448    1.0000 </r>
       <r>   -5.9243    1.0000 </r>
       <r>   -5.5388    1.0000 </r>
       <r>   -5.4842    1.0000 </r>
       <r>   -5.2613    1.0000 </r>
       <r>   -5.1007    1.0000 </r>
       <r>   -4.6470    1.0000 </r>
       <r>   -4.1228    1.0000 </r>
       <r>   -2.9539    1.0000 </r>
       <r>   -2.7741    1.0000 </r>
       <r>   -1.7413    0.0000 </r>
       <r>   -1.3539    0.0000 </r>
       <r>   -0.7504    0.0000 </r>
       <r>    0.1528    0.0000 </r>
       <r>    0.7066    0.0000 </r>
       <r>    1.9754    0.0000 </r>
      </set>
      <set comment="kpoint 10">
       <r>  -27.7946    1.0000 </r>
       <r>  -27.7883    1.0000 </r>
       <r>  -27.7876    1.0000 </r>
       <r>  -27.7820    1.0000 </r>
       <r>  -27.7798    1.0000 </r>
       <r>  -27.7672    1.0000 </r>
       <r>  -27.7629    1.0000 </r>
       <r>  -27.7610    1.0000 </r>
       <r>  -27.7479    1.0000 </r>
       <r>  -27.7426    1.0000 </r>
       <r>  -16.8727    1.0000 </r>
       <r>  -15.3800    1.0000 </r>
       <r>  -15.0189    1.0000 </r>
       <r>  -14.8030    1.0000 </r>
       <r>  -11.6927    1.0000 </r>
       <r>   -9.2566    1.0000 </r>
       <r>   -7.4381    1.0000 </r>
       <r>   -5.9480    1.0000 </r>
       <r>   -5.7078    1.0000 </r>
       <r>   -5.5409    1.0000 </r>
       <r>   -5.1836    1.0000 </r>
       <r>   -5.0116    1.0000 </r>
       <r>   -4.6566    1.0000 </r>
       <r>   -4.1088    1.0000 </r>
       <r>   -3.0836    1.0000 </r>
       <r>   -2.7064    1.0000 </r>
       <r>   -1.6444    0.0000 </r>
       <r>   -1.3482    0.0000 </r>
       <r>   -0.6837    0.0000 </r>
       <r>    0.1980    0.0000 </r>
       <r>    0.7464    0.0000 </r>
       <r>    1.9404    0.0000 </r>
      </set>
      <set comment="kpoint 11">
       <r>  -27.7944    1.0000 </r>
       <r>  -27.7879    1.0000 </r>
       <r>  -27.7872    1.0000 </r>
       <r>  -27.7822    1.0000 </r>
       <r>  -27.7799    1.0000 </r>
       <r>  -27.7670    1.0000 </r>
       <r>  -27.7633    1.0000 </r>
       <r>  -27.7614    1.0000 </r>
       <r>  -27.7477    1.0000 </r>
       <r>  -27.7427    1.0000 </r>
       <r>  -16.8252    1.0000 </r>
       <r>  -15.3630    1.0000 </r>
       <r>  -15.0334    1.0000 </r>
       <r>  -14.8942    1.0000 </r>
       <r>  -11.5845    1.0000 </r>
       <r>   -9.3127    1.0000 </r>
       <r>   -7.4228    1.0000 </r>
       <r>   -5.9940    1.0000 </r>
       <r>   -5.9451    1.0000 </r>
       <r>   -5.6300    1.0000 </r>
       <r>   -5.2346    1.0000 </r>
       <r>   -4.8432    1.0000 </r>
       <r>   -4.6776    1.0000 </r>
       <r>   -4.0671    1.0000 </r>
       <r>   -3.2550    1.0000 </r>
       <r>   -2.7287    1.0000 </r>
       <r>   -1.4610    0.0000 </r>
       <r>   -1.3226    0.0000 </r>
       <r>   -0.3773    0.0000 </r>
       <r>    0.3279    0.0000 </r>
       <r>    0.8690    0.0000 </r>
       <r>    1.8084    0.0000 </r>
      </set>
      <set comment="kpoint 12">
       <r>  -27.7940    1.0000 </r>
       <r>  -27.7875    1.0000 </r>
       <r>  -27.7867    1.0000 </r>
       <r>  -27.7827    1.0000 </r>
       <r>  -27.7797    1.0000 </r>
       <r>  -27.7667    1.0000 </r>
       <r>  -27.7642    1.0000 </r>
       <r>  -27.7620    1.0000 </r>
       <r>  -27.7475    1.0000 </r>
       <r>  -27.7430    1.0000 </r>
       <r>  -16.7459    1.0000 </r>
       <r>  -15.3354    1.0000 </r>
       <r>  -15.1104    1.0000 </r>
       <r>  -14.9817    1.0000 </r>
       <r>  -11.4159    1.0000 </r>
       <r>   -9.4075    1.0000 </r>
       <r>   -7.3980    1.0000 </r>
       <r>   -6.1920    1.0000 </r>
       <r>   -6.0629    1.0000 </r>
       <r>   -5.6659    1.0000 </r>
       <r>   -5.3947    1.0000 </r>
       <r>   -4.7287    1.0000 </r>
       <r>   -4.6822    1.0000 </r>
       <r>   -3.9989    1.0000 </r>
       <r>   -3.4429    1.0000 </r>
       <r>   -2.8241    1.0000 </r>
       <r>   -1.2565    0.0000 </r>
       <r>   -1.1905    0.0000 </r>
       <r>    0.0851    0.0000 </r>
       <r>    0.5175    0.0000 </r>
       <r>    1.0448    0.0000 </r>
       <r>    1.6501    0.0000 </r>
      </set>
      <set comment="kpoint 13">
       <r>  -27.7934    1.0000 </r>
       <r>  -27.7869    1.0000 </r>
       <r>  -27.7863    1.0000 </r>
       <r>  -27.7835    1.0000 </r>
       <r>  -27.7791    1.0000 </r>
       <r>  -27.7663    1.0000 </r>
       <r>  -27.7655    1.0000 </r>
       <r>  -27.7625    1.0000 </r>
       <r>  -27.7471    1.0000 </r>
       <r>  -27.7433    1.0000 </r>
       <r>  -16.6363    1.0000 </r>
       <r>  -15.2991    1.0000 </r>
       <r>  -15.2826    1.0000 </r>
       <r>  -15.0166    1.0000 </r>
       <r>  -11.2023    1.0000 </r>
       <r>   -9.5441    1.0000 </r>
       <r>   -7.3608    1.0000 </r>
       <r>   -6.4197    1.0000 </r>
       <r>   -6.1311    1.0000 </r>
       <r>   -5.6473    1.0000 </r>
       <r>   -5.6049    1.0000 </r>
       <r>   -4.8217    1.0000 </r>
       <r>   -4.5499    1.0000 </r>
       <r>   -3.9095    1.0000 </r>
       <r>   -3.6273    1.0000 </r>
       <r>   -2.9633    1.0000 </r>
       <r>   -1.1358    0.0000 </r>
       <r>   -0.8811    0.0000 </r>
       <r>    0.6374    0.0000 </r>
       <r>    0.7349    0.0000 </r>
       <r>    1.2244    0.0000 </r>
       <r>    1.5134    0.0000 </r>
      </set>
      <set comment="kpoint 14">
       <r>  -27.7927    1.0000 </r>
       <r>  -27.7862    1.0000 </r>
       <r>  -27.7862    1.0000 </r>
       <r>  -27.7844    1.0000 </r>
       <r>  -27.7780    1.0000 </r>
       <r>  -27.7673    1.0000 </r>
       <r>  -27.7658    1.0000 </r>
       <r>  -27.7630    1.0000 </r>
       <r>  -27.7466    1.0000 </r>
       <r>  -27.7438    1.0000 </r>
       <r>  -16.4986    1.0000 </r>
       <r>  -15.4896    1.0000 </r>
       <r>  -15.2566    1.0000 </r>
       <r>  -15.0440    1.0000 </r>
       <r>  -10.9578    1.0000 </r>
       <r>   -9.7221    1.0000 </r>
       <r>   -7.3065    1.0000 </r>
       <r>   -6.6190    1.0000 </r>
       <r>   -6.1770    1.0000 </r>
       <r>   -5.8144    1.0000 </r>
       <r>   -5.5873    1.0000 </r>
       <r>   -4.9502    1.0000 </r>
       <r>   -4.4425    1.0000 </r>
       <r>   -3.8060    1.0000 </r>
       <r>   -3.7979    1.0000 </r>
       <r>   -3.1204    1.0000 </r>
       <r>   -0.9653    0.0000 </r>
       <r>   -0.6089    0.0000 </r>
       <r>    0.9454    0.0000 </r>
       <r>    1.2319    0.0000 </r>
       <r>    1.3553    0.0000 </r>
       <r>    1.4336    0.0000 </r>
      </set>
      <set comment="kpoint 15">
       <r>  -27.7918    1.0000 </r>
       <r>  -27.7863    1.0000 </r>
       <r>  -27.7856    1.0000 </r>
       <r>  -27.7855    1.0000 </r>
       <r>  -27.7763    1.0000 </r>
       <r>  -27.7694    1.0000 </r>
       <r>  -27.7653    1.0000 </r>
       <r>  -27.7635    1.0000 </r>
       <r>  -27.7461    1.0000 </r>
       <r>  -27.7443    1.0000 </r>
       <r>  -16.3355    1.0000 </r>
       <r>  -15.7067    1.0000 </r>
       <r>  -15.2106    1.0000 </r>
       <r>  -15.0759    1.0000 </r>
       <r>  -10.6948    1.0000 </r>
       <r>   -9.9360    1.0000 </r>
       <r>   -7.2292    1.0000 </r>
       <r>   -6.7934    1.0000 </r>
       <r>   -6.1925    1.0000 </r>
       <r>   -5.9878    1.0000 </r>
       <r>   -5.4931    1.0000 </r>
       <r>   -5.0986    1.0000 </r>
       <r>   -4.3442    1.0000 </r>
       <r>   -3.9521    1.0000 </r>
       <r>   -3.6941    1.0000 </r>
       <r>   -3.2778    1.0000 </r>
       <r>   -0.7707    0.0000 </r>
       <r>   -0.4483    0.0000 </r>
       <r>    1.1165    0.0000 </r>
       <r>    1.3964    0.0000 </r>
       <r>    1.4156    0.0000 </r>
       <r>    1.5547    0.0000 </r>
      </set>
      <set comment="kpoint 16">
       <r>  -27.7908    1.0000 </r>
       <r>  -27.7870    1.0000 </r>
       <r>  -27.7865    1.0000 </r>
       <r>  -27.7847    1.0000 </r>
       <r>  -27.7742    1.0000 </r>
       <r>  -27.7716    1.0000 </r>
       <r>  -27.7648    1.0000 </r>
       <r>  -27.7640    1.0000 </r>
       <r>  -27.7455    1.0000 </r>
       <r>  -27.7448    1.0000 </r>
       <r>  -16.1510    1.0000 </r>
       <r>  -15.9220    1.0000 </r>
       <r>  -15.1641    1.0000 </r>
       <r>  -15.1138    1.0000 </r>
       <r>  -10.4249    1.0000 </r>
       <r>  -10.1766    1.0000 </r>
       <r>   -7.1235    1.0000 </r>
       <r>   -6.9490    1.0000 </r>
       <r>   -6.1750    1.0000 </r>
       <r>   -6.1065    1.0000 </r>
       <r>   -5.3697    1.0000 </r>
       <r>   -5.2506    1.0000 </r>
       <r>   -4.2381    1.0000 </r>
       <r>   -4.0889    1.0000 </r>
       <r>   -3.5770    1.0000 </r>
       <r>   -3.4271    1.0000 </r>
       <r>   -0.5957    0.0000 </r>
       <r>   -0.4360    0.0000 </r>
       <r>    1.2318    0.0000 </r>
       <r>    1.3798    0.0000 </r>
       <r>    1.4253    0.0000 </r>
       <r>    1.4534    0.0000 </r>
      </set>
      <set comment="kpoint 17">
       <r>  -27.7898    1.0000 </r>
       <r>  -27.7882    1.0000 </r>
       <r>  -27.7870    1.0000 </r>
       <r>  -27.7840    1.0000 </r>
       <r>  -27.7738    1.0000 </r>
       <r>  -27.7720    1.0000 </r>
       <r>  -27.7646    1.0000 </r>
       <r>  -27.7643    1.0000 </r>
       <r>  -27.7454    1.0000 </r>
       <r>  -27.7450    1.0000 </r>
       <r>  -16.1270    1.0000 </r>
       <r>  -15.9500    1.0000 </r>
       <r>  -15.1567    1.0000 </r>
       <r>  -15.1194    1.0000 </r>
       <r>  -10.4328    1.0000 </r>
       <r>  -10.1599    1.0000 </r>
       <r>   -7.0864    1.0000 </r>
       <r>   -6.9865    1.0000 </r>
       <r>   -6.1683    1.0000 </r>
       <r>   -6.1209    1.0000 </r>
       <r>   -5.3937    1.0000 </r>
       <r>   -5.2243    1.0000 </r>
       <r>   -4.2072    1.0000 </r>
       <r>   -4.1119    1.0000 </r>
       <r>   -3.5665    1.0000 </r>
       <r>   -3.4561    1.0000 </r>
       <r>   -0.5498    0.0000 </r>
       <r>   -0.4999    0.0000 </r>
       <r>    1.2588    0.0000 </r>
       <r>    1.2893    0.0000 </r>
       <r>    1.4390    0.0000 </r>
       <r>    1.4733    0.0000 </r>
      </set>
      <set comment="kpoint 18">
       <r>  -27.7895    1.0000 </r>
       <r>  -27.7889    1.0000 </r>
       <r>  -27.7874    1.0000 </r>
       <r>  -27.7833    1.0000 </r>
       <r>  -27.7758    1.0000 </r>
       <r>  -27.7696    1.0000 </r>
       <r>  -27.7652    1.0000 </r>
       <r>  -27.7638    1.0000 </r>
       <r>  -27.7460    1.0000 </r>
       <r>  -27.7444    1.0000 </r>
       <r>  -16.3152    1.0000 </r>
       <r>  -15.7391    1.0000 </r>
       <r>  -15.2027    1.0000 </r>
       <r>  -15.0783    1.0000 </r>
       <r>  -10.6937    1.0000 </r>
       <r>   -9.9124    1.0000 </r>
       <r>   -7.2019    1.0000 </r>
       <r>   -6.8170    1.0000 </r>
       <r>   -6.1791    1.0000 </r>
       <r>   -6.0255    1.0000 </r>
       <r>   -5.5205    1.0000 </r>
       <r>   -5.0684    1.0000 </r>
       <r>   -4.3100    1.0000 </r>
       <r>   -3.9596    1.0000 </r>
       <r>   -3.6960    1.0000 </r>
       <r>   -3.3317    1.0000 </r>
       <r>   -0.7356    0.0000 </r>
       <r>   -0.5441    0.0000 </r>
       <r>    1.1171    0.0000 </r>
       <r>    1.2998    0.0000 </r>
       <r>    1.4685    0.0000 </r>
       <r>    1.5160    0.0000 </r>
      </set>
      <set comment="kpoint 19">
       <r>  -27.7907    1.0000 </r>
       <r>  -27.7882    1.0000 </r>
       <r>  -27.7878    1.0000 </r>
       <r>  -27.7828    1.0000 </r>
       <r>  -27.7775    1.0000 </r>
       <r>  -27.7674    1.0000 </r>
       <r>  -27.7657    1.0000 </r>
       <r>  -27.7634    1.0000 </r>
       <r>  -27.7465    1.0000 </r>
       <r>  -27.7439    1.0000 </r>
       <r>  -16.4819    1.0000 </r>
       <r>  -15.5271    1.0000 </r>
       <r>  -15.2489    1.0000 </r>
       <r>  -15.0407    1.0000 </r>
       <r>  -10.9492    1.0000 </r>
       <r>   -9.6949    1.0000 </r>
       <r>   -7.2924    1.0000 </r>
       <r>   -6.6143    1.0000 </r>
       <r>   -6.1461    1.0000 </r>
       <r>   -5.8876    1.0000 </r>
       <r>   -5.6258    1.0000 </r>
       <r>   -4.9185    1.0000 </r>
       <r>   -4.4079    1.0000 </r>
       <r>   -3.8150    1.0000 </r>
       <r>   -3.7796    1.0000 </r>
       <r>   -3.2049    1.0000 </r>
       <r>   -0.9398    0.0000 </r>
       <r>   -0.7439    0.0000 </r>
       <r>    0.9396    0.0000 </r>
       <r>    1.2469    0.0000 </r>
       <r>    1.4046    0.0000 </r>
       <r>    1.5117    0.0000 </r>
      </set>
      <set comment="kpoint 20">
       <r>  -27.7918    1.0000 </r>
       <r>  -27.7882    1.0000 </r>
       <r>  -27.7876    1.0000 </r>
       <r>  -27.7824    1.0000 </r>
       <r>  -27.7787    1.0000 </r>
       <r>  -27.7662    1.0000 </r>
       <r>  -27.7654    1.0000 </r>
       <r>  -27.7631    1.0000 </r>
       <r>  -27.7470    1.0000 </r>
       <r>  -27.7435    1.0000 </r>
       <r>  -16.6231    1.0000 </r>
       <r>  -15.3276    1.0000 </r>
       <r>  -15.2923    1.0000 </r>
       <r>  -15.0036    1.0000 </r>
       <r>  -11.1888    1.0000 </r>
       <r>   -9.5174    1.0000 </r>
       <r>   -7.3581    1.0000 </r>
       <r>   -6.3777    1.0000 </r>
       <r>   -6.0758    1.0000 </r>
       <r>   -5.7178    1.0000 </r>
       <r>   -5.7044    1.0000 </r>
       <r>   -4.7932    1.0000 </r>
       <r>   -4.5183    1.0000 </r>
       <r>   -3.9201    1.0000 </r>
       <r>   -3.5740    1.0000 </r>
       <r>   -3.0808    1.0000 </r>
       <r>   -1.1197    0.0000 </r>
       <r>   -1.0448    0.0000 </r>
       <r>    0.7311    0.0000 </r>
       <r>    0.8135    0.0000 </r>
       <r>    1.2682    0.0000 </r>
       <r>    1.5459    0.0000 </r>
      </set>
      <set comment="kpoint 21">
       <r>  -27.7928    1.0000 </r>
       <r>  -27.7884    1.0000 </r>
       <r>  -27.7875    1.0000 </r>
       <r>  -27.7823    1.0000 </r>
       <r>  -27.7793    1.0000 </r>
       <r>  -27.7667    1.0000 </r>
       <r>  -27.7636    1.0000 </r>
       <r>  -27.7629    1.0000 </r>
       <r>  -27.7474    1.0000 </r>
       <r>  -27.7431    1.0000 </r>
       <r>  -16.7361    1.0000 </r>
       <r>  -15.3299    1.0000 </r>
       <r>  -15.1644    1.0000 </r>
       <r>  -14.9554    1.0000 </r>
       <r>  -11.4008    1.0000 </r>
       <r>   -9.3850    1.0000 </r>
       <r>   -7.4024    1.0000 </r>
       <r>   -6.1110    1.0000 </r>
       <r>   -5.9834    1.0000 </r>
       <r>   -5.7441    1.0000 </r>
       <r>   -5.5429    1.0000 </r>
       <r>   -4.7065    1.0000 </r>
       <r>   -4.6572    1.0000 </r>
       <r>   -4.0066    1.0000 </r>
       <r>   -3.3504    1.0000 </r>
       <r>   -2.9717    1.0000 </r>
       <r>   -1.3624    0.0000 </r>
       <r>   -1.2488    0.0000 </r>
       <r>    0.2923    0.0000 </r>
       <r>    0.5178    0.0000 </r>
       <r>    1.0804    0.0000 </r>
       <r>    1.6928    0.0000 </r>
      </set>
      <set comment="kpoint 22">
       <r>  -27.7936    1.0000 </r>
       <r>  -27.7886    1.0000 </r>
       <r>  -27.7876    1.0000 </r>
       <r>  -27.7822    1.0000 </r>
       <r>  -27.7795    1.0000 </r>
       <r>  -27.7670    1.0000 </r>
       <r>  -27.7627    1.0000 </r>
       <r>  -27.7623    1.0000 </r>
       <r>  -27.7477    1.0000 </r>
       <r>  -27.7428    1.0000 </r>
       <r>  -16.8186    1.0000 </r>
       <r>  -15.3592    1.0000 </r>
       <r>  -15.0710    1.0000 </r>
       <r>  -14.8772    1.0000 </r>
       <r>  -11.5715    1.0000 </r>
       <r>   -9.2967    1.0000 </r>
       <r>   -7.4292    1.0000 </r>
       <r>   -5.9194    1.0000 </r>
       <r>   -5.8306    1.0000 </r>
       <r>   -5.7035    1.0000 </r>
       <r>   -5.4058    1.0000 </r>
       <r>   -4.8260    1.0000 </r>
       <r>   -4.6612    1.0000 </r>
       <r>   -4.0703    1.0000 </r>
       <r>   -3.1256    1.0000 </r>
       <r>   -2.8984    1.0000 </r>
       <r>   -1.6159    0.0000 </r>
       <r>   -1.3207    0.0000 </r>
       <r>   -0.1862    0.0000 </r>
       <r>    0.3311    0.0000 </r>
       <r>    0.8940    0.0000 </r>
       <r>    1.8540    0.0000 </r>
      </set>
      <set comment="kpoint 23">
       <r>  -27.7942    1.0000 </r>
       <r>  -27.7886    1.0000 </r>
       <r>  -27.7878    1.0000 </r>
       <r>  -27.7821    1.0000 </r>
       <r>  -27.7795    1.0000 </r>
       <r>  -27.7672    1.0000 </r>
       <r>  -27.7627    1.0000 </r>
       <r>  -27.7614    1.0000 </r>
       <r>  -27.7479    1.0000 </r>
       <r>  -27.7426    1.0000 </r>
       <r>  -16.8694    1.0000 </r>
       <r>  -15.3780    1.0000 </r>
       <r>  -15.0343    1.0000 </r>
       <r>  -14.7988    1.0000 </r>
       <r>  -11.6851    1.0000 </r>
       <r>   -9.2484    1.0000 </r>
       <r>   -7.4424    1.0000 </r>
       <r>   -5.9124    1.0000 </r>
       <r>   -5.5846    1.0000 </r>
       <r>   -5.5782    1.0000 </r>
       <r>   -5.3418    1.0000 </r>
       <r>   -5.0010    1.0000 </r>
       <r>   -4.6463    1.0000 </r>
       <r>   -4.1095    1.0000 </r>
       <r>   -2.9283    1.0000 </r>
       <r>   -2.8831    1.0000 </r>
       <r>   -1.7451    0.0000 </r>
       <r>   -1.3486    0.0000 </r>
       <r>   -0.5601    0.0000 </r>
       <r>    0.2010    0.0000 </r>
       <r>    0.7591    0.0000 </r>
       <r>    1.9622    0.0000 </r>
      </set>
      <set comment="kpoint 24">
       <r>  -27.7941    1.0000 </r>
       <r>  -27.7882    1.0000 </r>
       <r>  -27.7876    1.0000 </r>
       <r>  -27.7818    1.0000 </r>
       <r>  -27.7798    1.0000 </r>
       <r>  -27.7670    1.0000 </r>
       <r>  -27.7630    1.0000 </r>
       <r>  -27.7619    1.0000 </r>
       <r>  -27.7477    1.0000 </r>
       <r>  -27.7428    1.0000 </r>
       <r>  -16.8315    1.0000 </r>
       <r>  -15.3589    1.0000 </r>
       <r>  -15.1589    1.0000 </r>
       <r>  -14.7963    1.0000 </r>
       <r>  -11.5519    1.0000 </r>
       <r>   -9.2923    1.0000 </r>
       <r>   -7.4029    1.0000 </r>
       <r>   -5.9834    1.0000 </r>
       <r>   -5.6901    1.0000 </r>
       <r>   -5.4770    1.0000 </r>
       <r>   -5.4590    1.0000 </r>
       <r>   -5.0052    1.0000 </r>
       <r>   -4.6553    1.0000 </r>
       <r>   -4.0383    1.0000 </r>
       <r>   -3.0804    1.0000 </r>
       <r>   -2.8964    1.0000 </r>
       <r>   -1.4487    0.0000 </r>
       <r>   -1.2811    0.0000 </r>
       <r>   -0.3901    0.0000 </r>
       <r>    0.2065    0.0000 </r>
       <r>    0.7996    0.0000 </r>
       <r>    1.8932    0.0000 </r>
      </set>
      <set comment="kpoint 25">
       <r>  -27.7944    1.0000 </r>
       <r>  -27.7878    1.0000 </r>
       <r>  -27.7874    1.0000 </r>
       <r>  -27.7818    1.0000 </r>
       <r>  -27.7801    1.0000 </r>
       <r>  -27.7670    1.0000 </r>
       <r>  -27.7635    1.0000 </r>
       <r>  -27.7616    1.0000 </r>
       <r>  -27.7477    1.0000 </r>
       <r>  -27.7428    1.0000 </r>
       <r>  -16.8189    1.0000 </r>
       <r>  -15.3553    1.0000 </r>
       <r>  -15.1559    1.0000 </r>
       <r>  -14.8205    1.0000 </r>
       <r>  -11.5301    1.0000 </r>
       <r>   -9.3212    1.0000 </r>
       <r>   -7.3868    1.0000 </r>
       <r>   -6.0272    1.0000 </r>
       <r>   -5.9280    1.0000 </r>
       <r>   -5.4869    1.0000 </r>
       <r>   -5.2640    1.0000 </r>
       <r>   -4.9335    1.0000 </r>
       <r>   -4.6781    1.0000 </r>
       <r>   -4.0246    1.0000 </r>
       <r>   -3.2526    1.0000 </r>
       <r>   -2.7497    1.0000 </r>
       <r>   -1.4143    0.0000 </r>
       <r>   -1.2735    0.0000 </r>
       <r>   -0.3303    0.0000 </r>
       <r>    0.2457    0.0000 </r>
       <r>    0.8307    0.0000 </r>
       <r>    1.7564    0.0000 </r>
      </set>
      <set comment="kpoint 26">
       <r>  -27.7945    1.0000 </r>
       <r>  -27.7872    1.0000 </r>
       <r>  -27.7871    1.0000 </r>
       <r>  -27.7819    1.0000 </r>
       <r>  -27.7803    1.0000 </r>
       <r>  -27.7668    1.0000 </r>
       <r>  -27.7642    1.0000 </r>
       <r>  -27.7616    1.0000 </r>
       <r>  -27.7475    1.0000 </r>
       <r>  -27.7429    1.0000 </r>
       <r>  -16.7747    1.0000 </r>
       <r>  -15.3410    1.0000 </r>
       <r>  -15.1736    1.0000 </r>
       <r>  -14.8844    1.0000 </r>
       <r>  -11.4534    1.0000 </r>
       <r>   -9.3927    1.0000 </r>
       <r>   -7.3469    1.0000 </r>
       <r>   -6.1834    1.0000 </r>
       <r>   -6.1122    1.0000 </r>
       <r>   -5.5391    1.0000 </r>
       <r>   -5.1483    1.0000 </r>
       <r>   -4.7824    1.0000 </r>
       <r>   -4.7292    1.0000 </r>
       <r>   -3.9828    1.0000 </r>
       <r>   -3.4440    1.0000 </r>
       <r>   -2.6713    1.0000 </r>
       <r>   -1.4233    0.0000 </r>
       <r>   -1.2443    0.0000 </r>
       <r>    0.0005    0.0000 </r>
       <r>    0.3586    0.0000 </r>
       <r>    0.9432    0.0000 </r>
       <r>    1.5954    0.0000 </r>
      </set>
      <set comment="kpoint 27">
       <r>  -27.7943    1.0000 </r>
       <r>  -27.7868    1.0000 </r>
       <r>  -27.7866    1.0000 </r>
       <r>  -27.7822    1.0000 </r>
       <r>  -27.7801    1.0000 </r>
       <r>  -27.7665    1.0000 </r>
       <r>  -27.7652    1.0000 </r>
       <r>  -27.7618    1.0000 </r>
       <r>  -27.7473    1.0000 </r>
       <r>  -27.7431    1.0000 </r>
       <r>  -16.7001    1.0000 </r>
       <r>  -15.3171    1.0000 </r>
       <r>  -15.2309    1.0000 </r>
       <r>  -14.9610    1.0000 </r>
       <r>  -11.3278    1.0000 </r>
       <r>   -9.5072    1.0000 </r>
       <r>   -7.2871    1.0000 </r>
       <r>   -6.4100    1.0000 </r>
       <r>   -6.2136    1.0000 </r>
       <r>   -5.5558    1.0000 </r>
       <r>   -5.1742    1.0000 </r>
       <r>   -4.8109    1.0000 </r>
       <r>   -4.6395    1.0000 </r>
       <r>   -3.9081    1.0000 </r>
       <r>   -3.6245    1.0000 </r>
       <r>   -2.6760    1.0000 </r>
       <r>   -1.3363    0.0000 </r>
       <r>   -1.1800    0.0000 </r>
       <r>    0.4450    0.0000 </r>
       <r>    0.5195    0.0000 </r>
       <r>    1.1159    0.0000 </r>
       <r>    1.4567    0.0000 </r>
      </set>
      <set comment="kpoint 28">
       <r>  -27.7940    1.0000 </r>
       <r>  -27.7866    1.0000 </r>
       <r>  -27.7859    1.0000 </r>
       <r>  -27.7829    1.0000 </r>
       <r>  -27.7795    1.0000 </r>
       <r>  -27.7666    1.0000 </r>
       <r>  -27.7661    1.0000 </r>
       <r>  -27.7621    1.0000 </r>
       <r>  -27.7469    1.0000 </r>
       <r>  -27.7434    1.0000 </r>
       <r>  -16.5965    1.0000 </r>
       <r>  -15.3489    1.0000 </r>
       <r>  -15.2855    1.0000 </r>
       <r>  -15.0176    1.0000 </r>
       <r>  -11.1620    1.0000 </r>
       <r>   -9.6626    1.0000 </r>
       <r>   -7.2143    1.0000 </r>
       <r>   -6.5907    1.0000 </r>
       <r>   -6.2935    1.0000 </r>
       <r>   -5.5417    1.0000 </r>
       <r>   -5.3138    1.0000 </r>
       <r>   -4.9317    1.0000 </r>
       <r>   -4.5280    1.0000 </r>
       <r>   -3.8036    1.0000 </r>
       <r>   -3.7794    1.0000 </r>
       <r>   -2.7545    1.0000 </r>
       <r>   -1.1383    0.0000 </r>
       <r>   -1.0733    0.0000 </r>
       <r>    0.6981    0.0000 </r>
       <r>    0.8954    0.0000 </r>
       <r>    1.3062    0.0000 </r>
       <r>    1.3911    0.0000 </r>
      </set>
      <set comment="kpoint 29">
       <r>  -27.7935    1.0000 </r>
       <r>  -27.7867    1.0000 </r>
       <r>  -27.7851    1.0000 </r>
       <r>  -27.7837    1.0000 </r>
       <r>  -27.7784    1.0000 </r>
       <r>  -27.7683    1.0000 </r>
       <r>  -27.7656    1.0000 </r>
       <r>  -27.7625    1.0000 </r>
       <r>  -27.7465    1.0000 </r>
       <r>  -27.7438    1.0000 </r>
       <r>  -16.4666    1.0000 </r>
       <r>  -15.5158    1.0000 </r>
       <r>  -15.2484    1.0000 </r>
       <r>  -15.0541    1.0000 </r>
       <r>  -10.9646    1.0000 </r>
       <r>   -9.8524    1.0000 </r>
       <r>   -7.1384    1.0000 </r>
       <r>   -6.7231    1.0000 </r>
       <r>   -6.3214    1.0000 </r>
       <r>   -5.5191    1.0000 </r>
       <r>   -5.5081    1.0000 </r>
       <r>   -5.0765    1.0000 </r>
       <r>   -4.4391    1.0000 </r>
       <r>   -3.9099    1.0000 </r>
       <r>   -3.6800    1.0000 </r>
       <r>   -2.8834    1.0000 </r>
       <r>   -0.9357    0.0000 </r>
       <r>   -0.8966    0.0000 </r>
       <r>    0.8685    0.0000 </r>
       <r>    1.1600    0.0000 </r>
       <r>    1.4555    0.0000 </r>
       <r>    1.5711    0.0000 </r>
      </set>
      <set comment="kpoint 30">
       <r>  -27.7928    1.0000 </r>
       <r>  -27.7870    1.0000 </r>
       <r>  -27.7846    1.0000 </r>
       <r>  -27.7843    1.0000 </r>
       <r>  -27.7768    1.0000 </r>
       <r>  -27.7701    1.0000 </r>
       <r>  -27.7651    1.0000 </r>
       <r>  -27.7630    1.0000 </r>
       <r>  -27.7460    1.0000 </r>
       <r>  -27.7442    1.0000 </r>
       <r>  -16.3137    1.0000 </r>
       <r>  -15.7063    1.0000 </r>
       <r>  -15.2084    1.0000 </r>
       <r>  -15.0850    1.0000 </r>
       <r>  -10.7438    1.0000 </r>
       <r>  -10.0661    1.0000 </r>
       <r>   -7.0687    1.0000 </r>
       <r>   -6.8157    1.0000 </r>
       <r>   -6.2806    1.0000 </r>
       <r>   -5.7503    1.0000 </r>
       <r>   -5.4588    1.0000 </r>
       <r>   -5.2170    1.0000 </r>
       <r>   -4.3552    1.0000 </r>
       <r>   -4.0242    1.0000 </r>
       <r>   -3.5471    1.0000 </r>
       <r>   -3.0401    1.0000 </r>
       <r>   -0.7992    0.0000 </r>
       <r>   -0.6970    0.0000 </r>
       <r>    1.0146    0.0000 </r>
       <r>    1.2481    0.0000 </r>
       <r>    1.5193    0.0000 </r>
       <r>    1.6958    0.0000 </r>
      </set>
      <set comment="kpoint 31">
       <r>  -27.7920    1.0000 </r>
       <r>  -27.7876    1.0000 </r>
       <r>  -27.7855    1.0000 </r>
       <r>  -27.7835    1.0000 </r>
       <r>  -27.7749    1.0000 </r>
       <r>  -27.7721    1.0000 </r>
       <r>  -27.7645    1.0000 </r>
       <r>  -27.7636    1.0000 </r>
       <r>  -27.7455    1.0000 </r>
       <r>  -27.7447    1.0000 </r>
       <r>  -16.1421    1.0000 </r>
       <r>  -15.9030    1.0000 </r>
       <r>  -15.1677    1.0000 </r>
       <r>  -15.1176    1.0000 </r>
       <r>  -10.5078    1.0000 </r>
       <r>  -10.2922    1.0000 </r>
       <r>   -7.0050    1.0000 </r>
       <r>   -6.8833    1.0000 </r>
       <r>   -6.1725    1.0000 </r>
       <r>   -5.9718    1.0000 </r>
       <r>   -5.3906    1.0000 </r>
       <r>   -5.3362    1.0000 </r>
       <r>   -4.2633    1.0000 </r>
       <r>   -4.1275    1.0000 </r>
       <r>   -3.4095    1.0000 </r>
       <r>   -3.2075    1.0000 </r>
       <r>   -0.7110    0.0000 </r>
       <r>   -0.6010    0.0000 </r>
       <r>    1.1243    0.0000 </r>
       <r>    1.3043    0.0000 </r>
       <r>    1.5092    0.0000 </r>
       <r>    1.5508    0.0000 </r>
      </set>
      <set comment="kpoint 32">
       <r>  -27.7912    1.0000 </r>
       <r>  -27.7884    1.0000 </r>
       <r>  -27.7864    1.0000 </r>
       <r>  -27.7827    1.0000 </r>
       <r>  -27.7741    1.0000 </r>
       <r>  -27.7729    1.0000 </r>
       <r>  -27.7641    1.0000 </r>
       <r>  -27.7640    1.0000 </r>
       <r>  -27.7452    1.0000 </r>
       <r>  -27.7450    1.0000 </r>
       <r>  -16.0946    1.0000 </r>
       <r>  -15.9578    1.0000 </r>
       <r>  -15.1539    1.0000 </r>
       <r>  -15.1280    1.0000 </r>
       <r>  -10.5201    1.0000 </r>
       <r>  -10.2654    1.0000 </r>
[...]
       <r>    1.2216    0.0000 </r>
       <r>    1.4672    0.0000 </r>
      </set>
      <set comment="kpoint 96">
       <r>  -27.7921    1.0000 </r>
       <r>  -27.7897    1.0000 </r>
       <r>  -27.7848    1.0000 </r>
       <r>  -27.7816    1.0000 </r>
       <r>  -27.7745    1.0000 </r>
       <r>  -27.7732    1.0000 </r>
       <r>  -27.7639    1.0000 </r>
       <r>  -27.7639    1.0000 </r>
       <r>  -27.7452    1.0000 </r>
       <r>  -27.7451    1.0000 </r>
       <r>  -16.1577    1.0000 </r>
       <r>  -16.0346    1.0000 </r>
       <r>  -15.1196    1.0000 </r>
       <r>  -15.0853    1.0000 </r>
       <r>  -10.5434    1.0000 </r>
       <r>  -10.2810    1.0000 </r>
       <r>   -6.7804    1.0000 </r>
       <r>   -6.7392    1.0000 </r>
       <r>   -6.0273    1.0000 </r>
       <r>   -5.7775    1.0000 </r>
       <r>   -5.3951    1.0000 </r>
       <r>   -5.2757    1.0000 </r>
       <r>   -4.2352    1.0000 </r>
       <r>   -4.1628    1.0000 </r>
       <r>   -3.0984    1.0000 </r>
       <r>   -2.9882    1.0000 </r>
       <r>   -0.9625    0.0000 </r>
       <r>   -0.7038    0.0000 </r>
       <r>    0.8394    0.0000 </r>
       <r>    1.0336    0.0000 </r>
       <r>    1.1509    0.0000 </r>
       <r>    1.4297    0.0000 </r>
      </set>
      <set comment="kpoint 97">
       <r>  -27.7913    1.0000 </r>
       <r>  -27.7896    1.0000 </r>
       <r>  -27.7853    1.0000 </r>
       <r>  -27.7824    1.0000 </r>
       <r>  -27.7740    1.0000 </r>
       <r>  -27.7722    1.0000 </r>
       <r>  -27.7644    1.0000 </r>
       <r>  -27.7642    1.0000 </r>
       <r>  -27.7454    1.0000 </r>
       <r>  -27.7451    1.0000 </r>
       <r>  -16.2091    1.0000 </r>
       <r>  -16.0494    1.0000 </r>
       <r>  -15.1167    1.0000 </r>
       <r>  -15.0653    1.0000 </r>
       <r>  -10.4397    1.0000 </r>
       <r>  -10.1472    1.0000 </r>
       <r>   -6.7845    1.0000 </r>
       <r>   -6.7405    1.0000 </r>
       <r>   -6.1395    1.0000 </r>
       <r>   -5.9797    1.0000 </r>
       <r>   -5.3019    1.0000 </r>
       <r>   -5.1490    1.0000 </r>
       <r>   -4.2250    1.0000 </r>
       <r>   -4.1104    1.0000 </r>
       <r>   -3.2935    1.0000 </r>
       <r>   -3.1659    1.0000 </r>
       <r>   -0.6956    0.0000 </r>
       <r>   -0.5859    0.0000 </r>
       <r>    0.7453    0.0000 </r>
       <r>    0.9739    0.0000 </r>
       <r>    1.1324    0.0000 </r>
       <r>    1.3460    0.0000 </r>
      </set>
      <set comment="kpoint 98">
       <r>  -27.7904    1.0000 </r>
       <r>  -27.7899    1.0000 </r>
       <r>  -27.7854    1.0000 </r>
       <r>  -27.7833    1.0000 </r>
       <r>  -27.7738    1.0000 </r>
       <r>  -27.7715    1.0000 </r>
       <r>  -27.7648    1.0000 </r>
       <r>  -27.7644    1.0000 </r>
       <r>  -27.7456    1.0000 </r>
       <r>  -27.7450    1.0000 </r>
       <r>  -16.2453    1.0000 </r>
       <r>  -16.0560    1.0000 </r>
       <r>  -15.1172    1.0000 </r>
       <r>  -15.0511    1.0000 </r>
       <r>  -10.3623    1.0000 </r>
       <r>  -10.0556    1.0000 </r>
       <r>   -6.8441    1.0000 </r>
       <r>   -6.6879    1.0000 </r>
       <r>   -6.2077    1.0000 </r>
       <r>   -6.1491    1.0000 </r>
       <r>   -5.1873    1.0000 </r>
       <r>   -5.0363    1.0000 </r>
       <r>   -4.2468    1.0000 </r>
       <r>   -4.0654    1.0000 </r>
       <r>   -3.4348    1.0000 </r>
       <r>   -3.3117    1.0000 </r>
       <r>   -0.5271    0.0000 </r>
       <r>   -0.4859    0.0000 </r>
       <r>    0.7031    0.0000 </r>
       <r>    0.9164    0.0000 </r>
       <r>    1.1536    0.0000 </r>
       <r>    1.2516    0.0000 </r>
      </set>
     </set>
    </set>
   </array>
  </eigenvalues>
  <separator name="orbital magnetization" >
   <v name="MAGDIPOLOUT">      0.00000000      0.00000000      0.00000000</v>
  </separator>
  <dos>
   <i name="efermi">     -2.38085401 </i>
   <total>
    <array>
     <dimension dim="1">gridpoints</dimension>
     <dimension dim="2">spin</dimension>
     <field>energy</field>
     <field>total</field>
     <field>integrated</field>
     <set>
      <set comment="spin 1">
       <r>   -29.2844     0.0000     0.0000 </r>
       <r>   -29.1752     0.0000     0.0000 </r>
       <r>   -29.0659     0.0000     0.0000 </r>
       <r>   -28.9567     0.0000     0.0000 </r>
       <r>   -28.8474     0.0000     0.0000 </r>
       <r>   -28.7382     0.0000     0.0000 </r>
       <r>   -28.6289     0.0000     0.0000 </r>
       <r>   -28.5196     0.0000     0.0000 </r>
       <r>   -28.4104     0.0000     0.0000 </r>
       <r>   -28.3011     0.0000     0.0000 </r>
       <r>   -28.1919     0.0000     0.0000 </r>
       <r>   -28.0826     0.0000     0.0000 </r>
       <r>   -27.9734     0.0000     0.0000 </r>
       <r>   -27.8641     0.0000     0.0000 </r>
       <r>   -27.7549   140.8626    15.3897 </r>
       <r>   -27.6456    42.1986    20.0000 </r>
       <r>   -27.5364     0.0000    20.0000 </r>
       <r>   -27.4271     0.0000    20.0000 </r>
       <r>   -27.3179     0.0000    20.0000 </r>
       <r>   -27.2086     0.0000    20.0000 </r>
       <r>   -27.0994     0.0000    20.0000 </r>
       <r>   -26.9901     0.0000    20.0000 </r>
       <r>   -26.8809     0.0000    20.0000 </r>
       <r>   -26.7716     0.0000    20.0000 </r>
       <r>   -26.6623     0.0000    20.0000 </r>
       <r>   -26.5531     0.0000    20.0000 </r>
       <r>   -26.4438     0.0000    20.0000 </r>
       <r>   -26.3346     0.0000    20.0000 </r>
       <r>   -26.2253     0.0000    20.0000 </r>
       <r>   -26.1161     0.0000    20.0000 </r>
       <r>   -26.0068     0.0000    20.0000 </r>
       <r>   -25.8976     0.0000    20.0000 </r>
       <r>   -25.7883     0.0000    20.0000 </r>
       <r>   -25.6791     0.0000    20.0000 </r>
       <r>   -25.5698     0.0000    20.0000 </r>
       <r>   -25.4606     0.0000    20.0000 </r>
       <r>   -25.3513     0.0000    20.0000 </r>
       <r>   -25.2421     0.0000    20.0000 </r>
       <r>   -25.1328     0.0000    20.0000 </r>
       <r>   -25.0236     0.0000    20.0000 </r>
       <r>   -24.9143     0.0000    20.0000 </r>
       <r>   -24.8050     0.0000    20.0000 </r>
       <r>   -24.6958     0.0000    20.0000 </r>
       <r>   -24.5865     0.0000    20.0000 </r>
       <r>   -24.4773     0.0000    20.0000 </r>
       <r>   -24.3680     0.0000    20.0000 </r>
       <r>   -24.2588     0.0000    20.0000 </r>
       <r>   -24.1495     0.0000    20.0000 </r>
       <r>   -24.0403     0.0000    20.0000 </r>
       <r>   -23.9310     0.0000    20.0000 </r>
       <r>   -23.8218     0.0000    20.0000 </r>
       <r>   -23.7125     0.0000    20.0000 </r>
       <r>   -23.6033     0.0000    20.0000 </r>
       <r>   -23.4940     0.0000    20.0000 </r>
       <r>   -23.3848     0.0000    20.0000 </r>
       <r>   -23.2755     0.0000    20.0000 </r>
       <r>   -23.1662     0.0000    20.0000 </r>
       <r>   -23.0570     0.0000    20.0000 </r>
       <r>   -22.9477     0.0000    20.0000 </r>
       <r>   -22.8385     0.0000    20.0000 </r>
       <r>   -22.7292     0.0000    20.0000 </r>
       <r>   -22.6200     0.0000    20.0000 </r>
       <r>   -22.5107     0.0000    20.0000 </r>
       <r>   -22.4015     0.0000    20.0000 </r>
       <r>   -22.2922     0.0000    20.0000 </r>
       <r>   -22.1830     0.0000    20.0000 </r>
       <r>   -22.0737     0.0000    20.0000 </r>
       <r>   -21.9645     0.0000    20.0000 </r>
       <r>   -21.8552     0.0000    20.0000 </r>
       <r>   -21.7460     0.0000    20.0000 </r>
       <r>   -21.6367     0.0000    20.0000 </r>
       <r>   -21.5275     0.0000    20.0000 </r>
       <r>   -21.4182     0.0000    20.0000 </r>
       <r>   -21.3089     0.0000    20.0000 </r>
       <r>   -21.1997     0.0000    20.0000 </r>
       <r>   -21.0904     0.0000    20.0000 </r>
       <r>   -20.9812     0.0000    20.0000 </r>
       <r>   -20.8719     0.0000    20.0000 </r>
       <r>   -20.7627     0.0000    20.0000 </r>
       <r>   -20.6534     0.0000    20.0000 </r>
       <r>   -20.5442     0.0000    20.0000 </r>
       <r>   -20.4349     0.0000    20.0000 </r>
       <r>   -20.3257     0.0000    20.0000 </r>
       <r>   -20.2164     0.0000    20.0000 </r>
       <r>   -20.1072     0.0000    20.0000 </r>
       <r>   -19.9979     0.0000    20.0000 </r>
       <r>   -19.8887     0.0000    20.0000 </r>
       <r>   -19.7794     0.0000    20.0000 </r>
       <r>   -19.6702     0.0000    20.0000 </r>
       <r>   -19.5609     0.0000    20.0000 </r>
       <r>   -19.4516     0.0000    20.0000 </r>
       <r>   -19.3424     0.0000    20.0000 </r>
       <r>   -19.2331     0.0000    20.0000 </r>
       <r>   -19.1239     0.0000    20.0000 </r>
       <r>   -19.0146     0.0000    20.0000 </r>
       <r>   -18.9054     0.0000    20.0000 </r>
       <r>   -18.7961     0.0000    20.0000 </r>
       <r>   -18.6869     0.0000    20.0000 </r>
       <r>   -18.5776     0.0000    20.0000 </r>
       <r>   -18.4684     0.0000    20.0000 </r>
       <r>   -18.3591     0.0000    20.0000 </r>
       <r>   -18.2499     0.0000    20.0000 </r>
       <r>   -18.1406     0.0000    20.0000 </r>
       <r>   -18.0314     0.0000    20.0000 </r>
       <r>   -17.9221     0.0000    20.0000 </r>
       <r>   -17.8128     0.0000    20.0000 </r>
       <r>   -17.7036     0.0000    20.0000 </r>
       <r>   -17.5943     0.0000    20.0000 </r>
       <r>   -17.4851     0.0000    20.0000 </r>
       <r>   -17.3758     0.0000    20.0000 </r>
       <r>   -17.2666     0.0000    20.0000 </r>
       <r>   -17.1573     0.0000    20.0000 </r>
       <r>   -17.0481     0.0000    20.0000 </r>
       <r>   -16.9388     0.0011    20.0001 </r>
       <r>   -16.8296     1.2671    20.1386 </r>
       <r>   -16.7203     2.0244    20.3597 </r>
       <r>   -16.6111     1.8197    20.5585 </r>
       <r>   -16.5018     1.9225    20.7686 </r>
       <r>   -16.3926     2.3690    21.0274 </r>
       <r>   -16.2833     2.0850    21.2552 </r>
       <r>   -16.1741     2.4375    21.5215 </r>
       <r>   -16.0648     2.8706    21.8351 </r>
       <r>   -15.9555     3.8959    22.2608 </r>
       <r>   -15.8463     3.3073    22.6221 </r>
       <r>   -15.7370     2.6866    22.9156 </r>
       <r>   -15.6278     1.6230    23.0929 </r>
       <r>   -15.5185     2.0503    23.3169 </r>
       <r>   -15.4093     1.2067    23.4488 </r>
       <r>   -15.3000     5.6484    24.0659 </r>
       <r>   -15.1908     7.9496    24.9344 </r>
       <r>   -15.0815    14.1221    26.4773 </r>
       <r>   -14.9723     8.3080    27.3850 </r>
       <r>   -14.8630     3.7128    27.7906 </r>
       <r>   -14.7538     1.8530    27.9931 </r>
       <r>   -14.6445     0.0635    28.0000 </r>
       <r>   -14.5353     0.0000    28.0000 </r>
       <r>   -14.4260     0.0000    28.0000 </r>
       <r>   -14.3168     0.0000    28.0000 </r>
       <r>   -14.2075     0.0000    28.0000 </r>
       <r>   -14.0982     0.0000    28.0000 </r>
       <r>   -13.9890     0.0000    28.0000 </r>
       <r>   -13.8797     0.0000    28.0000 </r>
       <r>   -13.7705     0.0000    28.0000 </r>
       <r>   -13.6612     0.0000    28.0000 </r>
       <r>   -13.5520     0.0000    28.0000 </r>
       <r>   -13.4427     0.0000    28.0000 </r>
       <r>   -13.3335     0.0000    28.0000 </r>
       <r>   -13.2242     0.0000    28.0000 </r>
       <r>   -13.1150     0.0000    28.0000 </r>
       <r>   -13.0057     0.0000    28.0000 </r>
       <r>   -12.8965     0.0000    28.0000 </r>
       <r>   -12.7872     0.0000    28.0000 </r>
       <r>   -12.6780     0.0000    28.0000 </r>
       <r>   -12.5687     0.0000    28.0000 </r>
       <r>   -12.4594     0.0000    28.0000 </r>
       <r>   -12.3502     0.0000    28.0000 </r>
       <r>   -12.2409     0.0000    28.0000 </r>
       <r>   -12.1317     0.0000    28.0000 </r>
       <r>   -12.0224     0.0000    28.0000 </r>
       <r>   -11.9132     0.0000    28.0000 </r>
       <r>   -11.8039     0.0165    28.0018 </r>
       <r>   -11.6947     0.5810    28.0653 </r>
       <r>   -11.5854     0.5556    28.1260 </r>
       <r>   -11.4762     0.8293    28.2166 </r>
       <r>   -11.3669     0.9267    28.3178 </r>
       <r>   -11.2577     0.9763    28.4245 </r>
       <r>   -11.1484     1.4317    28.5809 </r>
       <r>   -11.0392     0.5877    28.6451 </r>
       <r>   -10.9299     2.9733    28.9700 </r>
       <r>   -10.8207     1.6923    29.1549 </r>
       <r>   -10.7114     3.9225    29.5834 </r>
       <r>   -10.6021     2.7479    29.8836 </r>
       <r>   -10.4929     1.7846    30.0786 </r>
       <r>   -10.3836     2.2344    30.3227 </r>
       <r>   -10.2744     1.3407    30.4692 </r>
       <r>   -10.1651     1.6623    30.6508 </r>
       <r>   -10.0559     1.2115    30.7832 </r>
       <r>    -9.9466     1.5137    30.9486 </r>
       <r>    -9.8374     1.2949    31.0900 </r>
       <r>    -9.7281     1.3555    31.2381 </r>
       <r>    -9.6189     1.3750    31.3884 </r>
       <r>    -9.5096     1.3924    31.5405 </r>
       <r>    -9.4004     1.3419    31.6871 </r>
       <r>    -9.2911     1.6812    31.8708 </r>
       <r>    -9.1819     1.1824    31.9999 </r>
       <r>    -9.0726     0.0005    32.0000 </r>
       <r>    -8.9634     0.0000    32.0000 </r>
       <r>    -8.8541     0.0000    32.0000 </r>
       <r>    -8.7448     0.0000    32.0000 </r>
       <r>    -8.6356     0.0000    32.0000 </r>
       <r>    -8.5263     0.0000    32.0000 </r>
       <r>    -8.4171     0.0000    32.0000 </r>
       <r>    -8.3078     0.0000    32.0000 </r>
       <r>    -8.1986     0.0000    32.0000 </r>
       <r>    -8.0893     0.0000    32.0000 </r>
       <r>    -7.9801     0.0000    32.0000 </r>
       <r>    -7.8708     0.0000    32.0000 </r>
       <r>    -7.7616     0.0000    32.0000 </r>
       <r>    -7.6523     0.0000    32.0000 </r>
       <r>    -7.5431     0.0000    32.0000 </r>
       <r>    -7.4338     1.0795    32.1179 </r>
       <r>    -7.3246     2.7369    32.4170 </r>
       <r>    -7.2153     2.1312    32.6498 </r>
       <r>    -7.1060     1.9090    32.8584 </r>
       <r>    -6.9968     1.9254    33.0687 </r>
       <r>    -6.8875     2.3960    33.3305 </r>
       <r>    -6.7783    10.0812    34.4319 </r>
       <r>    -6.6690     5.5335    35.0364 </r>
       <r>    -6.5598     2.1699    35.2735 </r>
       <r>    -6.4505     2.0069    35.4928 </r>
       <r>    -6.3413     2.3066    35.7448 </r>
       <r>    -6.2320     3.9364    36.1748 </r>
       <r>    -6.1228     7.1939    36.9608 </r>
       <r>    -6.0135     4.2231    37.4222 </r>
       <r>    -5.9043     4.8234    37.9492 </r>
       <r>    -5.7950     3.5006    38.3316 </r>
       <r>    -5.6858     4.6798    38.8429 </r>
       <r>    -5.5765     4.5972    39.3452 </r>
       <r>    -5.4673     7.1579    40.1272 </r>
       <r>    -5.3580     8.8186    41.0907 </r>
       <r>    -5.2487     6.4850    41.7992 </r>
       <r>    -5.1395     5.9619    42.4505 </r>
       <r>    -5.0302     4.6812    42.9620 </r>
       <r>    -4.9210     3.9113    43.3893 </r>
       <r>    -4.8117     2.9710    43.7139 </r>
       <r>    -4.7025     3.1881    44.0622 </r>
       <r>    -4.5932     4.1306    44.5135 </r>
       <r>    -4.4840     2.1199    44.7451 </r>
       <r>    -4.3747     4.5592    45.2432 </r>
       <r>    -4.2655     6.8326    45.9897 </r>
       <r>    -4.1562     4.1184    46.4397 </r>
       <r>    -4.0470     4.4507    46.9259 </r>
       <r>    -3.9377     3.8307    47.3444 </r>
       <r>    -3.8285     3.7171    47.7505 </r>
       <r>    -3.7192     3.6688    48.1514 </r>
       <r>    -3.6100     2.6803    48.4442 </r>
       <r>    -3.5007     2.9313    48.7645 </r>
       <r>    -3.3914     2.7979    49.0702 </r>
       <r>    -3.2822     2.9192    49.3891 </r>
       <r>    -3.1729     2.5849    49.6715 </r>
       <r>    -3.0637     3.5745    50.0620 </r>
       <r>    -2.9544     2.9223    50.3813 </r>
       <r>    -2.8452     4.2148    50.8418 </r>
       <r>    -2.7359     3.7194    51.2482 </r>
       <r>    -2.6267     3.9690    51.6818 </r>
       <r>    -2.5174     2.1074    51.9120 </r>
       <r>    -2.4082     0.8051    52.0000 </r>
       <r>    -2.2989     0.0000    52.0000 </r>
       <r>    -2.1897     0.0000    52.0000 </r>
       <r>    -2.0804     0.0000    52.0000 </r>
       <r>    -1.9712     0.0000    52.0000 </r>
       <r>    -1.8619     0.0366    52.0040 </r>
       <r>    -1.7526     0.2772    52.0343 </r>
       <r>    -1.6434     0.5424    52.0935 </r>
       <r>    -1.5341     2.5426    52.3713 </r>
       <r>    -1.4249     2.2157    52.6134 </r>
       <r>    -1.3156     4.1026    53.0616 </r>
       <r>    -1.2064     3.8954    53.4872 </r>
       <r>    -1.0971     3.5012    53.8697 </r>
       <r>    -0.9879     3.2946    54.2297 </r>
       <r>    -0.8786     4.7663    54.7504 </r>
       <r>    -0.7694     3.5118    55.1341 </r>
       <r>    -0.6601     4.0374    55.5752 </r>
       <r>    -0.5509     1.8650    55.7789 </r>
       <r>    -0.4416     1.9959    55.9970 </r>
       <r>    -0.3324     1.5185    56.1629 </r>
       <r>    -0.2231     0.1057    56.1745 </r>
       <r>    -0.1139     0.3705    56.2149 </r>
       <r>    -0.0046     0.1183    56.2278 </r>
       <r>     0.1047     0.4370    56.2756 </r>
       <r>     0.2139     1.2958    56.4172 </r>
       <r>     0.3232     1.4928    56.5803 </r>
       <r>     0.4324     1.9397    56.7922 </r>
       <r>     0.5417     2.2962    57.0430 </r>
       <r>     0.6509     1.7835    57.2379 </r>
       <r>     0.7602     3.8813    57.6619 </r>
       <r>     0.8694     3.4100    58.0345 </r>
       <r>     0.9787     4.9751    58.5780 </r>
       <r>     1.0879     8.2382    59.4781 </r>
       <r>     1.1972     7.8386    60.3345 </r>
       <r>     1.3064     6.0663    60.9972 </r>
       <r>     1.4157     6.7439    61.7340 </r>
       <r>     1.5249     6.4685    62.4407 </r>
       <r>     1.6342     5.2797    63.0176 </r>
       <r>     1.7434     4.6646    63.5272 </r>
       <r>     1.8527     2.7777    63.8306 </r>
       <r>     1.9620     0.9227    63.9315 </r>
       <r>     2.0712     0.6274    64.0000 </r>
       <r>     2.1805     0.0000    64.0000 </r>
       <r>     2.2897     0.0000    64.0000 </r>
       <r>     2.3990     0.0000    64.0000 </r>
       <r>     2.5082     0.0000    64.0000 </r>
       <r>     2.6175     0.0000    64.0000 </r>
       <r>     2.7267     0.0000    64.0000 </r>
       <r>     2.8360     0.0000    64.0000 </r>
       <r>     2.9452     0.0000    64.0000 </r>
       <r>     3.0545     0.0000    64.0000 </r>
       <r>     3.1637     0.0000    64.0000 </r>
       <r>     3.2730     0.0000    64.0000 </r>
       <r>     3.3822     0.0000    64.0000 </r>
       <r>     3.4915     0.0000    64.0000 </r>
      </set>
     </set>
    </array>
   </total>
  </dos>
 </calculation>
 <structure name="finalpos" >
  <crystal>
   <varray name="basis" >
    <v>       4.90583200       0.04906300       0.00000000 </v>
    <v>       0.05571500       5.57092300       0.00000000 </v>
    <v>       0.00000000       0.00000000      18.07929100 </v>
   </varray>
   <i name="volume">    494.05782526 </i>
   <varray name="rec_basis" >
    <v>       0.20385941      -0.00203881       0.00000000 </v>
    <v>      -0.00179539       0.17952142       0.00000000 </v>
    <v>       0.00000000       0.00000000       0.05531190 </v>
   </varray>
  </crystal>
  <varray name="positions" >
   <v>       0.50000000       0.50000000       0.49964721 </v>
   <v>       0.00000000       0.00000000       0.49964721 </v>
   <v>       0.25000000       0.25000000       0.41519577 </v>
   <v>       0.75000000       0.75000000       0.41519577 </v>
   <v>       0.75000000       0.25000000       0.58515703 </v>
   <v>       0.25000000       0.75000000       0.58515703 </v>
  </varray>
 </structure>
</modeling>
