<?xml version="1.0" encoding="ISO-8859-1"?>
<modeling>
 <generator>
  <i name="program" type="string">vasp </i>
  <i name="version" type="string">5.4.1  </i>
  <i name="subversion" type="string">24Jun15 (build Nov 20 2020 10:29:34) complex                          parallel </i>
  <i name="platform" type="string">IFC91_ompi </i>
  <i name="date" type="string">2021 09 14 </i>
  <i name="time" type="string">00:23:38 </i>
 </generator>
 <incar>
  <i type="int" name="ISTART">     1</i>
  <i type="string" name="PREC">a</i>
  <i type="string" name="ALGO"> Normal</i>
  <i type="int" name="ISPIN">     1</i>
  <i type="int" name="ICHARG">     2</i>
  <i type="int" name="NELM">   250</i>
  <i type="int" name="NELMDL">    -5</i>
  <i type="int" name="NELMIN">     6</i>
  <i type="int" name="IBRION">     2</i>
  <i name="EDIFF">      0.00001000</i>
  <i name="EDIFFG">     -0.00500000</i>
  <i type="int" name="NSW">     0</i>
  <i type="int" name="ISIF">     2</i>
  <i name="ENCUT">    520.00000000</i>
  <i name="POTIM">      0.25000000</i>
  <v name="MAGMOM">      0.60000000      0.60000000</v>
  <i type="string" name="LREAL"> Auto</i>
  <i type="int" name="ISMEAR">     0</i>
  <i name="SIGMA">      0.02000000</i>
  <i type="logical" name="LWAVE"> F  </i>
  <i type="logical" name="LCHARG"> F  </i>
  <i type="logical" name="LVHAR"> F  </i>
  <v type="int" name="KPOINT_BSE">    -1     0     0     0</v>
  <i type="int" name="NELM">   250</i>
 </incar>
 <kpoints>
  <generation param="Gamma">
   <v type="int" name="divisions">      24       24        1 </v>
   <v name="usershift">      0.00000000       0.00000000       0.00000000 </v>
   <v name="genvec1">      0.04166667      -0.00000000       0.00000000 </v>
   <v name="genvec2">      0.00000000       0.04166667       0.00000000 </v>
   <v name="genvec3">      0.00000000       0.00000000       1.00000000 </v>
   <v name="shift">      0.00000000       0.00000000       0.00000000 </v>
  </generation>
  <varray name="kpointlist" >
   <v>       0.00000000       0.00000000       0.00000000 </v>
   <v>       0.04166667      -0.00000000       0.00000000 </v>
   <v>       0.08333333       0.00000000       0.00000000 </v>
   <v>       0.12500000       0.00000000       0.00000000 </v>
   <v>       0.16666667       0.00000000       0.00000000 </v>
   <v>       0.20833333       0.00000000       0.00000000 </v>
   <v>       0.25000000       0.00000000       0.00000000 </v>
   <v>       0.29166667       0.00000000       0.00000000 </v>
   <v>       0.33333333       0.00000000       0.00000000 </v>
   <v>       0.37500000       0.00000000       0.00000000 </v>
   <v>       0.41666667       0.00000000       0.00000000 </v>
   <v>       0.45833333       0.00000000       0.00000000 </v>
   <v>       0.50000000       0.00000000       0.00000000 </v>
   <v>       0.04166667       0.04166667       0.00000000 </v>
   <v>       0.08333333       0.04166667       0.00000000 </v>
   <v>       0.12500000       0.04166667       0.00000000 </v>
   <v>       0.16666667       0.04166667       0.00000000 </v>
   <v>       0.20833333       0.04166667       0.00000000 </v>
   <v>       0.25000000       0.04166667       0.00000000 </v>
   <v>       0.29166667       0.04166667       0.00000000 </v>
   <v>       0.33333333       0.04166667       0.00000000 </v>
   <v>       0.37500000       0.04166667       0.00000000 </v>
   <v>       0.41666667       0.04166667       0.00000000 </v>
   <v>       0.45833333       0.04166667       0.00000000 </v>
   <v>       0.08333333       0.08333333       0.00000000 </v>
   <v>       0.12500000       0.08333333       0.00000000 </v>
   <v>       0.16666667       0.08333333       0.00000000 </v>
   <v>       0.20833333       0.08333333       0.00000000 </v>
   <v>       0.25000000       0.08333333       0.00000000 </v>
   <v>       0.29166667       0.08333333       0.00000000 </v>
   <v>       0.33333333       0.08333333       0.00000000 </v>
   <v>       0.37500000       0.08333333       0.00000000 </v>
   <v>       0.41666667       0.08333333       0.00000000 </v>
   <v>       0.45833333       0.08333333       0.00000000 </v>
   <v>       0.12500000       0.12500000       0.00000000 </v>
   <v>       0.16666667       0.12500000       0.00000000 </v>
   <v>       0.20833333       0.12500000       0.00000000 </v>
   <v>       0.25000000       0.12500000       0.00000000 </v>
   <v>       0.29166667       0.12500000       0.00000000 </v>
   <v>       0.33333333       0.12500000       0.00000000 </v>
   <v>       0.37500000       0.12500000       0.00000000 </v>
   <v>       0.41666667       0.12500000       0.00000000 </v>
   <v>       0.16666667       0.16666667       0.00000000 </v>
   <v>       0.20833333       0.16666667       0.00000000 </v>
   <v>       0.25000000       0.16666667       0.00000000 </v>
   <v>       0.29166667       0.16666667       0.00000000 </v>
   <v>       0.33333333       0.16666667       0.00000000 </v>
   <v>       0.37500000       0.16666667       0.00000000 </v>
   <v>       0.41666667       0.16666667       0.00000000 </v>
   <v>       0.20833333       0.20833333       0.00000000 </v>
   <v>       0.25000000       0.20833333       0.00000000 </v>
   <v>       0.29166667       0.20833333       0.00000000 </v>
   <v>       0.33333333       0.20833333       0.00000000 </v>
   <v>       0.37500000       0.20833333       0.00000000 </v>
   <v>       0.25000000       0.25000000       0.00000000 </v>
   <v>       0.29166667       0.25000000       0.00000000 </v>
   <v>       0.33333333       0.25000000       0.00000000 </v>
   <v>       0.37500000       0.25000000       0.00000000 </v>
   <v>       0.29166667       0.29166667       0.00000000 </v>
   <v>       0.33333333       0.29166667       0.00000000 </v>
   <v>       0.33333333       0.33333333       0.00000000 </v>
  </varray>
  <varray name="weights" >
   <v>       0.00173611 </v>
   <v>       0.01041667 </v>
   <v>       0.01041667 </v>
   <v>       0.01041667 </v>
   <v>       0.01041667 </v>
   <v>       0.01041667 </v>
   <v>       0.01041667 </v>
   <v>       0.01041667 </v>
   <v>       0.01041667 </v>
   <v>       0.01041667 </v>
   <v>       0.01041667 </v>
   <v>       0.01041667 </v>
   <v>       0.00520833 </v>
   <v>       0.01041667 </v>
   <v>       0.02083333 </v>
   <v>       0.02083333 </v>
   <v>       0.02083333 </v>
   <v>       0.02083333 </v>
   <v>       0.02083333 </v>
   <v>       0.02083333 </v>
   <v>       0.02083333 </v>
   <v>       0.02083333 </v>
   <v>       0.02083333 </v>
   <v>       0.02083333 </v>
   <v>       0.01041667 </v>
   <v>       0.02083333 </v>
   <v>       0.02083333 </v>
   <v>       0.02083333 </v>
   <v>       0.02083333 </v>
   <v>       0.02083333 </v>
   <v>       0.02083333 </v>
   <v>       0.02083333 </v>
   <v>       0.02083333 </v>
   <v>       0.01041667 </v>
   <v>       0.01041667 </v>
   <v>       0.02083333 </v>
   <v>       0.02083333 </v>
   <v>       0.02083333 </v>
   <v>       0.02083333 </v>
   <v>       0.02083333 </v>
   <v>       0.02083333 </v>
   <v>       0.02083333 </v>
   <v>       0.01041667 </v>
   <v>       0.02083333 </v>
   <v>       0.02083333 </v>
   <v>       0.02083333 </v>
   <v>       0.02083333 </v>
   <v>       0.02083333 </v>
   <v>       0.01041667 </v>
   <v>       0.01041667 </v>
   <v>       0.02083333 </v>
   <v>       0.02083333 </v>
   <v>       0.02083333 </v>
   <v>       0.02083333 </v>
   <v>       0.01041667 </v>
   <v>       0.02083333 </v>
   <v>       0.02083333 </v>
   <v>       0.01041667 </v>
   <v>       0.01041667 </v>
   <v>       0.02083333 </v>
   <v>       0.00347222 </v>
  </varray>
 </kpoints>
 <parameters>
  <separator name="general" >
   <i type="string" name="SYSTEM">unknown system</i>
   <i type="logical" name="LCOMPAT"> F  </i>
  </separator>
  <separator name="electronic" >
   <i type="string" name="PREC">a</i>
   <i name="ENMAX">    520.00000000</i>
   <i name="ENAUG">    644.87300000</i>
   <i name="EDIFF">      0.00001000</i>
   <i type="int" name="IALGO">    38</i>
   <i type="int" name="IWAVPR">    10</i>
   <i type="int" name="NBANDS">    12</i>
   <i name="NELECT">      8.00000000</i>
   <i type="int" name="TURBO">     0</i>
   <i type="int" name="IRESTART">     0</i>
   <i type="int" name="NREBOOT">     0</i>
   <i type="int" name="NMIN">     0</i>
   <i name="EREF">      0.00000000</i>
   <separator name="electronic smearing" >
    <i type="int" name="ISMEAR">     0</i>
    <i name="SIGMA">      0.02000000</i>
    <i name="KSPACING">      0.50000000</i>
    <i type="logical" name="KGAMMA"> T  </i>
   </separator>
   <separator name="electronic projectors" >
    <i type="logical" name="LREAL"> T  </i>
    <v name="ROPT">     -0.00025000</v>
    <i type="int" name="LMAXPAW">  -100</i>
    <i type="int" name="LMAXMIX">     2</i>
    <i type="logical" name="NLSPLINE"> F  </i>
   </separator>
   <separator name="electronic startup" >
    <i type="int" name="ISTART">     0</i>
    <i type="int" name="ICHARG">     2</i>
    <i type="int" name="INIWAV">     1</i>
   </separator>
   <separator name="electronic spin" >
    <i type="int" name="ISPIN">     1</i>
    <i type="logical" name="LNONCOLLINEAR"> F  </i>
    <v name="MAGMOM">      0.60000000      0.60000000</v>
    <i name="NUPDOWN">     -1.00000000</i>
    <i type="logical" name="LSORBIT"> F  </i>
    <v name="SAXIS">      0.00000000      0.00000000      1.00000000</v>
    <i type="logical" name="LSPIRAL"> F  </i>
    <v name="QSPIRAL">      0.00000000      0.00000000      0.00000000</v>
    <i type="logical" name="LZEROZ"> F  </i>
   </separator>
   <separator name="electronic exchange-correlation" >
    <i type="logical" name="LASPH"> F  </i>
    <i type="logical" name="LMETAGGA"> F  </i>
   </separator>
   <separator name="electronic convergence" >
    <i type="int" name="NELM">   250</i>
    <i type="int" name="NELMDL">    -5</i>
    <i type="int" name="NELMIN">     6</i>
    <i name="ENINI">    520.00000000</i>
    <separator name="electronic convergence detail" >
     <i type="logical" name="LDIAG"> T  </i>
     <i type="logical" name="LSUBROT"> F  </i>
     <i name="WEIMIN">      0.00000000</i>
     <i name="EBREAK">      0.00000021</i>
     <i name="DEPER">      0.30000000</i>
     <i type="int" name="NRMM">     4</i>
     <i name="TIME">      0.40000000</i>
    </separator>
   </separator>
   <separator name="electronic mixer" >
    <i name="AMIX">      0.40000000</i>
    <i name="BMIX">      1.00000000</i>
    <i name="AMIN">      0.10000000</i>
    <i name="AMIX_MAG">      1.60000000</i>
    <i name="BMIX_MAG">      1.00000000</i>
    <separator name="electronic mixer details" >
     <i type="int" name="IMIX">     4</i>
     <i type="logical" name="MIXFIRST"> F  </i>
     <i type="int" name="MAXMIX">   -45</i>
     <i name="WC">    100.00000000</i>
     <i type="int" name="INIMIX">     1</i>
     <i type="int" name="MIXPRE">     1</i>
     <i type="int" name="MREMOVE">     5</i>
    </separator>
   </separator>
   <separator name="electronic dipolcorrection" >
    <i type="logical" name="LDIPOL"> F  </i>
    <i type="logical" name="LMONO"> F  </i>
    <i type="int" name="IDIPOL">     0</i>
    <i name="EPSILON">      1.00000000</i>
    <v name="DIPOL">   -100.00000000   -100.00000000   -100.00000000</v>
    <i name="EFIELD">      0.00000000</i>
   </separator>
  </separator>
  <separator name="grids" >
   <i type="int" name="NGX">    18</i>
   <i type="int" name="NGY">    18</i>
   <i type="int" name="NGZ">   112</i>
   <i type="int" name="NGXF">    36</i>
   <i type="int" name="NGYF">    36</i>
   <i type="int" name="NGZF">   224</i>
   <i type="logical" name="ADDGRID"> F  </i>
  </separator>
  <separator name="ionic" >
   <i type="int" name="NSW">     0</i>
   <i type="int" name="IBRION">    -1</i>
   <i type="int" name="ISIF">     2</i>
   <i name="PSTRESS">      0.00000000</i>
   <i name="EDIFFG">     -0.00500000</i>
   <i type="int" name="NFREE">     1</i>
   <i name="POTIM">      0.25000000</i>
   <i name="SMASS">     -3.00000000</i>
   <i name="SCALEE">      1.00000000</i>
  </separator>
  <separator name="ionic md" >
   <i name="TEBEG">      0.00010000</i>
   <i name="TEEND">      0.00010000</i>
   <i type="int" name="NBLOCK">     1</i>
   <i type="int" name="KBLOCK">     1</i>
   <i type="int" name="NPACO">   256</i>
   <i name="APACO">     16.00000000</i>
  </separator>
  <separator name="symmetry" >
   <i type="int" name="ISYM">     2</i>
   <i name="SYMPREC">      0.00001000</i>
  </separator>
  <separator name="dos" >
   <i type="logical" name="LORBIT"> F  </i>
   <v name="RWIGS">     -1.00000000</v>
   <i type="int" name="NEDOS">   301</i>
   <i name="EMIN">     10.00000000</i>
   <i name="EMAX">    -10.00000000</i>
   <i name="EFERMI">      0.00000000</i>
  </separator>
  <separator name="writing" >
   <i type="int" name="NWRITE">     2</i>
   <i type="logical" name="LWAVE"> F  </i>
   <i type="logical" name="LCHARG"> F  </i>
   <i type="logical" name="LPARD"> F  </i>
   <i type="logical" name="LVTOT"> F  </i>
   <i type="logical" name="LVHAR"> F  </i>
   <i type="logical" name="LELF"> F  </i>
   <i type="logical" name="LOPTICS"> F  </i>
   <v name="STM">      0.00000000      0.00000000      0.00000000      0.00000000      0.00000000      0.00000000      0.00000000</v>
  </separator>
  <separator name="performance" >
   <i type="int" name="NPAR">     6</i>
   <i type="int" name="NSIM">     4</i>
   <i type="int" name="NBLK">    -1</i>
   <i type="logical" name="LPLANE"> T  </i>
   <i type="logical" name="LSCALAPACK"> T  </i>
   <i type="logical" name="LSCAAWARE"> F  </i>
   <i type="logical" name="LSCALU"> F  </i>
   <i type="logical" name="LASYNC"> F  </i>
   <i type="logical" name="LORBITALREAL"> F  </i>
  </separator>
  <separator name="miscellaneous" >
   <i type="int" name="IDIOT">     3</i>
   <i type="logical" name="LMUSIC"> F  </i>
   <v name="POMASS">     12.01100000</v>
   <v name="DARWINR">      0.00000000</v>
   <v name="DARWINV">      1.00000000</v>
   <i type="logical" name="LCORR"> T  </i>
  </separator>
  <i type="logical" name="GGA_COMPAT"> T  </i>
  <i type="logical" name="LBERRY"> F  </i>
  <i type="int" name="ICORELEVEL">     0</i>
  <i type="logical" name="LDAU"> F  </i>
  <i type="int" name="I_CONSTRAINED_M">     0</i>
  <separator name="electronic exchange-correlation" >
   <i type="string" name="GGA">--</i>
   <i type="int" name="VOSKOWN">     0</i>
   <i type="logical" name="LHFCALC"> F  </i>
   <i type="string" name="PRECFOCK"></i>
   <i type="logical" name="LSYMGRAD"> F  </i>
   <i type="logical" name="LHFONE"> F  </i>
   <i type="logical" name="LRHFCALC"> F  </i>
   <i type="logical" name="LTHOMAS"> F  </i>
   <i type="logical" name="LMODELHF"> F  </i>
   <i name="ENCUT4O">     -1.00000000</i>
   <i type="int" name="EXXOEP">     0</i>
   <i type="int" name="FOURORBIT">     0</i>
   <i name="AEXX">      0.00000000</i>
   <i name="HFALPHA">      0.00000000</i>
   <i name="MCALPHA">      0.00000000</i>
   <i name="ALDAX">      1.00000000</i>
   <i name="AGGAX">      1.00000000</i>
   <i name="ALDAC">      1.00000000</i>
   <i name="AGGAC">      1.00000000</i>
   <i type="int" name="NKREDX">     1</i>
   <i type="int" name="NKREDY">     1</i>
   <i type="int" name="NKREDZ">     1</i>
   <i type="logical" name="SHIFTRED"> F  </i>
   <i type="logical" name="ODDONLY"> F  </i>
   <i type="logical" name="EVENONLY"> F  </i>
   <i type="int" name="LMAXFOCK">     0</i>
   <i type="int" name="NMAXFOCKAE">     0</i>
   <i type="logical" name="LFOCKAEDFT"> F  </i>
   <i name="HFSCREEN">      0.00000000</i>
   <i name="HFSCREENC">      0.00000000</i>
   <i type="int" name="NBANDSGWLOW">     0</i>
  </separator>
  <separator name="vdW DFT" >
   <i type="logical" name="LUSE_VDW"> F  </i>
   <i name="Zab_VDW">     -0.84910000</i>
   <i name="PARAM1">      0.12340000</i>
   <i name="PARAM2">      1.00000000</i>
   <i name="PARAM3">      0.00000000</i>
  </separator>
  <separator name="model GW" >
   <i type="int" name="MODEL_GW">     0</i>
   <i name="MODEL_EPS0">     23.73764668</i>
   <i name="MODEL_ALPHA">      1.00000000</i>
  </separator>
  <separator name="linear response parameters" >
   <i type="logical" name="LEPSILON"> F  </i>
   <i type="logical" name="LRPA"> F  </i>
   <i type="logical" name="LNABLA"> F  </i>
   <i type="logical" name="LVEL"> F  </i>
   <i type="int" name="KINTER">     0</i>
   <i name="CSHIFT">      0.10000000</i>
   <i name="OMEGAMAX">     -1.00000000</i>
   <i name="DEG_THRESHOLD">      0.00200000</i>
  </separator>
  <separator name="orbital magnetization" >
   <i type="logical" name="NUCIND"> F  </i>
   <v name="MAGPOS">      0.00000000      0.00000000      0.00000000</v>
   <i type="logical" name="LNICSALL"> T  </i>
   <i type="logical" name="ORBITALMAG"> F  </i>
   <i type="logical" name="LMAGBLOCH"> F  </i>
   <i type="logical" name="LCHIMAG"> F  </i>
   <i type="logical" name="LGAUGE"> T  </i>
   <i type="int" name="MAGATOM">     0</i>
   <v name="MAGDIPOL">      0.00000000      0.00000000      0.00000000</v>
   <v name="AVECCONST">      0.00000000      0.00000000      0.00000000</v>
  </separator>
  <separator name="response functions" >
   <i type="logical" name="LADDER"> F  </i>
   <i type="logical" name="LFXC"> F  </i>
   <i type="logical" name="LHARTREE"> T  </i>
   <i type="int" name="IBSE">     0</i>
   <v type="int" name="KPOINT">    -1     0     0     0</v>
   <i type="logical" name="LTCTE"> F  </i>
   <i type="logical" name="LTETE"> F  </i>
   <i type="logical" name="LTRIPLET"> F  </i>
   <i type="logical" name="LFXCEPS"> F  </i>
   <i type="logical" name="LFXHEG"> F  </i>
   <i type="int" name="NATURALO">     0</i>
   <i type="logical" name="L2ORDER"> F  </i>
   <i type="logical" name="LUSEW"> F  </i>
   <i name="ENCUTGW">     -2.00000000</i>
   <i name="ENCUTGWSOFT">     -2.00000000</i>
   <i name="ENCUTLF">     -1.00000000</i>
   <i type="int" name="LMAXMP2">    -1</i>
   <i name="SCISSOR">      0.00000000</i>
   <i type="int" name="NOMEGA">     0</i>
   <i type="int" name="NOMEGAR">     0</i>
   <i type="int" name="NBANDSGW">    -1</i>
   <i type="int" name="NBANDSO">    -1</i>
   <i type="int" name="NBANDSV">    -1</i>
   <i type="int" name="NELM">   250</i>
   <i type="int" name="NELMHF">     1</i>
   <i type="int" name="DIM">     3</i>
   <i type="int" name="ANTIRES">     0</i>
   <i name="OMEGAMAX">    -30.00000000</i>
   <i name="OMEGAMIN">    -30.00000000</i>
   <i name="OMEGATL">   -200.00000000</i>
   <i type="int" name="OMEGAGRID">     0</i>
   <i name="CSHIFT">     -0.10000000</i>
   <i type="logical" name="SELFENERGY"> F  </i>
   <i type="logical" name="LSPECTRAL"> F  </i>
   <i type="logical" name="LSPECTRALGW"> F  </i>
   <i type="logical" name="LSINGLES"> F  </i>
   <i type="logical" name="LFERMIGW"> F  </i>
   <i type="logical" name="ODDONLYGW"> F  </i>
   <i type="logical" name="EVENONLYGW"> F  </i>
   <i type="int" name="NKREDLFX">     1</i>
   <i type="int" name="NKREDLFY">     1</i>
   <i type="int" name="NKREDLFZ">     1</i>
   <i type="int" name="MAXMEM">  1800</i>
   <i type="int" name="TELESCOPE">     0</i>
   <i type="int" name="TAUPAR">     1</i>
   <i type="int" name="OMEGAPAR">    -1</i>
   <i name="LAMBDA">      1.00000000</i>
  </separator>
  <separator name="External order field" >
   <i name="OFIELD_KAPPA">      0.00000000</i>
   <v name="OFIELD_K">      0.00000000      0.00000000      0.00000000</v>
   <i name="OFIELD_Q6_NEAR">      0.00000000</i>
   <i name="OFIELD_Q6_FAR">      0.00000000</i>
   <i name="OFIELD_A">      0.00000000</i>
  </separator>
 </parameters>
 <atominfo>
  <atoms>       2 </atoms>
  <types>       1 </types>
  <array name="atoms" >
   <dimension dim="1">ion</dimension>
   <field type="string">element</field>
   <field type="int">atomtype</field>
   <set>
    <rc><c>C </c><c>   1</c></rc>
    <rc><c>C </c><c>   1</c></rc>
   </set>
  </array>
  <array name="atomtypes" >
   <dimension dim="1">type</dimension>
   <field type="int">atomspertype</field>
   <field type="string">element</field>
   <field>mass</field>
   <field>valence</field>
   <field type="string">pseudopotential</field>
   <set>
    <rc><c>   2</c><c>C </c><c>     12.01100000</c><c>      4.00000000</c><c>  PAW_PBE C 08Apr2002                   </c></rc>
   </set>
  </array>
 </atominfo>
 <structure name="initialpos" >
  <crystal>
   <varray name="basis" >
    <v>       2.46801200       0.00000000       0.00000000 </v>
    <v>      -1.23400600       2.13736100       0.00000000 </v>
    <v>       0.00000000       0.00000000      15.00000000 </v>
   </varray>
   <i name="volume">     79.12548894 </i>
   <varray name="rec_basis" >
    <v>       0.40518442       0.23393334       0.00000000 </v>
    <v>       0.00000000       0.46786668       0.00000000 </v>
    <v>       0.00000000       0.00000000       0.06666667 </v>
   </varray>
  </crystal>
  <varray name="positions" >
   <v>       0.00000000       0.00000000       0.50000000 </v>
   <v>       0.33333300       0.66666700       0.50000000 </v>
  </varray>
 </structure>
 <calculation>
  <scstep>
   <time name="dav">    0.17    0.17</time>
   <time name="total">    0.18    0.18</time>
   <energy>
    <i name="alphaZ">      4.15273091 </i>
    <i name="ewald">    834.84031486 </i>
    <i name="hartreedc">  -1053.78936041 </i>
    <i name="XCdc">     26.34881228 </i>
    <i name="pawpsdc">    217.04409276 </i>
    <i name="pawaedc">   -218.18290438 </i>
    <i name="eentropy">     -0.00018773 </i>
    <i name="bandstr">    -67.54587125 </i>
    <i name="atom">    294.29778662 </i>
    <i name="e_fr_energy">     37.16541366 </i>
    <i name="e_wo_entrp">     37.16560139 </i>
    <i name="e_0_energy">     37.16550753 </i>
   </energy>
  </scstep>
  <scstep>
   <time name="dav">    0.23    0.23</time>
   <time name="total">    0.23    0.23</time>
   <energy>
    <i name="e_fr_energy">    -17.86744173 </i>
    <i name="e_wo_entrp">    -17.86744173 </i>
    <i name="e_0_energy">    -17.86744173 </i>
   </energy>
  </scstep>
  <scstep>
   <time name="dav">    0.26    0.26</time>
   <time name="total">    0.26    0.26</time>
   <energy>
    <i name="e_fr_energy">    -19.70618505 </i>
    <i name="e_wo_entrp">    -19.70610670 </i>
    <i name="e_0_energy">    -19.70614587 </i>
   </energy>
  </scstep>
  <scstep>
   <time name="dav">    0.27    0.27</time>
   <time name="total">    0.27    0.27</time>
   <energy>
    <i name="e_fr_energy">    -19.71413306 </i>
    <i name="e_wo_entrp">    -19.71405470 </i>
    <i name="e_0_energy">    -19.71409388 </i>
   </energy>
  </scstep>
  <scstep>
   <time name="dav">    0.24    0.24</time>
   <time name="total">    0.25    0.25</time>
   <energy>
    <i name="e_fr_energy">    -19.71413736 </i>
    <i name="e_wo_entrp">    -19.71405900 </i>
    <i name="e_0_energy">    -19.71409818 </i>
   </energy>
  </scstep>
  <scstep>
   <time name="dav">    0.22    0.22</time>
   <time name="total">    0.24    0.24</time>
   <energy>
    <i name="e_fr_energy">    -18.80755340 </i>
    <i name="e_wo_entrp">    -18.80747504 </i>
    <i name="e_0_energy">    -18.80751422 </i>
   </energy>
  </scstep>
  <scstep>
   <time name="dav">    0.24    0.24</time>
   <time name="total">    0.26    0.26</time>
   <energy>
    <i name="e_fr_energy">    -18.45788972 </i>
    <i name="e_wo_entrp">    -18.45781136 </i>
    <i name="e_0_energy">    -18.45785054 </i>
   </energy>
  </scstep>
  <scstep>
   <time name="dav">    0.23    0.23</time>
   <time name="total">    0.24    0.25</time>
   <energy>
    <i name="e_fr_energy">    -18.45035857 </i>
    <i name="e_wo_entrp">    -18.45028021 </i>
    <i name="e_0_energy">    -18.45031939 </i>
   </energy>
  </scstep>
  <scstep>
   <time name="dav">    0.22    0.22</time>
   <time name="total">    0.23    0.23</time>
   <energy>
    <i name="e_fr_energy">    -18.44846114 </i>
    <i name="e_wo_entrp">    -18.44838278 </i>
    <i name="e_0_energy">    -18.44842196 </i>
   </energy>
  </scstep>
  <scstep>
   <time name="dav">    0.18    0.18</time>
   <time name="total">    0.20    0.20</time>
   <energy>
    <i name="e_fr_energy">    -18.44693875 </i>
    <i name="e_wo_entrp">    -18.44686039 </i>
    <i name="e_0_energy">    -18.44689957 </i>
   </energy>
  </scstep>
  <scstep>
   <time name="dav">    0.18    0.18</time>
   <time name="total">    0.20    0.20</time>
   <energy>
    <i name="e_fr_energy">    -18.44718546 </i>
    <i name="e_wo_entrp">    -18.44710710 </i>
    <i name="e_0_energy">    -18.44714628 </i>
   </energy>
  </scstep>
  <scstep>
   <time name="dav">    0.19    0.19</time>
   <time name="total">    0.20    0.20</time>
   <energy>
    <i name="e_fr_energy">    -18.44738615 </i>
    <i name="e_wo_entrp">    -18.44730779 </i>
    <i name="e_0_energy">    -18.44734697 </i>
   </energy>
  </scstep>
  <scstep>
   <time name="dav">    0.19    0.19</time>
   <time name="total">    0.20    0.20</time>
   <energy>
    <i name="e_fr_energy">    -18.44810735 </i>
    <i name="e_wo_entrp">    -18.44802899 </i>
    <i name="e_0_energy">    -18.44806817 </i>
   </energy>
  </scstep>
  <scstep>
   <time name="dav">    0.23    0.23</time>
   <time name="total">    0.25    0.25</time>
   <energy>
    <i name="e_fr_energy">    -18.44815784 </i>
    <i name="e_wo_entrp">    -18.44807948 </i>
    <i name="e_0_energy">    -18.44811866 </i>
   </energy>
  </scstep>
  <scstep>
   <time name="dav">    0.18    0.18</time>
   <time name="total">    0.20    0.21</time>
   <energy>
    <i name="e_fr_energy">    -18.44825928 </i>
    <i name="e_wo_entrp">    -18.44818092 </i>
    <i name="e_0_energy">    -18.44822010 </i>
   </energy>
  </scstep>
  <scstep>
   <time name="dav">    0.18    0.18</time>
   <time name="total">    0.19    0.19</time>
   <energy>
    <i name="alphaZ">      4.15273091 </i>
    <i name="ewald">    834.84031486 </i>
    <i name="hartreedc">  -1086.83377616 </i>
    <i name="XCdc">     27.52879996 </i>
    <i name="pawpsdc">    832.81115051 </i>
    <i name="pawaedc">   -834.17799103 </i>
    <i name="eentropy">     -0.00007836 </i>
    <i name="bandstr">    -91.06720396 </i>
    <i name="atom">    294.29778662 </i>
    <i name="e_fr_energy">    -18.44826664 </i>
    <i name="e_wo_entrp">    -18.44818828 </i>
    <i name="e_0_energy">    -18.44822746 </i>
   </energy>
  </scstep>
  <structure>
   <crystal>
    <varray name="basis" >
     <v>       2.46801200       0.00000000       0.00000000 </v>
     <v>      -1.23400600       2.13736100       0.00000000 </v>
     <v>       0.00000000       0.00000000      15.00000000 </v>
    </varray>
    <i name="volume">     79.12548894 </i>
    <varray name="rec_basis" >
     <v>       0.40518442       0.23393334       0.00000000 </v>
     <v>       0.00000000       0.46786668       0.00000000 </v>
     <v>       0.00000000       0.00000000       0.06666667 </v>
    </varray>
   </crystal>
   <varray name="positions" >
    <v>       0.00000000       0.00000000       0.50000000 </v>
    <v>       0.33333300       0.66666700       0.50000000 </v>
   </varray>
  </structure>
  <varray name="forces" >
   <v>      -0.00000000       0.00000000       0.00000000 </v>
   <v>       0.00000000      -0.00000000       0.00000000 </v>
  </varray>
  <varray name="stress" >
   <v>      -0.14960426       0.00000000      -0.00000000 </v>
   <v>      -0.00000000      -0.14960424       0.00000000 </v>
   <v>       0.00000000       0.00000000      -0.00791330 </v>
  </varray>
  <energy>
   <i name="e_fr_energy">    -18.44826664 </i>
   <i name="e_wo_entrp">    -18.44822746 </i>
   <i name="e_0_energy">     -0.00007836 </i>
  </energy>
  <time name="totalsc">    3.76    3.79</time>
  <eigenvalues>
   <array>
    <dimension dim="1">band</dimension>
    <dimension dim="2">kpoint</dimension>
    <dimension dim="3">spin</dimension>
    <field>eigene</field>
    <field>occ</field>
    <set>
     <set comment="spin 1">
      <set comment="kpoint 1">
       <r>  -21.7504    1.0000 </r>
       <r>   -9.8560    1.0000 </r>
       <r>   -5.2871    1.0000 </r>
       <r>   -5.2870    1.0000 </r>
       <r>    1.0067    0.0000 </r>
       <r>    1.9134    0.0000 </r>
       <r>    2.4233    0.0000 </r>
       <r>    4.3409    0.0000 </r>
       <r>    5.0870    0.0000 </r>
       <r>    6.0474    0.0000 </r>
       <r>    6.0475    0.0000 </r>
       <r>    8.2260    0.0000 </r>
      </set>
      <set comment="kpoint 2">
       <r>  -21.7094    1.0000 </r>
       <r>   -9.8071    1.0000 </r>
       <r>   -5.4563    1.0000 </r>
       <r>   -5.3760    1.0000 </r>
       <r>    1.0624    0.0000 </r>
       <r>    1.9695    0.0000 </r>
       <r>    2.4800    0.0000 </r>
       <r>    4.3966    0.0000 </r>
       <r>    5.1412    0.0000 </r>
       <r>    6.0726    0.0000 </r>
       <r>    6.2257    0.0000 </r>
       <r>    8.2800    0.0000 </r>
      </set>
      <set comment="kpoint 3">
       <r>  -21.5865    1.0000 </r>
       <r>   -9.6606    1.0000 </r>
       <r>   -5.9380    1.0000 </r>
       <r>   -5.6246    1.0000 </r>
       <r>    1.2292    0.0000 </r>
       <r>    2.1377    0.0000 </r>
       <r>    2.6499    0.0000 </r>
       <r>    4.5637    0.0000 </r>
       <r>    5.3036    0.0000 </r>
       <r>    6.1203    0.0000 </r>
       <r>    6.7409    0.0000 </r>
       <r>    8.4412    0.0000 </r>
      </set>
      <set comment="kpoint 4">
       <r>  -21.3821    1.0000 </r>
       <r>   -9.4176    1.0000 </r>
       <r>   -6.6688    1.0000 </r>
       <r>   -5.9880    1.0000 </r>
       <r>    1.5074    0.0000 </r>
       <r>    2.4177    0.0000 </r>
       <r>    2.9332    0.0000 </r>
       <r>    4.8418    0.0000 </r>
       <r>    5.5699    0.0000 </r>
       <r>    6.1392    0.0000 </r>
       <r>    7.5445    0.0000 </r>
       <r>    7.9137    0.0000 </r>
      </set>
      <set comment="kpoint 5">
       <r>  -21.0968    1.0000 </r>
       <r>   -9.0798    1.0000 </r>
       <r>   -7.5754    1.0000 </r>
       <r>   -6.4149    1.0000 </r>
       <r>    1.8967    0.0000 </r>
       <r>    2.8089    0.0000 </r>
       <r>    3.3298    0.0000 </r>
       <r>    5.2290    0.0000 </r>
       <r>    5.8865    0.0000 </r>
       <r>    6.1516    0.0000 </r>
       <r>    7.0678    0.0000 </r>
       <r>    8.5782    0.0000 </r>
      </set>
      <set comment="kpoint 6">
       <r>  -20.7313    1.0000 </r>
       <r>   -8.6500    1.0000 </r>
       <r>   -8.5934    1.0000 </r>
       <r>   -6.8607    1.0000 </r>
       <r>    2.3967    0.0000 </r>
       <r>    3.3093    0.0000 </r>
       <r>    3.8395    0.0000 </r>
       <r>    5.7020    0.0000 </r>
       <r>    5.8999    0.0000 </r>
       <r>    6.1029    0.0000 </r>
       <r>    6.5168    0.0000 </r>
       <r>    9.5672    0.0000 </r>
      </set>
      <set comment="kpoint 7">
       <r>  -20.2869    1.0000 </r>
       <r>   -9.6724    1.0000 </r>
       <r>   -8.1327    1.0000 </r>
       <r>   -7.2921    1.0000 </r>
       <r>    3.0068    0.0000 </r>
       <r>    3.9060    0.0000 </r>
       <r>    4.4616    0.0000 </r>
       <r>    4.9824    0.0000 </r>
       <r>    5.7591    0.0000 </r>
       <r>    6.3559    0.0000 </r>
       <r>    7.1117    0.0000 </r>
       <r>   10.1464    0.0000 </r>
      </set>
      <set comment="kpoint 8">
       <r>  -19.7653    1.0000 </r>
       <r>  -10.7750    1.0000 </r>
       <r>   -7.6850    1.0000 </r>
       <r>   -7.5351    1.0000 </r>
       <r>    3.7255    0.0000 </r>
       <r>    3.7717    0.0000 </r>
       <r>    4.6981    0.0000 </r>
       <r>    5.1893    0.0000 </r>
       <r>    5.6050    0.0000 </r>
       <r>    7.0689    0.0000 </r>
       <r>    7.8278    0.0000 </r>
       <r>   10.8174    0.0000 </r>
      </set>
      <set comment="kpoint 9">
       <r>  -19.1692    1.0000 </r>
       <r>  -11.8734    1.0000 </r>
       <r>   -8.0232    1.0000 </r>
       <r>   -6.8695    1.0000 </r>
       <r>    2.6382    0.0000 </r>
       <r>    4.5472    0.0000 </r>
       <r>    5.4332    0.0000 </r>
       <r>    5.5081    0.0000 </r>
       <r>    6.0606    0.0000 </r>
       <r>    7.8916    0.0000 </r>
       <r>    8.6557    0.0000 </r>
       <r>   11.5636    0.0000 </r>
      </set>
      <set comment="kpoint 10">
       <r>  -18.5028    1.0000 </r>
       <r>  -12.9455    1.0000 </r>
       <r>   -8.2955    1.0000 </r>
       <r>   -6.1591    1.0000 </r>
       <r>    1.5229    0.0000 </r>
       <r>    5.2339    0.0000 </r>
       <r>    5.5533    0.0000 </r>
       <r>    6.4448    0.0000 </r>
       <r>    7.0176    0.0000 </r>
       <r>    8.8166    0.0000 </r>
       <r>    9.5917    0.0000 </r>
       <r>   12.3241    0.0000 </r>
      </set>
      <set comment="kpoint 11">
       <r>  -17.7755    1.0000 </r>
       <r>  -13.9702    1.0000 </r>
       <r>   -8.4946    1.0000 </r>
       <r>   -5.4529    1.0000 </r>
       <r>    0.5122    0.0000 </r>
       <r>    5.1741    0.0000 </r>
       <r>    6.5534    0.0000 </r>
       <r>    7.4872    0.0000 </r>
       <r>    8.0908    0.0000 </r>
       <r>    9.8337    0.0000 </r>
       <r>   10.6312    0.0000 </r>
       <r>   11.5790    0.0000 </r>
      </set>
      <set comment="kpoint 12">
       <r>  -17.0206    1.0000 </r>
       <r>  -14.9064    1.0000 </r>
       <r>   -8.6158    1.0000 </r>
       <r>   -4.8632    1.0000 </r>
       <r>   -0.2658    0.0000 </r>
       <r>    5.1148    0.0000 </r>
       <r>    7.6909    0.0000 </r>
       <r>    8.6255    0.0000 </r>
       <r>    9.2754    0.0000 </r>
       <r>   10.2396    0.0000 </r>
       <r>   10.8408    0.0000 </r>
       <r>   11.2757    0.0000 </r>
      </set>
      <set comment="kpoint 13">
       <r>  -16.5198    1.0000 </r>
       <r>  -15.4681    1.0000 </r>
       <r>   -8.6564    1.0000 </r>
       <r>   -4.6124    1.0000 </r>
       <r>   -0.5803    0.0000 </r>
       <r>    5.0941    0.0000 </r>
       <r>    8.8512    0.0000 </r>
       <r>    9.0028    0.0000 </r>
       <r>    9.7342    0.0000 </r>
       <r>    9.9740    0.0000 </r>
       <r>   10.5595    0.0000 </r>
       <r>   10.5834    0.0000 </r>
      </set>
      <set comment="kpoint 14">
       <r>  -21.6275    1.0000 </r>
       <r>   -9.7094    1.0000 </r>
       <r>   -5.7724    1.0000 </r>
       <r>   -5.5541    1.0000 </r>
       <r>    1.1736    0.0000 </r>
       <r>    2.0817    0.0000 </r>
       <r>    2.5933    0.0000 </r>
       <r>    4.5081    0.0000 </r>
       <r>    5.2497    0.0000 </r>
       <r>    6.1349    0.0000 </r>
       <r>    6.5440    0.0000 </r>
       <r>    8.3881    0.0000 </r>
      </set>
      <set comment="kpoint 15">
       <r>  -21.4639    1.0000 </r>
       <r>   -9.5146    1.0000 </r>
       <r>   -6.3578    1.0000 </r>
       <r>   -5.8813    1.0000 </r>
       <r>    1.3962    0.0000 </r>
       <r>    2.3058    0.0000 </r>
       <r>    2.8199    0.0000 </r>
       <r>    4.7307    0.0000 </r>
       <r>    5.4660    0.0000 </r>
       <r>    6.2212    0.0000 </r>
       <r>    7.1330    0.0000 </r>
       <r>    8.1724    0.0000 </r>
      </set>
      <set comment="kpoint 16">
       <r>  -21.2190    1.0000 </r>
       <r>   -9.2242    1.0000 </r>
       <r>   -7.1554    1.0000 </r>
       <r>   -6.2981    1.0000 </r>
       <r>    1.7300    0.0000 </r>
       <r>    2.6414    0.0000 </r>
       <r>    3.1599    0.0000 </r>
       <r>    5.0637    0.0000 </r>
       <r>    5.7814    0.0000 </r>
       <r>    6.2581    0.0000 </r>
       <r>    7.4261    0.0000 </r>
       <r>    7.9683    0.0000 </r>
      </set>
      <set comment="kpoint 17">
       <r>  -20.8935    1.0000 </r>
       <r>   -8.8402    1.0000 </r>
       <r>   -8.1010    1.0000 </r>
       <r>   -6.7518    1.0000 </r>
       <r>    2.1747    0.0000 </r>
       <r>    3.0876    0.0000 </r>
       <r>    3.6132    0.0000 </r>
       <r>    5.5031    0.0000 </r>
       <r>    6.0651    0.0000 </r>
       <r>    6.3538    0.0000 </r>
       <r>    6.5177    0.0000 </r>
       <r>    9.0028    0.0000 </r>
      </set>
      <set comment="kpoint 18">
       <r>  -20.4886    1.0000 </r>
       <r>   -9.1375    1.0000 </r>
       <r>   -8.3664    1.0000 </r>
       <r>   -7.2028    1.0000 </r>
       <r>    2.7300    0.0000 </r>
       <r>    3.6403    0.0000 </r>
       <r>    4.1794    0.0000 </r>
       <r>    5.4611    0.0000 </r>
       <r>    6.0040    0.0000 </r>
       <r>    6.0841    0.0000 </r>
       <r>    6.8427    0.0000 </r>
       <r>    9.8799    0.0000 </r>
      </set>
      <set comment="kpoint 19">
       <r>  -20.0056    1.0000 </r>
       <r>  -10.2202    1.0000 </r>
       <r>   -7.8082    1.0000 </r>
       <r>   -7.6233    1.0000 </r>
       <r>    3.3948    0.0000 </r>
       <r>    4.1679    0.0000 </r>
       <r>    4.5014    0.0000 </r>
       <r>    4.8572    0.0000 </r>
       <r>    5.8582    0.0000 </r>
       <r>    6.7356    0.0000 </r>
       <r>    7.4979    0.0000 </r>
       <r>   10.5022    0.0000 </r>
      </set>
      <set comment="kpoint 20">
       <r>  -19.4467    1.0000 </r>
       <r>  -11.3154    1.0000 </r>
       <r>   -7.9943    1.0000 </r>
       <r>   -7.1749    1.0000 </r>
       <r>    3.1826    0.0000 </r>
       <r>    4.1671    0.0000 </r>
       <r>    5.1199    0.0000 </r>
       <r>    5.6014    0.0000 </r>
       <r>    5.7501    0.0000 </r>
       <r>    7.5038    0.0000 </r>
       <r>    8.2697    0.0000 </r>
       <r>   11.2057    0.0000 </r>
      </set>
      <set comment="kpoint 21">
       <r>  -18.8151    1.0000 </r>
       <r>  -12.3974    1.0000 </r>
       <r>   -8.3030    1.0000 </r>
       <r>   -6.4833    1.0000 </r>
       <r>    2.0534    0.0000 </r>
       <r>    5.0331    0.0000 </r>
       <r>    5.5614    0.0000 </r>
       <r>    5.9996    0.0000 </r>
       <r>    6.5667    0.0000 </r>
       <r>    8.3763    0.0000 </r>
       <r>    9.1515    0.0000 </r>
       <r>   11.9538    0.0000 </r>
      </set>
      <set comment="kpoint 22">
       <r>  -18.1171    1.0000 </r>
       <r>  -13.4447    1.0000 </r>
       <r>   -8.5408    1.0000 </r>
       <r>   -5.7660    1.0000 </r>
       <r>    0.9854    0.0000 </r>
       <r>    5.3964    0.0000 </r>
       <r>    6.0704    0.0000 </r>
       <r>    6.9885    0.0000 </r>
       <r>    7.5824    0.0000 </r>
       <r>    9.3446    0.0000 </r>
       <r>   10.1395    0.0000 </r>
       <r>   12.2093    0.0000 </r>
      </set>
      <set comment="kpoint 23">
       <r>  -17.3688    1.0000 </r>
       <r>  -14.4311    1.0000 </r>
       <r>   -8.7021    1.0000 </r>
       <r>   -5.0967    1.0000 </r>
       <r>    0.0726    0.0000 </r>
       <r>    5.3260    0.0000 </r>
       <r>    7.1497    0.0000 </r>
       <r>    8.0767    0.0000 </r>
       <r>    8.7114    0.0000 </r>
       <r>   10.3834    0.0000 </r>
       <r>   10.9289    0.0000 </r>
       <r>   11.2380    0.0000 </r>
      </set>
      <set comment="kpoint 24">
       <r>  -16.6575    1.0000 </r>
       <r>  -15.2629    1.0000 </r>
       <r>   -8.7836    1.0000 </r>
       <r>   -4.6418    1.0000 </r>
       <r>   -0.5069    0.0000 </r>
       <r>    5.2854    0.0000 </r>
       <r>    8.3332    0.0000 </r>
       <r>    9.2447    0.0000 </r>
       <r>    9.6119    0.0000 </r>
       <r>    9.9544    0.0000 </r>
       <r>   10.5002    0.0000 </r>
       <r>   11.2994    0.0000 </r>
      </set>
      <set comment="kpoint 25">
       <r>  -21.2597    1.0000 </r>
       <r>   -9.2724    1.0000 </r>
       <r>   -6.9719    1.0000 </r>
       <r>   -6.3005    1.0000 </r>
       <r>    1.6744    0.0000 </r>
       <r>    2.5856    0.0000 </r>
       <r>    3.1033    0.0000 </r>
       <r>    5.0085    0.0000 </r>
       <r>    5.7371    0.0000 </r>
       <r>    6.4310    0.0000 </r>
       <r>    7.5514    0.0000 </r>
       <r>    7.6132    0.0000 </r>
      </set>
      <set comment="kpoint 26">
       <r>  -20.9748    1.0000 </r>
       <r>   -8.9357    1.0000 </r>
       <r>   -7.7576    1.0000 </r>
       <r>   -6.7958    1.0000 </r>
       <r>    2.0638    0.0000 </r>
       <r>    2.9766    0.0000 </r>
       <r>    3.5001    0.0000 </r>
       <r>    5.3960    0.0000 </r>
       <r>    6.1078    0.0000 </r>
       <r>    6.5926    0.0000 </r>
       <r>    6.7496    0.0000 </r>
       <r>    8.2622    0.0000 </r>
      </set>
      <set comment="kpoint 27">
       <r>  -20.6099    1.0000 </r>
       <r>   -8.6810    1.0000 </r>
       <r>   -8.5073    1.0000 </r>
       <r>   -7.2962    1.0000 </r>
       <r>    2.5641    0.0000 </r>
       <r>    3.4771    0.0000 </r>
       <r>    4.0100    0.0000 </r>
       <r>    5.7760    0.0000 </r>
       <r>    5.9282    0.0000 </r>
       <r>    6.4494    0.0000 </r>
       <r>    6.7514    0.0000 </r>
       <r>    9.1328    0.0000 </r>
      </set>
      <set comment="kpoint 28">
       <r>  -20.1663    1.0000 </r>
       <r>   -9.6940    1.0000 </r>
       <r>   -7.9916    1.0000 </r>
       <r>   -7.7642    1.0000 </r>
       <r>    3.1745    0.0000 </r>
       <r>    4.0735    0.0000 </r>
       <r>    4.6329    0.0000 </r>
       <r>    4.7818    0.0000 </r>
       <r>    6.4248    0.0000 </r>
       <r>    6.5067    0.0000 </r>
       <r>    7.2872    0.0000 </r>
       <r>   10.2804    0.0000 </r>
      </set>
      <set comment="kpoint 29">
       <r>  -19.6459    1.0000 </r>
       <r>  -10.7521    1.0000 </r>
       <r>   -8.1803    1.0000 </r>
       <r>   -7.3957    1.0000 </r>
       <r>    3.6457    0.0000 </r>
       <r>    3.8939    0.0000 </r>
       <r>    4.8356    0.0000 </r>
       <r>    5.3671    0.0000 </r>
       <r>    6.2960    0.0000 </r>
       <r>    7.2191    0.0000 </r>
       <r>    7.9960    0.0000 </r>
       <r>   10.9260    0.0000 </r>
      </set>
      <set comment="kpoint 30">
       <r>  -19.0513    1.0000 </r>
       <r>  -11.8205    1.0000 </r>
       <r>   -8.5327    1.0000 </r>
       <r>   -6.7316    1.0000 </r>
       <r>    2.5392    0.0000 </r>
       <r>    4.7199    0.0000 </r>
       <r>    5.6571    0.0000 </r>
       <r>    6.1069    0.0000 </r>
       <r>    6.2629    0.0000 </r>
       <r>    8.0346    0.0000 </r>
       <r>    8.8211    0.0000 </r>
       <r>   11.6142    0.0000 </r>
      </set>
      <set comment="kpoint 31">
       <r>  -18.3870    1.0000 </r>
       <r>  -12.8721    1.0000 </r>
       <r>   -8.8135    1.0000 </r>
       <r>   -6.0217    1.0000 </r>
       <r>    1.4545    0.0000 </r>
       <r>    5.6324    0.0000 </r>
       <r>    6.0360    0.0000 </r>
       <r>    6.5892    0.0000 </r>
       <r>    7.1879    0.0000 </r>
       <r>    8.9448    0.0000 </r>
       <r>    9.7547    0.0000 </r>
       <r>   12.2159    0.0000 </r>
      </set>
      <set comment="kpoint 32">
       <r>  -17.6625    1.0000 </r>
       <r>  -13.8826    1.0000 </r>
       <r>   -9.0173    1.0000 </r>
       <r>   -5.3136    1.0000 </r>
       <r>    0.4641    0.0000 </r>
       <r>    5.8886    0.0000 </r>
       <r>    6.7195    0.0000 </r>
       <r>    7.6198    0.0000 </r>
       <r>    8.2597    0.0000 </r>
       <r>    9.9276    0.0000 </r>
       <r>   10.7893    0.0000 </r>
       <r>   11.6290    0.0000 </r>
      </set>
      <set comment="kpoint 33">
       <r>  -16.9114    1.0000 </r>
       <r>  -14.8088    1.0000 </r>
       <r>   -9.1409    1.0000 </r>
       <r>   -4.7184    1.0000 </r>
       <r>   -0.3062    0.0000 </r>
       <r>    5.8333    0.0000 </r>
       <r>    7.8487    0.0000 </r>
       <r>    8.7308    0.0000 </r>
       <r>    9.4429    0.0000 </r>
       <r>   10.3655    0.0000 </r>
       <r>   10.7839    0.0000 </r>
       <r>   11.4251    0.0000 </r>
      </set>
      <set comment="kpoint 34">
       <r>  -16.4143    1.0000 </r>
       <r>  -15.3649    1.0000 </r>
       <r>   -9.1824    1.0000 </r>
       <r>   -4.4630    1.0000 </r>
       <r>   -0.6208    0.0000 </r>
       <r>    5.8129    0.0000 </r>
       <r>    8.9949    0.0000 </r>
       <r>    9.1563    0.0000 </r>
       <r>    9.7061    0.0000 </r>
       <r>   10.1428    0.0000 </r>
       <r>   10.7234    0.0000 </r>
       <r>   10.7499    0.0000 </r>
      </set>
      <set comment="kpoint 35">
       <r>  -20.6504    1.0000 </r>
       <r>   -8.5544    1.0000 </r>
       <r>   -8.4710    1.0000 </r>
       <r>   -7.3883    1.0000 </r>
       <r>    2.5088    0.0000 </r>
       <r>    3.4224    0.0000 </r>
       <r>    3.9536    0.0000 </r>
       <r>    5.8377    0.0000 </r>
       <r>    5.9264    0.0000 </r>
       <r>    6.5404    0.0000 </r>
       <r>    6.9975    0.0000 </r>
       <r>    8.5579    0.0000 </r>
      </set>
      <set comment="kpoint 36">
       <r>  -20.2469    1.0000 </r>
       <r>   -9.3082    1.0000 </r>
       <r>   -8.0837    1.0000 </r>
       <r>   -7.9690    1.0000 </r>
       <r>    3.0642    0.0000 </r>
       <r>    3.9764    0.0000 </r>
       <r>    4.5203    0.0000 </r>
       <r>    4.9951    0.0000 </r>
       <r>    6.3877    0.0000 </r>
       <r>    6.9992    0.0000 </r>
       <r>    7.3024    0.0000 </r>
       <r>    9.1247    0.0000 </r>
      </set>
      <set comment="kpoint 37">
       <r>  -19.7659    1.0000 </r>
       <r>  -10.2515    1.0000 </r>
       <r>   -8.4782    1.0000 </r>
       <r>   -7.5291    1.0000 </r>
       <r>    3.7294    0.0000 </r>
       <r>    3.9733    0.0000 </r>
       <r>    4.6535    0.0000 </r>
       <r>    5.1998    0.0000 </r>
       <r>    7.0430    0.0000 </r>
       <r>    7.1069    0.0000 </r>
       <r>    7.8472    0.0000 </r>
       <r>    9.9912    0.0000 </r>
      </set>
      <set comment="kpoint 38">
       <r>  -19.2096    1.0000 </r>
       <r>  -11.2564    1.0000 </r>
       <r>   -8.9025    1.0000 </r>
       <r>   -6.8995    1.0000 </r>
       <r>    2.9252    0.0000 </r>
       <r>    4.5029    0.0000 </r>
       <r>    5.4206    0.0000 </r>
       <r>    5.9909    0.0000 </r>
       <r>    7.0162    0.0000 </r>
       <r>    7.7990    0.0000 </r>
       <r>    8.6041    0.0000 </r>
       <r>   10.9767    0.0000 </r>
      </set>
      <set comment="kpoint 39">
       <r>  -18.5817    1.0000 </r>
       <r>  -12.2801    1.0000 </r>
       <r>   -9.2419    1.0000 </r>
       <r>   -6.2103    1.0000 </r>
       <r>    1.8675    0.0000 </r>
       <r>    5.3820    0.0000 </r>
       <r>    6.2943    0.0000 </r>
       <r>    6.8296    0.0000 </r>
       <r>    6.9598    0.0000 </r>
       <r>    8.6456    0.0000 </r>
       <r>    9.4799    0.0000 </r>
       <r>   11.8683    0.0000 </r>
      </set>
      <set comment="kpoint 40">
       <r>  -17.8885    1.0000 </r>
       <r>  -13.2890    1.0000 </r>
       <r>   -9.4972    1.0000 </r>
       <r>   -5.4923    1.0000 </r>
       <r>    0.8541    0.0000 </r>
       <r>    6.3506    0.0000 </r>
       <r>    6.7887    0.0000 </r>
       <r>    7.2624    0.0000 </r>
       <r>    7.9218    0.0000 </r>
       <r>    9.5559    0.0000 </r>
       <r>   10.4606    0.0000 </r>
       <r>   11.9992    0.0000 </r>
      </set>
      <set comment="kpoint 41">
       <r>  -17.1468    1.0000 </r>
       <r>  -14.2493    1.0000 </r>
       <r>   -9.6679    1.0000 </r>
       <r>   -4.8153    1.0000 </r>
       <r>   -0.0291    0.0000 </r>
       <r>    6.6690    0.0000 </r>
       <r>    7.4742    0.0000 </r>
       <r>    8.3027    0.0000 </r>
       <r>    9.0480    0.0000 </r>
       <r>   10.4201    0.0000 </r>
       <r>   11.1054    0.0000 </r>
       <r>   11.5532    0.0000 </r>
      </set>
      <set comment="kpoint 42">
       <r>  -16.4439    1.0000 </r>
       <r>  -15.0638    1.0000 </r>
       <r>   -9.7534    1.0000 </r>
       <r>   -4.3465    1.0000 </r>
       <r>   -0.6039    0.0000 </r>
       <r>    6.6328    0.0000 </r>
       <r>    8.6387    0.0000 </r>
       <r>    9.3227    0.0000 </r>
       <r>    9.8878    0.0000 </r>
       <r>   10.2878    0.0000 </r>
       <r>   10.5415    0.0000 </r>
       <r>   11.6229    0.0000 </r>
      </set>
      <set comment="kpoint 43">
       <r>  -19.8059    1.0000 </r>
       <r>  -10.0114    1.0000 </r>
       <r>   -8.6552    1.0000 </r>
       <r>   -7.5737    1.0000 </r>
       <r>    3.6744    0.0000 </r>
       <r>    4.0990    0.0000 </r>
       <r>    4.5846    0.0000 </r>
       <r>    5.1437    0.0000 </r>
       <r>    6.9829    0.0000 </r>
       <r>    7.5927    0.0000 </r>
       <r>    7.9158    0.0000 </r>
       <r>    9.2396    0.0000 </r>
      </set>
      <set comment="kpoint 44">
       <r>  -19.2890    1.0000 </r>
       <r>  -10.8258    1.0000 </r>
       <r>   -9.2487    1.0000 </r>
       <r>   -6.9841    1.0000 </r>
       <r>    3.1448    0.0000 </r>
       <r>    4.3935    0.0000 </r>
       <r>    5.2974    0.0000 </r>
       <r>    5.8797    0.0000 </r>
       <r>    7.6777    0.0000 </r>
       <r>    7.9489    0.0000 </r>
       <r>    8.5255    0.0000 </r>
       <r>    9.8084    0.0000 </r>
      </set>
      <set comment="kpoint 45">
       <r>  -18.6991    1.0000 </r>
       <r>  -11.7369    1.0000 </r>
       <r>   -9.7098    1.0000 </r>
       <r>   -6.3257    1.0000 </r>
       <r>    2.1590    0.0000 </r>
       <r>    5.2198    0.0000 </r>
       <r>    6.1106    0.0000 </r>
       <r>    6.7274    0.0000 </r>
       <r>    7.9430    0.0000 </r>
       <r>    8.4578    0.0000 </r>
       <r>    9.3197    0.0000 </r>
       <r>   10.6965    0.0000 </r>
      </set>
      <set comment="kpoint 46">
       <r>  -18.0412    1.0000 </r>
       <r>  -12.6929    1.0000 </r>
       <r>  -10.0500    1.0000 </r>
       <r>   -5.6185    1.0000 </r>
       <r>    1.1769    0.0000 </r>
       <r>    6.1499    0.0000 </r>
       <r>    7.0123    0.0000 </r>
       <r>    7.6697    0.0000 </r>
       <r>    7.8634    0.0000 </r>
       <r>    9.2873    0.0000 </r>
       <r>   10.2400    0.0000 </r>
       <r>   11.4964    0.0000 </r>
      </set>
      <set comment="kpoint 47">
       <r>  -17.3254    1.0000 </r>
       <r>  -13.6440    1.0000 </r>
       <r>  -10.2851    1.0000 </r>
       <r>   -4.9049    1.0000 </r>
       <r>    0.2549    0.0000 </r>
       <r>    7.1718    0.0000 </r>
       <r>    7.7509    0.0000 </r>
       <r>    7.9718    0.0000 </r>
       <r>    8.7670    0.0000 </r>
       <r>   10.0519    0.0000 </r>
       <r>   11.2411    0.0000 </r>
       <r>   11.6086    0.0000 </r>
      </set>
      <set comment="kpoint 48">
       <r>  -16.5857    1.0000 </r>
       <r>  -14.5328    1.0000 </r>
       <r>  -10.4238    1.0000 </r>
       <r>   -4.2897    1.0000 </r>
       <r>   -0.4906    0.0000 </r>
       <r>    7.6575    0.0000 </r>
       <r>    8.3233    0.0000 </r>
       <r>    8.8841    0.0000 </r>
       <r>    9.9439    0.0000 </r>
       <r>   10.5045    0.0000 </r>
       <r>   10.6995    0.0000 </r>
       <r>   11.9070    0.0000 </r>
      </set>
      <set comment="kpoint 49">
       <r>  -16.0980    1.0000 </r>
       <r>  -15.0715    1.0000 </r>
       <r>  -10.4698    1.0000 </r>
       <r>   -4.0164    1.0000 </r>
       <r>   -0.8082    0.0000 </r>
       <r>    7.6422    0.0000 </r>
       <r>    9.3479    0.0000 </r>
       <r>    9.4111    0.0000 </r>
       <r>    9.6086    0.0000 </r>
       <r>   10.6491    0.0000 </r>
       <r>   11.2112    0.0000 </r>
       <r>   11.2473    0.0000 </r>
      </set>
      <set comment="kpoint 50">
       <r>  -18.7384    1.0000 </r>
       <r>  -11.4662    1.0000 </r>
       <r>   -9.9594    1.0000 </r>
       <r>   -6.3645    1.0000 </r>
       <r>    2.2656    0.0000 </r>
       <r>    5.1653    0.0000 </r>
       <r>    6.0476    0.0000 </r>
       <r>    6.6720    0.0000 </r>
       <r>    8.3932    0.0000 </r>
       <r>    8.7323    0.0000 </r>
       <r>    9.3099    0.0000 </r>
       <r>    9.8133    0.0000 </r>
      </set>
      <set comment="kpoint 51">
       <r>  -18.1182    1.0000 </r>
       <r>  -12.2215    1.0000 </r>
       <r>  -10.5098    1.0000 </r>
       <r>   -5.6836    1.0000 </r>
       <r>    1.3629    0.0000 </r>
       <r>    6.0420    0.0000 </r>
       <r>    6.8815    0.0000 </r>
       <r>    7.5755    0.0000 </r>
       <r>    8.9849    0.0000 </r>
       <r>    9.1437    0.0000 </r>
       <r>   10.1271    0.0000 </r>
       <r>   10.4655    0.0000 </r>
      </set>
      <set comment="kpoint 52">
       <r>  -17.4355    1.0000 </r>
       <r>  -13.0700    1.0000 </r>
       <r>  -10.8821    1.0000 </r>
       <r>   -4.9666    1.0000 </r>
       <r>    0.4696    0.0000 </r>
       <r>    7.0184    0.0000 </r>
       <r>    7.7560    0.0000 </r>
       <r>    8.5825    0.0000 </r>
       <r>    8.9295    0.0000 </r>
       <r>    9.7970    0.0000 </r>
       <r>   11.0238    0.0000 </r>
       <r>   11.2853    0.0000 </r>
      </set>
      <set comment="kpoint 53">
       <r>  -16.7076    1.0000 </r>
       <r>  -13.9397    1.0000 </r>
       <r>  -11.1093    1.0000 </r>
       <r>   -4.2720    1.0000 </r>
       <r>   -0.3483    0.0000 </r>
       <r>    8.0802    0.0000 </r>
       <r>    8.5361    0.0000 </r>
       <r>    8.8369    0.0000 </r>
       <r>    9.7209    0.0000 </r>
       <r>   10.2470    0.0000 </r>
       <r>   11.2341    0.0000 </r>
       <r>   12.0120    0.0000 </r>
      </set>
      <set comment="kpoint 54">
       <r>  -16.0197    1.0000 </r>
       <r>  -14.7068    1.0000 </r>
       <r>  -11.2176    1.0000 </r>
       <r>   -3.7631    1.0000 </r>
       <r>   -0.9208    0.0000 </r>
       <r>    8.7585    0.0000 </r>
       <r>    8.9493    0.0000 </r>
       <r>    9.2427    0.0000 </r>
       <r>   10.3887    0.0000 </r>
       <r>   10.8259    0.0000 </r>
       <r>   10.9510    0.0000 </r>
       <r>   12.2500    0.0000 </r>
      </set>
      <set comment="kpoint 55">
       <r>  -17.4726    1.0000 </r>
       <r>  -12.7738    1.0000 </r>
       <r>  -11.1885    1.0000 </r>
       <r>   -4.9885    1.0000 </r>
       <r>    0.5501    0.0000 </r>
       <r>    6.9646    0.0000 </r>
       <r>    7.6798    0.0000 </r>
       <r>    8.5335    0.0000 </r>
       <r>    9.7056    0.0000 </r>
       <r>    9.9344    0.0000 </r>
       <r>   10.3332    0.0000 </r>
       <r>   11.0838    0.0000 </r>
      </set>
      <set comment="kpoint 56">
       <r>  -16.7734    1.0000 </r>
       <r>  -13.4484    1.0000 </r>
       <r>  -11.6497    1.0000 </r>
       <r>   -4.2700    1.0000 </r>
       <r>   -0.2520    0.0000 </r>
       <r>    7.9776    0.0000 </r>
       <r>    8.3384    0.0000 </r>
       <r>    9.5931    0.0000 </r>
       <r>   10.0079    0.0000 </r>
       <r>   10.0867    0.0000 </r>
       <r>   10.9539    0.0000 </r>
       <r>   11.9681    0.0000 </r>
      </set>
      <set comment="kpoint 57">
       <r>  -16.0536    1.0000 </r>
       <r>  -14.1916    1.0000 </r>
       <r>  -11.8953    1.0000 </r>
       <r>   -3.6086    1.0000 </r>
       <r>   -0.9641    0.0000 </r>
       <r>    8.6166    0.0000 </r>
       <r>    9.0525    0.0000 </r>
       <r>    9.9137    0.0000 </r>
       <r>   10.7510    0.0000 </r>
       <r>   10.7604    0.0000 </r>
       <r>   11.0386    0.0000 </r>
       <r>   12.7347    0.0000 </r>
      </set>
      <set comment="kpoint 58">
       <r>  -15.5721    1.0000 </r>
       <r>  -14.6881    1.0000 </r>
       <r>  -11.9709    1.0000 </r>
       <r>   -3.2780    1.0000 </r>
       <r>   -1.3116    0.0000 </r>
       <r>    8.6564    0.0000 </r>
       <r>    9.8224    0.0000 </r>
       <r>   10.0310    0.0000 </r>
       <r>   10.3631    0.0000 </r>
       <r>   11.4915    0.0000 </r>
       <r>   11.9954    0.0000 </r>
       <r>   12.0651    0.0000 </r>
      </set>
      <set comment="kpoint 59">
       <r>  -16.0734    1.0000 </r>
       <r>  -13.9034    1.0000 </r>
       <r>  -12.2312    1.0000 </r>
       <r>   -3.5576    1.0000 </r>
       <r>   -0.9726    0.0000 </r>
       <r>    8.4931    0.0000 </r>
       <r>    9.0032    0.0000 </r>
       <r>   10.6778    0.0000 </r>
       <r>   10.7017    0.0000 </r>
       <r>   10.7064    0.0000 </r>
       <r>   10.9903    0.0000 </r>
       <r>   12.8390    0.0000 </r>
      </set>
      <set comment="kpoint 60">
       <r>  -15.4030    1.0000 </r>
       <r>  -14.4531    1.0000 </r>
       <r>  -12.5242    1.0000 </r>
       <r>   -2.9317    1.0000 </r>
       <r>   -1.5999    0.0000 </r>
       <r>    8.4426    0.0000 </r>
       <r>   10.0083    0.0000 </r>
       <r>   10.6164    0.0000 </r>
       <r>   11.0363    0.0000 </r>
       <r>   11.6829    0.0000 </r>
       <r>   11.9306    0.0000 </r>
       <r>   13.0516    0.0000 </r>
      </set>
      <set comment="kpoint 61">
       <r>  -14.8391    1.0000 </r>
       <r>  -14.8391    1.0000 </r>
       <r>  -12.7836    1.0000 </r>
       <r>   -2.2578    0.5004 </r>
       <r>   -2.2578    0.4996 </r>
       <r>    8.3573    0.0000 </r>
       <r>   10.6125    0.0000 </r>
       <r>   10.6125    0.0000 </r>
       <r>   11.2236    0.0000 </r>
       <r>   12.6675    0.0000 </r>
       <r>   12.6967    0.0000 </r>
       <r>   12.9407    0.0000 </r>
      </set>
     </set>
    </set>
   </array>
  </eigenvalues>
  <separator name="orbital magnetization" >
   <v name="MAGDIPOLOUT">      0.00000000      0.00000000      0.00000000</v>
  </separator>
  <dos>
   <i name="efermi">     -2.25783372 </i>
   <total>
    <array>
     <dimension dim="1">gridpoints</dimension>
     <dimension dim="2">spin</dimension>
     <field>energy</field>
     <field>total</field>
     <field>integrated</field>
     <set>
      <set comment="spin 1">
       <r>   -23.4905     0.0000     0.0000 </r>
       <r>   -23.3629     0.0000     0.0000 </r>
       <r>   -23.2353     0.0000     0.0000 </r>
       <r>   -23.1077     0.0000     0.0000 </r>
       <r>   -22.9801     0.0000     0.0000 </r>
       <r>   -22.8525     0.0000     0.0000 </r>
       <r>   -22.7249     0.0000     0.0000 </r>
       <r>   -22.5973     0.0000     0.0000 </r>
       <r>   -22.4696     0.0000     0.0000 </r>
       <r>   -22.3420     0.0000     0.0000 </r>
       <r>   -22.2144     0.0000     0.0000 </r>
       <r>   -22.0868     0.0000     0.0000 </r>
       <r>   -21.9592     0.0000     0.0000 </r>
       <r>   -21.8316     0.0000     0.0000 </r>
       <r>   -21.7040     0.1332     0.0170 </r>
       <r>   -21.5764     0.3452     0.0610 </r>
       <r>   -21.4488     0.3183     0.1017 </r>
       <r>   -21.3212     0.2100     0.1285 </r>
       <r>   -21.1936     0.4779     0.1895 </r>
       <r>   -21.0660     0.1727     0.2115 </r>
       <r>   -20.9384     0.3275     0.2533 </r>
       <r>   -20.8107     0.3263     0.2951 </r>
       <r>   -20.6831     0.1649     0.3162 </r>
       <r>   -20.5555     0.4881     0.3785 </r>
       <r>   -20.4279     0.3265     0.4201 </r>
       <r>   -20.3003     0.0280     0.4237 </r>
       <r>   -20.1727     0.5684     0.4962 </r>
       <r>   -20.0451     0.2208     0.5244 </r>
       <r>   -19.9175     0.3257     0.5660 </r>
       <r>   -19.7899     0.1636     0.5869 </r>
       <r>   -19.6623     0.5298     0.6545 </r>
       <r>   -19.5347     0.2861     0.6910 </r>
       <r>   -19.4071     0.3257     0.7325 </r>
       <r>   -19.2795     0.2451     0.7639 </r>
       <r>   -19.1519     0.5532     0.8345 </r>
       <r>   -19.0242     0.3355     0.8773 </r>
       <r>   -18.8966     0.0091     0.8785 </r>
       <r>   -18.7690     0.3288     0.9204 </r>
       <r>   -18.6414     0.4873     0.9826 </r>
       <r>   -18.5138     0.3621     1.0289 </r>
       <r>   -18.3862     0.2980     1.0669 </r>
       <r>   -18.2586     0.1562     1.0868 </r>
       <r>   -18.1310     0.1128     1.1012 </r>
       <r>   -18.0034     0.8656     1.2117 </r>
       <r>   -17.8758     0.2662     1.2458 </r>
       <r>   -17.7482     0.2193     1.2738 </r>
       <r>   -17.6206     0.3304     1.3159 </r>
       <r>   -17.4930     0.0122     1.3175 </r>
       <r>   -17.3653     0.6733     1.4034 </r>
       <r>   -17.2377     0.4574     1.4618 </r>
       <r>   -17.1101     0.3250     1.5033 </r>
       <r>   -16.9825     0.1627     1.5242 </r>
       <r>   -16.8549     0.3265     1.5660 </r>
       <r>   -16.7273     0.3532     1.6110 </r>
       <r>   -16.5997     0.6788     1.6977 </r>
       <r>   -16.4721     0.3630     1.7440 </r>
       <r>   -16.3445     0.4823     1.8056 </r>
       <r>   -16.2169     0.0000     1.8056 </r>
       <r>   -16.0893     0.1428     1.8238 </r>
       <r>   -15.9617     0.8367     1.9306 </r>
       <r>   -15.8341     0.0000     1.9306 </r>
       <r>   -15.7065     0.0000     1.9306 </r>
       <r>   -15.5788     0.0519     1.9372 </r>
       <r>   -15.4512     0.1836     1.9606 </r>
       <r>   -15.3236     0.4989     2.0243 </r>
       <r>   -15.1960     0.3265     2.0660 </r>
       <r>   -15.0684     0.2170     2.0937 </r>
       <r>   -14.9408     0.2740     2.1286 </r>
       <r>   -14.8132     0.3909     2.1785 </r>
       <r>   -14.6856     0.6044     2.2556 </r>
       <r>   -14.5580     0.1042     2.2689 </r>
       <r>   -14.4304     0.7926     2.3701 </r>
       <r>   -14.3028     0.1746     2.3924 </r>
       <r>   -14.1752     0.6128     2.4706 </r>
       <r>   -14.0476     0.0402     2.4757 </r>
       <r>   -13.9199     0.4842     2.5375 </r>
       <r>   -13.7923     0.4953     2.6007 </r>
       <r>   -13.6647     0.0234     2.6037 </r>
       <r>   -13.5371     0.3031     2.6424 </r>
       <r>   -13.4095     0.6500     2.7253 </r>
       <r>   -13.2819     0.2258     2.7545 </r>
       <r>   -13.1543     0.1007     2.7674 </r>
       <r>   -13.0267     0.3262     2.8090 </r>
       <r>   -12.8991     0.1724     2.8310 </r>
       <r>   -12.7715     0.4533     2.8889 </r>
       <r>   -12.6439     0.4081     2.9410 </r>
       <r>   -12.5163     0.2331     2.9707 </r>
       <r>   -12.3887     0.3325     3.0131 </r>
       <r>   -12.2611     0.3886     3.0627 </r>
       <r>   -12.1334     0.5152     3.1285 </r>
       <r>   -12.0058     0.0011     3.1286 </r>
       <r>   -11.8782     0.5115     3.1939 </r>
       <r>   -11.7506     0.5210     3.2604 </r>
       <r>   -11.6230     0.5894     3.3356 </r>
       <r>   -11.4954     0.0128     3.3372 </r>
       <r>   -11.3678     0.1601     3.3576 </r>
       <r>   -11.2402     0.6301     3.4380 </r>
       <r>   -11.1126     0.6463     3.5205 </r>
       <r>   -10.9850     0.1929     3.5451 </r>
       <r>   -10.8574     0.3175     3.5857 </r>
       <r>   -10.7298     0.8066     3.6886 </r>
       <r>   -10.6022     0.0186     3.6910 </r>
       <r>   -10.4745     0.3845     3.7400 </r>
       <r>   -10.3469     0.4297     3.7951 </r>
       <r>   -10.2193     0.8209     3.8999 </r>
       <r>   -10.0917     0.1592     3.9202 </r>
       <r>    -9.9641     0.5493     3.9903 </r>
       <r>    -9.8365     0.1311     4.0070 </r>
       <r>    -9.7089     0.7934     4.1083 </r>
       <r>    -9.5813     1.1647     4.2569 </r>
       <r>    -9.4537     0.6536     4.3403 </r>
       <r>    -9.3261     0.1959     4.3654 </r>
       <r>    -9.1985     1.4449     4.5498 </r>
       <r>    -9.0709     0.9270     4.6681 </r>
       <r>    -8.9433     0.4670     4.7277 </r>
       <r>    -8.8157     1.0157     4.8573 </r>
       <r>    -8.6880     0.8981     4.9719 </r>
       <r>    -8.5604     1.0971     5.1119 </r>
       <r>    -8.4328     1.7055     5.3298 </r>
       <r>    -8.3052     0.5096     5.3949 </r>
       <r>    -8.1776     0.4948     5.4580 </r>
       <r>    -8.0500     0.9566     5.5801 </r>
       <r>    -7.9224     1.1379     5.7257 </r>
       <r>    -7.7948     0.2767     5.7610 </r>
       <r>    -7.6672     0.8494     5.8694 </r>
       <r>    -7.5396     0.8037     5.9720 </r>
       <r>    -7.4120     0.4020     6.0235 </r>
       <r>    -7.2844     0.8176     6.1279 </r>
       <r>    -7.1568     0.8850     6.2408 </r>
       <r>    -7.0291     0.2082     6.2674 </r>
       <r>    -6.9015     0.6360     6.3485 </r>
       <r>    -6.7739     0.8328     6.4548 </r>
       <r>    -6.6463     0.8075     6.5579 </r>
       <r>    -6.5187     0.0112     6.5593 </r>
       <r>    -6.3911     0.4881     6.6216 </r>
       <r>    -6.2635     1.3027     6.7878 </r>
       <r>    -6.1359     0.4816     6.8497 </r>
       <r>    -6.0083     0.2912     6.8868 </r>
       <r>    -5.8807     0.5391     6.9556 </r>
       <r>    -5.7531     0.5746     7.0289 </r>
       <r>    -5.6255     0.5787     7.1028 </r>
       <r>    -5.4979     0.5875     7.1777 </r>
       <r>    -5.3703     0.6466     7.2603 </r>
       <r>    -5.2426     0.4366     7.3160 </r>
       <r>    -5.1150     0.0318     7.3200 </r>
       <r>    -4.9874     0.4041     7.3716 </r>
       <r>    -4.8598     0.8041     7.4742 </r>
       <r>    -4.7322     0.4458     7.5311 </r>
       <r>    -4.6046     0.6561     7.6149 </r>
       <r>    -4.4770     0.0500     7.6214 </r>
       <r>    -4.3494     0.2736     7.6563 </r>
       <r>    -4.2218     1.1693     7.8055 </r>
       <r>    -4.0942     0.0000     7.8056 </r>
       <r>    -3.9666     0.1632     7.8264 </r>
       <r>    -3.8390     0.0000     7.8264 </r>
       <r>    -3.7114     0.3265     7.8681 </r>
       <r>    -3.5837     0.3189     7.9087 </r>
       <r>    -3.4561     0.1709     7.9306 </r>
       <r>    -3.3285     0.0000     7.9306 </r>
       <r>    -3.2009     0.1632     7.9514 </r>
       <r>    -3.0733     0.0000     7.9514 </r>
       <r>    -2.9457     0.0525     7.9581 </r>
       <r>    -2.8181     0.2740     7.9931 </r>
       <r>    -2.6905     0.0000     7.9931 </r>
       <r>    -2.5629     0.0000     7.9931 </r>
       <r>    -2.4353     0.0000     7.9931 </r>
       <r>    -2.3077     0.0000     7.9931 </r>
       <r>    -2.1801     0.1088     8.0069 </r>
       <r>    -2.0525     0.0000     8.0069 </r>
       <r>    -1.9248     0.0000     8.0069 </r>
       <r>    -1.7972     0.0000     8.0069 </r>
       <r>    -1.6696     0.0000     8.0069 </r>
       <r>    -1.5420     0.3265     8.0486 </r>
       <r>    -1.4144     0.0000     8.0486 </r>
       <r>    -1.2868     0.1568     8.0686 </r>
       <r>    -1.1592     0.0065     8.0694 </r>
       <r>    -1.0316     0.0000     8.0694 </r>
       <r>    -0.9040     0.7781     8.1687 </r>
       <r>    -0.7764     0.1994     8.1942 </r>
       <r>    -0.6488     0.0062     8.1950 </r>
       <r>    -0.5212     0.6234     8.2745 </r>
       <r>    -0.3936     0.5971     8.3507 </r>
       <r>    -0.2660     0.7861     8.4510 </r>
       <r>    -0.1383     0.3558     8.4965 </r>
       <r>    -0.0107     0.2948     8.5341 </r>
       <r>     0.1169     0.3579     8.5798 </r>
       <r>     0.2445     0.0754     8.5895 </r>
       <r>     0.3721     0.2511     8.6215 </r>
       <r>     0.4997     0.6763     8.7078 </r>
       <r>     0.6273     0.3013     8.7465 </r>
       <r>     0.7549     0.0000     8.7465 </r>
       <r>     0.8825     0.3192     8.7873 </r>
       <r>     1.0101     0.3368     8.8302 </r>
       <r>     1.1377     0.1893     8.8544 </r>
       <r>     1.2653     0.6504     8.9374 </r>
       <r>     1.3929     0.4548     8.9955 </r>
       <r>     1.5206     0.7299     9.0887 </r>
       <r>     1.6482     0.1265     9.1048 </r>
       <r>     1.7758     0.4844     9.1666 </r>
       <r>     1.9034     0.4426     9.2231 </r>
       <r>     2.0310     0.2575     9.2562 </r>
       <r>     2.1586     1.1471     9.4026 </r>
       <r>     2.2862     0.6425     9.4846 </r>
       <r>     2.4138     0.5267     9.5518 </r>
       <r>     2.5414     0.6650     9.6367 </r>
       <r>     2.6690     1.4055     9.8162 </r>
       <r>     2.7966     0.3995     9.8672 </r>
       <r>     2.9242     0.6392     9.9488 </r>
       <r>     3.0518     0.8464    10.0568 </r>
       <r>     3.1794     1.7179    10.2760 </r>
       <r>     3.3071     0.4184    10.3297 </r>
       <r>     3.4347     0.7041    10.4195 </r>
       <r>     3.5623     0.6842    10.5070 </r>
       <r>     3.6899     1.1218    10.6501 </r>
       <r>     3.8175     0.6833    10.7373 </r>
       <r>     3.9451     0.6994    10.8266 </r>
       <r>     4.0727     1.2469    10.9858 </r>
       <r>     4.2003     1.2794    11.1490 </r>
       <r>     4.3279     0.0311    11.1534 </r>
       <r>     4.4555     0.5670    11.2258 </r>
       <r>     4.5831     1.6380    11.4348 </r>
       <r>     4.7107     0.9984    11.5623 </r>
       <r>     4.8383     1.1841    11.7134 </r>
       <r>     4.9660     0.5582    11.7846 </r>
       <r>     5.0936     1.3530    11.9573 </r>
       <r>     5.2212     1.9009    12.1999 </r>
       <r>     5.3488     1.7438    12.4224 </r>
       <r>     5.4764     2.3215    12.7187 </r>
       <r>     5.6040     1.5219    12.9129 </r>
       <r>     5.7316     1.1243    13.0566 </r>
       <r>     5.8592     2.0554    13.3189 </r>
       <r>     5.9868     1.8324    13.5527 </r>
       <r>     6.1144     3.7837    14.0355 </r>
       <r>     6.2420     1.7833    14.2632 </r>
       <r>     6.3696     2.0348    14.5228 </r>
       <r>     6.4972     1.4924    14.7133 </r>
       <r>     6.6248     2.2534    15.0008 </r>
       <r>     6.7525     2.1451    15.2748 </r>
       <r>     6.8801     1.5023    15.4669 </r>
       <r>     7.0077     1.8075    15.6978 </r>
       <r>     7.1353     2.3443    15.9970 </r>
       <r>     7.2629     1.5939    16.2003 </r>
       <r>     7.3905     0.7990    16.3023 </r>
       <r>     7.5181     1.3951    16.4804 </r>
       <r>     7.6457     1.8756    16.7197 </r>
       <r>     7.7733     1.9065    16.9632 </r>
       <r>     7.9009     1.7100    17.1815 </r>
       <r>     8.0285     2.6818    17.5239 </r>
       <r>     8.1561     1.0750    17.6615 </r>
       <r>     8.2837     1.3335    17.8317 </r>
       <r>     8.4114     2.1164    18.1017 </r>
       <r>     8.5390     1.5791    18.3035 </r>
       <r>     8.6666     2.5774    18.6324 </r>
       <r>     8.7942     1.5821    18.8343 </r>
       <r>     8.9218     1.3341    19.0048 </r>
       <r>     9.0494     2.2310    19.2897 </r>
       <r>     9.1770     1.7845    19.5174 </r>
       <r>     9.3046     1.4284    19.7001 </r>
       <r>     9.4322     1.4331    19.8830 </r>
       <r>     9.5598     0.8430    19.9906 </r>
       <r>     9.6874     1.2512    20.1502 </r>
       <r>     9.8150     1.6964    20.3667 </r>
       <r>     9.9426     2.0621    20.6298 </r>
       <r>    10.0702     2.0919    20.8968 </r>
       <r>    10.1979     1.2989    21.0626 </r>
       <r>    10.3255     1.5160    21.2561 </r>
       <r>    10.4531     1.7396    21.4782 </r>
       <r>    10.5807     1.9131    21.7228 </r>
       <r>    10.7083     1.6965    21.9394 </r>
       <r>    10.8359     2.3455    22.2387 </r>
       <r>    10.9635     1.4185    22.4197 </r>
       <r>    11.0911     1.7151    22.6390 </r>
       <r>    11.2187     0.8240    22.7442 </r>
       <r>    11.3463     2.0044    23.0000 </r>
       <r>    11.4739     0.3623    23.0462 </r>
       <r>    11.6015     1.2882    23.2106 </r>
       <r>    11.7291     1.4505    23.3958 </r>
       <r>    11.8568     0.0680    23.4045 </r>
       <r>    11.9844     1.6102    23.6100 </r>
       <r>    12.1120     0.9339    23.7292 </r>
       <r>    12.2396     0.7074    23.8194 </r>
       <r>    12.3672     0.4352    23.8750 </r>
       <r>    12.4948     0.0000    23.8750 </r>
       <r>    12.6224     0.0000    23.8750 </r>
       <r>    12.7500     0.3896    23.9247 </r>
       <r>    12.8776     0.2085    23.9513 </r>
       <r>    13.0052     0.0546    23.9584 </r>
       <r>    13.1328     0.3264    24.0000 </r>
       <r>    13.2604     0.0000    24.0000 </r>
       <r>    13.3880     0.0000    24.0000 </r>
       <r>    13.5156     0.0000    24.0000 </r>
       <r>    13.6433     0.0000    24.0000 </r>
       <r>    13.7709     0.0000    24.0000 </r>
       <r>    13.8985     0.0000    24.0000 </r>
       <r>    14.0261     0.0000    24.0000 </r>
       <r>    14.1537     0.0000    24.0000 </r>
       <r>    14.2813     0.0000    24.0000 </r>
       <r>    14.4089     0.0000    24.0000 </r>
       <r>    14.5365     0.0000    24.0000 </r>
       <r>    14.6641     0.0000    24.0000 </r>
       <r>    14.7917     0.0000    24.0000 </r>
      </set>
     </set>
    </array>
   </total>
  </dos>
 </calculation>
 <structure name="finalpos" >
  <crystal>
   <varray name="basis" >
    <v>       2.46801200       0.00000000       0.00000000 </v>
    <v>      -1.23400600       2.13736100       0.00000000 </v>
    <v>       0.00000000       0.00000000      15.00000000 </v>
   </varray>
   <i name="volume">     79.12548894 </i>
   <varray name="rec_basis" >
    <v>       0.40518442       0.23393334       0.00000000 </v>
    <v>       0.00000000       0.46786668       0.00000000 </v>
    <v>       0.00000000       0.00000000       0.06666667 </v>
   </varray>
  </crystal>
  <varray name="positions" >
   <v>       0.00000000       0.00000000       0.50000000 </v>
   <v>       0.33333300       0.66666700       0.50000000 </v>
  </varray>
 </structure>
</modeling>
