<?xml version="1.0" encoding="ISO-8859-1"?>
<modeling>
 <generator>
  <i name="program" type="string">vasp </i>
  <i name="version" type="string">5.4.1  </i>
  <i name="subversion" type="string">24Jun15 (build Nov 20 2020 10:29:34) complex                          parallel </i>
  <i name="platform" type="string">IFC91_ompi </i>
  <i name="date" type="string">2021 09 14 </i>
  <i name="time" type="string">00:24:18 </i>
 </generator>
 <incar>
  <i type="int" name="ISTART">     1</i>
  <i type="string" name="PREC">a</i>
  <i type="string" name="ALGO"> Normal</i>
  <i type="int" name="ISPIN">     1</i>
  <i type="int" name="ICHARG">     2</i>
  <i type="int" name="NELM">   250</i>
  <i type="int" name="NELMDL">    -5</i>
  <i type="int" name="NELMIN">     6</i>
  <i type="int" name="IBRION">     2</i>
  <i name="EDIFF">      0.00001000</i>
  <i name="EDIFFG">     -0.00500000</i>
  <i type="int" name="NSW">     0</i>
  <i type="int" name="ISIF">     2</i>
  <i name="ENCUT">    520.00000000</i>
  <i name="POTIM">      0.25000000</i>
  <v name="MAGMOM">      0.60000000      0.60000000</v>
  <i type="string" name="LREAL"> Auto</i>
  <i type="int" name="ISMEAR">     0</i>
  <i name="SIGMA">      0.02000000</i>
  <i type="logical" name="LWAVE"> F  </i>
  <i type="logical" name="LCHARG"> F  </i>
  <i type="logical" name="LVHAR"> F  </i>
  <v type="int" name="KPOINT_BSE">    -1     0     0     0</v>
  <i type="int" name="NELM">   250</i>
 </incar>
 <kpoints>
  <generation param="Gamma">
   <v type="int" name="divisions">      24       24        1 </v>
   <v name="usershift">      0.00000000       0.00000000       0.00000000 </v>
   <v name="genvec1">      0.04166667       0.00000000       0.00000000 </v>
   <v name="genvec2">      0.00000000       0.04166667       0.00000000 </v>
   <v name="genvec3">      0.00000000       0.00000000       1.00000000 </v>
   <v name="shift">      0.00000000       0.00000000       0.00000000 </v>
  </generation>
  <varray name="kpointlist" >
   <v>       0.00000000       0.00000000       0.00000000 </v>
   <v>       0.04166667      -0.00000000       0.00000000 </v>
   <v>       0.08333333      -0.00000000       0.00000000 </v>
   <v>       0.12500000      -0.00000000       0.00000000 </v>
   <v>       0.16666667       0.00000000       0.00000000 </v>
   <v>       0.20833333      -0.00000000       0.00000000 </v>
   <v>       0.25000000      -0.00000000       0.00000000 </v>
   <v>       0.29166667       0.00000000       0.00000000 </v>
   <v>       0.33333333       0.00000000       0.00000000 </v>
   <v>       0.37500000       0.00000000       0.00000000 </v>
   <v>       0.41666667       0.00000000       0.00000000 </v>
   <v>       0.45833333       0.00000000       0.00000000 </v>
   <v>       0.50000000      -0.00000000       0.00000000 </v>
   <v>       0.04166667       0.04166667       0.00000000 </v>
   <v>       0.08333333       0.04166667       0.00000000 </v>
   <v>       0.12500000       0.04166667       0.00000000 </v>
   <v>       0.16666667       0.04166667       0.00000000 </v>
   <v>       0.20833333       0.04166667       0.00000000 </v>
   <v>       0.25000000       0.04166667       0.00000000 </v>
   <v>       0.29166667       0.04166667       0.00000000 </v>
   <v>       0.33333333       0.04166667       0.00000000 </v>
   <v>       0.37500000       0.04166667       0.00000000 </v>
   <v>       0.41666667       0.04166667       0.00000000 </v>
   <v>       0.45833333       0.04166667       0.00000000 </v>
   <v>       0.08333333       0.08333333       0.00000000 </v>
   <v>       0.12500000       0.08333333       0.00000000 </v>
   <v>       0.16666667       0.08333333       0.00000000 </v>
   <v>       0.20833333       0.08333333       0.00000000 </v>
   <v>       0.25000000       0.08333333       0.00000000 </v>
   <v>       0.29166667       0.08333333       0.00000000 </v>
   <v>       0.33333333       0.08333333       0.00000000 </v>
   <v>       0.37500000       0.08333333       0.00000000 </v>
   <v>       0.41666667       0.08333333       0.00000000 </v>
   <v>       0.45833333       0.08333333       0.00000000 </v>
   <v>       0.12500000       0.12500000       0.00000000 </v>
   <v>       0.16666667       0.12500000       0.00000000 </v>
   <v>       0.20833333       0.12500000       0.00000000 </v>
   <v>       0.25000000       0.12500000       0.00000000 </v>
   <v>       0.29166667       0.12500000       0.00000000 </v>
   <v>       0.33333333       0.12500000       0.00000000 </v>
   <v>       0.37500000       0.12500000       0.00000000 </v>
   <v>       0.41666667       0.12500000       0.00000000 </v>
   <v>       0.16666667       0.16666667       0.00000000 </v>
   <v>       0.20833333       0.16666667       0.00000000 </v>
   <v>       0.25000000       0.16666667       0.00000000 </v>
   <v>       0.29166667       0.16666667       0.00000000 </v>
   <v>       0.33333333       0.16666667       0.00000000 </v>
   <v>       0.37500000       0.16666667       0.00000000 </v>
   <v>       0.41666667       0.16666667       0.00000000 </v>
   <v>       0.20833333       0.20833333       0.00000000 </v>
   <v>       0.25000000       0.20833333       0.00000000 </v>
   <v>       0.29166667       0.20833333       0.00000000 </v>
   <v>       0.33333333       0.20833333       0.00000000 </v>
   <v>       0.37500000       0.20833333       0.00000000 </v>
   <v>       0.25000000       0.25000000       0.00000000 </v>
   <v>       0.29166667       0.25000000       0.00000000 </v>
   <v>       0.33333333       0.25000000       0.00000000 </v>
   <v>       0.37500000       0.25000000       0.00000000 </v>
   <v>       0.29166667       0.29166667       0.00000000 </v>
   <v>       0.33333333       0.29166667       0.00000000 </v>
   <v>       0.33333333       0.33333333       0.00000000 </v>
  </varray>
  <varray name="weights" >
   <v>       0.00173611 </v>
   <v>       0.01041667 </v>
   <v>       0.01041667 </v>
   <v>       0.01041667 </v>
   <v>       0.01041667 </v>
   <v>       0.01041667 </v>
   <v>       0.01041667 </v>
   <v>       0.01041667 </v>
   <v>       0.01041667 </v>
   <v>       0.01041667 </v>
   <v>       0.01041667 </v>
   <v>       0.01041667 </v>
   <v>       0.00520833 </v>
   <v>       0.01041667 </v>
   <v>       0.02083333 </v>
   <v>       0.02083333 </v>
   <v>       0.02083333 </v>
   <v>       0.02083333 </v>
   <v>       0.02083333 </v>
   <v>       0.02083333 </v>
   <v>       0.02083333 </v>
   <v>       0.02083333 </v>
   <v>       0.02083333 </v>
   <v>       0.02083333 </v>
   <v>       0.01041667 </v>
   <v>       0.02083333 </v>
   <v>       0.02083333 </v>
   <v>       0.02083333 </v>
   <v>       0.02083333 </v>
   <v>       0.02083333 </v>
   <v>       0.02083333 </v>
   <v>       0.02083333 </v>
   <v>       0.02083333 </v>
   <v>       0.01041667 </v>
   <v>       0.01041667 </v>
   <v>       0.02083333 </v>
   <v>       0.02083333 </v>
   <v>       0.02083333 </v>
   <v>       0.02083333 </v>
   <v>       0.02083333 </v>
   <v>       0.02083333 </v>
   <v>       0.02083333 </v>
   <v>       0.01041667 </v>
   <v>       0.02083333 </v>
   <v>       0.02083333 </v>
   <v>       0.02083333 </v>
   <v>       0.02083333 </v>
   <v>       0.02083333 </v>
   <v>       0.01041667 </v>
   <v>       0.01041667 </v>
   <v>       0.02083333 </v>
   <v>       0.02083333 </v>
   <v>       0.02083333 </v>
   <v>       0.02083333 </v>
   <v>       0.01041667 </v>
   <v>       0.02083333 </v>
   <v>       0.02083333 </v>
   <v>       0.01041667 </v>
   <v>       0.01041667 </v>
   <v>       0.02083333 </v>
   <v>       0.00347222 </v>
  </varray>
 </kpoints>
 <parameters>
  <separator name="general" >
   <i type="string" name="SYSTEM">unknown system</i>
   <i type="logical" name="LCOMPAT"> F  </i>
  </separator>
  <separator name="electronic" >
   <i type="string" name="PREC">a</i>
   <i name="ENMAX">    520.00000000</i>
   <i name="ENAUG">    644.87300000</i>
   <i name="EDIFF">      0.00001000</i>
   <i type="int" name="IALGO">    38</i>
   <i type="int" name="IWAVPR">    10</i>
   <i type="int" name="NBANDS">    12</i>
   <i name="NELECT">      8.00000000</i>
   <i type="int" name="TURBO">     0</i>
   <i type="int" name="IRESTART">     0</i>
   <i type="int" name="NREBOOT">     0</i>
   <i type="int" name="NMIN">     0</i>
   <i name="EREF">      0.00000000</i>
   <separator name="electronic smearing" >
    <i type="int" name="ISMEAR">     0</i>
    <i name="SIGMA">      0.02000000</i>
    <i name="KSPACING">      0.50000000</i>
    <i type="logical" name="KGAMMA"> T  </i>
   </separator>
   <separator name="electronic projectors" >
    <i type="logical" name="LREAL"> T  </i>
    <v name="ROPT">     -0.00025000</v>
    <i type="int" name="LMAXPAW">  -100</i>
    <i type="int" name="LMAXMIX">     2</i>
    <i type="logical" name="NLSPLINE"> F  </i>
   </separator>
   <separator name="electronic startup" >
    <i type="int" name="ISTART">     0</i>
    <i type="int" name="ICHARG">     2</i>
    <i type="int" name="INIWAV">     1</i>
   </separator>
   <separator name="electronic spin" >
    <i type="int" name="ISPIN">     1</i>
    <i type="logical" name="LNONCOLLINEAR"> F  </i>
    <v name="MAGMOM">      0.60000000      0.60000000</v>
    <i name="NUPDOWN">     -1.00000000</i>
    <i type="logical" name="LSORBIT"> F  </i>
    <v name="SAXIS">      0.00000000      0.00000000      1.00000000</v>
    <i type="logical" name="LSPIRAL"> F  </i>
    <v name="QSPIRAL">      0.00000000      0.00000000      0.00000000</v>
    <i type="logical" name="LZEROZ"> F  </i>
   </separator>
   <separator name="electronic exchange-correlation" >
    <i type="logical" name="LASPH"> F  </i>
    <i type="logical" name="LMETAGGA"> F  </i>
   </separator>
   <separator name="electronic convergence" >
    <i type="int" name="NELM">   250</i>
    <i type="int" name="NELMDL">    -5</i>
    <i type="int" name="NELMIN">     6</i>
    <i name="ENINI">    520.00000000</i>
    <separator name="electronic convergence detail" >
     <i type="logical" name="LDIAG"> T  </i>
     <i type="logical" name="LSUBROT"> F  </i>
     <i name="WEIMIN">      0.00000000</i>
     <i name="EBREAK">      0.00000021</i>
     <i name="DEPER">      0.30000000</i>
     <i type="int" name="NRMM">     4</i>
     <i name="TIME">      0.40000000</i>
    </separator>
   </separator>
   <separator name="electronic mixer" >
    <i name="AMIX">      0.40000000</i>
    <i name="BMIX">      1.00000000</i>
    <i name="AMIN">      0.10000000</i>
    <i name="AMIX_MAG">      1.60000000</i>
    <i name="BMIX_MAG">      1.00000000</i>
    <separator name="electronic mixer details" >
     <i type="int" name="IMIX">     4</i>
     <i type="logical" name="MIXFIRST"> F  </i>
     <i type="int" name="MAXMIX">   -45</i>
     <i name="WC">    100.00000000</i>
     <i type="int" name="INIMIX">     1</i>
     <i type="int" name="MIXPRE">     1</i>
     <i type="int" name="MREMOVE">     5</i>
    </separator>
   </separator>
   <separator name="electronic dipolcorrection" >
    <i type="logical" name="LDIPOL"> F  </i>
    <i type="logical" name="LMONO"> F  </i>
    <i type="int" name="IDIPOL">     0</i>
    <i name="EPSILON">      1.00000000</i>
    <v name="DIPOL">   -100.00000000   -100.00000000   -100.00000000</v>
    <i name="EFIELD">      0.00000000</i>
   </separator>
  </separator>
  <separator name="grids" >
   <i type="int" name="NGX">    20</i>
   <i type="int" name="NGY">    20</i>
   <i type="int" name="NGZ">   112</i>
   <i type="int" name="NGXF">    40</i>
   <i type="int" name="NGYF">    40</i>
   <i type="int" name="NGZF">   224</i>
   <i type="logical" name="ADDGRID"> F  </i>
  </separator>
  <separator name="ionic" >
   <i type="int" name="NSW">     0</i>
   <i type="int" name="IBRION">    -1</i>
   <i type="int" name="ISIF">     2</i>
   <i name="PSTRESS">      0.00000000</i>
   <i name="EDIFFG">     -0.00500000</i>
   <i type="int" name="NFREE">     1</i>
   <i name="POTIM">      0.25000000</i>
   <i name="SMASS">     -3.00000000</i>
   <i name="SCALEE">      1.00000000</i>
  </separator>
  <separator name="ionic md" >
   <i name="TEBEG">      0.00010000</i>
   <i name="TEEND">      0.00010000</i>
   <i type="int" name="NBLOCK">     1</i>
   <i type="int" name="KBLOCK">     1</i>
   <i type="int" name="NPACO">   256</i>
   <i name="APACO">     16.00000000</i>
  </separator>
  <separator name="symmetry" >
   <i type="int" name="ISYM">     2</i>
   <i name="SYMPREC">      0.00001000</i>
  </separator>
  <separator name="dos" >
   <i type="logical" name="LORBIT"> F  </i>
   <v name="RWIGS">     -1.00000000</v>
   <i type="int" name="NEDOS">   301</i>
   <i name="EMIN">     10.00000000</i>
   <i name="EMAX">    -10.00000000</i>
   <i name="EFERMI">      0.00000000</i>
  </separator>
  <separator name="writing" >
   <i type="int" name="NWRITE">     2</i>
   <i type="logical" name="LWAVE"> F  </i>
   <i type="logical" name="LCHARG"> F  </i>
   <i type="logical" name="LPARD"> F  </i>
   <i type="logical" name="LVTOT"> F  </i>
   <i type="logical" name="LVHAR"> F  </i>
   <i type="logical" name="LELF"> F  </i>
   <i type="logical" name="LOPTICS"> F  </i>
   <v name="STM">      0.00000000      0.00000000      0.00000000      0.00000000      0.00000000      0.00000000      0.00000000</v>
  </separator>
  <separator name="performance" >
   <i type="int" name="NPAR">     6</i>
   <i type="int" name="NSIM">     4</i>
   <i type="int" name="NBLK">    -1</i>
   <i type="logical" name="LPLANE"> T  </i>
   <i type="logical" name="LSCALAPACK"> T  </i>
   <i type="logical" name="LSCAAWARE"> F  </i>
   <i type="logical" name="LSCALU"> F  </i>
   <i type="logical" name="LASYNC"> F  </i>
   <i type="logical" name="LORBITALREAL"> F  </i>
  </separator>
  <separator name="miscellaneous" >
   <i type="int" name="IDIOT">     3</i>
   <i type="logical" name="LMUSIC"> F  </i>
   <v name="POMASS">     12.01100000</v>
   <v name="DARWINR">      0.00000000</v>
   <v name="DARWINV">      1.00000000</v>
   <i type="logical" name="LCORR"> T  </i>
  </separator>
  <i type="logical" name="GGA_COMPAT"> T  </i>
  <i type="logical" name="LBERRY"> F  </i>
  <i type="int" name="ICORELEVEL">     0</i>
  <i type="logical" name="LDAU"> F  </i>
  <i type="int" name="I_CONSTRAINED_M">     0</i>
  <separator name="electronic exchange-correlation" >
   <i type="string" name="GGA">--</i>
   <i type="int" name="VOSKOWN">     0</i>
   <i type="logical" name="LHFCALC"> F  </i>
   <i type="string" name="PRECFOCK"></i>
   <i type="logical" name="LSYMGRAD"> F  </i>
   <i type="logical" name="LHFONE"> F  </i>
   <i type="logical" name="LRHFCALC"> F  </i>
   <i type="logical" name="LTHOMAS"> F  </i>
   <i type="logical" name="LMODELHF"> F  </i>
   <i name="ENCUT4O">     -1.00000000</i>
   <i type="int" name="EXXOEP">     0</i>
   <i type="int" name="FOURORBIT">     0</i>
   <i name="AEXX">      0.00000000</i>
   <i name="HFALPHA">      0.00000000</i>
   <i name="MCALPHA">      0.00000000</i>
   <i name="ALDAX">      1.00000000</i>
   <i name="AGGAX">      1.00000000</i>
   <i name="ALDAC">      1.00000000</i>
   <i name="AGGAC">      1.00000000</i>
   <i type="int" name="NKREDX">     1</i>
   <i type="int" name="NKREDY">     1</i>
   <i type="int" name="NKREDZ">     1</i>
   <i type="logical" name="SHIFTRED"> F  </i>
   <i type="logical" name="ODDONLY"> F  </i>
   <i type="logical" name="EVENONLY"> F  </i>
   <i type="int" name="LMAXFOCK">     0</i>
   <i type="int" name="NMAXFOCKAE">     0</i>
   <i type="logical" name="LFOCKAEDFT"> F  </i>
   <i name="HFSCREEN">      0.00000000</i>
   <i name="HFSCREENC">      0.00000000</i>
   <i type="int" name="NBANDSGWLOW">     0</i>
  </separator>
  <separator name="vdW DFT" >
   <i type="logical" name="LUSE_VDW"> F  </i>
   <i name="Zab_VDW">     -0.84910000</i>
   <i name="PARAM1">      0.12340000</i>
   <i name="PARAM2">      1.00000000</i>
   <i name="PARAM3">      0.00000000</i>
  </separator>
  <separator name="model GW" >
   <i type="int" name="MODEL_GW">     0</i>
   <i name="MODEL_EPS0">     24.62779722</i>
   <i name="MODEL_ALPHA">      1.00000000</i>
  </separator>
  <separator name="linear response parameters" >
   <i type="logical" name="LEPSILON"> F  </i>
   <i type="logical" name="LRPA"> F  </i>
   <i type="logical" name="LNABLA"> F  </i>
   <i type="logical" name="LVEL"> F  </i>
   <i type="int" name="KINTER">     0</i>
   <i name="CSHIFT">      0.10000000</i>
   <i name="OMEGAMAX">     -1.00000000</i>
   <i name="DEG_THRESHOLD">      0.00200000</i>
  </separator>
  <separator name="orbital magnetization" >
   <i type="logical" name="NUCIND"> F  </i>
   <v name="MAGPOS">      0.00000000      0.00000000      0.00000000</v>
   <i type="logical" name="LNICSALL"> T  </i>
   <i type="logical" name="ORBITALMAG"> F  </i>
   <i type="logical" name="LMAGBLOCH"> F  </i>
   <i type="logical" name="LCHIMAG"> F  </i>
   <i type="logical" name="LGAUGE"> T  </i>
   <i type="int" name="MAGATOM">     0</i>
   <v name="MAGDIPOL">      0.00000000      0.00000000      0.00000000</v>
   <v name="AVECCONST">      0.00000000      0.00000000      0.00000000</v>
  </separator>
  <separator name="response functions" >
   <i type="logical" name="LADDER"> F  </i>
   <i type="logical" name="LFXC"> F  </i>
   <i type="logical" name="LHARTREE"> T  </i>
   <i type="int" name="IBSE">     0</i>
   <v type="int" name="KPOINT">    -1     0     0     0</v>
   <i type="logical" name="LTCTE"> F  </i>
   <i type="logical" name="LTETE"> F  </i>
   <i type="logical" name="LTRIPLET"> F  </i>
   <i type="logical" name="LFXCEPS"> F  </i>
   <i type="logical" name="LFXHEG"> F  </i>
   <i type="int" name="NATURALO">     0</i>
   <i type="logical" name="L2ORDER"> F  </i>
   <i type="logical" name="LUSEW"> F  </i>
   <i name="ENCUTGW">     -2.00000000</i>
   <i name="ENCUTGWSOFT">     -2.00000000</i>
   <i name="ENCUTLF">     -1.00000000</i>
   <i type="int" name="LMAXMP2">    -1</i>
   <i name="SCISSOR">      0.00000000</i>
   <i type="int" name="NOMEGA">     0</i>
   <i type="int" name="NOMEGAR">     0</i>
   <i type="int" name="NBANDSGW">    -1</i>
   <i type="int" name="NBANDSO">    -1</i>
   <i type="int" name="NBANDSV">    -1</i>
   <i type="int" name="NELM">   250</i>
   <i type="int" name="NELMHF">     1</i>
   <i type="int" name="DIM">     3</i>
   <i type="int" name="ANTIRES">     0</i>
   <i name="OMEGAMAX">    -30.00000000</i>
   <i name="OMEGAMIN">    -30.00000000</i>
   <i name="OMEGATL">   -200.00000000</i>
   <i type="int" name="OMEGAGRID">     0</i>
   <i name="CSHIFT">     -0.10000000</i>
   <i type="logical" name="SELFENERGY"> F  </i>
   <i type="logical" name="LSPECTRAL"> F  </i>
   <i type="logical" name="LSPECTRALGW"> F  </i>
   <i type="logical" name="LSINGLES"> F  </i>
   <i type="logical" name="LFERMIGW"> F  </i>
   <i type="logical" name="ODDONLYGW"> F  </i>
   <i type="logical" name="EVENONLYGW"> F  </i>
   <i type="int" name="NKREDLFX">     1</i>
   <i type="int" name="NKREDLFY">     1</i>
   <i type="int" name="NKREDLFZ">     1</i>
   <i type="int" name="MAXMEM">  1800</i>
   <i type="int" name="TELESCOPE">     0</i>
   <i type="int" name="TAUPAR">     1</i>
   <i type="int" name="OMEGAPAR">    -1</i>
   <i name="LAMBDA">      1.00000000</i>
  </separator>
  <separator name="External order field" >
   <i name="OFIELD_KAPPA">      0.00000000</i>
   <v name="OFIELD_K">      0.00000000      0.00000000      0.00000000</v>
   <i name="OFIELD_Q6_NEAR">      0.00000000</i>
   <i name="OFIELD_Q6_FAR">      0.00000000</i>
   <i name="OFIELD_A">      0.00000000</i>
  </separator>
 </parameters>
 <atominfo>
  <atoms>       2 </atoms>
  <types>       1 </types>
  <array name="atoms" >
   <dimension dim="1">ion</dimension>
   <field type="string">element</field>
   <field type="int">atomtype</field>
   <set>
    <rc><c>C </c><c>   1</c></rc>
    <rc><c>C </c><c>   1</c></rc>
   </set>
  </array>
  <array name="atomtypes" >
   <dimension dim="1">type</dimension>
   <field type="int">atomspertype</field>
   <field type="string">element</field>
   <field>mass</field>
   <field>valence</field>
   <field type="string">pseudopotential</field>
   <set>
    <rc><c>   2</c><c>C </c><c>     12.01100000</c><c>      4.00000000</c><c>  PAW_PBE C 08Apr2002                   </c></rc>
   </set>
  </array>
 </atominfo>
 <structure name="initialpos" >
  <crystal>
   <varray name="basis" >
    <v>       2.51386100       0.00000000       0.00000000 </v>
    <v>      -1.25693100       2.17706700       0.00000000 </v>
    <v>       0.00000000       0.00000000      15.00000000 </v>
   </varray>
   <i name="volume">     82.09265739 </i>
   <varray name="rec_basis" >
    <v>       0.39779447       0.22966689       0.00000000 </v>
    <v>       0.00000000       0.45933359       0.00000000 </v>
    <v>       0.00000000       0.00000000       0.06666667 </v>
   </varray>
  </crystal>
  <varray name="positions" >
   <v>       0.00000000       0.00000000       0.50000000 </v>
   <v>       0.33333300       0.66666700       0.50000000 </v>
  </varray>
 </structure>
 <calculation>
  <scstep>
   <time name="dav">    0.19    0.19</time>
   <time name="total">    0.20    0.20</time>
   <energy>
    <i name="alphaZ">      4.00263403 </i>
    <i name="ewald">    795.04484384 </i>
    <i name="hartreedc">  -1016.69453186 </i>
    <i name="XCdc">     26.10466028 </i>
    <i name="pawpsdc">    217.04409276 </i>
    <i name="pawaedc">   -218.18290438 </i>
    <i name="eentropy">     -0.00027188 </i>
    <i name="bandstr">    -66.30884238 </i>
    <i name="atom">    294.29778662 </i>
    <i name="e_fr_energy">     35.30746704 </i>
    <i name="e_wo_entrp">     35.30773892 </i>
    <i name="e_0_energy">     35.30760298 </i>
   </energy>
  </scstep>
  <scstep>
   <time name="dav">    0.27    0.27</time>
   <time name="total">    0.27    0.28</time>
   <energy>
    <i name="e_fr_energy">    -17.81567373 </i>
    <i name="e_wo_entrp">    -17.81567373 </i>
    <i name="e_0_energy">    -17.81567373 </i>
   </energy>
  </scstep>
  <scstep>
   <time name="dav">    0.31    0.31</time>
   <time name="total">    0.31    0.31</time>
   <energy>
    <i name="e_fr_energy">    -19.46183007 </i>
    <i name="e_wo_entrp">    -19.46175174 </i>
    <i name="e_0_energy">    -19.46179090 </i>
   </energy>
  </scstep>
  <scstep>
   <time name="dav">    0.28    0.28</time>
   <time name="total">    0.28    0.28</time>
   <energy>
    <i name="e_fr_energy">    -19.46762723 </i>
    <i name="e_wo_entrp">    -19.46754887 </i>
    <i name="e_0_energy">    -19.46758805 </i>
   </energy>
  </scstep>
  <scstep>
   <time name="dav">    0.30    0.30</time>
   <time name="total">    0.32    0.32</time>
   <energy>
    <i name="e_fr_energy">    -19.46764110 </i>
    <i name="e_wo_entrp">    -19.46756274 </i>
    <i name="e_0_energy">    -19.46760192 </i>
   </energy>
  </scstep>
  <scstep>
   <time name="dav">    0.26    0.26</time>
   <time name="total">    0.28    0.29</time>
   <energy>
    <i name="e_fr_energy">    -18.70784825 </i>
    <i name="e_wo_entrp">    -18.70776989 </i>
    <i name="e_0_energy">    -18.70780907 </i>
   </energy>
  </scstep>
  <scstep>
   <time name="dav">    0.27    0.27</time>
   <time name="total">    0.29    0.29</time>
   <energy>
    <i name="e_fr_energy">    -18.41309746 </i>
    <i name="e_wo_entrp">    -18.41301910 </i>
    <i name="e_0_energy">    -18.41305828 </i>
   </energy>
  </scstep>
  <scstep>
   <time name="dav">    0.27    0.27</time>
   <time name="total">    0.29    0.29</time>
   <energy>
    <i name="e_fr_energy">    -18.40683778 </i>
    <i name="e_wo_entrp">    -18.40675942 </i>
    <i name="e_0_energy">    -18.40679860 </i>
   </energy>
  </scstep>
  <scstep>
   <time name="dav">    0.24    0.24</time>
   <time name="total">    0.26    0.27</time>
   <energy>
    <i name="e_fr_energy">    -18.40499259 </i>
    <i name="e_wo_entrp">    -18.40491423 </i>
    <i name="e_0_energy">    -18.40495341 </i>
   </energy>
  </scstep>
  <scstep>
   <time name="dav">    0.22    0.22</time>
   <time name="total">    0.24    0.24</time>
   <energy>
    <i name="e_fr_energy">    -18.40401546 </i>
    <i name="e_wo_entrp">    -18.40393710 </i>
    <i name="e_0_energy">    -18.40397628 </i>
   </energy>
  </scstep>
  <scstep>
   <time name="dav">    0.20    0.20</time>
   <time name="total">    0.22    0.22</time>
   <energy>
    <i name="e_fr_energy">    -18.40421216 </i>
    <i name="e_wo_entrp">    -18.40413380 </i>
    <i name="e_0_energy">    -18.40417298 </i>
   </energy>
  </scstep>
  <scstep>
   <time name="dav">    0.23    0.23</time>
   <time name="total">    0.25    0.25</time>
   <energy>
    <i name="e_fr_energy">    -18.40444441 </i>
    <i name="e_wo_entrp">    -18.40436605 </i>
    <i name="e_0_energy">    -18.40440523 </i>
   </energy>
  </scstep>
  <scstep>
   <time name="dav">    0.22    0.22</time>
   <time name="total">    0.24    0.24</time>
   <energy>
    <i name="e_fr_energy">    -18.40509527 </i>
    <i name="e_wo_entrp">    -18.40501691 </i>
    <i name="e_0_energy">    -18.40505609 </i>
   </energy>
  </scstep>
  <scstep>
   <time name="dav">    0.24    0.24</time>
   <time name="total">    0.26    0.27</time>
   <energy>
    <i name="e_fr_energy">    -18.40515468 </i>
    <i name="e_wo_entrp">    -18.40507632 </i>
    <i name="e_0_energy">    -18.40511550 </i>
   </energy>
  </scstep>
  <scstep>
   <time name="dav">    0.21    0.21</time>
   <time name="total">    0.23    0.23</time>
   <energy>
    <i name="e_fr_energy">    -18.40523215 </i>
    <i name="e_wo_entrp">    -18.40515379 </i>
    <i name="e_0_energy">    -18.40519297 </i>
   </energy>
  </scstep>
  <scstep>
   <time name="dav">    0.22    0.22</time>
   <time name="total">    0.22    0.22</time>
   <energy>
    <i name="alphaZ">      4.00263403 </i>
    <i name="ewald">    795.04484384 </i>
    <i name="hartreedc">  -1046.65635742 </i>
    <i name="XCdc">     27.19972491 </i>
    <i name="pawpsdc">    765.02067362 </i>
    <i name="pawaedc">   -766.36057132 </i>
    <i name="eentropy">     -0.00007836 </i>
    <i name="bandstr">    -90.95389494 </i>
    <i name="atom">    294.29778662 </i>
    <i name="e_fr_energy">    -18.40523901 </i>
    <i name="e_wo_entrp">    -18.40516065 </i>
    <i name="e_0_energy">    -18.40519983 </i>
   </energy>
  </scstep>
  <structure>
   <crystal>
    <varray name="basis" >
     <v>       2.51386100       0.00000000       0.00000000 </v>
     <v>      -1.25693100       2.17706700       0.00000000 </v>
     <v>       0.00000000       0.00000000      15.00000000 </v>
    </varray>
    <i name="volume">     82.09265739 </i>
    <varray name="rec_basis" >
     <v>       0.39779447       0.22966689       0.00000000 </v>
     <v>       0.00000000       0.45933359       0.00000000 </v>
     <v>       0.00000000       0.00000000       0.06666667 </v>
    </varray>
   </crystal>
   <varray name="positions" >
    <v>       0.00000000       0.00000000       0.50000000 </v>
    <v>       0.33333300       0.66666700       0.50000000 </v>
   </varray>
  </structure>
  <varray name="forces" >
   <v>      -0.00000000       0.00000000       0.00000000 </v>
   <v>       0.00000000       0.00000000       0.00000000 </v>
  </varray>
  <varray name="stress" >
   <v>     -46.33904965       0.00001064       0.00000000 </v>
   <v>       0.00001064     -46.33902889       0.00000000 </v>
   <v>       0.00000000       0.00000000      -0.01837698 </v>
  </varray>
  <energy>
   <i name="e_fr_energy">    -18.40523901 </i>
   <i name="e_wo_entrp">    -18.40519983 </i>
   <i name="e_0_energy">     -0.00007836 </i>
  </energy>
  <time name="totalsc">    4.37    4.40</time>
  <eigenvalues>
   <array>
    <dimension dim="1">band</dimension>
    <dimension dim="2">kpoint</dimension>
    <dimension dim="3">spin</dimension>
    <field>eigene</field>
    <field>occ</field>
    <set>
     <set comment="spin 1">
      <set comment="kpoint 1">
       <r>  -21.5055    1.0000 </r>
       <r>   -9.6843    1.0000 </r>
       <r>   -5.4979    1.0000 </r>
       <r>   -5.4978    1.0000 </r>
       <r>    0.9782    0.0000 </r>
       <r>    1.8735    0.0000 </r>
       <r>    2.3980    0.0000 </r>
       <r>    4.3060    0.0000 </r>
       <r>    5.0586    0.0000 </r>
       <r>    5.5002    0.0000 </r>
       <r>    5.5002    0.0000 </r>
       <r>    8.1912    0.0000 </r>
      </set>
      <set comment="kpoint 2">
       <r>  -21.4658    1.0000 </r>
       <r>   -9.6375    1.0000 </r>
       <r>   -5.6640    1.0000 </r>
       <r>   -5.5817    1.0000 </r>
       <r>    1.0319    0.0000 </r>
       <r>    1.9275    0.0000 </r>
       <r>    2.4526    0.0000 </r>
       <r>    4.3596    0.0000 </r>
       <r>    5.1098    0.0000 </r>
       <r>    5.5241    0.0000 </r>
       <r>    5.6688    0.0000 </r>
       <r>    8.2430    0.0000 </r>
      </set>
      <set comment="kpoint 3">
       <r>  -21.3469    1.0000 </r>
       <r>   -9.4975    1.0000 </r>
       <r>   -6.1363    1.0000 </r>
       <r>   -5.8162    1.0000 </r>
       <r>    1.1928    0.0000 </r>
       <r>    2.0893    0.0000 </r>
       <r>    2.6164    0.0000 </r>
       <r>    4.5203    0.0000 </r>
       <r>    5.2602    0.0000 </r>
       <r>    5.5661    0.0000 </r>
       <r>    6.1562    0.0000 </r>
       <r>    7.7659    0.0000 </r>
      </set>
      <set comment="kpoint 4">
       <r>  -21.1491    1.0000 </r>
       <r>   -9.2653    1.0000 </r>
       <r>   -6.8510    1.0000 </r>
       <r>   -6.1597    1.0000 </r>
       <r>    1.4611    0.0000 </r>
       <r>    2.3588    0.0000 </r>
       <r>    2.8895    0.0000 </r>
       <r>    4.7875    0.0000 </r>
       <r>    5.4496    0.0000 </r>
       <r>    5.6265    0.0000 </r>
       <r>    6.9171    0.0000 </r>
       <r>    7.1592    0.0000 </r>
      </set>
      <set comment="kpoint 5">
       <r>  -20.8730    1.0000 </r>
       <r>   -8.9426    1.0000 </r>
       <r>   -7.7353    1.0000 </r>
       <r>   -6.5640    1.0000 </r>
       <r>    1.8365    0.0000 </r>
       <r>    2.7352    0.0000 </r>
       <r>    3.2717    0.0000 </r>
       <r>    5.1591    0.0000 </r>
       <r>    5.4157    0.0000 </r>
       <r>    5.9419    0.0000 </r>
       <r>    6.3735    0.0000 </r>
       <r>    7.8963    0.0000 </r>
      </set>
      <set comment="kpoint 6">
       <r>  -20.5196    1.0000 </r>
       <r>   -8.7261    1.0000 </r>
       <r>   -8.5322    1.0000 </r>
       <r>   -6.9872    1.0000 </r>
       <r>    2.3187    0.0000 </r>
       <r>    3.2162    0.0000 </r>
       <r>    3.7627    0.0000 </r>
       <r>    5.2709    0.0000 </r>
       <r>    5.4074    0.0000 </r>
       <r>    5.6813    0.0000 </r>
       <r>    6.4152    0.0000 </r>
       <r>    9.0406    0.0000 </r>
      </set>
      <set comment="kpoint 7">
       <r>  -20.0900    1.0000 </r>
       <r>   -9.7742    1.0000 </r>
       <r>   -8.0385    1.0000 </r>
       <r>   -7.3972    1.0000 </r>
       <r>    2.9068    0.0000 </r>
       <r>    3.7796    0.0000 </r>
       <r>    4.3609    0.0000 </r>
       <r>    4.4415    0.0000 </r>
       <r>    5.0919    0.0000 </r>
       <r>    6.2376    0.0000 </r>
       <r>    7.0009    0.0000 </r>
       <r>   10.0252    0.0000 </r>
      </set>
      <set comment="kpoint 8">
       <r>  -19.5862    1.0000 </r>
       <r>  -10.8436    1.0000 </r>
       <r>   -7.7711    1.0000 </r>
       <r>   -7.4686    1.0000 </r>
       <r>    3.3050    0.0000 </r>
       <r>    3.5990    0.0000 </r>
       <r>    4.5384    0.0000 </r>
       <r>    4.8820    0.0000 </r>
       <r>    5.0951    0.0000 </r>
       <r>    6.9251    0.0000 </r>
       <r>    7.6941    0.0000 </r>
       <r>   10.6620    0.0000 </r>
      </set>
      <set comment="kpoint 9">
       <r>  -19.0110    1.0000 </r>
       <r>  -11.9072    1.0000 </r>
       <r>   -8.0933    1.0000 </r>
       <r>   -6.8347    1.0000 </r>
       <r>    2.2285    0.0000 </r>
       <r>    4.3784    0.0000 </r>
       <r>    4.7447    0.0000 </r>
       <r>    5.3283    0.0000 </r>
       <r>    5.8979    0.0000 </r>
       <r>    7.7149    0.0000 </r>
       <r>    8.4928    0.0000 </r>
       <r>   11.3629    0.0000 </r>
      </set>
      <set comment="kpoint 10">
       <r>  -18.3695    1.0000 </r>
       <r>  -12.9431    1.0000 </r>
       <r>   -8.3529    1.0000 </r>
       <r>   -6.1595    1.0000 </r>
       <r>    1.1774    0.0000 </r>
       <r>    4.5590    0.0000 </r>
       <r>    5.3228    0.0000 </r>
       <r>    6.2298    0.0000 </r>
       <r>    6.8235    0.0000 </r>
       <r>    8.6013    0.0000 </r>
       <r>    9.3943    0.0000 </r>
       <r>   12.0468    0.0000 </r>
      </set>
      <set comment="kpoint 11">
       <r>  -17.6731    1.0000 </r>
       <r>  -13.9285    1.0000 </r>
       <r>   -8.5427    1.0000 </r>
       <r>   -5.4900    1.0000 </r>
       <r>    0.2255    0.0000 </r>
       <r>    4.4574    0.0000 </r>
       <r>    6.3194    0.0000 </r>
       <r>    7.2310    0.0000 </r>
       <r>    7.8578    0.0000 </r>
       <r>    9.5723    0.0000 </r>
       <r>   10.3931    0.0000 </r>
       <r>   11.1310    0.0000 </r>
      </set>
      <set comment="kpoint 12">
       <r>  -16.9625    1.0000 </r>
       <r>  -14.8150    1.0000 </r>
       <r>   -8.6583    1.0000 </r>
       <r>   -4.9338    1.0000 </r>
       <r>   -0.5056    0.0000 </r>
       <r>    4.3917    0.0000 </r>
       <r>    7.4171    0.0000 </r>
       <r>    8.3219    0.0000 </r>
       <r>    8.9986    0.0000 </r>
       <r>    9.8643    0.0000 </r>
       <r>   10.4834    0.0000 </r>
       <r>   10.9191    0.0000 </r>
      </set>
      <set comment="kpoint 13">
       <r>  -16.5203    1.0000 </r>
       <r>  -15.3164    1.0000 </r>
       <r>   -8.6971    1.0000 </r>
       <r>   -4.6984    1.0000 </r>
       <r>   -0.8001    0.0000 </r>
       <r>    4.3693    0.0000 </r>
       <r>    8.5288    0.0000 </r>
       <r>    8.6841    0.0000 </r>
       <r>    9.3625    0.0000 </r>
       <r>    9.6371    0.0000 </r>
       <r>   10.2339    0.0000 </r>
       <r>   10.2592    0.0000 </r>
      </set>
      <set comment="kpoint 14">
       <r>  -21.3865    1.0000 </r>
       <r>   -9.5441    1.0000 </r>
       <r>   -5.9746    1.0000 </r>
       <r>   -5.7496    1.0000 </r>
       <r>    1.1392    0.0000 </r>
       <r>    2.0354    0.0000 </r>
       <r>    2.5618    0.0000 </r>
       <r>    4.4668    0.0000 </r>
       <r>    5.2116    0.0000 </r>
       <r>    5.5857    0.0000 </r>
       <r>    5.9637    0.0000 </r>
       <r>    7.8928    0.0000 </r>
      </set>
      <set comment="kpoint 15">
       <r>  -21.2282    1.0000 </r>
       <r>   -9.3580    1.0000 </r>
       <r>   -6.5484    1.0000 </r>
       <r>   -6.0586    1.0000 </r>
       <r>    1.3538    0.0000 </r>
       <r>    2.2511    0.0000 </r>
       <r>    2.7803    0.0000 </r>
       <r>    4.6808    0.0000 </r>
       <r>    5.4078    0.0000 </r>
       <r>    5.6703    0.0000 </r>
       <r>    6.5067    0.0000 </r>
       <r>    7.3984    0.0000 </r>
      </set>
      <set comment="kpoint 16">
       <r>  -20.9912    1.0000 </r>
       <r>   -9.0805    1.0000 </r>
       <r>   -7.3277    1.0000 </r>
       <r>   -6.4534    1.0000 </r>
       <r>    1.6757    0.0000 </r>
       <r>    2.5741    0.0000 </r>
       <r>    3.1080    0.0000 </r>
       <r>    5.0008    0.0000 </r>
       <r>    5.5748    0.0000 </r>
       <r>    5.8126    0.0000 </r>
       <r>    6.7053    0.0000 </r>
       <r>    7.2842    0.0000 </r>
      </set>
      <set comment="kpoint 17">
       <r>  -20.6765    1.0000 </r>
       <r>   -8.7138    1.0000 </r>
       <r>   -8.2489    1.0000 </r>
       <r>   -6.8842    1.0000 </r>
       <r>    2.1046    0.0000 </r>
       <r>    3.0033    0.0000 </r>
       <r>    3.5447    0.0000 </r>
       <r>    5.4178    0.0000 </r>
       <r>    5.5068    0.0000 </r>
       <r>    5.8646    0.0000 </r>
       <r>    6.2068    0.0000 </r>
       <r>    8.2534    0.0000 </r>
      </set>
      <set comment="kpoint 18">
       <r>  -20.2850    1.0000 </r>
       <r>   -9.2565    1.0000 </r>
       <r>   -8.2614    1.0000 </r>
       <r>   -7.3132    1.0000 </r>
       <r>    2.6399    0.0000 </r>
       <r>    3.5334    0.0000 </r>
       <r>    4.0900    0.0000 </r>
       <r>    4.8838    0.0000 </r>
       <r>    5.3537    0.0000 </r>
       <r>    5.9709    0.0000 </r>
       <r>    6.7353    0.0000 </r>
       <r>    9.3564    0.0000 </r>
      </set>
      <set comment="kpoint 19">
       <r>  -19.8182    1.0000 </r>
       <r>  -10.3072    1.0000 </r>
       <r>   -7.7289    1.0000 </r>
       <r>   -7.7138    1.0000 </r>
       <r>    3.2807    0.0000 </r>
       <r>    3.7761    0.0000 </r>
       <r>    4.2453    0.0000 </r>
       <r>    4.7398    0.0000 </r>
       <r>    5.1784    0.0000 </r>
       <r>    6.6047    0.0000 </r>
       <r>    7.3745    0.0000 </r>
       <r>   10.3627    0.0000 </r>
      </set>
      <set comment="kpoint 20">
       <r>  -19.2786    1.0000 </r>
       <r>  -11.3683    1.0000 </r>
       <r>   -8.0676    1.0000 </r>
       <r>   -7.1255    1.0000 </r>
       <r>    2.7402    0.0000 </r>
       <r>    4.0237    0.0000 </r>
       <r>    4.9535    0.0000 </r>
       <r>    4.9870    0.0000 </r>
       <r>    5.5196    0.0000 </r>
       <r>    7.3428    0.0000 </r>
       <r>    8.1203    0.0000 </r>
       <r>   11.0262    0.0000 </r>
      </set>
      <set comment="kpoint 21">
       <r>  -18.6698    1.0000 </r>
       <r>  -12.4149    1.0000 </r>
       <r>   -8.3622    1.0000 </r>
       <r>   -6.4673    1.0000 </r>
       <r>    1.6754    0.0000 </r>
       <r>    4.7521    0.0000 </r>
       <r>    4.9546    0.0000 </r>
       <r>    5.8016    0.0000 </r>
       <r>    6.3879    0.0000 </r>
       <r>    8.1792    0.0000 </r>
       <r>    8.9702    0.0000 </r>
       <r>   11.7160    0.0000 </r>
      </set>
      <set comment="kpoint 22">
       <r>  -17.9992    1.0000 </r>
       <r>  -13.4248    1.0000 </r>
       <r>   -8.5893    1.0000 </r>
       <r>   -5.7863    1.0000 </r>
       <r>    0.6692    0.0000 </r>
       <r>    4.6858    0.0000 </r>
       <r>    5.8471    0.0000 </r>
       <r>    6.7520    0.0000 </r>
       <r>    7.3680    0.0000 </r>
       <r>    9.1052    0.0000 </r>
       <r>    9.9209    0.0000 </r>
       <r>   11.6909    0.0000 </r>
      </set>
      <set comment="kpoint 23">
       <r>  -17.2868    1.0000 </r>
       <r>  -14.3684    1.0000 </r>
       <r>   -8.7434    1.0000 </r>
       <r>   -5.1532    1.0000 </r>
       <r>   -0.1898    0.0000 </r>
       <r>    4.6009    0.0000 </r>
       <r>    6.8952    0.0000 </r>
       <r>    7.7959    0.0000 </r>
       <r>    8.4556    0.0000 </r>
       <r>   10.0889    0.0000 </r>
       <r>   10.5183    0.0000 </r>
       <r>   10.9753    0.0000 </r>
      </set>
      <set comment="kpoint 24">
       <r>  -16.6333    1.0000 </r>
       <r>  -15.1387    1.0000 </r>
       <r>   -8.8212    1.0000 </r>
       <r>   -4.7253    1.0000 </r>
       <r>   -0.7334    0.0000 </r>
       <r>    4.5565    0.0000 </r>
       <r>    8.0349    0.0000 </r>
       <r>    8.9109    0.0000 </r>
       <r>    9.2637    0.0000 </r>
       <r>    9.6525    0.0000 </r>
       <r>   10.1189    0.0000 </r>
       <r>   10.9459    0.0000 </r>
      </set>
      <set comment="kpoint 25">
       <r>  -21.0307    1.0000 </r>
       <r>   -9.1266    1.0000 </r>
       <r>   -7.1515    1.0000 </r>
       <r>   -6.4548    1.0000 </r>
       <r>    1.6222    0.0000 </r>
       <r>    2.5204    0.0000 </r>
       <r>    3.0534    0.0000 </r>
       <r>    4.9479    0.0000 </r>
       <r>    5.6521    0.0000 </r>
       <r>    5.8933    0.0000 </r>
       <r>    6.8210    0.0000 </r>
       <r>    6.9022    0.0000 </r>
      </set>
      <set comment="kpoint 26">
       <r>  -20.7551    1.0000 </r>
       <r>   -8.8049    1.0000 </r>
       <r>   -7.9201    1.0000 </r>
       <r>   -6.9246    1.0000 </r>
       <r>    1.9976    0.0000 </r>
       <r>    2.8966    0.0000 </r>
       <r>    3.4357    0.0000 </r>
       <r>    5.3200    0.0000 </r>
       <r>    5.8883    0.0000 </r>
       <r>    6.0739    0.0000 </r>
       <r>    6.1469    0.0000 </r>
       <r>    7.4732    0.0000 </r>
      </set>
      <set comment="kpoint 27">
       <r>  -20.4022    1.0000 </r>
       <r>   -8.8190    1.0000 </r>
       <r>   -8.3959    1.0000 </r>
       <r>   -7.4017    1.0000 </r>
       <r>    2.4799    0.0000 </r>
       <r>    3.3779    0.0000 </r>
       <r>    3.9271    0.0000 </r>
       <r>    5.1902    0.0000 </r>
       <r>    5.8045    0.0000 </r>
       <r>    5.8867    0.0000 </r>
       <r>    6.5845    0.0000 </r>
       <r>    8.2902    0.0000 </r>
      </set>
      <set comment="kpoint 28">
       <r>  -19.9735    1.0000 </r>
       <r>   -9.8022    1.0000 </r>
       <r>   -7.9038    1.0000 </r>
       <r>   -7.8493    1.0000 </r>
       <r>    3.0683    0.0000 </r>
       <r>    3.9312    0.0000 </r>
       <r>    4.2550    0.0000 </r>
       <r>    4.5269    0.0000 </r>
       <r>    5.7582    0.0000 </r>
       <r>    6.3853    0.0000 </r>
       <r>    7.1635    0.0000 </r>
       <r>    9.2754    0.0000 </r>
      </set>
      <set comment="kpoint 29">
       <r>  -19.4708    1.0000 </r>
       <r>  -10.8273    1.0000 </r>
       <r>   -8.2479    1.0000 </r>
       <r>   -7.3356    1.0000 </r>
       <r>    3.1722    0.0000 </r>
       <r>    3.7616    0.0000 </r>
       <r>    4.6786    0.0000 </r>
       <r>    5.2299    0.0000 </r>
       <r>    5.5987    0.0000 </r>
       <r>    7.0695    0.0000 </r>
       <r>    7.8543    0.0000 </r>
       <r>   10.3273    0.0000 </r>
      </set>
      <set comment="kpoint 30">
       <r>  -18.8971    1.0000 </r>
       <r>  -11.8608    1.0000 </r>
       <r>   -8.5857    1.0000 </r>
       <r>   -6.7032    1.0000 </r>
       <r>    2.1276    0.0000 </r>
       <r>    4.5558    0.0000 </r>
       <r>    5.4227    0.0000 </r>
       <r>    5.4722    0.0000 </r>
       <r>    6.0636    0.0000 </r>
       <r>    7.8513    0.0000 </r>
       <r>    8.6512    0.0000 </r>
       <r>   11.3953    0.0000 </r>
      </set>
      <set comment="kpoint 31">
       <r>  -18.2576    1.0000 </r>
       <r>  -12.8761    1.0000 </r>
       <r>   -8.8550    1.0000 </r>
       <r>   -6.0284    1.0000 </r>
       <r>    1.1057    0.0000 </r>
       <r>    5.2359    0.0000 </r>
       <r>    5.5046    0.0000 </r>
       <r>    6.3681    0.0000 </r>
       <r>    6.9869    0.0000 </r>
       <r>    8.7215    0.0000 </r>
       <r>    9.5502    0.0000 </r>
       <r>   11.7759    0.0000 </r>
      </set>
      <set comment="kpoint 32">
       <r>  -17.5638    1.0000 </r>
       <r>  -13.8472    1.0000 </r>
       <r>   -9.0506    1.0000 </r>
       <r>   -5.3571    1.0000 </r>
       <r>    0.1731    0.0000 </r>
       <r>    5.1574    0.0000 </r>
       <r>    6.4763    0.0000 </r>
       <r>    7.3568    0.0000 </r>
       <r>    8.0204    0.0000 </r>
       <r>    9.6548    0.0000 </r>
       <r>   10.5424    0.0000 </r>
       <r>   11.1525    0.0000 </r>
      </set>
      <set comment="kpoint 33">
       <r>  -16.8564    1.0000 </r>
       <r>  -14.7243    1.0000 </r>
       <r>   -9.1691    1.0000 </r>
       <r>   -4.7954    1.0000 </r>
       <r>   -0.5508    0.0000 </r>
       <r>    5.0926    0.0000 </r>
       <r>    7.5683    0.0000 </r>
       <r>    8.4189    0.0000 </r>
       <r>    9.1595    0.0000 </r>
       <r>    9.9798    0.0000 </r>
       <r>   10.4129    0.0000 </r>
       <r>   11.0746    0.0000 </r>
      </set>
      <set comment="kpoint 34">
       <r>  -16.4165    1.0000 </r>
       <r>  -15.2213    1.0000 </r>
       <r>   -9.2089    1.0000 </r>
       <r>   -4.5556    1.0000 </r>
       <r>   -0.8455    0.0000 </r>
       <r>    5.0702    0.0000 </r>
       <r>    8.6649    0.0000 </r>
       <r>    8.8310    0.0000 </r>
       <r>    9.3276    0.0000 </r>
       <r>    9.7996    0.0000 </r>
       <r>   10.3901    0.0000 </r>
       <r>   10.4190    0.0000 </r>
      </set>
      <set comment="kpoint 35">
       <r>  -20.4414    1.0000 </r>
       <r>   -8.6214    1.0000 </r>
       <r>   -8.4408    1.0000 </r>
       <r>   -7.4862    1.0000 </r>
       <r>    2.4266    0.0000 </r>
       <r>    3.3256    0.0000 </r>
       <r>    3.8727    0.0000 </r>
       <r>    5.3027    0.0000 </r>
       <r>    5.7447    0.0000 </r>
       <r>    6.2776    0.0000 </r>
       <r>    6.5788    0.0000 </r>
       <r>    7.6703    0.0000 </r>
      </set>
      <set comment="kpoint 36">
       <r>  -20.0513    1.0000 </r>
       <r>   -9.4385    1.0000 </r>
       <r>   -8.0399    1.0000 </r>
       <r>   -7.9916    1.0000 </r>
       <r>    2.9620    0.0000 </r>
       <r>    3.8575    0.0000 </r>
       <r>    4.4187    0.0000 </r>
       <r>    4.4300    0.0000 </r>
       <r>    6.2724    0.0000 </r>
       <r>    6.4799    0.0000 </r>
       <r>    7.0747    0.0000 </r>
       <r>    8.2055    0.0000 </r>
      </set>
      <set comment="kpoint 37">
       <r>  -19.5866    1.0000 </r>
       <r>  -10.3530    1.0000 </r>
       <r>   -8.5294    1.0000 </r>
       <r>   -7.4627    1.0000 </r>
       <r>    3.4729    0.0000 </r>
       <r>    3.6030    0.0000 </r>
       <r>    4.5050    0.0000 </r>
       <r>    5.0732    0.0000 </r>
       <r>    6.4289    0.0000 </r>
       <r>    6.9010    0.0000 </r>
       <r>    7.6985    0.0000 </r>
       <r>    9.0703    0.0000 </r>
      </set>
      <set comment="kpoint 38">
       <r>  -19.0496    1.0000 </r>
       <r>  -11.3242    1.0000 </r>
       <r>   -8.9391    1.0000 </r>
       <r>   -6.8627    1.0000 </r>
       <r>    2.4836    0.0000 </r>
       <r>    4.3483    0.0000 </r>
       <r>    5.2454    0.0000 </r>
       <r>    5.8326    0.0000 </r>
       <r>    6.2950    0.0000 </r>
       <r>    7.6252    0.0000 </r>
       <r>    8.4386    0.0000 </r>
       <r>   10.0566    0.0000 </r>
      </set>
      <set comment="kpoint 39">
       <r>  -18.4444    1.0000 </r>
       <r>  -12.3118    1.0000 </r>
       <r>   -9.2673    1.0000 </r>
       <r>   -6.2070    1.0000 </r>
       <r>    1.4870    0.0000 </r>
       <r>    5.1939    0.0000 </r>
       <r>    6.0847    0.0000 </r>
       <r>    6.1384    0.0000 </r>
       <r>    6.7177    0.0000 </r>
       <r>    8.4338    0.0000 </r>
       <r>    9.2839    0.0000 </r>
       <r>   10.9636    0.0000 </r>
      </set>
      <set comment="kpoint 40">
       <r>  -17.7784    1.0000 </r>
       <r>  -13.2827    1.0000 </r>
       <r>   -9.5142    1.0000 </r>
       <r>   -5.5252    1.0000 </r>
       <r>    0.5321    0.0000 </r>
       <r>    5.9664    0.0000 </r>
       <r>    6.1939    0.0000 </r>
       <r>    7.0131    0.0000 </r>
       <r>    7.6940    0.0000 </r>
       <r>    9.2975    0.0000 </r>
       <r>   10.2259    0.0000 </r>
       <r>   11.3461    0.0000 </r>
      </set>
      <set comment="kpoint 41">
       <r>  -17.0719    1.0000 </r>
       <r>  -14.2004    1.0000 </r>
       <r>   -9.6792    1.0000 </r>
       <r>   -4.8845    1.0000 </r>
       <r>   -0.2993    0.0000 </r>
       <r>    5.9129    0.0000 </r>
       <r>    7.2036    0.0000 </r>
       <r>    8.0073    0.0000 </r>
       <r>    8.7792    0.0000 </r>
       <r>   10.0951    0.0000 </r>
       <r>   10.6560    0.0000 </r>
       <r>   11.2756    0.0000 </r>
      </set>
      <set comment="kpoint 42">
       <r>  -16.4246    1.0000 </r>
       <r>  -14.9554    1.0000 </r>
       <r>   -9.7619    1.0000 </r>
       <r>   -4.4431    1.0000 </r>
       <r>   -0.8387    0.0000 </r>
       <r>    5.8694    0.0000 </r>
       <r>    8.3266    0.0000 </r>
       <r>    8.9701    0.0000 </r>
       <r>    9.5225    0.0000 </r>
       <r>    9.9727    0.0000 </r>
       <r>   10.1689    0.0000 </r>
       <r>   11.2535    0.0000 </r>
      </set>
      <set comment="kpoint 43">
       <r>  -19.6252    1.0000 </r>
       <r>  -10.1316    1.0000 </r>
       <r>   -8.6912    1.0000 </r>
       <r>   -7.5052    1.0000 </r>
       <r>    3.5501    0.0000 </r>
       <r>    3.5841    0.0000 </r>
       <r>    4.4432    0.0000 </r>
       <r>    5.0193    0.0000 </r>
       <r>    6.8437    0.0000 </r>
       <r>    7.0766    0.0000 </r>
       <r>    7.6708    0.0000 </r>
       <r>    8.2595    0.0000 </r>
      </set>
      <set comment="kpoint 44">
       <r>  -19.1261    1.0000 </r>
       <r>  -10.9245    1.0000 </r>
       <r>   -9.2598    1.0000 </r>
       <r>   -6.9432    1.0000 </r>
       <r>    2.6841    0.0000 </r>
       <r>    4.2430    0.0000 </r>
       <r>    5.1280    0.0000 </r>
       <r>    5.7283    0.0000 </r>
       <r>    7.2783    0.0000 </r>
       <r>    7.5089    0.0000 </r>
       <r>    8.3386    0.0000 </r>
       <r>    8.8611    0.0000 </r>
      </set>
      <set comment="kpoint 45">
       <r>  -18.5571    1.0000 </r>
       <r>  -11.8029    1.0000 </r>
       <r>   -9.7075    1.0000 </r>
       <r>   -6.3163    1.0000 </r>
       <r>    1.7539    0.0000 </r>
       <r>    5.0389    0.0000 </r>
       <r>    5.9086    0.0000 </r>
       <r>    6.5434    0.0000 </r>
       <r>    7.1974    0.0000 </r>
       <r>    8.2534    0.0000 </r>
       <r>    9.1205    0.0000 </r>
       <r>    9.7921    0.0000 </r>
      </set>
      <set comment="kpoint 46">
       <r>  -17.9239    1.0000 </r>
       <r>  -12.7214    1.0000 </r>
       <r>  -10.0400    1.0000 </r>
       <r>   -5.6440    1.0000 </r>
       <r>    0.8271    0.0000 </r>
       <r>    5.9337    0.0000 </r>
       <r>    6.7729    0.0000 </r>
       <r>    7.0596    0.0000 </r>
       <r>    7.4813    0.0000 </r>
       <r>    9.0390    0.0000 </r>
       <r>   10.0055    0.0000 </r>
       <r>   10.6695    0.0000 </r>
      </set>
      <set comment="kpoint 47">
       <r>  -17.2383    1.0000 </r>
       <r>  -13.6321    1.0000 </r>
       <r>  -10.2703    1.0000 </r>
       <r>   -4.9672    1.0000 </r>
       <r>   -0.0425    0.0000 </r>
       <r>    6.8547    0.0000 </r>
       <r>    7.0286    0.0000 </r>
       <r>    7.6895    0.0000 </r>
       <r>    8.5077    0.0000 </r>
       <r>    9.7482    0.0000 </r>
       <r>   10.8651    0.0000 </r>
       <r>   11.1062    0.0000 </r>
      </set>
      <set comment="kpoint 48">
       <r>  -16.5404    1.0000 </r>
       <r>  -14.4725    1.0000 </r>
       <r>  -10.4061    1.0000 </r>
       <r>   -4.3859    1.0000 </r>
       <r>   -0.7441    0.0000 </r>
       <r>    6.8728    0.0000 </r>
       <r>    8.0187    0.0000 </r>
       <r>    8.5535    0.0000 </r>
       <r>    9.6399    0.0000 </r>
       <r>   10.1554    0.0000 </r>
       <r>   10.2722    0.0000 </r>
       <r>   11.5527    0.0000 </r>
      </set>
      <set comment="kpoint 49">
       <r>  -16.1056    1.0000 </r>
       <r>  -14.9561    1.0000 </r>
       <r>  -10.4510    1.0000 </r>
       <r>   -4.1290    1.0000 </r>
       <r>   -1.0420    0.0000 </r>
       <r>    6.8512    0.0000 </r>
       <r>    8.9858    0.0000 </r>
       <r>    9.0550    0.0000 </r>
       <r>    9.2629    0.0000 </r>
       <r>   10.2869    0.0000 </r>
       <r>   10.8529    0.0000 </r>
       <r>   10.8962    0.0000 </r>
      </set>
      <set comment="kpoint 50">
       <r>  -18.5949    1.0000 </r>
       <r>  -11.5582    1.0000 </r>
       <r>   -9.9333    1.0000 </r>
       <r>   -6.3531    1.0000 </r>
       <r>    1.8509    0.0000 </r>
       <r>    4.9865    0.0000 </r>
       <r>    5.8484    0.0000 </r>
       <r>    6.4913    0.0000 </r>
       <r>    8.0881    0.0000 </r>
       <r>    8.1914    0.0000 </r>
       <r>    8.8156    0.0000 </r>
       <r>    9.0963    0.0000 </r>
      </set>
      <set comment="kpoint 51">
       <r>  -17.9974    1.0000 </r>
       <r>  -12.2909    1.0000 </r>
       <r>  -10.4626    1.0000 </r>
       <r>   -5.7053    1.0000 </r>
       <r>    0.9961    0.0000 </r>
       <r>    5.8306    0.0000 </r>
       <r>    6.6476    0.0000 </r>
       <r>    7.3605    0.0000 </r>
       <r>    8.2265    0.0000 </r>
       <r>    8.9010    0.0000 </r>
       <r>    9.5112    0.0000 </r>
       <r>    9.9495    0.0000 </r>
      </set>
      <set comment="kpoint 52">
       <r>  -17.3416    1.0000 </r>
       <r>  -13.1025    1.0000 </r>
       <r>  -10.8282    1.0000 </r>
       <r>   -5.0242    1.0000 </r>
       <r>    0.1509    0.0000 </r>
       <r>    6.7692    0.0000 </r>
       <r>    7.4830    0.0000 </r>
       <r>    8.1005    0.0000 </r>
       <r>    8.3555    0.0000 </r>
       <r>    9.5073    0.0000 </r>
       <r>   10.3537    0.0000 </r>
       <r>   10.8934    0.0000 </r>
      </set>
      <set comment="kpoint 53">
       <r>  -16.6476    1.0000 </r>
       <r>  -13.9284    1.0000 </r>
       <r>  -11.0539    1.0000 </r>
       <r>   -4.3660    1.0000 </r>
       <r>   -0.6218    0.0000 </r>
       <r>    7.7666    0.0000 </r>
       <r>    8.0449    0.0000 </r>
       <r>    8.2246    0.0000 </r>
       <r>    9.4242    0.0000 </r>
       <r>    9.9258    0.0000 </r>
       <r>   10.6546    0.0000 </r>
       <r>   11.6869    0.0000 </r>
      </set>
      <set comment="kpoint 54">
       <r>  -16.0103    1.0000 </r>
       <r>  -14.6396    1.0000 </r>
       <r>  -11.1618    1.0000 </r>
       <r>   -3.8858    1.0000 </r>
       <r>   -1.1609    0.0000 </r>
       <r>    7.9471    0.0000 </r>
       <r>    8.6195    0.0000 </r>
       <r>    8.8928    0.0000 </r>
       <r>    9.9784    0.0000 </r>
       <r>   10.4678    0.0000 </r>
       <r>   10.6080    0.0000 </r>
       <r>   11.8237    0.0000 </r>
      </set>
      <set comment="kpoint 55">
       <r>  -17.3765    1.0000 </r>
       <r>  -12.8411    1.0000 </r>
       <r>  -11.1016    1.0000 </r>
       <r>   -5.0444    1.0000 </r>
       <r>    0.2231    0.0000 </r>
       <r>    6.7181    0.0000 </r>
       <r>    7.4104    0.0000 </r>
       <r>    8.2819    0.0000 </r>
       <r>    9.2376    0.0000 </r>
       <r>    9.3740    0.0000 </r>
       <r>    9.4211    0.0000 </r>
       <r>   10.8207    0.0000 </r>
      </set>
      <set comment="kpoint 56">
       <r>  -16.7069    1.0000 </r>
       <r>  -13.4917    1.0000 </r>
       <r>  -11.5445    1.0000 </r>
       <r>   -4.3623    1.0000 </r>
       <r>   -0.5385    0.0000 </r>
       <r>    7.6895    0.0000 </r>
       <r>    8.0395    0.0000 </r>
       <r>    9.1477    0.0000 </r>
       <r>    9.3328    0.0000 </r>
       <r>    9.7788    0.0000 </r>
       <r>   10.1941    0.0000 </r>
       <r>   11.6585    0.0000 </r>
      </set>
      <set comment="kpoint 57">
       <r>  -16.0254    1.0000 </r>
       <r>  -14.1911    1.0000 </r>
       <r>  -11.7875    1.0000 </r>
       <r>   -3.7358    1.0000 </r>
       <r>   -1.2129    0.0000 </r>
       <r>    8.3136    0.0000 </r>
       <r>    8.6966    0.0000 </r>
       <r>    9.1005    0.0000 </r>
       <r>   10.3659    0.0000 </r>
       <r>   10.4069    0.0000 </r>
       <r>   10.5457    0.0000 </r>
       <r>   12.3567    0.0000 </r>
      </set>
      <set comment="kpoint 58">
       <r>  -15.5888    1.0000 </r>
       <r>  -14.6397    1.0000 </r>
       <r>  -11.8637    1.0000 </r>
       <r>   -3.4238    1.0000 </r>
       <r>   -1.5409    0.0000 </r>
       <r>    8.3566    0.0000 </r>
       <r>    9.0092    0.0000 </r>
       <r>    9.6090    0.0000 </r>
       <r>    9.9645    0.0000 </r>
       <r>   11.0977    0.0000 </r>
       <r>   11.5768    0.0000 </r>
       <r>   11.6792    0.0000 </r>
      </set>
      <set comment="kpoint 59">
       <r>  -16.0394    1.0000 </r>
       <r>  -13.9499    1.0000 </r>
       <r>  -12.0811    1.0000 </r>
       <r>   -3.6859    1.0000 </r>
       <r>   -1.2255    0.0000 </r>
       <r>    8.2001    0.0000 </r>
       <r>    8.6644    0.0000 </r>
       <r>    9.8627    0.0000 </r>
       <r>   10.1926    0.0000 </r>
       <r>   10.3667    0.0000 </r>
       <r>   10.4674    0.0000 </r>
       <r>   12.4879    0.0000 </r>
      </set>
      <set comment="kpoint 60">
       <r>  -15.4092    1.0000 </r>
       <r>  -14.4737    1.0000 </r>
       <r>  -12.3549    1.0000 </r>
       <r>   -3.0922    1.0000 </r>
       <r>   -1.8220    0.0000 </r>
       <r>    8.1620    0.0000 </r>
       <r>    9.5660    0.0000 </r>
       <r>    9.8801    0.0000 </r>
       <r>   10.5048    0.0000 </r>
       <r>   11.2925    0.0000 </r>
       <r>   11.5397    0.0000 </r>
       <r>   12.4775    0.0000 </r>
      </set>
      <set comment="kpoint 61">
       <r>  -14.8687    1.0000 </r>
       <r>  -14.8686    1.0000 </r>
       <r>  -12.5798    1.0000 </r>
       <r>   -2.4504    0.5004 </r>
       <r>   -2.4503    0.4996 </r>
       <r>    8.0854    0.0000 </r>
       <r>   10.0130    0.0000 </r>
       <r>   10.0130    0.0000 </r>
       <r>   10.7874    0.0000 </r>
       <r>   12.2293    0.0000 </r>
       <r>   12.3513    0.0000 </r>
       <r>   12.3514    0.0000 </r>
      </set>
     </set>
    </set>
   </array>
  </eigenvalues>
  <separator name="orbital magnetization" >
   <v name="MAGDIPOLOUT">      0.00000000      0.00000000      0.00000000</v>
  </separator>
  <dos>
   <i name="efermi">     -2.45036067 </i>
   <total>
    <array>
     <dimension dim="1">gridpoints</dimension>
     <dimension dim="2">spin</dimension>
     <field>energy</field>
     <field>total</field>
     <field>integrated</field>
     <set>
      <set comment="spin 1">
       <r>   -23.2051     0.0000     0.0000 </r>
       <r>   -23.0805     0.0000     0.0000 </r>
       <r>   -22.9558     0.0000     0.0000 </r>
       <r>   -22.8312     0.0000     0.0000 </r>
       <r>   -22.7066     0.0000     0.0000 </r>
       <r>   -22.5819     0.0000     0.0000 </r>
       <r>   -22.4573     0.0000     0.0000 </r>
       <r>   -22.3326     0.0000     0.0000 </r>
       <r>   -22.2080     0.0000     0.0000 </r>
       <r>   -22.0833     0.0000     0.0000 </r>
       <r>   -21.9587     0.0000     0.0000 </r>
       <r>   -21.8341     0.0000     0.0000 </r>
       <r>   -21.7094     0.0000     0.0000 </r>
       <r>   -21.5848     0.0000     0.0000 </r>
       <r>   -21.4601     0.1374     0.0171 </r>
       <r>   -21.3355     0.3568     0.0616 </r>
       <r>   -21.2108     0.3325     0.1030 </r>
       <r>   -21.0862     0.2040     0.1285 </r>
       <r>   -20.9616     0.4954     0.1902 </r>
       <r>   -20.8369     0.1722     0.2117 </r>
       <r>   -20.7123     0.3358     0.2537 </r>
       <r>   -20.5876     0.3324     0.2951 </r>
       <r>   -20.4630     0.1777     0.3173 </r>
       <r>   -20.3383     0.4909     0.3785 </r>
       <r>   -20.2137     0.3343     0.4201 </r>
       <r>   -20.0891     0.0893     0.4313 </r>
       <r>   -19.9644     0.6594     0.5135 </r>
       <r>   -19.8398     0.1083     0.5270 </r>
       <r>   -19.7151     0.3131     0.5660 </r>
       <r>   -19.5905     0.3600     0.6108 </r>
       <r>   -19.4659     0.5216     0.6759 </r>
       <r>   -19.3412     0.1213     0.6910 </r>
       <r>   -19.2166     0.3343     0.7326 </r>
       <r>   -19.0919     0.3321     0.7740 </r>
       <r>   -18.9673     0.5034     0.8368 </r>
       <r>   -18.8426     0.3343     0.8785 </r>
       <r>   -18.7180     0.0001     0.8785 </r>
       <r>   -18.5934     0.4267     0.9317 </r>
       <r>   -18.4687     0.4232     0.9844 </r>
       <r>   -18.3441     0.4812     1.0444 </r>
       <r>   -18.2194     0.3392     1.0867 </r>
       <r>   -18.0948     0.0000     1.0868 </r>
       <r>   -17.9701     0.6530     1.1682 </r>
       <r>   -17.8455     0.3498     1.2118 </r>
       <r>   -17.7209     0.3343     1.2535 </r>
       <r>   -17.5962     0.1707     1.2748 </r>
       <r>   -17.4716     0.3306     1.3160 </r>
       <r>   -17.3469     0.2821     1.3511 </r>
       <r>   -17.2223     0.8448     1.4564 </r>
       <r>   -17.0976     0.0546     1.4632 </r>
       <r>   -16.9730     0.3612     1.5082 </r>
       <r>   -16.8484     0.3681     1.5541 </r>
       <r>   -16.7237     0.1341     1.5708 </r>
       <r>   -16.5991     0.9611     1.6906 </r>
       <r>   -16.4744     0.4205     1.7431 </r>
       <r>   -16.3498     0.5014     1.8056 </r>
       <r>   -16.2251     0.0000     1.8056 </r>
       <r>   -16.1005     0.1070     1.8189 </r>
       <r>   -15.9759     0.8933     1.9302 </r>
       <r>   -15.8512     0.0025     1.9306 </r>
       <r>   -15.7266     0.0000     1.9306 </r>
       <r>   -15.6019     0.0295     1.9342 </r>
       <r>   -15.4773     0.1377     1.9514 </r>
       <r>   -15.3527     0.3347     1.9931 </r>
       <r>   -15.2280     0.1363     2.0101 </r>
       <r>   -15.1034     0.4462     2.0657 </r>
       <r>   -14.9787     0.0277     2.0692 </r>
       <r>   -14.8541     0.5708     2.1403 </r>
       <r>   -14.7294     0.3032     2.1781 </r>
       <r>   -14.6048     0.7126     2.2669 </r>
       <r>   -14.4802     0.2107     2.2932 </r>
       <r>   -14.3555     0.7349     2.3848 </r>
       <r>   -14.2309     0.0667     2.3931 </r>
       <r>   -14.1062     0.6626     2.4757 </r>
       <r>   -13.9816     0.0021     2.4760 </r>
       <r>   -13.8569     0.7488     2.5693 </r>
       <r>   -13.7323     0.2520     2.6007 </r>
       <r>   -13.6077     0.3202     2.6406 </r>
       <r>   -13.4830     0.2580     2.6728 </r>
       <r>   -13.3584     0.4247     2.7257 </r>
       <r>   -13.2337     0.3342     2.7674 </r>
       <r>   -13.1091     0.1074     2.7807 </r>
       <r>   -12.9844     0.2272     2.8091 </r>
       <r>   -12.8598     0.4749     2.8683 </r>
       <r>   -12.7352     0.2484     2.8992 </r>
       <r>   -12.6105     0.2801     2.9341 </r>
       <r>   -12.4859     0.0549     2.9410 </r>
       <r>   -12.3612     0.4436     2.9963 </r>
       <r>   -12.2366     0.8935     3.1076 </r>
       <r>   -12.1119     0.0024     3.1079 </r>
       <r>   -11.9873     0.1647     3.1285 </r>
       <r>   -11.8627     0.4048     3.1789 </r>
       <r>   -11.7380     0.9321     3.2951 </r>
       <r>   -11.6134     0.0000     3.2951 </r>
       <r>   -11.4887     0.5014     3.3576 </r>
       <r>   -11.3641     0.2073     3.3835 </r>
       <r>   -11.2395     0.4613     3.4410 </r>
       <r>   -11.1148     0.3633     3.4863 </r>
       <r>   -10.9902     0.4723     3.5451 </r>
       <r>   -10.8655     0.3470     3.5884 </r>
       <r>   -10.7409     0.8230     3.6910 </r>
       <r>   -10.6162     0.0000     3.6910 </r>
       <r>   -10.4916     0.0071     3.6919 </r>
       <r>   -10.3670     0.8820     3.8018 </r>
       <r>   -10.2423     0.9405     3.9191 </r>
       <r>   -10.1177     0.1480     3.9376 </r>
       <r>    -9.9930     0.3613     3.9826 </r>
       <r>    -9.8684     0.1671     4.0035 </r>
       <r>    -9.7437     0.8015     4.1034 </r>
       <r>    -9.6191     0.8817     4.2133 </r>
       <r>    -9.4945     0.5882     4.2866 </r>
       <r>    -9.3698     0.4984     4.3487 </r>
       <r>    -9.2452     1.2842     4.5088 </r>
       <r>    -9.1205     0.7659     4.6042 </r>
       <r>    -8.9959     0.7237     4.6944 </r>
       <r>    -8.8712     0.5432     4.7622 </r>
       <r>    -8.7466     1.4482     4.9427 </r>
       <r>    -8.6220     1.1861     5.0905 </r>
       <r>    -8.4973     1.4130     5.2667 </r>
       <r>    -8.3727     0.5800     5.3390 </r>
       <r>    -8.2480     1.0458     5.4694 </r>
       <r>    -8.1234     0.3878     5.5177 </r>
       <r>    -7.9987     1.1017     5.6550 </r>
       <r>    -7.8741     0.9073     5.7682 </r>
       <r>    -7.7495     0.5367     5.8352 </r>
       <r>    -7.6248     0.7932     5.9340 </r>
       <r>    -7.5002     0.1372     5.9511 </r>
       <r>    -7.3755     1.1796     6.0982 </r>
       <r>    -7.2509     1.0233     6.2257 </r>
       <r>    -7.1263     0.3206     6.2657 </r>
       <r>    -7.0016     0.2066     6.2914 </r>
       <r>    -6.8770     1.1003     6.4285 </r>
       <r>    -6.7523     0.7125     6.5174 </r>
       <r>    -6.6277     0.3342     6.5590 </r>
       <r>    -6.5030     0.5032     6.6218 </r>
       <r>    -6.3784     0.8398     6.7265 </r>
       <r>    -6.2538     0.4955     6.7882 </r>
       <r>    -6.1291     0.7793     6.8853 </r>
       <r>    -6.0045     0.7125     6.9742 </r>
       <r>    -5.8798     0.1795     6.9965 </r>
       <r>    -5.7552     0.5548     7.0657 </r>
       <r>    -5.6305     0.8909     7.1767 </r>
       <r>    -5.5059     0.5690     7.2477 </r>
       <r>    -5.3813     0.2284     7.2761 </r>
       <r>    -5.2566     0.3197     7.3160 </r>
       <r>    -5.1320     0.3121     7.3549 </r>
       <r>    -5.0073     0.4847     7.4153 </r>
       <r>    -4.8827     0.7237     7.5056 </r>
       <r>    -4.7580     0.4866     7.5662 </r>
       <r>    -4.6334     0.4144     7.6181 </r>
       <r>    -4.5088     0.1671     7.6389 </r>
       <r>    -4.3841     0.5724     7.7102 </r>
       <r>    -4.2595     0.7647     7.8056 </r>
       <r>    -4.1348     0.0567     7.8126 </r>
       <r>    -4.0102     0.1104     7.8264 </r>
       <r>    -3.8856     0.1697     7.8475 </r>
       <r>    -3.7609     0.1773     7.8696 </r>
       <r>    -3.6363     0.4887     7.9306 </r>
       <r>    -3.5116     0.0000     7.9306 </r>
       <r>    -3.3870     0.1664     7.9513 </r>
       <r>    -3.2623     0.0000     7.9514 </r>
       <r>    -3.1377     0.0002     7.9514 </r>
       <r>    -3.0131     0.3341     7.9931 </r>
       <r>    -2.8884     0.0000     7.9931 </r>
       <r>    -2.7638     0.0000     7.9931 </r>
       <r>    -2.6391     0.0000     7.9931 </r>
       <r>    -2.5145     0.0000     7.9931 </r>
       <r>    -2.3898     0.1114     8.0069 </r>
       <r>    -2.2652     0.0000     8.0069 </r>
       <r>    -2.1406     0.0000     8.0069 </r>
       <r>    -2.0159     0.0000     8.0069 </r>
       <r>    -1.8913     0.0000     8.0069 </r>
       <r>    -1.7666     0.3343     8.0486 </r>
       <r>    -1.6420     0.0000     8.0486 </r>
       <r>    -1.5173     0.1592     8.0685 </r>
       <r>    -1.3927     0.0080     8.0694 </r>
       <r>    -1.2681     0.0002     8.0695 </r>
       <r>    -1.1434     0.7993     8.1691 </r>
       <r>    -1.0188     0.1949     8.1934 </r>
       <r>    -0.8941     0.0085     8.1945 </r>
       <r>    -0.7695     0.5975     8.2689 </r>
       <r>    -0.6448     0.6731     8.3528 </r>
       <r>    -0.5202     0.9731     8.4741 </r>
       <r>    -0.3956     0.1797     8.4965 </r>
       <r>    -0.2709     0.3268     8.5373 </r>
       <r>    -0.1463     0.3414     8.5798 </r>
       <r>    -0.0216     0.3107     8.6186 </r>
       <r>     0.1030     0.0237     8.6215 </r>
       <r>     0.2276     0.8668     8.7296 </r>
       <r>     0.3523     0.1359     8.7465 </r>
       <r>     0.4769     0.0000     8.7465 </r>
       <r>     0.6016     0.3343     8.7882 </r>
       <r>     0.7262     0.3343     8.8299 </r>
       <r>     0.8509     0.3187     8.8696 </r>
       <r>     0.9755     0.0518     8.8760 </r>
       <r>     1.1001     0.6094     8.9520 </r>
       <r>     1.2248     0.7173     9.0414 </r>
       <r>     1.3494     0.1282     9.0574 </r>
       <r>     1.4741     0.4056     9.1080 </r>
       <r>     1.5987     0.3121     9.1468 </r>
       <r>     1.7234     0.8325     9.2506 </r>
       <r>     1.8480     0.5325     9.3170 </r>
       <r>     1.9726     0.3387     9.3592 </r>
       <r>     2.0973     0.7142     9.4483 </r>
       <r>     2.2219     0.6705     9.5318 </r>
       <r>     2.3466     0.6364     9.6112 </r>
       <r>     2.4712     0.6390     9.6908 </r>
       <r>     2.5959     1.1893     9.8391 </r>
       <r>     2.7205     0.8959     9.9507 </r>
       <r>     2.8451     0.7838    10.0486 </r>
       <r>     2.9698     0.9085    10.1619 </r>
       <r>     3.0944     0.9754    10.2834 </r>
       <r>     3.2191     0.7195    10.3732 </r>
       <r>     3.3437     0.8914    10.4843 </r>
       <r>     3.4684     0.8038    10.5845 </r>
       <r>     3.5930     1.3074    10.7475 </r>
       <r>     3.7176     0.4102    10.7987 </r>
       <r>     3.8423     1.0520    10.9298 </r>
       <r>     3.9669     1.1177    11.0691 </r>
       <r>     4.0916     0.5162    11.1338 </r>
       <r>     4.2162     0.1697    11.1549 </r>
       <r>     4.3408     1.1439    11.2975 </r>
       <r>     4.4655     2.1377    11.5640 </r>
       <r>     4.5901     2.0589    11.8209 </r>
       <r>     4.7148     1.2758    11.9799 </r>
       <r>     4.8394     0.9958    12.1042 </r>
       <r>     4.9641     1.1838    12.2518 </r>
       <r>     5.0887     2.2232    12.5289 </r>
       <r>     5.2133     2.5775    12.8502 </r>
       <r>     5.3380     2.1773    13.1215 </r>
       <r>     5.4626     1.9478    13.3643 </r>
       <r>     5.5873     2.0934    13.6254 </r>
       <r>     5.7119     1.4576    13.8071 </r>
       <r>     5.8366     2.3242    14.0969 </r>
       <r>     5.9612     3.7351    14.5624 </r>
       <r>     6.0858     1.3458    14.7302 </r>
       <r>     6.2105     1.5925    14.9287 </r>
       <r>     6.3351     1.4726    15.1122 </r>
       <r>     6.4598     1.7535    15.3309 </r>
       <r>     6.5844     1.7408    15.5479 </r>
       <r>     6.7091     1.2162    15.6995 </r>
       <r>     6.8337     2.1721    15.9703 </r>
       <r>     6.9583     2.1663    16.2403 </r>
       <r>     7.0830     2.1128    16.5037 </r>
       <r>     7.2076     1.1907    16.6521 </r>
       <r>     7.3323     1.1361    16.7937 </r>
       <r>     7.4569     2.3058    17.0812 </r>
       <r>     7.5816     1.5471    17.2741 </r>
       <r>     7.7062     1.9986    17.5232 </r>
       <r>     7.8308     1.2763    17.6825 </r>
       <r>     7.9555     1.3683    17.8530 </r>
       <r>     8.0801     2.1889    18.1259 </r>
       <r>     8.2048     1.9311    18.3667 </r>
       <r>     8.3294     3.1087    18.7542 </r>
       <r>     8.4540     2.0499    19.0098 </r>
       <r>     8.5787     1.1720    19.1559 </r>
       <r>     8.7033     1.5098    19.3441 </r>
       <r>     8.8280     0.9562    19.4634 </r>
       <r>     8.9526     1.5363    19.6549 </r>
       <r>     9.0773     2.0240    19.9073 </r>
       <r>     9.2019     1.9126    20.1459 </r>
       <r>     9.3265     1.8584    20.3776 </r>
       <r>     9.4512     1.5545    20.5714 </r>
       <r>     9.5758     1.6917    20.7823 </r>
       <r>     9.7005     1.4124    20.9583 </r>
       <r>     9.8251     1.1616    21.1031 </r>
       <r>     9.9498     1.5477    21.2961 </r>
       <r>    10.0744     2.2899    21.5815 </r>
       <r>    10.1990     1.9609    21.8259 </r>
       <r>    10.3237     1.3131    21.9896 </r>
       <r>    10.4483     2.5721    22.3103 </r>
       <r>    10.5730     1.9531    22.5541 </r>
       <r>    10.6976     1.5064    22.7418 </r>
       <r>    10.8223     0.1568    22.7616 </r>
       <r>    10.9469     1.4634    22.9440 </r>
       <r>    11.0715     1.2633    23.1015 </r>
       <r>    11.1962     1.1908    23.2500 </r>
       <r>    11.3208     1.0077    23.3756 </r>
       <r>    11.4455     0.8306    23.4792 </r>
       <r>    11.5701     0.6801    23.5639 </r>
       <r>    11.6947     1.0958    23.7005 </r>
       <r>    11.8194     1.0234    23.8283 </r>
       <r>    11.9440     0.2072    23.8542 </r>
       <r>    12.0687     0.1570    23.8737 </r>
       <r>    12.1933     0.0105    23.8750 </r>
       <r>    12.3180     0.0574    23.8822 </r>
       <r>    12.4426     0.4460    23.9378 </r>
       <r>    12.5672     0.4991    24.0000 </r>
       <r>    12.6919     0.0000    24.0000 </r>
       <r>    12.8165     0.0000    24.0000 </r>
       <r>    12.9412     0.0000    24.0000 </r>
       <r>    13.0658     0.0000    24.0000 </r>
       <r>    13.1905     0.0000    24.0000 </r>
       <r>    13.3151     0.0000    24.0000 </r>
       <r>    13.4397     0.0000    24.0000 </r>
       <r>    13.5644     0.0000    24.0000 </r>
       <r>    13.6890     0.0000    24.0000 </r>
       <r>    13.8137     0.0000    24.0000 </r>
       <r>    13.9383     0.0000    24.0000 </r>
       <r>    14.0630     0.0000    24.0000 </r>
       <r>    14.1876     0.0000    24.0000 </r>
      </set>
     </set>
    </array>
   </total>
  </dos>
 </calculation>
 <structure name="finalpos" >
  <crystal>
   <varray name="basis" >
    <v>       2.51386100       0.00000000       0.00000000 </v>
    <v>      -1.25693100       2.17706700       0.00000000 </v>
    <v>       0.00000000       0.00000000      15.00000000 </v>
   </varray>
   <i name="volume">     82.09265739 </i>
   <varray name="rec_basis" >
    <v>       0.39779447       0.22966689       0.00000000 </v>
    <v>       0.00000000       0.45933359       0.00000000 </v>
    <v>       0.00000000       0.00000000       0.06666667 </v>
   </varray>
  </crystal>
  <varray name="positions" >
   <v>       0.00000000       0.00000000       0.50000000 </v>
   <v>       0.33333300       0.66666700       0.50000000 </v>
  </varray>
 </structure>
</modeling>
