 running on   48 total cores
 distrk:  each k-point on   48 cores,    1 groups
 distr:  one band on    8 cores,    6 groups
 using from now: INCAR     
 vasp.5.4.1 24Jun15 (build Nov 20 2020 10:29:34) complex                        
  
 POSCAR found type information on POSCAR  C 
 POSCAR found :  1 types and       2 ions
 scaLAPACK will be used

 ----------------------------------------------------------------------------- 
|                                                                             |
|  ADVICE TO THIS USER RUNNING 'VASP/VAMP'   (HEAR YOUR MASTER'S VOICE ...):  |
|                                                                             |
|      You have a (more or less) 'small supercell' and for smaller cells      |
|      it is recommended  to use the reciprocal-space projection scheme!      |
|      The real space optimization is not  efficient for small cells and it   |
|      is also less accurate ...                                              |
|      Therefore set LREAL=.FALSE. in the  INCAR file                         |
|                                                                             |
 ----------------------------------------------------------------------------- 

 LDA part: xc-table for Pade appr. of Perdew
 POSCAR, INCAR and KPOINTS ok, starting setup
 FFT: planning ...
 WAVECAR not read
 entering main loop
       N       E                     dE             d eps       ncg     rms          rms(c)
DAV:   1     0.353074670390E+02    0.35307E+02   -0.36408E+03  1476   0.494E+02
DAV:   2    -0.178156737289E+02   -0.53123E+02   -0.47755E+02  2076   0.974E+01
DAV:   3    -0.194618300687E+02   -0.16462E+01   -0.16461E+01  2256   0.231E+01
DAV:   4    -0.194676272300E+02   -0.57972E-02   -0.57971E-02  2052   0.131E+00
DAV:   5    -0.194676411009E+02   -0.13871E-04   -0.13871E-04  2172   0.526E-02    0.585E+00
DAV:   6    -0.187078482521E+02    0.75979E+00   -0.74183E-01  1992   0.407E+00    0.345E+00
DAV:   7    -0.184130974585E+02    0.29475E+00   -0.97645E-01  2076   0.457E+00    0.832E-01
DAV:   8    -0.184068377766E+02    0.62597E-02   -0.81605E-03  2028   0.588E-01    0.902E-02
DAV:   9    -0.184049925887E+02    0.18452E-02   -0.12604E-03  1884   0.139E-01    0.701E-02
DAV:  10    -0.184040154629E+02    0.97713E-03   -0.17337E-03  1704   0.137E-01    0.321E-02
DAV:  11    -0.184042121565E+02   -0.19669E-03   -0.18321E-04  1548   0.544E-02    0.384E-02
DAV:  12    -0.184044444066E+02   -0.23225E-03   -0.33547E-05  1692   0.270E-02    0.105E-02
DAV:  13    -0.184050952701E+02   -0.65086E-03   -0.17061E-04  1668   0.344E-02    0.375E-03
DAV:  14    -0.184051546766E+02   -0.59407E-04   -0.95020E-07  1872   0.397E-03    0.249E-03
DAV:  15    -0.184052321465E+02   -0.77470E-04   -0.72941E-06  1620   0.635E-03    0.632E-04
DAV:  16    -0.184052390110E+02   -0.68645E-05   -0.21237E-07  1668   0.171E-03
   1 F= -.18405239E+02 E0= -.18405200E+02  d E =-.783596E-04
