<?xml version="1.0" encoding="ISO-8859-1"?>
<modeling>
 <generator>
  <i name="program" type="string">vasp </i>
  <i name="version" type="string">5.4.1  </i>
  <i name="subversion" type="string">24Jun15 (build Nov 20 2020 10:29:34) complex                          parallel </i>
  <i name="platform" type="string">IFC91_ompi </i>
  <i name="date" type="string">2021 09 14 </i>
  <i name="time" type="string">00:23:39 </i>
 </generator>
 <incar>
  <i type="int" name="ISTART">     1</i>
  <i type="string" name="PREC">a</i>
  <i type="string" name="ALGO"> Normal</i>
  <i type="int" name="ISPIN">     1</i>
  <i type="int" name="ICHARG">     2</i>
  <i type="int" name="NELM">   250</i>
  <i type="int" name="NELMDL">    -5</i>
  <i type="int" name="NELMIN">     6</i>
  <i type="int" name="IBRION">     2</i>
  <i name="EDIFF">      0.00001000</i>
  <i name="EDIFFG">     -0.00500000</i>
  <i type="int" name="NSW">     0</i>
  <i type="int" name="ISIF">     2</i>
  <i name="ENCUT">    520.00000000</i>
  <i name="POTIM">      0.25000000</i>
  <v name="MAGMOM">      0.60000000      0.60000000</v>
  <i type="string" name="LREAL"> Auto</i>
  <i type="int" name="ISMEAR">     0</i>
  <i name="SIGMA">      0.02000000</i>
  <i type="logical" name="LWAVE"> F  </i>
  <i type="logical" name="LCHARG"> F  </i>
  <i type="logical" name="LVHAR"> F  </i>
  <v type="int" name="KPOINT_BSE">    -1     0     0     0</v>
  <i type="int" name="NELM">   250</i>
 </incar>
 <kpoints>
  <generation param="Gamma">
   <v type="int" name="divisions">      24       24        1 </v>
   <v name="usershift">      0.00000000       0.00000000       0.00000000 </v>
   <v name="genvec1">      0.04166667      -0.00000000       0.00000000 </v>
   <v name="genvec2">      0.00000000       0.04166667       0.00000000 </v>
   <v name="genvec3">      0.00000000       0.00000000       1.00000000 </v>
   <v name="shift">      0.00000000       0.00000000       0.00000000 </v>
  </generation>
  <varray name="kpointlist" >
   <v>       0.00000000       0.00000000       0.00000000 </v>
   <v>       0.04166667       0.00000000       0.00000000 </v>
   <v>       0.08333333       0.00000000       0.00000000 </v>
   <v>       0.12500000       0.00000000       0.00000000 </v>
   <v>       0.16666667       0.00000000       0.00000000 </v>
   <v>       0.20833333       0.00000000       0.00000000 </v>
   <v>       0.25000000       0.00000000       0.00000000 </v>
   <v>       0.29166667       0.00000000       0.00000000 </v>
   <v>       0.33333333       0.00000000       0.00000000 </v>
   <v>       0.37500000       0.00000000       0.00000000 </v>
   <v>       0.41666667      -0.00000000       0.00000000 </v>
   <v>       0.45833333       0.00000000       0.00000000 </v>
   <v>       0.50000000       0.00000000       0.00000000 </v>
   <v>       0.00000000       0.04166667       0.00000000 </v>
   <v>       0.04166667       0.04166667       0.00000000 </v>
   <v>       0.08333333       0.04166667       0.00000000 </v>
   <v>       0.12500000       0.04166667       0.00000000 </v>
   <v>       0.16666667       0.04166667       0.00000000 </v>
   <v>       0.20833333       0.04166667       0.00000000 </v>
   <v>       0.25000000       0.04166667       0.00000000 </v>
   <v>       0.29166667       0.04166667       0.00000000 </v>
   <v>       0.33333333       0.04166667       0.00000000 </v>
   <v>       0.37500000       0.04166667       0.00000000 </v>
   <v>       0.41666667       0.04166667       0.00000000 </v>
   <v>       0.45833333       0.04166667       0.00000000 </v>
   <v>       0.50000000       0.04166667       0.00000000 </v>
   <v>      -0.45833333       0.04166667       0.00000000 </v>
   <v>      -0.41666667       0.04166667       0.00000000 </v>
   <v>      -0.37500000       0.04166667       0.00000000 </v>
   <v>      -0.33333333       0.04166667       0.00000000 </v>
   <v>      -0.29166667       0.04166667       0.00000000 </v>
   <v>      -0.25000000       0.04166667       0.00000000 </v>
   <v>      -0.20833333       0.04166667       0.00000000 </v>
   <v>      -0.16666667       0.04166667       0.00000000 </v>
   <v>      -0.12500000       0.04166667       0.00000000 </v>
   <v>      -0.08333333       0.04166667       0.00000000 </v>
   <v>       0.00000000       0.08333333       0.00000000 </v>
   <v>       0.04166667       0.08333333       0.00000000 </v>
   <v>       0.08333333       0.08333333       0.00000000 </v>
   <v>       0.12500000       0.08333333       0.00000000 </v>
   <v>       0.16666667       0.08333333       0.00000000 </v>
   <v>       0.20833333       0.08333333       0.00000000 </v>
   <v>       0.25000000       0.08333333       0.00000000 </v>
   <v>       0.29166667       0.08333333       0.00000000 </v>
   <v>       0.33333333       0.08333333       0.00000000 </v>
   <v>       0.37500000       0.08333333       0.00000000 </v>
   <v>       0.41666667       0.08333333       0.00000000 </v>
   <v>       0.45833333       0.08333333       0.00000000 </v>
   <v>       0.50000000       0.08333333       0.00000000 </v>
   <v>      -0.45833333       0.08333333       0.00000000 </v>
   <v>      -0.41666667       0.08333333       0.00000000 </v>
   <v>      -0.37500000       0.08333333       0.00000000 </v>
   <v>      -0.33333333       0.08333333       0.00000000 </v>
   <v>      -0.29166667       0.08333333       0.00000000 </v>
   <v>      -0.25000000       0.08333333       0.00000000 </v>
   <v>      -0.20833333       0.08333333       0.00000000 </v>
   <v>      -0.16666667       0.08333333       0.00000000 </v>
   <v>       0.00000000       0.12500000       0.00000000 </v>
   <v>       0.04166667       0.12500000       0.00000000 </v>
   <v>       0.08333333       0.12500000       0.00000000 </v>
   <v>       0.12500000       0.12500000       0.00000000 </v>
   <v>       0.16666667       0.12500000       0.00000000 </v>
   <v>       0.20833333       0.12500000       0.00000000 </v>
   <v>       0.25000000       0.12500000       0.00000000 </v>
   <v>       0.29166667       0.12500000       0.00000000 </v>
   <v>       0.33333333       0.12500000       0.00000000 </v>
   <v>       0.37500000       0.12500000       0.00000000 </v>
   <v>       0.41666667       0.12500000       0.00000000 </v>
   <v>       0.45833333       0.12500000       0.00000000 </v>
   <v>       0.50000000       0.12500000       0.00000000 </v>
   <v>      -0.45833333       0.12500000       0.00000000 </v>
   <v>      -0.41666667       0.12500000       0.00000000 </v>
   <v>      -0.37500000       0.12500000       0.00000000 </v>
   <v>      -0.33333333       0.12500000       0.00000000 </v>
   <v>      -0.29166667       0.12500000       0.00000000 </v>
   <v>      -0.25000000       0.12500000       0.00000000 </v>
   <v>       0.00000000       0.16666667       0.00000000 </v>
   <v>       0.04166667       0.16666667       0.00000000 </v>
   <v>       0.08333333       0.16666667       0.00000000 </v>
   <v>       0.12500000       0.16666667       0.00000000 </v>
   <v>       0.16666667       0.16666667       0.00000000 </v>
   <v>       0.20833333       0.16666667       0.00000000 </v>
   <v>       0.25000000       0.16666667       0.00000000 </v>
   <v>       0.29166667       0.16666667       0.00000000 </v>
   <v>       0.33333333       0.16666667       0.00000000 </v>
   <v>       0.37500000       0.16666667       0.00000000 </v>
   <v>       0.41666667       0.16666667       0.00000000 </v>
   <v>       0.45833333       0.16666667       0.00000000 </v>
   <v>       0.50000000       0.16666667       0.00000000 </v>
   <v>      -0.45833333       0.16666667       0.00000000 </v>
   <v>      -0.41666667       0.16666667       0.00000000 </v>
   <v>      -0.37500000       0.16666667       0.00000000 </v>
   <v>      -0.33333333       0.16666667       0.00000000 </v>
   <v>       0.00000000       0.20833333       0.00000000 </v>
   <v>       0.04166667       0.20833333       0.00000000 </v>
   <v>       0.08333333       0.20833333       0.00000000 </v>
   <v>       0.12500000       0.20833333       0.00000000 </v>
   <v>       0.16666667       0.20833333       0.00000000 </v>
   <v>       0.20833333       0.20833333       0.00000000 </v>
   <v>       0.25000000       0.20833333       0.00000000 </v>
   <v>       0.29166667       0.20833333       0.00000000 </v>
   <v>       0.33333333       0.20833333       0.00000000 </v>
   <v>       0.37500000       0.20833333       0.00000000 </v>
   <v>       0.41666667       0.20833333       0.00000000 </v>
   <v>       0.45833333       0.20833333       0.00000000 </v>
   <v>       0.50000000       0.20833333       0.00000000 </v>
   <v>      -0.45833333       0.20833333       0.00000000 </v>
   <v>      -0.41666667       0.20833333       0.00000000 </v>
   <v>       0.00000000       0.25000000       0.00000000 </v>
   <v>       0.04166667       0.25000000       0.00000000 </v>
   <v>       0.08333333       0.25000000       0.00000000 </v>
   <v>       0.12500000       0.25000000       0.00000000 </v>
   <v>       0.16666667       0.25000000       0.00000000 </v>
   <v>       0.20833333       0.25000000       0.00000000 </v>
   <v>       0.25000000       0.25000000       0.00000000 </v>
   <v>       0.29166667       0.25000000       0.00000000 </v>
   <v>       0.33333333       0.25000000       0.00000000 </v>
   <v>       0.37500000       0.25000000       0.00000000 </v>
   <v>       0.41666667       0.25000000       0.00000000 </v>
   <v>       0.45833333       0.25000000       0.00000000 </v>
   <v>       0.50000000       0.25000000       0.00000000 </v>
   <v>       0.00000000       0.29166667       0.00000000 </v>
   <v>       0.04166667       0.29166667       0.00000000 </v>
   <v>       0.08333333       0.29166667       0.00000000 </v>
   <v>       0.12500000       0.29166667       0.00000000 </v>
   <v>       0.16666667       0.29166667       0.00000000 </v>
   <v>       0.20833333       0.29166667       0.00000000 </v>
   <v>       0.25000000       0.29166667       0.00000000 </v>
   <v>       0.29166667       0.29166667       0.00000000 </v>
   <v>       0.33333333       0.29166667       0.00000000 </v>
   <v>       0.37500000       0.29166667       0.00000000 </v>
   <v>       0.41666667       0.29166667       0.00000000 </v>
   <v>       0.00000000       0.33333333       0.00000000 </v>
   <v>       0.04166667       0.33333333       0.00000000 </v>
   <v>       0.08333333       0.33333333       0.00000000 </v>
   <v>       0.12500000       0.33333333       0.00000000 </v>
   <v>       0.16666667       0.33333333       0.00000000 </v>
   <v>       0.20833333       0.33333333       0.00000000 </v>
   <v>       0.25000000       0.33333333       0.00000000 </v>
   <v>       0.29166667       0.33333333       0.00000000 </v>
   <v>       0.33333333       0.33333333       0.00000000 </v>
   <v>       0.00000000       0.37500000       0.00000000 </v>
   <v>       0.04166667       0.37500000       0.00000000 </v>
   <v>       0.08333333       0.37500000       0.00000000 </v>
   <v>       0.12500000       0.37500000       0.00000000 </v>
   <v>       0.16666667       0.37500000       0.00000000 </v>
   <v>       0.20833333       0.37500000       0.00000000 </v>
   <v>       0.25000000       0.37500000       0.00000000 </v>
   <v>       0.00000000       0.41666667       0.00000000 </v>
   <v>       0.04166667       0.41666667       0.00000000 </v>
   <v>       0.08333333       0.41666667       0.00000000 </v>
   <v>       0.12500000       0.41666667       0.00000000 </v>
   <v>       0.16666667       0.41666667       0.00000000 </v>
   <v>       0.00000000       0.45833333       0.00000000 </v>
   <v>       0.04166667       0.45833333       0.00000000 </v>
   <v>       0.08333333       0.45833333       0.00000000 </v>
   <v>       0.00000000       0.50000000       0.00000000 </v>
  </varray>
  <varray name="weights" >
   <v>       0.00173611 </v>
   <v>       0.00694444 </v>
   <v>       0.00694444 </v>
   <v>       0.00694444 </v>
   <v>       0.00694444 </v>
   <v>       0.00694444 </v>
   <v>       0.00694444 </v>
   <v>       0.00694444 </v>
   <v>       0.00694444 </v>
   <v>       0.00694444 </v>
   <v>       0.00694444 </v>
   <v>       0.00694444 </v>
   <v>       0.00347222 </v>
   <v>       0.00347222 </v>
   <v>       0.00694444 </v>
   <v>       0.00694444 </v>
   <v>       0.00694444 </v>
   <v>       0.00694444 </v>
   <v>       0.00694444 </v>
   <v>       0.00694444 </v>
   <v>       0.00694444 </v>
   <v>       0.00694444 </v>
   <v>       0.00694444 </v>
   <v>       0.00694444 </v>
   <v>       0.00694444 </v>
   <v>       0.00694444 </v>
   <v>       0.00694444 </v>
   <v>       0.00694444 </v>
   <v>       0.00694444 </v>
   <v>       0.00694444 </v>
   <v>       0.00694444 </v>
   <v>       0.00694444 </v>
   <v>       0.00694444 </v>
   <v>       0.00694444 </v>
   <v>       0.00694444 </v>
   <v>       0.00347222 </v>
   <v>       0.00347222 </v>
   <v>       0.00694444 </v>
   <v>       0.00694444 </v>
   <v>       0.00694444 </v>
   <v>       0.00694444 </v>
   <v>       0.00694444 </v>
   <v>       0.00694444 </v>
   <v>       0.00694444 </v>
   <v>       0.00694444 </v>
   <v>       0.00694444 </v>
   <v>       0.00694444 </v>
   <v>       0.00694444 </v>
   <v>       0.00694444 </v>
   <v>       0.00694444 </v>
   <v>       0.00694444 </v>
   <v>       0.00694444 </v>
   <v>       0.00694444 </v>
   <v>       0.00694444 </v>
   <v>       0.00694444 </v>
   <v>       0.00694444 </v>
   <v>       0.00347222 </v>
   <v>       0.00347222 </v>
   <v>       0.00694444 </v>
   <v>       0.00694444 </v>
   <v>       0.00694444 </v>
   <v>       0.00694444 </v>
   <v>       0.00694444 </v>
   <v>       0.00694444 </v>
   <v>       0.00694444 </v>
   <v>       0.00694444 </v>
   <v>       0.00694444 </v>
   <v>       0.00694444 </v>
   <v>       0.00694444 </v>
   <v>       0.00694444 </v>
   <v>       0.00694444 </v>
   <v>       0.00694444 </v>
   <v>       0.00694444 </v>
   <v>       0.00694444 </v>
   <v>       0.00694444 </v>
   <v>       0.00347222 </v>
   <v>       0.00347222 </v>
   <v>       0.00694444 </v>
   <v>       0.00694444 </v>
   <v>       0.00694444 </v>
   <v>       0.00694444 </v>
   <v>       0.00694444 </v>
   <v>       0.00694444 </v>
   <v>       0.00694444 </v>
   <v>       0.00694444 </v>
   <v>       0.00694444 </v>
   <v>       0.00694444 </v>
   <v>       0.00694444 </v>
   <v>       0.00694444 </v>
   <v>       0.00694444 </v>
   <v>       0.00694444 </v>
   <v>       0.00694444 </v>
   <v>       0.00347222 </v>
   <v>       0.00347222 </v>
   <v>       0.00694444 </v>
   <v>       0.00694444 </v>
   <v>       0.00694444 </v>
   <v>       0.00694444 </v>
   <v>       0.00694444 </v>
   <v>       0.00694444 </v>
   <v>       0.00694444 </v>
   <v>       0.00694444 </v>
   <v>       0.00694444 </v>
   <v>       0.00694444 </v>
   <v>       0.00694444 </v>
   <v>       0.00694444 </v>
   <v>       0.00694444 </v>
   <v>       0.00347222 </v>
   <v>       0.00347222 </v>
   <v>       0.00694444 </v>
   <v>       0.00694444 </v>
   <v>       0.00694444 </v>
   <v>       0.00694444 </v>
   <v>       0.00694444 </v>
   <v>       0.00694444 </v>
   <v>       0.00694444 </v>
   <v>       0.00694444 </v>
   <v>       0.00694444 </v>
   <v>       0.00694444 </v>
   <v>       0.00694444 </v>
   <v>       0.00347222 </v>
   <v>       0.00347222 </v>
   <v>       0.00694444 </v>
   <v>       0.00694444 </v>
   <v>       0.00694444 </v>
   <v>       0.00694444 </v>
   <v>       0.00694444 </v>
   <v>       0.00694444 </v>
   <v>       0.00694444 </v>
   <v>       0.00694444 </v>
   <v>       0.00694444 </v>
   <v>       0.00347222 </v>
   <v>       0.00347222 </v>
   <v>       0.00694444 </v>
   <v>       0.00694444 </v>
   <v>       0.00694444 </v>
   <v>       0.00694444 </v>
   <v>       0.00694444 </v>
   <v>       0.00694444 </v>
   <v>       0.00694444 </v>
   <v>       0.00347222 </v>
   <v>       0.00347222 </v>
   <v>       0.00694444 </v>
   <v>       0.00694444 </v>
   <v>       0.00694444 </v>
   <v>       0.00694444 </v>
   <v>       0.00694444 </v>
   <v>       0.00347222 </v>
   <v>       0.00347222 </v>
   <v>       0.00694444 </v>
   <v>       0.00694444 </v>
   <v>       0.00694444 </v>
   <v>       0.00347222 </v>
   <v>       0.00347222 </v>
   <v>       0.00694444 </v>
   <v>       0.00347222 </v>
   <v>       0.00173611 </v>
  </varray>
 </kpoints>
 <parameters>
  <separator name="general" >
   <i type="string" name="SYSTEM">unknown system</i>
   <i type="logical" name="LCOMPAT"> F  </i>
  </separator>
  <separator name="electronic" >
   <i type="string" name="PREC">a</i>
   <i name="ENMAX">    520.00000000</i>
   <i name="ENAUG">    644.87300000</i>
   <i name="EDIFF">      0.00001000</i>
   <i type="int" name="IALGO">    38</i>
   <i type="int" name="IWAVPR">    10</i>
   <i type="int" name="NBANDS">    12</i>
   <i name="NELECT">      8.00000000</i>
   <i type="int" name="TURBO">     0</i>
   <i type="int" name="IRESTART">     0</i>
   <i type="int" name="NREBOOT">     0</i>
   <i type="int" name="NMIN">     0</i>
   <i name="EREF">      0.00000000</i>
   <separator name="electronic smearing" >
    <i type="int" name="ISMEAR">     0</i>
    <i name="SIGMA">      0.02000000</i>
    <i name="KSPACING">      0.50000000</i>
    <i type="logical" name="KGAMMA"> T  </i>
   </separator>
   <separator name="electronic projectors" >
    <i type="logical" name="LREAL"> T  </i>
    <v name="ROPT">     -0.00025000</v>
    <i type="int" name="LMAXPAW">  -100</i>
    <i type="int" name="LMAXMIX">     2</i>
    <i type="logical" name="NLSPLINE"> F  </i>
   </separator>
   <separator name="electronic startup" >
    <i type="int" name="ISTART">     0</i>
    <i type="int" name="ICHARG">     2</i>
    <i type="int" name="INIWAV">     1</i>
   </separator>
   <separator name="electronic spin" >
    <i type="int" name="ISPIN">     1</i>
    <i type="logical" name="LNONCOLLINEAR"> F  </i>
    <v name="MAGMOM">      0.60000000      0.60000000</v>
    <i name="NUPDOWN">     -1.00000000</i>
    <i type="logical" name="LSORBIT"> F  </i>
    <v name="SAXIS">      0.00000000      0.00000000      1.00000000</v>
    <i type="logical" name="LSPIRAL"> F  </i>
    <v name="QSPIRAL">      0.00000000      0.00000000      0.00000000</v>
    <i type="logical" name="LZEROZ"> F  </i>
   </separator>
   <separator name="electronic exchange-correlation" >
    <i type="logical" name="LASPH"> F  </i>
    <i type="logical" name="LMETAGGA"> F  </i>
   </separator>
   <separator name="electronic convergence" >
    <i type="int" name="NELM">   250</i>
    <i type="int" name="NELMDL">    -5</i>
    <i type="int" name="NELMIN">     6</i>
    <i name="ENINI">    520.00000000</i>
    <separator name="electronic convergence detail" >
     <i type="logical" name="LDIAG"> T  </i>
     <i type="logical" name="LSUBROT"> F  </i>
     <i name="WEIMIN">      0.00000000</i>
     <i name="EBREAK">      0.00000021</i>
     <i name="DEPER">      0.30000000</i>
     <i type="int" name="NRMM">     4</i>
     <i name="TIME">      0.40000000</i>
    </separator>
   </separator>
   <separator name="electronic mixer" >
    <i name="AMIX">      0.40000000</i>
    <i name="BMIX">      1.00000000</i>
    <i name="AMIN">      0.10000000</i>
    <i name="AMIX_MAG">      1.60000000</i>
    <i name="BMIX_MAG">      1.00000000</i>
    <separator name="electronic mixer details" >
     <i type="int" name="IMIX">     4</i>
     <i type="logical" name="MIXFIRST"> F  </i>
     <i type="int" name="MAXMIX">   -45</i>
     <i name="WC">    100.00000000</i>
     <i type="int" name="INIMIX">     1</i>
     <i type="int" name="MIXPRE">     1</i>
     <i type="int" name="MREMOVE">     5</i>
    </separator>
   </separator>
   <separator name="electronic dipolcorrection" >
    <i type="logical" name="LDIPOL"> F  </i>
    <i type="logical" name="LMONO"> F  </i>
    <i type="int" name="IDIPOL">     0</i>
    <i name="EPSILON">      1.00000000</i>
    <v name="DIPOL">   -100.00000000   -100.00000000   -100.00000000</v>
    <i name="EFIELD">      0.00000000</i>
   </separator>
  </separator>
  <separator name="grids" >
   <i type="int" name="NGX">    20</i>
   <i type="int" name="NGY">    18</i>
   <i type="int" name="NGZ">   112</i>
   <i type="int" name="NGXF">    40</i>
   <i type="int" name="NGYF">    36</i>
   <i type="int" name="NGZF">   224</i>
   <i type="logical" name="ADDGRID"> F  </i>
  </separator>
  <separator name="ionic" >
   <i type="int" name="NSW">     0</i>
   <i type="int" name="IBRION">    -1</i>
   <i type="int" name="ISIF">     2</i>
   <i name="PSTRESS">      0.00000000</i>
   <i name="EDIFFG">     -0.00500000</i>
   <i type="int" name="NFREE">     1</i>
   <i name="POTIM">      0.25000000</i>
   <i name="SMASS">     -3.00000000</i>
   <i name="SCALEE">      1.00000000</i>
  </separator>
  <separator name="ionic md" >
   <i name="TEBEG">      0.00010000</i>
   <i name="TEEND">      0.00010000</i>
   <i type="int" name="NBLOCK">     1</i>
   <i type="int" name="KBLOCK">     1</i>
   <i type="int" name="NPACO">   256</i>
   <i name="APACO">     16.00000000</i>
  </separator>
  <separator name="symmetry" >
   <i type="int" name="ISYM">     2</i>
   <i name="SYMPREC">      0.00001000</i>
  </separator>
  <separator name="dos" >
   <i type="logical" name="LORBIT"> F  </i>
   <v name="RWIGS">     -1.00000000</v>
   <i type="int" name="NEDOS">   301</i>
   <i name="EMIN">     10.00000000</i>
   <i name="EMAX">    -10.00000000</i>
   <i name="EFERMI">      0.00000000</i>
  </separator>
  <separator name="writing" >
   <i type="int" name="NWRITE">     2</i>
   <i type="logical" name="LWAVE"> F  </i>
   <i type="logical" name="LCHARG"> F  </i>
   <i type="logical" name="LPARD"> F  </i>
   <i type="logical" name="LVTOT"> F  </i>
   <i type="logical" name="LVHAR"> F  </i>
   <i type="logical" name="LELF"> F  </i>
   <i type="logical" name="LOPTICS"> F  </i>
   <v name="STM">      0.00000000      0.00000000      0.00000000      0.00000000      0.00000000      0.00000000      0.00000000</v>
  </separator>
  <separator name="performance" >
   <i type="int" name="NPAR">     6</i>
   <i type="int" name="NSIM">     4</i>
   <i type="int" name="NBLK">    -1</i>
   <i type="logical" name="LPLANE"> T  </i>
   <i type="logical" name="LSCALAPACK"> T  </i>
   <i type="logical" name="LSCAAWARE"> F  </i>
   <i type="logical" name="LSCALU"> F  </i>
   <i type="logical" name="LASYNC"> F  </i>
   <i type="logical" name="LORBITALREAL"> F  </i>
  </separator>
  <separator name="miscellaneous" >
   <i type="int" name="IDIOT">     3</i>
   <i type="logical" name="LMUSIC"> F  </i>
   <v name="POMASS">     12.01100000</v>
   <v name="DARWINR">      0.00000000</v>
   <v name="DARWINV">      1.00000000</v>
   <i type="logical" name="LCORR"> T  </i>
  </separator>
  <i type="logical" name="GGA_COMPAT"> T  </i>
  <i type="logical" name="LBERRY"> F  </i>
  <i type="int" name="ICORELEVEL">     0</i>
  <i type="logical" name="LDAU"> F  </i>
  <i type="int" name="I_CONSTRAINED_M">     0</i>
  <separator name="electronic exchange-correlation" >
   <i type="string" name="GGA">--</i>
   <i type="int" name="VOSKOWN">     0</i>
   <i type="logical" name="LHFCALC"> F  </i>
   <i type="string" name="PRECFOCK"></i>
   <i type="logical" name="LSYMGRAD"> F  </i>
   <i type="logical" name="LHFONE"> F  </i>
   <i type="logical" name="LRHFCALC"> F  </i>
   <i type="logical" name="LTHOMAS"> F  </i>
   <i type="logical" name="LMODELHF"> F  </i>
   <i name="ENCUT4O">     -1.00000000</i>
   <i type="int" name="EXXOEP">     0</i>
   <i type="int" name="FOURORBIT">     0</i>
   <i name="AEXX">      0.00000000</i>
   <i name="HFALPHA">      0.00000000</i>
   <i name="MCALPHA">      0.00000000</i>
   <i name="ALDAX">      1.00000000</i>
   <i name="AGGAX">      1.00000000</i>
   <i name="ALDAC">      1.00000000</i>
   <i name="AGGAC">      1.00000000</i>
   <i type="int" name="NKREDX">     1</i>
   <i type="int" name="NKREDY">     1</i>
   <i type="int" name="NKREDZ">     1</i>
   <i type="logical" name="SHIFTRED"> F  </i>
   <i type="logical" name="ODDONLY"> F  </i>
   <i type="logical" name="EVENONLY"> F  </i>
   <i type="int" name="LMAXFOCK">     0</i>
   <i type="int" name="NMAXFOCKAE">     0</i>
   <i type="logical" name="LFOCKAEDFT"> F  </i>
   <i name="HFSCREEN">      0.00000000</i>
   <i name="HFSCREENC">      0.00000000</i>
   <i type="int" name="NBANDSGWLOW">     0</i>
  </separator>
  <separator name="vdW DFT" >
   <i type="logical" name="LUSE_VDW"> F  </i>
   <i name="Zab_VDW">     -0.84910000</i>
   <i name="PARAM1">      0.12340000</i>
   <i name="PARAM2">      1.00000000</i>
   <i name="PARAM3">      0.00000000</i>
  </separator>
  <separator name="model GW" >
   <i type="int" name="MODEL_GW">     0</i>
   <i name="MODEL_EPS0">     24.32385214</i>
   <i name="MODEL_ALPHA">      1.00000000</i>
  </separator>
  <separator name="linear response parameters" >
   <i type="logical" name="LEPSILON"> F  </i>
   <i type="logical" name="LRPA"> F  </i>
   <i type="logical" name="LNABLA"> F  </i>
   <i type="logical" name="LVEL"> F  </i>
   <i type="int" name="KINTER">     0</i>
   <i name="CSHIFT">      0.10000000</i>
   <i name="OMEGAMAX">     -1.00000000</i>
   <i name="DEG_THRESHOLD">      0.00200000</i>
  </separator>
  <separator name="orbital magnetization" >
   <i type="logical" name="NUCIND"> F  </i>
   <v name="MAGPOS">      0.00000000      0.00000000      0.00000000</v>
   <i type="logical" name="LNICSALL"> T  </i>
   <i type="logical" name="ORBITALMAG"> F  </i>
   <i type="logical" name="LMAGBLOCH"> F  </i>
   <i type="logical" name="LCHIMAG"> F  </i>
   <i type="logical" name="LGAUGE"> T  </i>
   <i type="int" name="MAGATOM">     0</i>
   <v name="MAGDIPOL">      0.00000000      0.00000000      0.00000000</v>
   <v name="AVECCONST">      0.00000000      0.00000000      0.00000000</v>
  </separator>
  <separator name="response functions" >
   <i type="logical" name="LADDER"> F  </i>
   <i type="logical" name="LFXC"> F  </i>
   <i type="logical" name="LHARTREE"> T  </i>
   <i type="int" name="IBSE">     0</i>
   <v type="int" name="KPOINT">    -1     0     0     0</v>
   <i type="logical" name="LTCTE"> F  </i>
   <i type="logical" name="LTETE"> F  </i>
   <i type="logical" name="LTRIPLET"> F  </i>
   <i type="logical" name="LFXCEPS"> F  </i>
   <i type="logical" name="LFXHEG"> F  </i>
   <i type="int" name="NATURALO">     0</i>
   <i type="logical" name="L2ORDER"> F  </i>
   <i type="logical" name="LUSEW"> F  </i>
   <i name="ENCUTGW">     -2.00000000</i>
   <i name="ENCUTGWSOFT">     -2.00000000</i>
   <i name="ENCUTLF">     -1.00000000</i>
   <i type="int" name="LMAXMP2">    -1</i>
   <i name="SCISSOR">      0.00000000</i>
   <i type="int" name="NOMEGA">     0</i>
   <i type="int" name="NOMEGAR">     0</i>
   <i type="int" name="NBANDSGW">    -1</i>
   <i type="int" name="NBANDSO">    -1</i>
   <i type="int" name="NBANDSV">    -1</i>
   <i type="int" name="NELM">   250</i>
   <i type="int" name="NELMHF">     1</i>
   <i type="int" name="DIM">     3</i>
   <i type="int" name="ANTIRES">     0</i>
   <i name="OMEGAMAX">    -30.00000000</i>
   <i name="OMEGAMIN">    -30.00000000</i>
   <i name="OMEGATL">   -200.00000000</i>
   <i type="int" name="OMEGAGRID">     0</i>
   <i name="CSHIFT">     -0.10000000</i>
   <i type="logical" name="SELFENERGY"> F  </i>
   <i type="logical" name="LSPECTRAL"> F  </i>
   <i type="logical" name="LSPECTRALGW"> F  </i>
   <i type="logical" name="LSINGLES"> F  </i>
   <i type="logical" name="LFERMIGW"> F  </i>
   <i type="logical" name="ODDONLYGW"> F  </i>
   <i type="logical" name="EVENONLYGW"> F  </i>
   <i type="int" name="NKREDLFX">     1</i>
   <i type="int" name="NKREDLFY">     1</i>
   <i type="int" name="NKREDLFZ">     1</i>
   <i type="int" name="MAXMEM">  1800</i>
   <i type="int" name="TELESCOPE">     0</i>
   <i type="int" name="TAUPAR">     1</i>
   <i type="int" name="OMEGAPAR">    -1</i>
   <i name="LAMBDA">      1.00000000</i>
  </separator>
  <separator name="External order field" >
   <i name="OFIELD_KAPPA">      0.00000000</i>
   <v name="OFIELD_K">      0.00000000      0.00000000      0.00000000</v>
   <i name="OFIELD_Q6_NEAR">      0.00000000</i>
   <i name="OFIELD_Q6_FAR">      0.00000000</i>
   <i name="OFIELD_A">      0.00000000</i>
  </separator>
 </parameters>
 <atominfo>
  <atoms>       2 </atoms>
  <types>       1 </types>
  <array name="atoms" >
   <dimension dim="1">ion</dimension>
   <field type="string">element</field>
   <field type="int">atomtype</field>
   <set>
    <rc><c>C </c><c>   1</c></rc>
    <rc><c>C </c><c>   1</c></rc>
   </set>
  </array>
  <array name="atomtypes" >
   <dimension dim="1">type</dimension>
   <field type="int">atomspertype</field>
   <field type="string">element</field>
   <field>mass</field>
   <field>valence</field>
   <field type="string">pseudopotential</field>
   <set>
    <rc><c>   2</c><c>C </c><c>     12.01100000</c><c>      4.00000000</c><c>  PAW_PBE C 08Apr2002                   </c></rc>
   </set>
  </array>
 </atominfo>
 <structure name="initialpos" >
  <crystal>
   <varray name="basis" >
    <v>       2.52896000       0.00000000       0.00000000 </v>
    <v>      -1.26448000       2.13736100       0.00000000 </v>
    <v>       0.00000000       0.00000000      15.00000000 </v>
   </varray>
   <i name="volume">     81.07950712 </i>
   <varray name="rec_basis" >
    <v>       0.39541946       0.23393334       0.00000000 </v>
    <v>       0.00000000       0.46786668       0.00000000 </v>
    <v>       0.00000000       0.00000000       0.06666667 </v>
   </varray>
  </crystal>
  <varray name="positions" >
   <v>       0.99981101       0.99962201       0.50000000 </v>
   <v>       0.33352199       0.66704499       0.50000000 </v>
  </varray>
 </structure>
 <calculation>
  <scstep>
   <time name="dav">    0.43    0.43</time>
   <time name="total">    0.44    0.45</time>
   <energy>
    <i name="alphaZ">      4.05264999 </i>
    <i name="ewald">    808.29727203 </i>
    <i name="hartreedc">  -1029.05271748 </i>
    <i name="XCdc">     26.18630841 </i>
    <i name="pawpsdc">    217.04409276 </i>
    <i name="pawaedc">   -218.18290438 </i>
    <i name="eentropy">     -0.00020995 </i>
    <i name="bandstr">    -66.99100737 </i>
    <i name="atom">    294.29778662 </i>
    <i name="e_fr_energy">     35.65127064 </i>
    <i name="e_wo_entrp">     35.65148059 </i>
    <i name="e_0_energy">     35.65137561 </i>
   </energy>
  </scstep>
  <scstep>
   <time name="dav">    0.61    0.61</time>
   <time name="total">    0.61    0.61</time>
   <energy>
    <i name="e_fr_energy">    -17.85985829 </i>
    <i name="e_wo_entrp">    -17.85985829 </i>
    <i name="e_0_energy">    -17.85985829 </i>
   </energy>
  </scstep>
  <scstep>
   <time name="dav">    0.67    0.67</time>
   <time name="total">    0.67    0.67</time>
   <energy>
    <i name="e_fr_energy">    -19.54055689 </i>
    <i name="e_wo_entrp">    -19.54055689 </i>
    <i name="e_0_energy">    -19.54055689 </i>
   </energy>
  </scstep>
  <scstep>
   <time name="dav">    0.65    0.65</time>
   <time name="total">    0.65    0.65</time>
   <energy>
    <i name="e_fr_energy">    -19.54706943 </i>
    <i name="e_wo_entrp">    -19.54706943 </i>
    <i name="e_0_energy">    -19.54706943 </i>
   </energy>
  </scstep>
  <scstep>
   <time name="dav">    0.66    0.66</time>
   <time name="total">    0.68    0.68</time>
   <energy>
    <i name="e_fr_energy">    -19.54707934 </i>
    <i name="e_wo_entrp">    -19.54707934 </i>
    <i name="e_0_energy">    -19.54707934 </i>
   </energy>
  </scstep>
  <scstep>
   <time name="dav">    0.59    0.59</time>
   <time name="total">    0.61    0.62</time>
   <energy>
    <i name="e_fr_energy">    -18.73753213 </i>
    <i name="e_wo_entrp">    -18.73753213 </i>
    <i name="e_0_energy">    -18.73753213 </i>
   </energy>
  </scstep>
  <scstep>
   <time name="dav">    0.62    0.62</time>
   <time name="total">    0.64    0.64</time>
   <energy>
    <i name="e_fr_energy">    -18.42456924 </i>
    <i name="e_wo_entrp">    -18.42456924 </i>
    <i name="e_0_energy">    -18.42456924 </i>
   </energy>
  </scstep>
  <scstep>
   <time name="dav">    0.62    0.62</time>
   <time name="total">    0.64    0.64</time>
   <energy>
    <i name="e_fr_energy">    -18.41784467 </i>
    <i name="e_wo_entrp">    -18.41784467 </i>
    <i name="e_0_energy">    -18.41784467 </i>
   </energy>
  </scstep>
  <scstep>
   <time name="dav">    0.57    0.57</time>
   <time name="total">    0.59    0.59</time>
   <energy>
    <i name="e_fr_energy">    -18.41603545 </i>
    <i name="e_wo_entrp">    -18.41603545 </i>
    <i name="e_0_energy">    -18.41603545 </i>
   </energy>
  </scstep>
  <scstep>
   <time name="dav">    0.50    0.50</time>
   <time name="total">    0.52    0.52</time>
   <energy>
    <i name="e_fr_energy">    -18.41488175 </i>
    <i name="e_wo_entrp">    -18.41488175 </i>
    <i name="e_0_energy">    -18.41488175 </i>
   </energy>
  </scstep>
  <scstep>
   <time name="dav">    0.48    0.48</time>
   <time name="total">    0.50    0.50</time>
   <energy>
    <i name="e_fr_energy">    -18.41501237 </i>
    <i name="e_wo_entrp">    -18.41501237 </i>
    <i name="e_0_energy">    -18.41501237 </i>
   </energy>
  </scstep>
  <scstep>
   <time name="dav">    0.50    0.50</time>
   <time name="total">    0.53    0.53</time>
   <energy>
    <i name="e_fr_energy">    -18.41528596 </i>
    <i name="e_wo_entrp">    -18.41528596 </i>
    <i name="e_0_energy">    -18.41528596 </i>
   </energy>
  </scstep>
  <scstep>
   <time name="dav">    0.49    0.49</time>
   <time name="total">    0.51    0.51</time>
   <energy>
    <i name="e_fr_energy">    -18.41596263 </i>
    <i name="e_wo_entrp">    -18.41596263 </i>
    <i name="e_0_energy">    -18.41596263 </i>
   </energy>
  </scstep>
  <scstep>
   <time name="dav">    0.58    0.58</time>
   <time name="total">    0.60    0.60</time>
   <energy>
    <i name="e_fr_energy">    -18.41602333 </i>
    <i name="e_wo_entrp">    -18.41602333 </i>
    <i name="e_0_energy">    -18.41602333 </i>
   </energy>
  </scstep>
  <scstep>
   <time name="dav">    0.48    0.48</time>
   <time name="total">    0.50    0.50</time>
   <energy>
    <i name="e_fr_energy">    -18.41611372 </i>
    <i name="e_wo_entrp">    -18.41611372 </i>
    <i name="e_0_energy">    -18.41611372 </i>
   </energy>
  </scstep>
  <scstep>
   <time name="dav">    0.49    0.49</time>
   <time name="total">    0.51    0.51</time>
   <energy>
    <i name="e_fr_energy">    -18.41612433 </i>
    <i name="e_wo_entrp">    -18.41612433 </i>
    <i name="e_0_energy">    -18.41612433 </i>
   </energy>
  </scstep>
  <scstep>
   <time name="dav">    0.48    0.48</time>
   <time name="total">    0.49    0.49</time>
   <energy>
    <i name="alphaZ">      4.05264999 </i>
    <i name="ewald">    808.29727203 </i>
    <i name="hartreedc">  -1060.04438663 </i>
    <i name="XCdc">     27.31015610 </i>
    <i name="pawpsdc">    787.36390275 </i>
    <i name="pawaedc">   -788.71284312 </i>
    <i name="eentropy">     -0.00000000 </i>
    <i name="bandstr">    -90.98066346 </i>
    <i name="atom">    294.29778662 </i>
    <i name="e_fr_energy">    -18.41612572 </i>
    <i name="e_wo_entrp">    -18.41612572 </i>
    <i name="e_0_energy">    -18.41612572 </i>
   </energy>
  </scstep>
  <structure>
   <crystal>
    <varray name="basis" >
     <v>       2.52896000       0.00000000       0.00000000 </v>
     <v>      -1.26448000       2.13736100       0.00000000 </v>
     <v>       0.00000000       0.00000000      15.00000000 </v>
    </varray>
    <i name="volume">     81.07950712 </i>
    <varray name="rec_basis" >
     <v>       0.39541946       0.23393334       0.00000000 </v>
     <v>       0.00000000       0.46786668       0.00000000 </v>
     <v>       0.00000000       0.00000000       0.06666667 </v>
    </varray>
   </crystal>
   <varray name="positions" >
    <v>       0.99981101       0.99962201       0.50000000 </v>
    <v>       0.33352199       0.66704499       0.50000000 </v>
   </varray>
  </structure>
  <varray name="forces" >
   <v>      -0.00000000      -0.11296184       0.00000000 </v>
   <v>       0.00000000       0.11296184       0.00000000 </v>
  </varray>
  <varray name="stress" >
   <v>     -53.85904422       0.00000000       0.00000000 </v>
   <v>       0.00000000      -9.09252363       0.00000000 </v>
   <v>       0.00000000       0.00000000      -0.18764607 </v>
  </varray>
  <energy>
   <i name="e_fr_energy">    -18.41612572 </i>
   <i name="e_wo_entrp">    -18.41612572 </i>
   <i name="e_0_energy">     -0.00000000 </i>
  </energy>
  <time name="totalsc">   10.08   10.12</time>
  <eigenvalues>
   <array>
    <dimension dim="1">band</dimension>
    <dimension dim="2">kpoint</dimension>
    <dimension dim="3">spin</dimension>
    <field>eigene</field>
    <field>occ</field>
    <set>
     <set comment="spin 1">
      <set comment="kpoint 1">
       <r>  -21.5884    1.0000 </r>
       <r>   -9.7413    1.0000 </r>
       <r>   -5.4905    1.0000 </r>
       <r>   -5.3631    1.0000 </r>
       <r>    0.9900    0.0000 </r>
       <r>    1.8925    0.0000 </r>
       <r>    2.3937    0.0000 </r>
       <r>    4.3210    0.0000 </r>
       <r>    5.0692    0.0000 </r>
       <r>    5.4513    0.0000 </r>
       <r>    5.8460    0.0000 </r>
       <r>    8.2008    0.0000 </r>
      </set>
      <set comment="kpoint 2">
       <r>  -21.5488    1.0000 </r>
       <r>   -9.6945    1.0000 </r>
       <r>   -5.6446    1.0000 </r>
       <r>   -5.4621    1.0000 </r>
       <r>    1.0436    0.0000 </r>
       <r>    1.9465    0.0000 </r>
       <r>    2.4483    0.0000 </r>
       <r>    4.3747    0.0000 </r>
       <r>    5.1196    0.0000 </r>
       <r>    5.5247    0.0000 </r>
       <r>    5.9888    0.0000 </r>
       <r>    8.2523    0.0000 </r>
      </set>
      <set comment="kpoint 3">
       <r>  -21.4301    1.0000 </r>
       <r>   -9.5542    1.0000 </r>
       <r>   -6.1181    1.0000 </r>
       <r>   -5.7034    1.0000 </r>
       <r>    1.2045    0.0000 </r>
       <r>    2.1085    0.0000 </r>
       <r>    2.6121    0.0000 </r>
       <r>    4.5355    0.0000 </r>
       <r>    5.2711    0.0000 </r>
       <r>    5.6704    0.0000 </r>
       <r>    6.4341    0.0000 </r>
       <r>    8.0226    0.0000 </r>
      </set>
      <set comment="kpoint 4">
       <r>  -21.2326    1.0000 </r>
       <r>   -9.3215    1.0000 </r>
       <r>   -6.8466    1.0000 </r>
       <r>   -6.0431    1.0000 </r>
       <r>    1.4725    0.0000 </r>
       <r>    2.3780    0.0000 </r>
       <r>    2.8852    0.0000 </r>
       <r>    4.8029    0.0000 </r>
       <r>    5.5110    0.0000 </r>
       <r>    5.7926    0.0000 </r>
       <r>    7.1632    0.0000 </r>
       <r>    7.3954    0.0000 </r>
      </set>
      <set comment="kpoint 5">
       <r>  -20.9570    1.0000 </r>
       <r>   -8.9981    1.0000 </r>
       <r>   -7.7469    1.0000 </r>
       <r>   -6.4409    1.0000 </r>
       <r>    1.8478    0.0000 </r>
       <r>    2.7545    0.0000 </r>
       <r>    3.2676    0.0000 </r>
       <r>    5.1742    0.0000 </r>
       <r>    5.6904    0.0000 </r>
       <r>    5.9921    0.0000 </r>
       <r>    6.5849    0.0000 </r>
       <r>    8.1151    0.0000 </r>
      </set>
      <set comment="kpoint 6">
       <r>  -20.6041    1.0000 </r>
       <r>   -8.7520    1.0000 </r>
       <r>   -8.5870    1.0000 </r>
       <r>   -6.8573    1.0000 </r>
       <r>    2.3299    0.0000 </r>
       <r>    3.2351    0.0000 </r>
       <r>    3.7590    0.0000 </r>
       <r>    5.5260    0.0000 </r>
       <r>    5.6472    0.0000 </r>
       <r>    5.7630    0.0000 </r>
       <r>    6.4375    0.0000 </r>
       <r>    9.2289    0.0000 </r>
      </set>
      <set comment="kpoint 7">
       <r>  -20.1752    1.0000 </r>
       <r>   -9.8120    1.0000 </r>
       <r>   -8.0925    1.0000 </r>
       <r>   -7.2614    1.0000 </r>
       <r>    2.9181    0.0000 </r>
       <r>    3.7974    0.0000 </r>
       <r>    4.3586    0.0000 </r>
       <r>    4.5934    0.0000 </r>
       <r>    5.5253    0.0000 </r>
       <r>    6.2619    0.0000 </r>
       <r>    7.0174    0.0000 </r>
       <r>   10.0453    0.0000 </r>
      </set>
      <set comment="kpoint 8">
       <r>  -19.6723    1.0000 </r>
       <r>  -10.8903    1.0000 </r>
       <r>   -7.6305    1.0000 </r>
       <r>   -7.5221    1.0000 </r>
       <r>    3.4188    0.0000 </r>
       <r>    3.6111    0.0000 </r>
       <r>    4.5723    0.0000 </r>
       <r>    5.0580    0.0000 </r>
       <r>    5.3884    0.0000 </r>
       <r>    6.9496    0.0000 </r>
       <r>    7.7085    0.0000 </r>
       <r>   10.6889    0.0000 </r>
      </set>
      <set comment="kpoint 9">
       <r>  -19.0984    1.0000 </r>
       <r>  -11.9601    1.0000 </r>
       <r>   -7.9488    1.0000 </r>
       <r>   -6.8881    1.0000 </r>
       <r>    2.3287    0.0000 </r>
       <r>    4.4030    0.0000 </r>
       <r>    5.2264    0.0000 </r>
       <r>    5.3575    0.0000 </r>
       <r>    5.8994    0.0000 </r>
       <r>    7.7421    0.0000 </r>
       <r>    8.5062    0.0000 </r>
       <r>   11.4028    0.0000 </r>
      </set>
      <set comment="kpoint 10">
       <r>  -18.4590    1.0000 </r>
       <r>  -12.9994    1.0000 </r>
       <r>   -8.2055    1.0000 </r>
       <r>   -6.2140    1.0000 </r>
       <r>    1.2642    0.0000 </r>
       <r>    5.0418    0.0000 </r>
       <r>    5.3668    0.0000 </r>
       <r>    6.2601    0.0000 </r>
       <r>    6.8228    0.0000 </r>
       <r>    8.6331    0.0000 </r>
       <r>    9.4073    0.0000 </r>
       <r>   12.1198    0.0000 </r>
      </set>
      <set comment="kpoint 11">
       <r>  -17.7664    1.0000 </r>
       <r>  -13.9845    1.0000 </r>
       <r>   -8.3934    1.0000 </r>
       <r>   -5.5481    1.0000 </r>
       <r>    0.3049    0.0000 </r>
       <r>    4.9797    0.0000 </r>
       <r>    6.3359    0.0000 </r>
       <r>    7.2646    0.0000 </r>
       <r>    7.8574    0.0000 </r>
       <r>    9.6130    0.0000 </r>
       <r>   10.4055    0.0000 </r>
       <r>   11.1567    0.0000 </r>
      </set>
      <set comment="kpoint 12">
       <r>  -17.0656    1.0000 </r>
       <r>  -14.8634    1.0000 </r>
       <r>   -8.5078    1.0000 </r>
       <r>   -4.9983    1.0000 </r>
       <r>   -0.4262    0.0000 </r>
       <r>    4.9225    0.0000 </r>
       <r>    7.4316    0.0000 </r>
       <r>    8.3621    0.0000 </r>
       <r>    8.9987    0.0000 </r>
       <r>    9.8826    0.0000 </r>
       <r>   10.5628    0.0000 </r>
       <r>   10.9423    0.0000 </r>
      </set>
      <set comment="kpoint 13">
       <r>  -16.6414    1.0000 </r>
       <r>  -15.3475    1.0000 </r>
       <r>   -8.5462    1.0000 </r>
       <r>   -4.7674    1.0000 </r>
       <r>   -0.7184    0.0000 </r>
       <r>    4.9026    0.0000 </r>
       <r>    8.5364    0.0000 </r>
       <r>    8.7073    0.0000 </r>
       <r>    9.4369    0.0000 </r>
       <r>    9.6583    0.0000 </r>
       <r>   10.2340    0.0000 </r>
       <r>   10.2625    0.0000 </r>
      </set>
      <set comment="kpoint 14">
       <r>  -21.5473    1.0000 </r>
       <r>   -9.6926    1.0000 </r>
       <r>   -5.5833    1.0000 </r>
       <r>   -5.5221    1.0000 </r>
       <r>    1.0458    0.0000 </r>
       <r>    1.9485    0.0000 </r>
       <r>    2.4504    0.0000 </r>
       <r>    4.3767    0.0000 </r>
       <r>    5.1237    0.0000 </r>
       <r>    5.6328    0.0000 </r>
       <r>    5.8227    0.0000 </r>
       <r>    8.2540    0.0000 </r>
      </set>
      <set comment="kpoint 15">
       <r>  -21.4666    1.0000 </r>
       <r>   -9.5971    1.0000 </r>
       <r>   -5.9092    1.0000 </r>
       <r>   -5.6792    1.0000 </r>
       <r>    1.1551    0.0000 </r>
       <r>    2.0585    0.0000 </r>
       <r>    2.5617    0.0000 </r>
       <r>    4.4860    0.0000 </r>
       <r>    5.2290    0.0000 </r>
       <r>    5.7687    0.0000 </r>
       <r>    6.0320    0.0000 </r>
       <r>    8.1590    0.0000 </r>
      </set>
      <set comment="kpoint 16">
       <r>  -21.3070    1.0000 </r>
       <r>   -9.4088    1.0000 </r>
       <r>   -6.5270    1.0000 </r>
       <r>   -5.9518    1.0000 </r>
       <r>    1.3717    0.0000 </r>
       <r>    2.2764    0.0000 </r>
       <r>    2.7823    0.0000 </r>
       <r>    4.7022    0.0000 </r>
       <r>    5.4353    0.0000 </r>
       <r>    5.8779    0.0000 </r>
       <r>    6.5629    0.0000 </r>
       <r>    7.6491    0.0000 </r>
      </set>
      <set comment="kpoint 17">
       <r>  -21.0689    1.0000 </r>
       <r>   -9.1288    1.0000 </r>
       <r>   -7.3415    1.0000 </r>
       <r>   -6.3199    1.0000 </r>
       <r>    1.6956    0.0000 </r>
       <r>    2.6015    0.0000 </r>
       <r>    3.1121    0.0000 </r>
       <r>    5.0241    0.0000 </r>
       <r>    5.7170    0.0000 </r>
       <r>    5.9712    0.0000 </r>
       <r>    6.9319    0.0000 </r>
       <r>    7.3032    0.0000 </r>
      </set>
      <set comment="kpoint 18">
       <r>  -20.7531    1.0000 </r>
       <r>   -8.7596    1.0000 </r>
       <r>   -8.2882    1.0000 </r>
       <r>   -6.7336    1.0000 </r>
       <r>    2.1265    0.0000 </r>
       <r>    3.0325    0.0000 </r>
       <r>    3.5512    0.0000 </r>
       <r>    5.4412    0.0000 </r>
       <r>    5.8320    0.0000 </r>
       <r>    6.0642    0.0000 </r>
       <r>    6.2497    0.0000 </r>
       <r>    8.2188    0.0000 </r>
      </set>
      <set comment="kpoint 19">
       <r>  -20.3606    1.0000 </r>
       <r>   -9.3134    1.0000 </r>
       <r>   -8.3048    1.0000 </r>
       <r>   -7.1530    1.0000 </r>
       <r>    2.6639    0.0000 </r>
       <r>    3.5630    0.0000 </r>
       <r>    4.0991    0.0000 </r>
       <r>    5.0410    0.0000 </r>
       <r>    5.7465    0.0000 </r>
       <r>    6.0103    0.0000 </r>
       <r>    6.7656    0.0000 </r>
       <r>    9.2599    0.0000 </r>
      </set>
      <set comment="kpoint 20">
       <r>  -19.8931    1.0000 </r>
       <r>  -10.3757    1.0000 </r>
       <r>   -7.7701    1.0000 </r>
       <r>   -7.5491    1.0000 </r>
       <r>    3.3070    0.0000 </r>
       <r>    3.8676    0.0000 </r>
       <r>    4.3178    0.0000 </r>
       <r>    4.7545    0.0000 </r>
       <r>    5.6118    0.0000 </r>
       <r>    6.6435    0.0000 </r>
       <r>    7.4034    0.0000 </r>
       <r>   10.4024    0.0000 </r>
      </set>
      <set comment="kpoint 21">
       <r>  -19.3530    1.0000 </r>
       <r>  -11.4440    1.0000 </r>
       <r>   -7.9020    1.0000 </r>
       <r>   -7.1650    1.0000 </r>
       <r>    2.8363    0.0000 </r>
       <r>    4.0538    0.0000 </r>
       <r>    5.0000    0.0000 </r>
       <r>    5.4211    0.0000 </r>
       <r>    5.5667    0.0000 </r>
       <r>    7.3856    0.0000 </r>
       <r>    8.1502    0.0000 </r>
       <r>   11.0787    0.0000 </r>
      </set>
      <set comment="kpoint 22">
       <r>  -18.7443    1.0000 </r>
       <r>  -12.4940    1.0000 </r>
       <r>   -8.1981    1.0000 </r>
       <r>   -6.5064    1.0000 </r>
       <r>    1.7546    0.0000 </r>
       <r>    4.8900    0.0000 </r>
       <r>    5.3393    0.0000 </r>
       <r>    5.8499    0.0000 </r>
       <r>    6.4059    0.0000 </r>
       <r>    8.2279    0.0000 </r>
       <r>    9.0019    0.0000 </r>
       <r>   11.7934    0.0000 </r>
      </set>
      <set comment="kpoint 23">
       <r>  -18.0751    1.0000 </r>
       <r>  -13.5038    1.0000 </r>
       <r>   -8.4285    1.0000 </r>
       <r>   -5.8278    1.0000 </r>
       <r>    0.7378    0.0000 </r>
       <r>    5.1893    0.0000 </r>
       <r>    5.8881    0.0000 </r>
       <r>    6.8047    0.0000 </r>
       <r>    7.3878    0.0000 </r>
       <r>    9.1626    0.0000 </r>
       <r>    9.9548    0.0000 </r>
       <r>   11.6478    0.0000 </r>
      </set>
      <set comment="kpoint 24">
       <r>  -17.3681    1.0000 </r>
       <r>  -14.4412    1.0000 </r>
       <r>   -8.5872    1.0000 </r>
       <r>   -5.2020    1.0000 </r>
       <r>   -0.1218    0.0000 </r>
       <r>    5.1241    0.0000 </r>
       <r>    6.9330    0.0000 </r>
       <r>    7.8554    0.0000 </r>
       <r>    8.4782    0.0000 </r>
       <r>   10.1639    0.0000 </r>
       <r>   10.5003    0.0000 </r>
       <r>   11.0141    0.0000 </r>
      </set>
      <set comment="kpoint 25">
       <r>  -16.7359    1.0000 </r>
       <r>  -15.1881    1.0000 </r>
       <r>   -8.6707    1.0000 </r>
       <r>   -4.7873    1.0000 </r>
       <r>   -0.6555    0.0000 </r>
       <r>    5.0902    0.0000 </r>
       <r>    8.0745    0.0000 </r>
       <r>    8.9838    0.0000 </r>
       <r>    9.2527    0.0000 </r>
       <r>    9.6788    0.0000 </r>
       <r>   10.1547    0.0000 </r>
       <r>   10.9227    0.0000 </r>
      </set>
      <set comment="kpoint 26">
       <r>  -16.7564    1.0000 </r>
       <r>  -15.1639    1.0000 </r>
       <r>   -8.6772    1.0000 </r>
       <r>   -4.7967    1.0000 </r>
       <r>   -0.6448    0.0000 </r>
       <r>    5.0955    0.0000 </r>
       <r>    8.0255    0.0000 </r>
       <r>    8.9390    0.0000 </r>
       <r>    9.3100    0.0000 </r>
       <r>    9.6317    0.0000 </r>
       <r>   10.1973    0.0000 </r>
       <r>   10.9765    0.0000 </r>
      </set>
      <set comment="kpoint 27">
       <r>  -17.3982    1.0000 </r>
       <r>  -14.4000    1.0000 </r>
       <r>   -8.6069    1.0000 </r>
       <r>   -5.2242    1.0000 </r>
       <r>   -0.0962    0.0000 </r>
       <r>    5.1395    0.0000 </r>
       <r>    6.8901    0.0000 </r>
       <r>    7.8123    0.0000 </r>
       <r>    8.4350    0.0000 </r>
       <r>   10.1219    0.0000 </r>
       <r>   10.5770    0.0000 </r>
       <r>   10.9698    0.0000 </r>
      </set>
      <set comment="kpoint 28">
       <r>  -18.1040    1.0000 </r>
       <r>  -13.4564    1.0000 </r>
       <r>   -8.4609    1.0000 </r>
       <r>   -5.8544    1.0000 </r>
       <r>    0.7695    0.0000 </r>
       <r>    5.2107    0.0000 </r>
       <r>    5.8539    0.0000 </r>
       <r>    6.7651    0.0000 </r>
       <r>    7.3491    0.0000 </r>
       <r>    9.1224    0.0000 </r>
       <r>    9.9148    0.0000 </r>
       <r>   11.8058    0.0000 </r>
      </set>
      <set comment="kpoint 29">
       <r>  -18.7705    1.0000 </r>
       <r>  -12.4422    1.0000 </r>
       <r>   -8.2427    1.0000 </r>
       <r>   -6.5334    1.0000 </r>
       <r>    1.7869    0.0000 </r>
       <r>    4.8537    0.0000 </r>
       <r>    5.3746    0.0000 </r>
       <r>    5.8141    0.0000 </r>
       <r>    6.3721    0.0000 </r>
       <r>    8.1915    0.0000 </r>
       <r>    8.9671    0.0000 </r>
       <r>   11.7515    0.0000 </r>
      </set>
      <set comment="kpoint 30">
       <r>  -19.3762    1.0000 </r>
       <r>  -11.3884    1.0000 </r>
       <r>   -7.9574    1.0000 </r>
       <r>   -7.1904    1.0000 </r>
       <r>    2.8660    0.0000 </r>
       <r>    4.0217    0.0000 </r>
       <r>    4.9679    0.0000 </r>
       <r>    5.4281    0.0000 </r>
       <r>    5.5703    0.0000 </r>
       <r>    7.3532    0.0000 </r>
       <r>    8.1203    0.0000 </r>
       <r>   11.0421    0.0000 </r>
      </set>
      <set comment="kpoint 31">
       <r>  -19.9132    1.0000 </r>
       <r>  -10.3177    1.0000 </r>
       <r>   -7.7930    1.0000 </r>
       <r>   -7.6131    1.0000 </r>
       <r>    3.2794    0.0000 </r>
       <r>    3.8870    0.0000 </r>
       <r>    4.2947    0.0000 </r>
       <r>    4.7274    0.0000 </r>
       <r>    5.6517    0.0000 </r>
       <r>    6.6151    0.0000 </r>
       <r>    7.3789    0.0000 </r>
       <r>   10.3714    0.0000 </r>
      </set>
      <set comment="kpoint 32">
       <r>  -20.3775    1.0000 </r>
       <r>   -9.2553    1.0000 </r>
       <r>   -8.3247    1.0000 </r>
       <r>   -7.2215    1.0000 </r>
       <r>    2.6406    0.0000 </r>
       <r>    3.5424    0.0000 </r>
       <r>    4.0762    0.0000 </r>
       <r>    5.0553    0.0000 </r>
       <r>    5.7733    0.0000 </r>
       <r>    5.9849    0.0000 </r>
       <r>    6.7473    0.0000 </r>
       <r>    9.7774    0.0000 </r>
      </set>
      <set comment="kpoint 33">
       <r>  -20.7669    1.0000 </r>
       <r>   -8.7762    1.0000 </r>
       <r>   -8.2349    1.0000 </r>
       <r>   -6.7995    1.0000 </r>
       <r>    2.1073    0.0000 </r>
       <r>    3.0146    0.0000 </r>
       <r>    3.5324    0.0000 </r>
       <r>    5.4263    0.0000 </r>
       <r>    5.8253    0.0000 </r>
       <r>    6.0648    0.0000 </r>
       <r>    6.2414    0.0000 </r>
       <r>    8.7911    0.0000 </r>
      </set>
      <set comment="kpoint 34">
       <r>  -21.0796    1.0000 </r>
       <r>   -9.1419    1.0000 </r>
       <r>   -7.3025    1.0000 </r>
       <r>   -6.3708    1.0000 </r>
       <r>    1.6807    0.0000 </r>
       <r>    2.5874    0.0000 </r>
       <r>    3.0975    0.0000 </r>
       <r>    5.0103    0.0000 </r>
       <r>    5.6824    0.0000 </r>
       <r>    5.9435    0.0000 </r>
       <r>    6.9282    0.0000 </r>
       <r>    7.7955    0.0000 </r>
      </set>
      <set comment="kpoint 35">
       <r>  -21.3146    1.0000 </r>
       <r>   -9.4182    1.0000 </r>
       <r>   -6.5192    1.0000 </r>
       <r>   -5.9684    1.0000 </r>
       <r>    1.3610    0.0000 </r>
       <r>    2.2662    0.0000 </r>
       <r>    2.7718    0.0000 </r>
       <r>    4.6921    0.0000 </r>
       <r>    5.4134    0.0000 </r>
       <r>    5.7708    0.0000 </r>
       <r>    6.9894    0.0000 </r>
       <r>    7.6417    0.0000 </r>
      </set>
      <set comment="kpoint 36">
       <r>  -21.4712    1.0000 </r>
       <r>   -9.6028    1.0000 </r>
       <r>   -5.9539    1.0000 </r>
       <r>   -5.6392    1.0000 </r>
       <r>    1.1487    0.0000 </r>
       <r>    2.0525    0.0000 </r>
       <r>    2.5554    0.0000 </r>
       <r>    4.4799    0.0000 </r>
       <r>    5.2164    0.0000 </r>
       <r>    5.5962    0.0000 </r>
       <r>    6.3864    0.0000 </r>
       <r>    8.3542    0.0000 </r>
      </set>
      <set comment="kpoint 37">
       <r>  -21.4240    1.0000 </r>
       <r>   -9.5466    1.0000 </r>
       <r>   -5.9775    1.0000 </r>
       <r>   -5.8417    1.0000 </r>
       <r>    1.2130    0.0000 </r>
       <r>    2.1166    0.0000 </r>
       <r>    2.6204    0.0000 </r>
       <r>    4.5437    0.0000 </r>
       <r>    5.2848    0.0000 </r>
       <r>    5.7466    0.0000 </r>
       <r>    6.1560    0.0000 </r>
       <r>    8.0364    0.0000 </r>
      </set>
      <set comment="kpoint 38">
       <r>  -21.3024    1.0000 </r>
       <r>   -9.4030    1.0000 </r>
       <r>   -6.4306    1.0000 </r>
       <r>   -6.0498    1.0000 </r>
       <r>    1.3780    0.0000 </r>
       <r>    2.2825    0.0000 </r>
       <r>    2.7885    0.0000 </r>
       <r>    4.7084    0.0000 </r>
       <r>    5.4410    0.0000 </r>
       <r>    5.8076    0.0000 </r>
       <r>    6.5244    0.0000 </r>
       <r>    7.6614    0.0000 </r>
      </set>
      <set comment="kpoint 39">
       <r>  -21.1022    1.0000 </r>
       <r>   -9.1674    1.0000 </r>
       <r>   -7.1022    1.0000 </r>
       <r>   -6.3857    1.0000 </r>
       <r>    1.6504    0.0000 </r>
       <r>    2.5560    0.0000 </r>
       <r>    3.0658    0.0000 </r>
       <r>    4.9797    0.0000 </r>
       <r>    5.7010    0.0000 </r>
       <r>    6.0515    0.0000 </r>
       <r>    6.9001    0.0000 </r>
       <r>    7.0650    0.0000 </r>
      </set>
      <set comment="kpoint 40">
       <r>  -20.8239    1.0000 </r>
       <r>   -8.8414    1.0000 </r>
       <r>   -7.9315    1.0000 </r>
       <r>   -6.8035    1.0000 </r>
       <r>    2.0300    0.0000 </r>
       <r>    2.9362    0.0000 </r>
       <r>    3.4524    0.0000 </r>
       <r>    5.3546    0.0000 </r>
       <r>    6.0397    0.0000 </r>
       <r>    6.2917    0.0000 </r>
       <r>    6.3014    0.0000 </r>
       <r>    7.3956    0.0000 </r>
      </set>
      <set comment="kpoint 41">
       <r>  -20.4685    1.0000 </r>
       <r>   -8.8720    1.0000 </r>
       <r>   -8.4281    1.0000 </r>
       <r>   -7.2478    1.0000 </r>
       <r>    2.5163    0.0000 </r>
       <r>    3.4207    0.0000 </r>
       <r>    3.9482    0.0000 </r>
       <r>    5.3611    0.0000 </r>
       <r>    5.8586    0.0000 </r>
       <r>    6.2204    0.0000 </r>
       <r>    6.6410    0.0000 </r>
       <r>    8.1424    0.0000 </r>
      </set>
      <set comment="kpoint 42">
       <r>  -20.0374    1.0000 </r>
       <r>   -9.8801    1.0000 </r>
       <r>   -7.9320    1.0000 </r>
       <r>   -7.6793    1.0000 </r>
       <r>    3.1090    0.0000 </r>
       <r>    3.9713    0.0000 </r>
       <r>    4.4064    0.0000 </r>
       <r>    4.5529    0.0000 </r>
       <r>    6.1602    0.0000 </r>
       <r>    6.4377    0.0000 </r>
       <r>    7.2089    0.0000 </r>
       <r>    9.0756    0.0000 </r>
      </set>
      <set comment="kpoint 43">
       <r>  -19.5325    1.0000 </r>
       <r>  -10.9190    1.0000 </r>
       <r>   -8.0728    1.0000 </r>
       <r>   -7.3603    1.0000 </r>
       <r>    3.2745    0.0000 </r>
       <r>    3.8069    0.0000 </r>
       <r>    4.7425    0.0000 </r>
       <r>    5.2648    0.0000 </r>
       <r>    6.0379    0.0000 </r>
       <r>    7.1277    0.0000 </r>
       <r>    7.9010    0.0000 </r>
       <r>   10.0895    0.0000 </r>
      </set>
      <set comment="kpoint 44">
       <r>  -18.9570    1.0000 </r>
       <r>  -11.9590    1.0000 </r>
       <r>   -8.4122    1.0000 </r>
       <r>   -6.7256    1.0000 </r>
       <r>    2.2081    0.0000 </r>
       <r>    4.6077    0.0000 </r>
       <r>    5.5384    0.0000 </r>
       <r>    5.8838    0.0000 </r>
       <r>    6.1100    0.0000 </r>
       <r>    7.9171    0.0000 </r>
       <r>    8.7013    0.0000 </r>
       <r>   11.0468    0.0000 </r>
      </set>
      <set comment="kpoint 45">
       <r>  -18.3167    1.0000 </r>
       <r>  -12.9756    1.0000 </r>
       <r>   -8.6873    1.0000 </r>
       <r>   -6.0510    1.0000 </r>
       <r>    1.1701    0.0000 </r>
       <r>    5.4900    0.0000 </r>
       <r>    5.8036    0.0000 </r>
       <r>    6.4403    0.0000 </r>
       <r>    7.0272    0.0000 </r>
       <r>    8.7977    0.0000 </r>
       <r>    9.6047    0.0000 </r>
       <r>   11.5886    0.0000 </r>
      </set>
      <set comment="kpoint 46">
       <r>  -17.6246    1.0000 </r>
       <r>  -13.9423    1.0000 </r>
       <r>   -8.8914    1.0000 </r>
       <r>   -5.3852    1.0000 </r>
       <r>    0.2321    0.0000 </r>
       <r>    5.6739    0.0000 </r>
       <r>    6.5384    0.0000 </r>
       <r>    7.4373    0.0000 </r>
       <r>    8.0651    0.0000 </r>
       <r>    9.7476    0.0000 </r>
       <r>   10.5994    0.0000 </r>
       <r>   11.0788    0.0000 </r>
      </set>
      <set comment="kpoint 47">
       <r>  -16.9291    1.0000 </r>
       <r>  -14.8028    1.0000 </r>
       <r>   -9.0203    1.0000 </r>
       <r>   -4.8386    1.0000 </r>
       <r>   -0.4822    0.0000 </r>
       <r>    5.6278    0.0000 </r>
       <r>    7.6330    0.0000 </r>
       <r>    8.5123    0.0000 </r>
       <r>    9.2092    0.0000 </r>
       <r>    9.9355    0.0000 </r>
       <r>   10.5172    0.0000 </r>
       <r>   11.0936    0.0000 </r>
      </set>
      <set comment="kpoint 48">
       <r>  -16.5369    1.0000 </r>
       <r>  -15.2454    1.0000 </r>
       <r>   -9.0719    1.0000 </r>
       <r>   -4.6211    1.0000 </r>
       <r>   -0.7548    0.0000 </r>
       <r>    5.6175    0.0000 </r>
       <r>    8.6617    0.0000 </r>
       <r>    8.8732    0.0000 </r>
       <r>    9.4156    0.0000 </r>
       <r>    9.8297    0.0000 </r>
       <r>   10.3577    0.0000 </r>
       <r>   10.4641    0.0000 </r>
      </set>
      <set comment="kpoint 49">
       <r>  -16.9856    1.0000 </r>
       <r>  -14.7312    1.0000 </r>
       <r>   -9.0451    1.0000 </r>
       <r>   -4.8731    1.0000 </r>
       <r>   -0.4436    0.0000 </r>
       <r>    5.6463    0.0000 </r>
       <r>    7.5413    0.0000 </r>
       <r>    8.4248    0.0000 </r>
       <r>    9.1186    0.0000 </r>
       <r>   10.0700    0.0000 </r>
       <r>   10.4981    0.0000 </r>
       <r>   11.1123    0.0000 </r>
      </set>
      <set comment="kpoint 50">
       <r>  -17.6843    1.0000 </r>
       <r>  -13.8527    1.0000 </r>
       <r>   -8.9405    1.0000 </r>
       <r>   -5.4359    1.0000 </r>
       <r>    0.2899    0.0000 </r>
       <r>    5.7057    0.0000 </r>
       <r>    6.4623    0.0000 </r>
       <r>    7.3548    0.0000 </r>
       <r>    7.9834    0.0000 </r>
       <r>    9.6656    0.0000 </r>
       <r>   10.5170    0.0000 </r>
       <r>   11.2981    0.0000 </r>
      </set>
      <set comment="kpoint 51">
       <r>  -18.3719    1.0000 </r>
       <r>  -12.8758    1.0000 </r>
       <r>   -8.7599    1.0000 </r>
       <r>   -6.1056    1.0000 </r>
       <r>    1.2329    0.0000 </r>
       <r>    5.4143    0.0000 </r>
       <r>    5.8594    0.0000 </r>
       <r>    6.3651    0.0000 </r>
       <r>    6.9549    0.0000 </r>
       <r>    8.7214    0.0000 </r>
       <r>    9.5302    0.0000 </r>
       <r>   11.9647    0.0000 </r>
      </set>
      <set comment="kpoint 52">
       <r>  -19.0064    1.0000 </r>
       <r>  -11.8514    1.0000 </r>
       <r>   -8.5062    1.0000 </r>
       <r>   -6.7785    1.0000 </r>
       <r>    2.2675    0.0000 </r>
       <r>    4.5392    0.0000 </r>
       <r>    5.4707    0.0000 </r>
       <r>    5.9220    0.0000 </r>
       <r>    6.0758    0.0000 </r>
       <r>    7.8487    0.0000 </r>
       <r>    8.6371    0.0000 </r>
       <r>   11.4085    0.0000 </r>
      </set>
      <set comment="kpoint 53">
       <r>  -19.5757    1.0000 </r>
       <r>  -10.8060    1.0000 </r>
       <r>   -8.1843    1.0000 </r>
       <r>   -7.4090    1.0000 </r>
       <r>    3.3251    0.0000 </r>
       <r>    3.7476    0.0000 </r>
       <r>    4.6819    0.0000 </r>
       <r>    5.2064    0.0000 </r>
       <r>    6.1085    0.0000 </r>
       <r>    7.0674    0.0000 </r>
       <r>    7.8475    0.0000 </r>
       <r>   10.7593    0.0000 </r>
      </set>
      <set comment="kpoint 54">
       <r>  -20.0743    1.0000 </r>
       <r>   -9.7669    1.0000 </r>
       <r>   -7.9751    1.0000 </r>
       <r>   -7.8007    1.0000 </r>
       <r>    3.0584    0.0000 </r>
       <r>    3.9396    0.0000 </r>
       <r>    4.4222    0.0000 </r>
       <r>    4.5030    0.0000 </r>
       <r>    6.2125    0.0000 </r>
       <r>    6.3853    0.0000 </r>
       <r>    7.1684    0.0000 </r>
       <r>   10.1476    0.0000 </r>
      </set>
      <set comment="kpoint 55">
       <r>  -20.4992    1.0000 </r>
       <r>   -8.7696    1.0000 </r>
       <r>   -8.4648    1.0000 </r>
       <r>   -7.3643    1.0000 </r>
       <r>    2.4741    0.0000 </r>
       <r>    3.3814    0.0000 </r>
       <r>    3.9067    0.0000 </r>
       <r>    5.3795    0.0000 </r>
       <r>    5.8107    0.0000 </r>
       <r>    6.2198    0.0000 </r>
       <r>    6.6242    0.0000 </r>
       <r>    9.0521    0.0000 </r>
      </set>
      <set comment="kpoint 56">
       <r>  -20.8484    1.0000 </r>
       <r>   -8.8712    1.0000 </r>
       <r>   -7.8625    1.0000 </r>
       <r>   -6.8882    1.0000 </r>
       <r>    1.9961    0.0000 </r>
       <r>    2.9040    0.0000 </r>
       <r>    3.4192    0.0000 </r>
       <r>    5.3239    0.0000 </r>
       <r>    5.9881    0.0000 </r>
       <r>    6.2852    0.0000 </r>
       <r>    6.2928    0.0000 </r>
       <r>    8.2378    0.0000 </r>
      </set>
      <set comment="kpoint 57">
       <r>  -21.1205    1.0000 </r>
       <r>   -9.1899    1.0000 </r>
       <r>   -7.1011    1.0000 </r>
       <r>   -6.3996    1.0000 </r>
       <r>    1.6250    0.0000 </r>
       <r>    2.5317    0.0000 </r>
       <r>    3.0408    0.0000 </r>
       <r>    4.9554    0.0000 </r>
       <r>    5.6608    0.0000 </r>
       <r>    6.0235    0.0000 </r>
       <r>    7.0487    0.0000 </r>
       <r>    7.5835    0.0000 </r>
      </set>
      <set comment="kpoint 58">
       <r>  -21.2189    1.0000 </r>
       <r>   -9.3044    1.0000 </r>
       <r>   -6.6742    1.0000 </r>
       <r>   -6.2176    1.0000 </r>
       <r>    1.4915    0.0000 </r>
       <r>    2.3965    0.0000 </r>
       <r>    2.9039    0.0000 </r>
       <r>    4.8216    0.0000 </r>
       <r>    5.4958    0.0000 </r>
       <r>    5.6646    0.0000 </r>
       <r>    6.9692    0.0000 </r>
       <r>    7.4257    0.0000 </r>
      </set>
      <set comment="kpoint 59">
       <r>  -21.0567    1.0000 </r>
       <r>   -9.1135    1.0000 </r>
       <r>   -7.1724    1.0000 </r>
       <r>   -6.4998    1.0000 </r>
       <r>    1.7122    0.0000 </r>
       <r>    2.6181    0.0000 </r>
       <r>    3.1286    0.0000 </r>
       <r>    5.0415    0.0000 </r>
       <r>    5.5952    0.0000 </r>
       <r>    5.8386    0.0000 </r>
       <r>    6.9627    0.0000 </r>
       <r>    7.3742    0.0000 </r>
      </set>
      <set comment="kpoint 60">
       <r>  -20.8163    1.0000 </r>
       <r>   -8.8318    1.0000 </r>
       <r>   -7.8243    1.0000 </r>
       <r>   -6.9214    1.0000 </r>
       <r>    2.0403    0.0000 </r>
       <r>    2.9468    0.0000 </r>
       <r>    3.4627    0.0000 </r>
       <r>    5.3673    0.0000 </r>
       <r>    5.9105    0.0000 </r>
       <r>    6.1748    0.0000 </r>
       <r>    6.3099    0.0000 </r>
       <r>    7.5953    0.0000 </r>
      </set>
      <set comment="kpoint 61">
       <r>  -20.4984    1.0000 </r>
       <r>   -8.6014    1.0000 </r>
       <r>   -8.4615    1.0000 </r>
       <r>   -7.4170    1.0000 </r>
       <r>    2.4753    0.0000 </r>
       <r>    3.3817    0.0000 </r>
       <r>    3.9061    0.0000 </r>
       <r>    5.5045    0.0000 </r>
       <r>    5.8028    0.0000 </r>
       <r>    6.3722    0.0000 </r>
       <r>    6.6361    0.0000 </r>
       <r>    7.7236    0.0000 </r>
      </set>
      <set comment="kpoint 62">
       <r>  -20.1043    1.0000 </r>
       <r>   -9.4835    1.0000 </r>
       <r>   -8.0063    1.0000 </r>
       <r>   -7.9155    1.0000 </r>
       <r>    3.0170    0.0000 </r>
       <r>    3.9157    0.0000 </r>
       <r>    4.4586    0.0000 </r>
       <r>    4.6023    0.0000 </r>
       <r>    6.3362    0.0000 </r>
       <r>    6.7620    0.0000 </r>
       <r>    7.1515    0.0000 </r>
       <r>    8.0721    0.0000 </r>
      </set>
      <set comment="kpoint 63">
       <r>  -19.6357    1.0000 </r>
       <r>  -10.4387    1.0000 </r>
       <r>   -8.3742    1.0000 </r>
       <r>   -7.4719    1.0000 </r>
       <r>    3.5955    0.0000 </r>
       <r>    3.6644    0.0000 </r>
       <r>    4.5839    0.0000 </r>
       <r>    5.1200    0.0000 </r>
       <r>    6.8363    0.0000 </r>
       <r>    6.9732    0.0000 </r>
       <r>    7.7649    0.0000 </r>
       <r>    8.8357    0.0000 </r>
      </set>
      <set comment="kpoint 64">
       <r>  -19.0951    1.0000 </r>
       <r>  -11.4304    1.0000 </r>
       <r>   -8.7732    1.0000 </r>
       <r>   -6.8675    1.0000 </r>
       <r>    2.5774    0.0000 </r>
       <r>    4.4165    0.0000 </r>
       <r>    5.3284    0.0000 </r>
       <r>    5.8889    0.0000 </r>
       <r>    6.7519    0.0000 </r>
       <r>    7.7072    0.0000 </r>
       <r>    8.5074    0.0000 </r>
       <r>    9.7840    0.0000 </r>
      </set>
      <set comment="kpoint 65">
       <r>  -18.4869    1.0000 </r>
       <r>  -12.4260    1.0000 </r>
       <r>   -9.1029    1.0000 </r>
       <r>   -6.2094    1.0000 </r>
       <r>    1.5568    0.0000 </r>
       <r>    5.2707    0.0000 </r>
       <r>    6.1758    0.0000 </r>
       <r>    6.6160    0.0000 </r>
       <r>    6.7909    0.0000 </r>
       <r>    8.5282    0.0000 </r>
       <r>    9.3583    0.0000 </r>
       <r>   10.6894    0.0000 </r>
      </set>
      <set comment="kpoint 66">
       <r>  -17.8197    1.0000 </r>
       <r>  -13.3963    1.0000 </r>
       <r>   -9.3581    1.0000 </r>
       <r>   -5.5300    1.0000 </r>
       <r>    0.5887    0.0000 </r>
       <r>    6.2114    0.0000 </r>
       <r>    6.5485    0.0000 </r>
       <r>    7.1144    0.0000 </r>
       <r>    7.7612    0.0000 </r>
       <r>    9.4099    0.0000 </r>
       <r>   10.3061    0.0000 </r>
       <r>   11.1478    0.0000 </r>
      </set>
      <set comment="kpoint 67">
       <r>  -17.1178    1.0000 </r>
       <r>  -14.3031    1.0000 </r>
       <r>   -9.5355    1.0000 </r>
       <r>   -4.9013    1.0000 </r>
       <r>   -0.2398    0.0000 </r>
       <r>    6.4507    0.0000 </r>
       <r>    7.2938    0.0000 </r>
       <r>    8.1229    0.0000 </r>
       <r>    8.8534    0.0000 </r>
       <r>   10.2341    0.0000 </r>
       <r>   10.5586    0.0000 </r>
       <r>   11.3678    0.0000 </r>
      </set>
      <set comment="kpoint 68">
       <r>  -16.5036    1.0000 </r>
       <r>  -15.0161    1.0000 </r>
       <r>   -9.6333    1.0000 </r>
       <r>   -4.4875    1.0000 </r>
       <r>   -0.7547    0.0000 </r>
       <r>    6.4252    0.0000 </r>
       <r>    8.4230    0.0000 </r>
       <r>    9.1086    0.0000 </r>
       <r>    9.4604    0.0000 </r>
       <r>   10.0552    0.0000 </r>
       <r>   10.2075    0.0000 </r>
       <r>   11.1846    0.0000 </r>
      </set>
      <set comment="kpoint 69">
       <r>  -16.5653    1.0000 </r>
       <r>  -14.9429    1.0000 </r>
       <r>   -9.6505    1.0000 </r>
       <r>   -4.5173    1.0000 </r>
       <r>   -0.7227    0.0000 </r>
       <r>    6.4364    0.0000 </r>
       <r>    8.2765    0.0000 </r>
       <r>    8.9999    0.0000 </r>
       <r>    9.6365    0.0000 </r>
       <r>    9.9141    0.0000 </r>
       <r>   10.2719    0.0000 </r>
       <r>   11.3482    0.0000 </r>
      </set>
      <set comment="kpoint 70">
       <r>  -17.2083    1.0000 </r>
       <r>  -14.1784    1.0000 </r>
       <r>   -9.5867    1.0000 </r>
       <r>   -4.9697    1.0000 </r>
       <r>   -0.1656    0.0000 </r>
       <r>    6.4779    0.0000 </r>
       <r>    7.1719    0.0000 </r>
       <r>    7.9977    0.0000 </r>
       <r>    8.7241    0.0000 </r>
       <r>   10.1344    0.0000 </r>
       <r>   10.8167    0.0000 </r>
       <r>   11.2362    0.0000 </r>
      </set>
      <set comment="kpoint 71">
       <r>  -17.9066    1.0000 </r>
       <r>  -13.2527    1.0000 </r>
       <r>   -9.4421    1.0000 </r>
       <r>   -5.6113    1.0000 </r>
       <r>    0.6769    0.0000 </r>
       <r>    6.0875    0.0000 </r>
       <r>    6.6126    0.0000 </r>
       <r>    6.9970    0.0000 </r>
       <r>    7.6463    0.0000 </r>
       <r>    9.2936    0.0000 </r>
       <r>   10.1894    0.0000 </r>
       <r>   11.7137    0.0000 </r>
      </set>
      <set comment="kpoint 72">
       <r>  -18.5657    1.0000 </r>
       <r>  -12.2698    1.0000 </r>
       <r>   -9.2173    1.0000 </r>
       <r>   -6.2913    1.0000 </r>
       <r>    1.6426    0.0000 </r>
       <r>    5.1618    0.0000 </r>
       <r>    6.0694    0.0000 </r>
       <r>    6.6157    0.0000 </r>
       <r>    6.7666    0.0000 </r>
       <r>    8.4211    0.0000 </r>
       <r>    9.2561    0.0000 </r>
       <r>   11.6180    0.0000 </r>
      </set>
      <set comment="kpoint 73">
       <r>  -19.1647    1.0000 </r>
       <r>  -11.2666    1.0000 </r>
       <r>   -8.9120    1.0000 </r>
       <r>   -6.9445    1.0000 </r>
       <r>    2.6506    0.0000 </r>
       <r>    4.3216    0.0000 </r>
       <r>    5.2334    0.0000 </r>
       <r>    5.7953    0.0000 </r>
       <r>    6.8346    0.0000 </r>
       <r>    7.6121    0.0000 </r>
       <r>    8.4218    0.0000 </r>
       <r>   10.7915    0.0000 </r>
      </set>
      <set comment="kpoint 74">
       <r>  -19.6959    1.0000 </r>
       <r>  -10.2781    1.0000 </r>
       <r>   -8.5241    1.0000 </r>
       <r>   -7.5413    1.0000 </r>
       <r>    3.5826    0.0000 </r>
       <r>    3.6500    0.0000 </r>
       <r>    4.4991    0.0000 </r>
       <r>    5.0392    0.0000 </r>
       <r>    6.8906    0.0000 </r>
       <r>    6.8990    0.0000 </r>
       <r>    7.7013    0.0000 </r>
       <r>    9.8656    0.0000 </r>
      </set>
      <set comment="kpoint 75">
       <r>  -20.1551    1.0000 </r>
       <r>   -9.3505    1.0000 </r>
       <r>   -8.0665    1.0000 </r>
       <r>   -8.0482    1.0000 </r>
       <r>    2.9478    0.0000 </r>
       <r>    3.8537    0.0000 </r>
       <r>    4.3903    0.0000 </r>
       <r>    4.6210    0.0000 </r>
       <r>    6.2661    0.0000 </r>
       <r>    6.7831    0.0000 </r>
       <r>    7.1406    0.0000 </r>
       <r>    9.0725    0.0000 </r>
      </set>
      <set comment="kpoint 76">
       <r>  -20.5399    1.0000 </r>
       <r>   -8.5376    1.0000 </r>
       <r>   -8.5116    1.0000 </r>
       <r>   -7.4858    1.0000 </r>
       <r>    2.4187    0.0000 </r>
       <r>    3.3272    0.0000 </r>
       <r>    3.8502    0.0000 </r>
       <r>    5.5039    0.0000 </r>
       <r>    5.7432    0.0000 </r>
       <r>    6.3945    0.0000 </r>
       <r>    6.7286    0.0000 </r>
       <r>    8.5647    0.0000 </r>
      </set>
      <set comment="kpoint 77">
       <r>  -20.9326    1.0000 </r>
       <r>   -8.9676    1.0000 </r>
       <r>   -7.5467    1.0000 </r>
       <r>   -6.6571    1.0000 </r>
       <r>    1.8812    0.0000 </r>
       <r>    2.7876    0.0000 </r>
       <r>    3.3005    0.0000 </r>
       <r>    5.2095    0.0000 </r>
       <r>    5.3638    0.0000 </r>
       <r>    5.9801    0.0000 </r>
       <r>    6.6327    0.0000 </r>
       <r>    8.0113    0.0000 </r>
      </set>
      <set comment="kpoint 78">
       <r>  -20.7302    1.0000 </r>
       <r>   -8.7308    1.0000 </r>
       <r>   -8.0737    1.0000 </r>
       <r>   -6.9770    1.0000 </r>
       <r>    2.1574    0.0000 </r>
       <r>    3.0644    0.0000 </r>
       <r>    3.5819    0.0000 </r>
       <r>    5.4141    0.0000 </r>
       <r>    5.4829    0.0000 </r>
       <r>    6.1071    0.0000 </r>
       <r>    6.2536    0.0000 </r>
       <r>    8.4284    0.0000 </r>
      </set>
      <set comment="kpoint 79">
       <r>  -20.4501    1.0000 </r>
       <r>   -8.6846    1.0000 </r>
       <r>   -8.4047    1.0000 </r>
       <r>   -7.4657    1.0000 </r>
       <r>    2.5408    0.0000 </r>
       <r>    3.4477    0.0000 </r>
       <r>    3.9726    0.0000 </r>
       <r>    5.4228    0.0000 </r>
       <r>    5.7704    0.0000 </r>
       <r>    5.8647    0.0000 </r>
       <r>    6.6377    0.0000 </r>
       <r>    8.5380    0.0000 </r>
      </set>
      <set comment="kpoint 80">
       <r>  -20.0936    1.0000 </r>
       <r>   -9.3693    1.0000 </r>
       <r>   -8.0498    1.0000 </r>
       <r>   -7.9925    1.0000 </r>
       <r>    3.0311    0.0000 </r>
       <r>    3.9366    0.0000 </r>
       <r>    4.4728    0.0000 </r>
       <r>    4.6255    0.0000 </r>
       <r>    6.3458    0.0000 </r>
       <r>    6.3754    0.0000 </r>
       <r>    7.1314    0.0000 </r>
       <r>    8.4750    0.0000 </r>
      </set>
      <set comment="kpoint 81">
       <r>  -19.6619    1.0000 </r>
       <r>  -10.1403    1.0000 </r>
       <r>   -8.6338    1.0000 </r>
       <r>   -7.4984    1.0000 </r>
       <r>    3.6275    0.0000 </r>
       <r>    3.7415    0.0000 </r>
       <r>    4.5309    0.0000 </r>
       <r>    5.0820    0.0000 </r>
       <r>    6.9282    0.0000 </r>
       <r>    7.1115    0.0000 </r>
       <r>    7.7368    0.0000 </r>
       <r>    8.4020    0.0000 </r>
      </set>
      <set comment="kpoint 82">
       <r>  -19.1574    1.0000 </r>
       <r>  -10.9972    1.0000 </r>
       <r>   -9.1492    1.0000 </r>
       <r>   -6.9296    1.0000 </r>
       <r>    2.8036    0.0000 </r>
       <r>    4.3290    0.0000 </r>
       <r>    5.2256    0.0000 </r>
       <r>    5.7999    0.0000 </r>
       <r>    7.6052    0.0000 </r>
       <r>    7.6389    0.0000 </r>
       <r>    8.4340    0.0000 </r>
       <r>    8.6660    0.0000 </r>
      </set>
      <set comment="kpoint 83">
       <r>  -18.5834    1.0000 </r>
       <r>  -11.9114    1.0000 </r>
       <r>   -9.5716    1.0000 </r>
       <r>   -6.2976    1.0000 </r>
       <r>    1.8406    0.0000 </r>
       <r>    5.1339    0.0000 </r>
       <r>    6.0167    0.0000 </r>
       <r>    6.6256    0.0000 </r>
       <r>    7.6782    0.0000 </r>
       <r>    8.3635    0.0000 </r>
       <r>    9.2070    0.0000 </r>
       <r>    9.5077    0.0000 </r>
      </set>
      <set comment="kpoint 84">
       <r>  -17.9464    1.0000 </r>
       <r>  -12.8431    1.0000 </r>
       <r>   -9.9004    1.0000 </r>
       <r>   -5.6240    1.0000 </r>
       <r>    0.8907    0.0000 </r>
       <r>    6.0393    0.0000 </r>
       <r>    6.8930    0.0000 </r>
       <r>    7.5232    0.0000 </r>
       <r>    7.6258    0.0000 </r>
       <r>    9.1677    0.0000 </r>
       <r>   10.0894    0.0000 </r>
       <r>   10.3972    0.0000 </r>
      </set>
      <set comment="kpoint 85">
       <r>  -17.2604    1.0000 </r>
       <r>  -13.7516    1.0000 </r>
       <r>  -10.1390    1.0000 </r>
       <r>   -4.9539    1.0000 </r>
       <r>    0.0131    0.0000 </r>
       <r>    7.0346    0.0000 </r>
       <r>    7.5066    0.0000 </r>
       <r>    7.8250    0.0000 </r>
       <r>    8.6061    0.0000 </r>
       <r>    9.8998    0.0000 </r>
       <r>   10.7201    0.0000 </r>
       <r>   11.1578    0.0000 </r>
      </set>
      <set comment="kpoint 86">
       <r>  -16.5773    1.0000 </r>
       <r>  -14.5679    1.0000 </r>
       <r>  -10.2898    1.0000 </r>
       <r>   -4.3968    1.0000 </r>
       <r>   -0.6722    0.0000 </r>
       <r>    7.4368    0.0000 </r>
       <r>    8.1422    0.0000 </r>
       <r>    8.7094    0.0000 </r>
       <r>    9.7459    0.0000 </r>
       <r>   10.1628    0.0000 </r>
       <r>   10.2765    0.0000 </r>
       <r>   11.5915    0.0000 </r>
      </set>
      <set comment="kpoint 87">
       <r>  -16.2243    1.0000 </r>
       <r>  -14.9558    1.0000 </r>
       <r>  -10.3541    1.0000 </r>
       <r>   -4.1840    1.0000 </r>
       <r>   -0.9275    0.0000 </r>
       <r>    7.4294    0.0000 </r>
       <r>    9.0343    0.0000 </r>
       <r>    9.1111    0.0000 </r>
       <r>    9.3485    0.0000 </r>
       <r>   10.3251    0.0000 </r>
       <r>   10.7894    0.0000 </r>
       <r>   10.9995    0.0000 </r>
      </set>
      <set comment="kpoint 88">
       <r>  -16.6914    1.0000 </r>
       <r>  -14.4224    1.0000 </r>
       <r>  -10.3317    1.0000 </r>
       <r>   -4.4708    1.0000 </r>
       <r>   -0.5963    0.0000 </r>
       <r>    7.4450    0.0000 </r>
       <r>    7.9738    0.0000 </r>
       <r>    8.5689    0.0000 </r>
       <r>    9.5671    0.0000 </r>
       <r>   10.2310    0.0000 </r>
       <r>   10.4592    0.0000 </r>
       <r>   11.5846    0.0000 </r>
      </set>
      <set comment="kpoint 89">
       <r>  -17.3807    1.0000 </r>
       <r>  -13.5695    1.0000 </r>
       <r>  -10.2214    1.0000 </r>
       <r>   -5.0592    1.0000 </r>
       <r>    0.1197    0.0000 </r>
       <r>    6.8577    0.0000 </r>
       <r>    7.5652    0.0000 </r>
       <r>    7.6686    0.0000 </r>
       <r>    8.4449    0.0000 </r>
       <r>    9.7700    0.0000 </r>
       <r>   10.9100    0.0000 </r>
       <r>   11.3651    0.0000 </r>
      </set>
      <set comment="kpoint 90">
       <r>  -18.0576    1.0000 </r>
       <r>  -12.6426    1.0000 </r>
       <r>  -10.0196    1.0000 </r>
       <r>   -5.7356    1.0000 </r>
       <r>    0.9983    0.0000 </r>
       <r>    5.8858    0.0000 </r>
       <r>    6.7464    0.0000 </r>
       <r>    7.3949    0.0000 </r>
       <r>    7.6789    0.0000 </r>
       <r>    9.0249    0.0000 </r>
       <r>    9.9700    0.0000 </r>
[...]
       <r>    9.7706    0.0000 </r>
       <r>   10.6104    0.0000 </r>
       <r>   11.5307    0.0000 </r>
      </set>
      <set comment="kpoint 150">
       <r>  -17.1827    1.0000 </r>
       <r>  -14.3142    1.0000 </r>
       <r>   -8.9789    1.0000 </r>
       <r>   -4.9729    1.0000 </r>
       <r>   -0.0860    0.0000 </r>
       <r>    4.2762    0.0000 </r>
       <r>    7.1282    0.0000 </r>
       <r>    8.0186    0.0000 </r>
       <r>    8.6791    0.0000 </r>
       <r>   10.2934    0.0000 </r>
       <r>   10.8953    0.0000 </r>
       <r>   11.2089    0.0000 </r>
      </set>
      <set comment="kpoint 151">
       <r>  -16.7181    1.0000 </r>
       <r>  -14.7091    1.0000 </r>
       <r>   -9.3978    1.0000 </r>
       <r>   -4.5930    1.0000 </r>
       <r>   -0.4790    0.0000 </r>
       <r>    4.7566    0.0000 </r>
       <r>    7.8222    0.0000 </r>
       <r>    8.6458    0.0000 </r>
       <r>    9.4046    0.0000 </r>
       <r>   10.3280    0.0000 </r>
       <r>   10.6054    0.0000 </r>
       <r>   11.3896    0.0000 </r>
      </set>
      <set comment="kpoint 152">
       <r>  -16.2340    1.0000 </r>
       <r>  -14.9998    1.0000 </r>
       <r>   -9.9778    1.0000 </r>
       <r>   -4.2235    1.0000 </r>
       <r>   -0.8002    0.0000 </r>
       <r>    5.5213    0.0000 </r>
       <r>    8.6034    0.0000 </r>
       <r>    9.1547    0.0000 </r>
       <r>    9.8449    0.0000 </r>
       <r>   10.2375    0.0000 </r>
       <r>   10.4159    0.0000 </r>
       <r>   11.5719    0.0000 </r>
      </set>
      <set comment="kpoint 153">
       <r>  -15.8691    1.0000 </r>
       <r>  -15.0573    1.0000 </r>
       <r>  -10.6488    1.0000 </r>
       <r>   -3.9034    1.0000 </r>
       <r>   -1.0315    0.0000 </r>
       <r>    6.4933    0.0000 </r>
       <r>    9.0922    0.0000 </r>
       <r>    9.3776    0.0000 </r>
       <r>    9.5361    0.0000 </r>
       <r>   10.5955    0.0000 </r>
       <r>   11.1499    0.0000 </r>
       <r>   11.1791    0.0000 </r>
      </set>
      <set comment="kpoint 154">
       <r>  -16.8220    1.0000 </r>
       <r>  -14.7963    1.0000 </r>
       <r>   -8.9004    1.0000 </r>
       <r>   -4.7290    1.0000 </r>
       <r>   -0.4224    0.0000 </r>
       <r>    4.0658    0.0000 </r>
       <r>    7.6725    0.0000 </r>
       <r>    8.5619    0.0000 </r>
       <r>    9.2452    0.0000 </r>
       <r>   10.2121    0.0000 </r>
       <r>   10.7014    0.0000 </r>
       <r>   11.2433    0.0000 </r>
      </set>
      <set comment="kpoint 155">
       <r>  -16.4381    1.0000 </r>
       <r>  -15.1763    1.0000 </r>
       <r>   -9.0617    1.0000 </r>
       <r>   -4.5022    1.0000 </r>
       <r>   -0.6717    0.0000 </r>
       <r>    4.2256    0.0000 </r>
       <r>    8.3136    0.0000 </r>
       <r>    9.1565    0.0000 </r>
       <r>    9.5866    0.0000 </r>
       <r>    9.9204    0.0000 </r>
       <r>   10.3986    0.0000 </r>
       <r>   11.2653    0.0000 </r>
      </set>
      <set comment="kpoint 156">
       <r>  -16.1738    1.0000 </r>
       <r>  -15.3106    1.0000 </r>
       <r>   -9.4403    1.0000 </r>
       <r>   -4.3261    1.0000 </r>
       <r>   -0.8002    0.0000 </r>
       <r>    4.7311    0.0000 </r>
       <r>    8.9836    0.0000 </r>
       <r>    9.1108    0.0000 </r>
       <r>    9.5242    0.0000 </r>
       <r>   10.1138    0.0000 </r>
       <r>   10.6876    0.0000 </r>
       <r>   10.7067    0.0000 </r>
      </set>
      <set comment="kpoint 157">
       <r>  -16.2755    1.0000 </r>
       <r>  -15.4024    1.0000 </r>
       <r>   -8.9416    1.0000 </r>
       <r>   -4.4675    1.0000 </r>
       <r>   -0.7429    0.0000 </r>
       <r>    4.0404    0.0000 </r>
       <r>    8.8473    0.0000 </r>
       <r>    8.9661    0.0000 </r>
       <r>    9.5941    0.0000 </r>
       <r>    9.9531    0.0000 </r>
       <r>   10.5319    0.0000 </r>
       <r>   10.5484    0.0000 </r>
      </set>
     </set>
    </set>
   </array>
  </eigenvalues>
  <separator name="orbital magnetization" >
   <v name="MAGDIPOLOUT">      0.00000000      0.00000000      0.00000000</v>
  </separator>
  <dos>
   <i name="efermi">     -2.45043245 </i>
   <total>
    <array>
     <dimension dim="1">gridpoints</dimension>
     <dimension dim="2">spin</dimension>
     <field>energy</field>
     <field>total</field>
     <field>integrated</field>
     <set>
      <set comment="spin 1">
       <r>   -23.3122     0.0000     0.0000 </r>
       <r>   -23.1858     0.0000     0.0000 </r>
       <r>   -23.0594     0.0000     0.0000 </r>
       <r>   -22.9330     0.0000     0.0000 </r>
       <r>   -22.8066     0.0000     0.0000 </r>
       <r>   -22.6802     0.0000     0.0000 </r>
       <r>   -22.5537     0.0000     0.0000 </r>
       <r>   -22.4273     0.0000     0.0000 </r>
       <r>   -22.3009     0.0000     0.0000 </r>
       <r>   -22.1745     0.0000     0.0000 </r>
       <r>   -22.0481     0.0000     0.0000 </r>
       <r>   -21.9217     0.0000     0.0000 </r>
       <r>   -21.7953     0.0000     0.0000 </r>
       <r>   -21.6689     0.0000     0.0000 </r>
       <r>   -21.5425     0.1364     0.0172 </r>
       <r>   -21.4160     0.3522     0.0618 </r>
       <r>   -21.2896     0.3266     0.1030 </r>
       <r>   -21.1632     0.2012     0.1285 </r>
       <r>   -21.0368     0.4842     0.1897 </r>
       <r>   -20.9104     0.1716     0.2114 </r>
       <r>   -20.7840     0.3454     0.2551 </r>
       <r>   -20.6576     0.3168     0.2951 </r>
       <r>   -20.5312     0.2070     0.3213 </r>
       <r>   -20.4048     0.4548     0.3789 </r>
       <r>   -20.2783     0.3265     0.4201 </r>
       <r>   -20.1519     0.1698     0.4416 </r>
       <r>   -20.0255     0.5305     0.5087 </r>
       <r>   -19.8991     0.2530     0.5406 </r>
       <r>   -19.7727     0.2007     0.5660 </r>
       <r>   -19.6463     0.3914     0.6155 </r>
       <r>   -19.5199     0.4672     0.6746 </r>
       <r>   -19.3935     0.1423     0.6925 </r>
       <r>   -19.2671     0.2992     0.7304 </r>
       <r>   -19.1406     0.3929     0.7800 </r>
       <r>   -19.0142     0.4326     0.8347 </r>
       <r>   -18.8878     0.2845     0.8707 </r>
       <r>   -18.7614     0.1553     0.8904 </r>
       <r>   -18.6350     0.3727     0.9375 </r>
       <r>   -18.5086     0.4739     0.9974 </r>
       <r>   -18.3822     0.3482     1.0414 </r>
       <r>   -18.2558     0.2493     1.0730 </r>
       <r>   -18.1294     0.1819     1.0960 </r>
       <r>   -18.0029     0.4247     1.1497 </r>
       <r>   -17.8765     0.5807     1.2231 </r>
       <r>   -17.7501     0.2304     1.2522 </r>
       <r>   -17.6237     0.2886     1.2887 </r>
       <r>   -17.4973     0.2124     1.3155 </r>
       <r>   -17.3709     0.4191     1.3685 </r>
       <r>   -17.2445     0.5045     1.4323 </r>
       <r>   -17.1181     0.3976     1.4826 </r>
       <r>   -16.9917     0.2113     1.5093 </r>
       <r>   -16.8652     0.3421     1.5525 </r>
       <r>   -16.7388     0.3681     1.5990 </r>
       <r>   -16.6124     0.6712     1.6839 </r>
       <r>   -16.4860     0.5380     1.7520 </r>
       <r>   -16.3596     0.2314     1.7812 </r>
       <r>   -16.2332     0.1180     1.7962 </r>
       <r>   -16.1068     0.4588     1.8542 </r>
       <r>   -15.9804     0.2719     1.8886 </r>
       <r>   -15.8540     0.2202     1.9165 </r>
       <r>   -15.7275     0.1196     1.9316 </r>
       <r>   -15.6011     0.1194     1.9467 </r>
       <r>   -15.4747     0.0920     1.9583 </r>
       <r>   -15.3483     0.2101     1.9849 </r>
       <r>   -15.2219     0.3074     2.0238 </r>
       <r>   -15.0955     0.3342     2.0660 </r>
       <r>   -14.9691     0.3502     2.1103 </r>
       <r>   -14.8427     0.3012     2.1484 </r>
       <r>   -14.7163     0.3752     2.1958 </r>
       <r>   -14.5898     0.3845     2.2444 </r>
       <r>   -14.4634     0.5846     2.3183 </r>
       <r>   -14.3370     0.3731     2.3655 </r>
       <r>   -14.2106     0.5216     2.4314 </r>
       <r>   -14.0842     0.2416     2.4619 </r>
       <r>   -13.9578     0.4504     2.5189 </r>
       <r>   -13.8314     0.4055     2.5701 </r>
       <r>   -13.7050     0.3516     2.6146 </r>
       <r>   -13.5786     0.1536     2.6340 </r>
       <r>   -13.4521     0.4637     2.6926 </r>
       <r>   -13.3257     0.2578     2.7252 </r>
       <r>   -13.1993     0.3686     2.7718 </r>
       <r>   -13.0729     0.1134     2.7861 </r>
       <r>   -12.9465     0.3981     2.8364 </r>
       <r>   -12.8201     0.3587     2.8819 </r>
       <r>   -12.6937     0.1406     2.8996 </r>
       <r>   -12.5673     0.3269     2.9410 </r>
       <r>   -12.4409     0.2579     2.9736 </r>
       <r>   -12.3144     0.5129     3.0384 </r>
       <r>   -12.1880     0.4180     3.0913 </r>
       <r>   -12.0616     0.2944     3.1285 </r>
       <r>   -11.9352     0.2779     3.1636 </r>
       <r>   -11.8088     0.4548     3.2211 </r>
       <r>   -11.6824     0.5786     3.2942 </r>
       <r>   -11.5560     0.3348     3.3366 </r>
       <r>   -11.4296     0.2682     3.3706 </r>
       <r>   -11.3032     0.3359     3.4130 </r>
       <r>   -11.1767     0.4468     3.4695 </r>
       <r>   -11.0503     0.3851     3.5184 </r>
       <r>   -10.9239     0.4662     3.5775 </r>
       <r>   -10.7975     0.5669     3.6492 </r>
       <r>   -10.6711     0.2704     3.6834 </r>
       <r>   -10.5447     0.2279     3.7122 </r>
       <r>   -10.4183     0.4271     3.7662 </r>
       <r>   -10.2919     0.6213     3.8447 </r>
       <r>   -10.1655     0.4917     3.9069 </r>
       <r>   -10.0390     0.3362     3.9494 </r>
       <r>    -9.9126     0.3635     3.9954 </r>
       <r>    -9.7862     0.6149     4.0731 </r>
       <r>    -9.6598     0.5777     4.1462 </r>
       <r>    -9.5334     0.9193     4.2625 </r>
       <r>    -9.4070     0.6664     4.3468 </r>
       <r>    -9.2806     1.0289     4.4769 </r>
       <r>    -9.1542     0.5576     4.5474 </r>
       <r>    -9.0278     1.1834     4.6971 </r>
       <r>    -8.9013     0.6409     4.7782 </r>
       <r>    -8.7749     0.9414     4.8973 </r>
       <r>    -8.6485     1.1770     5.0461 </r>
       <r>    -8.5221     1.1139     5.1870 </r>
       <r>    -8.3957     1.1656     5.3344 </r>
       <r>    -8.2693     0.6620     5.4181 </r>
       <r>    -8.1429     0.7298     5.5104 </r>
       <r>    -8.0165     0.7252     5.6021 </r>
       <r>    -7.8901     1.1960     5.7533 </r>
       <r>    -7.7636     0.6900     5.8406 </r>
       <r>    -7.6372     0.3939     5.8904 </r>
       <r>    -7.5108     0.6720     5.9754 </r>
       <r>    -7.3844     0.8885     6.0878 </r>
       <r>    -7.2580     0.6327     6.1678 </r>
       <r>    -7.1316     0.6780     6.2535 </r>
       <r>    -7.0052     0.4355     6.3086 </r>
       <r>    -6.8788     0.7468     6.4030 </r>
       <r>    -6.7524     0.8435     6.5097 </r>
       <r>    -6.6259     0.4066     6.5611 </r>
       <r>    -6.4995     0.4864     6.6226 </r>
       <r>    -6.3731     0.7369     6.7158 </r>
       <r>    -6.2467     0.6500     6.7980 </r>
       <r>    -6.1203     0.4294     6.8523 </r>
       <r>    -5.9939     0.6025     6.9285 </r>
       <r>    -5.8675     0.5598     6.9992 </r>
       <r>    -5.7411     0.4017     7.0500 </r>
       <r>    -5.6147     0.8976     7.1635 </r>
       <r>    -5.4882     0.5649     7.2350 </r>
       <r>    -5.3618     0.4580     7.2929 </r>
       <r>    -5.2354     0.0976     7.3053 </r>
       <r>    -5.1090     0.4458     7.3617 </r>
       <r>    -4.9826     0.3366     7.4042 </r>
       <r>    -4.8562     0.7851     7.5035 </r>
       <r>    -4.7298     0.5296     7.5705 </r>
       <r>    -4.6034     0.2530     7.6025 </r>
       <r>    -4.4770     0.4660     7.6614 </r>
       <r>    -4.3505     0.4453     7.7177 </r>
       <r>    -4.2241     0.4272     7.7717 </r>
       <r>    -4.0977     0.3776     7.8194 </r>
       <r>    -3.9713     0.0208     7.8221 </r>
       <r>    -3.8449     0.2640     7.8554 </r>
       <r>    -3.7185     0.1590     7.8755 </r>
       <r>    -3.5921     0.2330     7.9050 </r>
       <r>    -3.4657     0.2493     7.9365 </r>
       <r>    -3.3393     0.0627     7.9444 </r>
       <r>    -3.2128     0.0156     7.9464 </r>
       <r>    -3.0864     0.1496     7.9653 </r>
       <r>    -2.9600     0.1096     7.9792 </r>
       <r>    -2.8336     0.1098     7.9931 </r>
       <r>    -2.7072     0.0000     7.9931 </r>
       <r>    -2.5808     0.0000     7.9931 </r>
       <r>    -2.4544     0.0549     8.0000 </r>
       <r>    -2.3280     0.0000     8.0000 </r>
       <r>    -2.2016     0.0547     8.0069 </r>
       <r>    -2.0751     0.0000     8.0069 </r>
       <r>    -1.9487     0.0000     8.0069 </r>
       <r>    -1.8223     0.1056     8.0203 </r>
       <r>    -1.6959     0.1140     8.0347 </r>
       <r>    -1.5695     0.1511     8.0538 </r>
       <r>    -1.4431     0.0138     8.0556 </r>
       <r>    -1.3167     0.1098     8.0694 </r>
       <r>    -1.1903     0.1594     8.0896 </r>
       <r>    -1.0639     0.3322     8.1316 </r>
       <r>    -0.9375     0.4139     8.1839 </r>
       <r>    -0.8110     0.1199     8.1991 </r>
       <r>    -0.6846     0.6832     8.2854 </r>
       <r>    -0.5582     0.6809     8.3716 </r>
       <r>    -0.4318     0.7227     8.4630 </r>
       <r>    -0.3054     0.2648     8.4965 </r>
       <r>    -0.1790     0.2383     8.5266 </r>
       <r>    -0.0526     0.4196     8.5797 </r>
       <r>     0.0738     0.2194     8.6075 </r>
       <r>     0.2002     0.1408     8.6253 </r>
       <r>     0.3267     0.7606     8.7214 </r>
       <r>     0.4531     0.1963     8.7465 </r>
       <r>     0.5795     0.0283     8.7501 </r>
       <r>     0.7059     0.3004     8.7881 </r>
       <r>     0.8323     0.3116     8.8275 </r>
       <r>     0.9587     0.2225     8.8556 </r>
       <r>     1.0851     0.4226     8.9090 </r>
       <r>     1.2115     0.6052     8.9856 </r>
       <r>     1.3379     0.4053     9.0368 </r>
       <r>     1.4644     0.4003     9.0874 </r>
       <r>     1.5908     0.2418     9.1180 </r>
       <r>     1.7172     0.6667     9.2024 </r>
       <r>     1.8436     0.3816     9.2507 </r>
       <r>     1.9700     0.7507     9.3456 </r>
       <r>     2.0964     0.6407     9.4266 </r>
       <r>     2.2228     0.5362     9.4945 </r>
       <r>     2.3492     0.7695     9.5918 </r>
       <r>     2.4756     0.6483     9.6737 </r>
       <r>     2.6021     0.9596     9.7950 </r>
       <r>     2.7285     0.8409     9.9014 </r>
       <r>     2.8549     0.8590    10.0100 </r>
       <r>     2.9813     1.0266    10.1397 </r>
       <r>     3.1077     1.0553    10.2732 </r>
       <r>     3.2341     0.4182    10.3261 </r>
       <r>     3.3605     0.8014    10.4275 </r>
       <r>     3.4869     1.0619    10.5618 </r>
       <r>     3.6133     0.9883    10.6869 </r>
       <r>     3.7398     0.8097    10.7892 </r>
       <r>     3.8662     0.8090    10.8915 </r>
       <r>     3.9926     1.1786    11.0405 </r>
       <r>     4.1190     0.7517    11.1355 </r>
       <r>     4.2454     0.4916    11.1977 </r>
       <r>     4.3718     1.0718    11.3332 </r>
       <r>     4.4982     1.5650    11.5310 </r>
       <r>     4.6246     1.6604    11.7410 </r>
       <r>     4.7510     1.2623    11.9006 </r>
       <r>     4.8775     0.8121    12.0032 </r>
       <r>     5.0039     1.1848    12.1530 </r>
       <r>     5.1303     2.1837    12.4292 </r>
       <r>     5.2567     2.0643    12.6903 </r>
       <r>     5.3831     1.7587    12.9126 </r>
       <r>     5.5095     2.0951    13.1775 </r>
       <r>     5.6359     1.8278    13.4086 </r>
       <r>     5.7623     2.0143    13.6633 </r>
       <r>     5.8887     3.0582    14.0499 </r>
       <r>     6.0152     2.0065    14.3037 </r>
       <r>     6.1416     2.1457    14.5751 </r>
       <r>     6.2680     1.6672    14.7860 </r>
       <r>     6.3944     1.7731    15.0101 </r>
       <r>     6.5208     1.7558    15.2321 </r>
       <r>     6.6472     2.1432    15.5030 </r>
       <r>     6.7736     1.4841    15.6907 </r>
       <r>     6.9000     1.8560    15.9254 </r>
       <r>     7.0264     2.1703    16.1998 </r>
       <r>     7.1529     1.5022    16.3898 </r>
       <r>     7.2793     1.0245    16.5194 </r>
       <r>     7.4057     1.5014    16.7092 </r>
       <r>     7.5321     1.7893    16.9354 </r>
       <r>     7.6585     2.3277    17.2297 </r>
       <r>     7.7849     2.0547    17.4895 </r>
       <r>     7.9113     1.6367    17.6965 </r>
       <r>     8.0377     1.3730    17.8702 </r>
       <r>     8.1641     1.3529    18.0412 </r>
       <r>     8.2906     2.2913    18.3309 </r>
       <r>     8.4170     1.6690    18.5422 </r>
       <r>     8.5434     2.4572    18.8529 </r>
       <r>     8.6698     1.7510    19.0744 </r>
       <r>     8.7962     1.9635    19.3228 </r>
       <r>     8.9226     1.1354    19.4663 </r>
       <r>     9.0490     1.5735    19.6654 </r>
       <r>     9.1754     1.8112    19.8943 </r>
       <r>     9.3018     1.7513    20.1157 </r>
       <r>     9.4283     1.0140    20.2440 </r>
       <r>     9.5547     1.5220    20.4364 </r>
       <r>     9.6811     1.8494    20.6703 </r>
       <r>     9.8075     1.5410    20.8651 </r>
       <r>     9.9339     1.8860    21.1036 </r>
       <r>    10.0603     1.3524    21.2748 </r>
       <r>    10.1867     2.0294    21.5314 </r>
       <r>    10.3131     1.9096    21.7729 </r>
       <r>    10.4395     1.5786    21.9725 </r>
       <r>    10.5660     1.9314    22.2169 </r>
       <r>    10.6924     1.3727    22.3905 </r>
       <r>    10.8188     1.9337    22.6351 </r>
       <r>    10.9452     0.9725    22.7581 </r>
       <r>    11.0716     1.3307    22.9264 </r>
       <r>    11.1980     1.5883    23.1272 </r>
       <r>    11.3244     0.7531    23.2225 </r>
       <r>    11.4508     0.8420    23.3289 </r>
       <r>    11.5772     1.1028    23.4683 </r>
       <r>    11.7037     0.7640    23.5649 </r>
       <r>    11.8301     1.1546    23.7109 </r>
       <r>    11.9565     0.6968    23.7992 </r>
       <r>    12.0829     0.2156    23.8265 </r>
       <r>    12.2093     0.3880    23.8755 </r>
       <r>    12.3357     0.1097    23.8894 </r>
       <r>    12.4621     0.3717    23.9364 </r>
       <r>    12.5885     0.0638    23.9444 </r>
       <r>    12.7149     0.3241    23.9854 </r>
       <r>    12.8414     0.0056    23.9861 </r>
       <r>    12.9678     0.1098    24.0000 </r>
       <r>    13.0942     0.0000    24.0000 </r>
       <r>    13.2206     0.0000    24.0000 </r>
       <r>    13.3470     0.0000    24.0000 </r>
       <r>    13.4734     0.0000    24.0000 </r>
       <r>    13.5998     0.0000    24.0000 </r>
       <r>    13.7262     0.0000    24.0000 </r>
       <r>    13.8526     0.0000    24.0000 </r>
       <r>    13.9791     0.0000    24.0000 </r>
       <r>    14.1055     0.0000    24.0000 </r>
       <r>    14.2319     0.0000    24.0000 </r>
       <r>    14.3583     0.0000    24.0000 </r>
       <r>    14.4847     0.0000    24.0000 </r>
       <r>    14.6111     0.0000    24.0000 </r>
      </set>
     </set>
    </array>
   </total>
  </dos>
 </calculation>
 <structure name="finalpos" >
  <crystal>
   <varray name="basis" >
    <v>       2.52896000       0.00000000       0.00000000 </v>
    <v>      -1.26448000       2.13736100       0.00000000 </v>
    <v>       0.00000000       0.00000000      15.00000000 </v>
   </varray>
   <i name="volume">     81.07950712 </i>
   <varray name="rec_basis" >
    <v>       0.39541946       0.23393334       0.00000000 </v>
    <v>       0.00000000       0.46786668       0.00000000 </v>
    <v>       0.00000000       0.00000000       0.06666667 </v>
   </varray>
  </crystal>
  <varray name="positions" >
   <v>       0.99981101       0.99962201       0.50000000 </v>
   <v>       0.33352199       0.66704499       0.50000000 </v>
  </varray>
 </structure>
</modeling>
