 running on   48 total cores
 distrk:  each k-point on   48 cores,    1 groups
 distr:  one band on    8 cores,    6 groups
 using from now: INCAR     
 vasp.5.4.1 24Jun15 (build Nov 20 2020 10:29:34) complex                        
  
 POSCAR found type information on POSCAR  C 
 POSCAR found :  1 types and       2 ions
 scaLAPACK will be used

 ----------------------------------------------------------------------------- 
|                                                                             |
|  ADVICE TO THIS USER RUNNING 'VASP/VAMP'   (HEAR YOUR MASTER'S VOICE ...):  |
|                                                                             |
|      You have a (more or less) 'small supercell' and for smaller cells      |
|      it is recommended  to use the reciprocal-space projection scheme!      |
|      The real space optimization is not  efficient for small cells and it   |
|      is also less accurate ...                                              |
|      Therefore set LREAL=.FALSE. in the  INCAR file                         |
|                                                                             |
 ----------------------------------------------------------------------------- 

 LDA part: xc-table for Pade appr. of Perdew
 POSCAR, INCAR and KPOINTS ok, starting setup
 WARNING: small aliasing (wrap around) errors must be expected
 FFT: planning ...
 WAVECAR not read
 entering main loop
       N       E                     dE             d eps       ncg     rms          rms(c)
DAV:   1     0.356512706389E+02    0.35651E+02   -0.37217E+03  3768   0.497E+02
DAV:   2    -0.178598582904E+02   -0.53511E+02   -0.47325E+02  5160   0.979E+01
DAV:   3    -0.195405568908E+02   -0.16807E+01   -0.16807E+01  5604   0.237E+01
DAV:   4    -0.195470694287E+02   -0.65125E-02   -0.65125E-02  5448   0.148E+00
DAV:   5    -0.195470793424E+02   -0.99137E-05   -0.99137E-05  5520   0.552E-02    0.600E+00
DAV:   6    -0.187375321304E+02    0.80955E+00   -0.79123E-01  5064   0.423E+00    0.353E+00
DAV:   7    -0.184245692414E+02    0.31296E+00   -0.10374E+00  5304   0.474E+00    0.869E-01
DAV:   8    -0.184178446740E+02    0.67246E-02   -0.88393E-03  5316   0.615E-01    0.899E-02
DAV:   9    -0.184160354458E+02    0.18092E-02   -0.12277E-03  4956   0.138E-01    0.700E-02
DAV:  10    -0.184148817481E+02    0.11537E-02   -0.19859E-03  4320   0.147E-01    0.347E-02
DAV:  11    -0.184150123738E+02   -0.13063E-03   -0.14342E-04  4056   0.490E-02    0.367E-02
DAV:  12    -0.184152859558E+02   -0.27358E-03   -0.40917E-05  4356   0.295E-02    0.103E-02
DAV:  13    -0.184159626262E+02   -0.67667E-03   -0.17540E-04  4272   0.364E-02    0.432E-03
DAV:  14    -0.184160233299E+02   -0.60704E-04   -0.13527E-06  4920   0.587E-03    0.322E-03
DAV:  15    -0.184161137198E+02   -0.90390E-04   -0.79507E-06  4152   0.814E-03    0.127E-03
DAV:  16    -0.184161243260E+02   -0.10606E-04   -0.31307E-07  4248   0.265E-03    0.824E-04
DAV:  17    -0.184161257180E+02   -0.13920E-05   -0.24698E-08  4212   0.695E-04
   1 F= -.18416126E+02 E0= -.18416126E+02  d E =-.707204E-11
