<?xml version="1.0" encoding="ISO-8859-1"?>
<modeling>
 <generator>
  <i name="program" type="string">vasp </i>
  <i name="version" type="string">5.4.1  </i>
  <i name="subversion" type="string">24Jun15 (build Nov 20 2020 10:29:34) complex                          parallel </i>
  <i name="platform" type="string">IFC91_ompi </i>
  <i name="date" type="string">2021 09 09 </i>
  <i name="time" type="string">14:55:31 </i>
 </generator>
 <incar>
  <i type="string" name="PREC">a</i>
  <i type="string" name="ALGO"> Normal</i>
  <i type="int" name="ISPIN">     1</i>
  <i type="int" name="ICHARG">     2</i>
  <i type="int" name="NELM">   250</i>
  <i type="int" name="NELMDL">    -5</i>
  <i type="int" name="NELMIN">     6</i>
  <i type="int" name="IBRION">     2</i>
  <i name="EDIFF">      0.00001000</i>
  <i name="EDIFFG">     -0.01000000</i>
  <i type="int" name="NSW">   200</i>
  <i type="int" name="ISIF">     2</i>
  <i name="ENCUT">    520.00000000</i>
  <i name="POTIM">      0.30000000</i>
  <i type="logical" name="LREAL"> F  </i>
  <i type="int" name="ISMEAR">     0</i>
  <i name="SIGMA">      0.02000000</i>
  <i type="logical" name="LWAVE"> F  </i>
  <i type="logical" name="LCHARG"> F  </i>
  <i type="logical" name="LAECHG"> F  </i>
  <v type="int" name="KPOINT_BSE">    -1     0     0     0</v>
  <i type="int" name="NELM">   250</i>
 </incar>
 <kpoints>
  <generation param="Gamma">
   <v type="int" name="divisions">      15       13        1 </v>
   <v name="usershift">      0.00000000       0.00000000       0.00000000 </v>
   <v name="genvec1">      0.06666667       0.00000000       0.00000000 </v>
   <v name="genvec2">      0.00000000       0.07692308       0.00000000 </v>
   <v name="genvec3">      0.00000000       0.00000000       1.00000000 </v>
   <v name="shift">      0.00000000       0.00000000       0.00000000 </v>
  </generation>
  <varray name="kpointlist" >
   <v>       0.00000000       0.00000000       0.00000000 </v>
   <v>       0.06666667       0.00000000       0.00000000 </v>
   <v>       0.13333333       0.00000000       0.00000000 </v>
   <v>       0.20000000       0.00000000       0.00000000 </v>
   <v>       0.26666667       0.00000000       0.00000000 </v>
   <v>       0.33333333       0.00000000       0.00000000 </v>
   <v>       0.40000000       0.00000000       0.00000000 </v>
   <v>       0.46666667       0.00000000       0.00000000 </v>
   <v>       0.00000000       0.07692308       0.00000000 </v>
   <v>       0.06666667       0.07692308       0.00000000 </v>
   <v>       0.13333333       0.07692308       0.00000000 </v>
   <v>       0.20000000       0.07692308       0.00000000 </v>
   <v>       0.26666667       0.07692308       0.00000000 </v>
   <v>       0.33333333       0.07692308       0.00000000 </v>
   <v>       0.40000000       0.07692308       0.00000000 </v>
   <v>       0.46666667       0.07692308       0.00000000 </v>
   <v>       0.00000000       0.15384615       0.00000000 </v>
   <v>       0.06666667       0.15384615       0.00000000 </v>
   <v>       0.13333333       0.15384615       0.00000000 </v>
   <v>       0.20000000       0.15384615       0.00000000 </v>
   <v>       0.26666667       0.15384615       0.00000000 </v>
   <v>       0.33333333       0.15384615       0.00000000 </v>
   <v>       0.40000000       0.15384615       0.00000000 </v>
   <v>       0.46666667       0.15384615       0.00000000 </v>
   <v>       0.00000000       0.23076923       0.00000000 </v>
   <v>       0.06666667       0.23076923       0.00000000 </v>
   <v>       0.13333333       0.23076923       0.00000000 </v>
   <v>       0.20000000       0.23076923       0.00000000 </v>
   <v>       0.26666667       0.23076923       0.00000000 </v>
   <v>       0.33333333       0.23076923       0.00000000 </v>
   <v>       0.40000000       0.23076923       0.00000000 </v>
   <v>       0.46666667       0.23076923       0.00000000 </v>
   <v>       0.00000000       0.30769231       0.00000000 </v>
   <v>       0.06666667       0.30769231       0.00000000 </v>
   <v>       0.13333333       0.30769231       0.00000000 </v>
   <v>       0.20000000       0.30769231       0.00000000 </v>
   <v>       0.26666667       0.30769231       0.00000000 </v>
   <v>       0.33333333       0.30769231       0.00000000 </v>
   <v>       0.40000000       0.30769231       0.00000000 </v>
   <v>       0.46666667       0.30769231       0.00000000 </v>
   <v>       0.00000000       0.38461538       0.00000000 </v>
   <v>       0.06666667       0.38461538       0.00000000 </v>
   <v>       0.13333333       0.38461538       0.00000000 </v>
   <v>       0.20000000       0.38461538       0.00000000 </v>
   <v>       0.26666667       0.38461538       0.00000000 </v>
   <v>       0.33333333       0.38461538       0.00000000 </v>
   <v>       0.40000000       0.38461538       0.00000000 </v>
   <v>       0.46666667       0.38461538       0.00000000 </v>
   <v>       0.00000000       0.46153846       0.00000000 </v>
   <v>       0.06666667       0.46153846       0.00000000 </v>
   <v>       0.13333333       0.46153846       0.00000000 </v>
   <v>       0.20000000       0.46153846       0.00000000 </v>
   <v>       0.26666667       0.46153846       0.00000000 </v>
   <v>       0.33333333       0.46153846       0.00000000 </v>
   <v>       0.40000000       0.46153846       0.00000000 </v>
   <v>       0.46666667       0.46153846       0.00000000 </v>
  </varray>
  <varray name="weights" >
   <v>       0.00512821 </v>
   <v>       0.01025641 </v>
   <v>       0.01025641 </v>
   <v>       0.01025641 </v>
   <v>       0.01025641 </v>
   <v>       0.01025641 </v>
   <v>       0.01025641 </v>
   <v>       0.01025641 </v>
   <v>       0.01025641 </v>
   <v>       0.02051282 </v>
   <v>       0.02051282 </v>
   <v>       0.02051282 </v>
   <v>       0.02051282 </v>
   <v>       0.02051282 </v>
   <v>       0.02051282 </v>
   <v>       0.02051282 </v>
   <v>       0.01025641 </v>
   <v>       0.02051282 </v>
   <v>       0.02051282 </v>
   <v>       0.02051282 </v>
   <v>       0.02051282 </v>
   <v>       0.02051282 </v>
   <v>       0.02051282 </v>
   <v>       0.02051282 </v>
   <v>       0.01025641 </v>
   <v>       0.02051282 </v>
   <v>       0.02051282 </v>
   <v>       0.02051282 </v>
   <v>       0.02051282 </v>
   <v>       0.02051282 </v>
   <v>       0.02051282 </v>
   <v>       0.02051282 </v>
   <v>       0.01025641 </v>
   <v>       0.02051282 </v>
   <v>       0.02051282 </v>
   <v>       0.02051282 </v>
   <v>       0.02051282 </v>
   <v>       0.02051282 </v>
   <v>       0.02051282 </v>
   <v>       0.02051282 </v>
   <v>       0.01025641 </v>
   <v>       0.02051282 </v>
   <v>       0.02051282 </v>
   <v>       0.02051282 </v>
   <v>       0.02051282 </v>
   <v>       0.02051282 </v>
   <v>       0.02051282 </v>
   <v>       0.02051282 </v>
   <v>       0.01025641 </v>
   <v>       0.02051282 </v>
   <v>       0.02051282 </v>
   <v>       0.02051282 </v>
   <v>       0.02051282 </v>
   <v>       0.02051282 </v>
   <v>       0.02051282 </v>
   <v>       0.02051282 </v>
  </varray>
 </kpoints>
 <parameters>
  <separator name="general" >
   <i type="string" name="SYSTEM">unknown system</i>
   <i type="logical" name="LCOMPAT"> F  </i>
  </separator>
  <separator name="electronic" >
   <i type="string" name="PREC">a</i>
   <i name="ENMAX">    520.00000000</i>
   <i name="ENAUG">    531.35600000</i>
   <i name="EDIFF">      0.00001000</i>
   <i type="int" name="IALGO">    38</i>
   <i type="int" name="IWAVPR">    11</i>
   <i type="int" name="NBANDS">    32</i>
   <i name="NELECT">     52.00000000</i>
   <i type="int" name="TURBO">     0</i>
   <i type="int" name="IRESTART">     0</i>
   <i type="int" name="NREBOOT">     0</i>
   <i type="int" name="NMIN">     0</i>
   <i name="EREF">      0.00000000</i>
   <separator name="electronic smearing" >
    <i type="int" name="ISMEAR">     0</i>
    <i name="SIGMA">      0.02000000</i>
    <i name="KSPACING">      0.50000000</i>
    <i type="logical" name="KGAMMA"> T  </i>
   </separator>
   <separator name="electronic projectors" >
    <i type="logical" name="LREAL"> F  </i>
    <v name="ROPT">      0.00000000      0.00000000</v>
    <i type="int" name="LMAXPAW">  -100</i>
    <i type="int" name="LMAXMIX">     2</i>
    <i type="logical" name="NLSPLINE"> F  </i>
   </separator>
   <separator name="electronic startup" >
    <i type="int" name="ISTART">     0</i>
    <i type="int" name="ICHARG">     2</i>
    <i type="int" name="INIWAV">     1</i>
   </separator>
   <separator name="electronic spin" >
    <i type="int" name="ISPIN">     1</i>
    <i type="logical" name="LNONCOLLINEAR"> F  </i>
    <v name="MAGMOM">      1.00000000      1.00000000      1.00000000      1.00000000      1.00000000      1.00000000</v>
    <i name="NUPDOWN">     -1.00000000</i>
    <i type="logical" name="LSORBIT"> F  </i>
    <v name="SAXIS">      0.00000000      0.00000000      1.00000000</v>
    <i type="logical" name="LSPIRAL"> F  </i>
    <v name="QSPIRAL">      0.00000000      0.00000000      0.00000000</v>
    <i type="logical" name="LZEROZ"> F  </i>
   </separator>
   <separator name="electronic exchange-correlation" >
    <i type="logical" name="LASPH"> F  </i>
    <i type="logical" name="LMETAGGA"> F  </i>
   </separator>
   <separator name="electronic convergence" >
    <i type="int" name="NELM">   250</i>
    <i type="int" name="NELMDL">    -5</i>
    <i type="int" name="NELMIN">     6</i>
    <i name="ENINI">    520.00000000</i>
    <separator name="electronic convergence detail" >
     <i type="logical" name="LDIAG"> T  </i>
     <i type="logical" name="LSUBROT"> F  </i>
     <i name="WEIMIN">      0.00100000</i>
     <i name="EBREAK">      0.00000008</i>
     <i name="DEPER">      0.30000000</i>
     <i type="int" name="NRMM">     4</i>
     <i name="TIME">      0.40000000</i>
    </separator>
   </separator>
   <separator name="electronic mixer" >
    <i name="AMIX">      0.40000000</i>
    <i name="BMIX">      1.00000000</i>
    <i name="AMIN">      0.10000000</i>
    <i name="AMIX_MAG">      1.60000000</i>
    <i name="BMIX_MAG">      1.00000000</i>
    <separator name="electronic mixer details" >
     <i type="int" name="IMIX">     4</i>
     <i type="logical" name="MIXFIRST"> F  </i>
     <i type="int" name="MAXMIX">   -45</i>
     <i name="WC">    100.00000000</i>
     <i type="int" name="INIMIX">     1</i>
     <i type="int" name="MIXPRE">     1</i>
     <i type="int" name="MREMOVE">     5</i>
    </separator>
   </separator>
   <separator name="electronic dipolcorrection" >
    <i type="logical" name="LDIPOL"> F  </i>
    <i type="logical" name="LMONO"> F  </i>
    <i type="int" name="IDIPOL">     0</i>
    <i name="EPSILON">      1.00000000</i>
    <v name="DIPOL">   -100.00000000   -100.00000000   -100.00000000</v>
    <i name="EFIELD">      0.00000000</i>
   </separator>
  </separator>
  <separator name="grids" >
   <i type="int" name="NGX">    40</i>
   <i type="int" name="NGY">    42</i>
   <i type="int" name="NGZ">   140</i>
   <i type="int" name="NGXF">    80</i>
   <i type="int" name="NGYF">    84</i>
   <i type="int" name="NGZF">   280</i>
   <i type="logical" name="ADDGRID"> F  </i>
  </separator>
  <separator name="ionic" >
   <i type="int" name="NSW">   200</i>
   <i type="int" name="IBRION">     2</i>
   <i type="int" name="ISIF">     2</i>
   <i name="PSTRESS">      0.00000000</i>
   <i name="EDIFFG">     -0.01000000</i>
   <i type="int" name="NFREE">     1</i>
   <i name="POTIM">      0.30000000</i>
   <i name="SMASS">     -3.00000000</i>
   <i name="SCALEE">      1.00000000</i>
  </separator>
  <separator name="ionic md" >
   <i name="TEBEG">      0.00010000</i>
   <i name="TEEND">      0.00010000</i>
   <i type="int" name="NBLOCK">     1</i>
   <i type="int" name="KBLOCK">   200</i>
   <i type="int" name="NPACO">   256</i>
   <i name="APACO">     16.00000000</i>
  </separator>
  <separator name="symmetry" >
   <i type="int" name="ISYM">     2</i>
   <i name="SYMPREC">      0.00001000</i>
  </separator>
  <separator name="dos" >
   <i type="logical" name="LORBIT"> F  </i>
   <v name="RWIGS">     -1.00000000     -1.00000000</v>
   <i type="int" name="NEDOS">   301</i>
   <i name="EMIN">     10.00000000</i>
   <i name="EMAX">    -10.00000000</i>
   <i name="EFERMI">      0.00000000</i>
  </separator>
  <separator name="writing" >
   <i type="int" name="NWRITE">     2</i>
   <i type="logical" name="LWAVE"> F  </i>
   <i type="logical" name="LCHARG"> F  </i>
   <i type="logical" name="LPARD"> F  </i>
   <i type="logical" name="LVTOT"> F  </i>
   <i type="logical" name="LVHAR"> F  </i>
   <i type="logical" name="LELF"> F  </i>
   <i type="logical" name="LOPTICS"> F  </i>
   <v name="STM">      0.00000000      0.00000000      0.00000000      0.00000000      0.00000000      0.00000000      0.00000000</v>
  </separator>
  <separator name="performance" >
   <i type="int" name="NPAR">     4</i>
   <i type="int" name="NSIM">     4</i>
   <i type="int" name="NBLK">    -1</i>
   <i type="logical" name="LPLANE"> T  </i>
   <i type="logical" name="LSCALAPACK"> T  </i>
   <i type="logical" name="LSCAAWARE"> F  </i>
   <i type="logical" name="LSCALU"> F  </i>
   <i type="logical" name="LASYNC"> F  </i>
   <i type="logical" name="LORBITALREAL"> F  </i>
  </separator>
  <separator name="miscellaneous" >
   <i type="int" name="IDIOT">     3</i>
   <i type="logical" name="LMUSIC"> F  </i>
   <v name="POMASS">     72.61000000     78.96000000</v>
   <v name="DARWINR">      0.00000000      0.00000000</v>
   <v name="DARWINV">      1.00000000      1.00000000</v>
   <i type="logical" name="LCORR"> T  </i>
  </separator>
  <i type="logical" name="GGA_COMPAT"> T  </i>
  <i type="logical" name="LBERRY"> F  </i>
  <i type="int" name="ICORELEVEL">     0</i>
  <i type="logical" name="LDAU"> F  </i>
  <i type="int" name="I_CONSTRAINED_M">     0</i>
  <separator name="electronic exchange-correlation" >
   <i type="string" name="GGA">--</i>
   <i type="int" name="VOSKOWN">     0</i>
   <i type="logical" name="LHFCALC"> F  </i>
   <i type="string" name="PRECFOCK"></i>
   <i type="logical" name="LSYMGRAD"> F  </i>
   <i type="logical" name="LHFONE"> F  </i>
   <i type="logical" name="LRHFCALC"> F  </i>
   <i type="logical" name="LTHOMAS"> F  </i>
   <i type="logical" name="LMODELHF"> F  </i>
   <i name="ENCUT4O">     -1.00000000</i>
   <i type="int" name="EXXOEP">     0</i>
   <i type="int" name="FOURORBIT">     0</i>
   <i name="AEXX">      0.00000000</i>
   <i name="HFALPHA">      0.00000000</i>
   <i name="MCALPHA">      0.00000000</i>
   <i name="ALDAX">      1.00000000</i>
   <i name="AGGAX">      1.00000000</i>
   <i name="ALDAC">      1.00000000</i>
   <i name="AGGAC">      1.00000000</i>
   <i type="int" name="NKREDX">     1</i>
   <i type="int" name="NKREDY">     1</i>
   <i type="int" name="NKREDZ">     1</i>
   <i type="logical" name="SHIFTRED"> F  </i>
   <i type="logical" name="ODDONLY"> F  </i>
   <i type="logical" name="EVENONLY"> F  </i>
   <i type="int" name="LMAXFOCK">     0</i>
   <i type="int" name="NMAXFOCKAE">     0</i>
   <i type="logical" name="LFOCKAEDFT"> F  </i>
   <i name="HFSCREEN">      0.00000000</i>
   <i name="HFSCREENC">      0.00000000</i>
   <i type="int" name="NBANDSGWLOW">     0</i>
  </separator>
  <separator name="vdW DFT" >
   <i type="logical" name="LUSE_VDW"> F  </i>
   <i name="Zab_VDW">     -0.84910000</i>
   <i name="PARAM1">      0.12340000</i>
   <i name="PARAM2">      1.00000000</i>
   <i name="PARAM3">      0.00000000</i>
  </separator>
  <separator name="model GW" >
   <i type="int" name="MODEL_GW">     0</i>
   <i name="MODEL_EPS0">     49.66212691</i>
   <i name="MODEL_ALPHA">      1.00000000</i>
  </separator>
  <separator name="linear response parameters" >
   <i type="logical" name="LEPSILON"> F  </i>
   <i type="logical" name="LRPA"> F  </i>
   <i type="logical" name="LNABLA"> F  </i>
   <i type="logical" name="LVEL"> F  </i>
   <i type="int" name="KINTER">     0</i>
   <i name="CSHIFT">      0.10000000</i>
   <i name="OMEGAMAX">     -1.00000000</i>
   <i name="DEG_THRESHOLD">      0.00200000</i>
  </separator>
  <separator name="orbital magnetization" >
   <i type="logical" name="NUCIND"> F  </i>
   <v name="MAGPOS">      0.00000000      0.00000000      0.00000000</v>
   <i type="logical" name="LNICSALL"> T  </i>
   <i type="logical" name="ORBITALMAG"> F  </i>
   <i type="logical" name="LMAGBLOCH"> F  </i>
   <i type="logical" name="LCHIMAG"> F  </i>
   <i type="logical" name="LGAUGE"> T  </i>
   <i type="int" name="MAGATOM">     0</i>
   <v name="MAGDIPOL">      0.00000000      0.00000000      0.00000000</v>
   <v name="AVECCONST">      0.00000000      0.00000000      0.00000000</v>
  </separator>
  <separator name="response functions" >
   <i type="logical" name="LADDER"> F  </i>
   <i type="logical" name="LFXC"> F  </i>
   <i type="logical" name="LHARTREE"> T  </i>
   <i type="int" name="IBSE">     0</i>
   <v type="int" name="KPOINT">    -1     0     0     0</v>
   <i type="logical" name="LTCTE"> F  </i>
   <i type="logical" name="LTETE"> F  </i>
   <i type="logical" name="LTRIPLET"> F  </i>
   <i type="logical" name="LFXCEPS"> F  </i>
   <i type="logical" name="LFXHEG"> F  </i>
   <i type="int" name="NATURALO">     0</i>
   <i type="logical" name="L2ORDER"> F  </i>
   <i type="logical" name="LUSEW"> F  </i>
   <i name="ENCUTGW">     -2.00000000</i>
   <i name="ENCUTGWSOFT">     -2.00000000</i>
   <i name="ENCUTLF">     -1.00000000</i>
   <i type="int" name="LMAXMP2">    -1</i>
   <i name="SCISSOR">      0.00000000</i>
   <i type="int" name="NOMEGA">     0</i>
   <i type="int" name="NOMEGAR">     0</i>
   <i type="int" name="NBANDSGW">    -1</i>
   <i type="int" name="NBANDSO">    -1</i>
   <i type="int" name="NBANDSV">    -1</i>
   <i type="int" name="NELM">   250</i>
   <i type="int" name="NELMHF">     1</i>
   <i type="int" name="DIM">     3</i>
   <i type="int" name="ANTIRES">     0</i>
   <i name="OMEGAMAX">    -30.00000000</i>
   <i name="OMEGAMIN">    -30.00000000</i>
   <i name="OMEGATL">   -200.00000000</i>
   <i type="int" name="OMEGAGRID">     0</i>
   <i name="CSHIFT">     -0.10000000</i>
   <i type="logical" name="SELFENERGY"> F  </i>
   <i type="logical" name="LSPECTRAL"> F  </i>
   <i type="logical" name="LSPECTRALGW"> F  </i>
   <i type="logical" name="LSINGLES"> F  </i>
   <i type="logical" name="LFERMIGW"> F  </i>
   <i type="logical" name="ODDONLYGW"> F  </i>
   <i type="logical" name="EVENONLYGW"> F  </i>
   <i type="int" name="NKREDLFX">     1</i>
   <i type="int" name="NKREDLFY">     1</i>
   <i type="int" name="NKREDLFZ">     1</i>
   <i type="int" name="MAXMEM">  1800</i>
   <i type="int" name="TELESCOPE">     0</i>
   <i type="int" name="TAUPAR">     1</i>
   <i type="int" name="OMEGAPAR">    -1</i>
   <i name="LAMBDA">      1.00000000</i>
  </separator>
  <separator name="External order field" >
   <i name="OFIELD_KAPPA">      0.00000000</i>
   <v name="OFIELD_K">      0.00000000      0.00000000      0.00000000</v>
   <i name="OFIELD_Q6_NEAR">      0.00000000</i>
   <i name="OFIELD_Q6_FAR">      0.00000000</i>
   <i name="OFIELD_A">      0.00000000</i>
  </separator>
 </parameters>
 <atominfo>
  <atoms>       6 </atoms>
  <types>       2 </types>
  <array name="atoms" >
   <dimension dim="1">ion</dimension>
   <field type="string">element</field>
   <field type="int">atomtype</field>
   <set>
    <rc><c>Ge</c><c>   1</c></rc>
    <rc><c>Ge</c><c>   1</c></rc>
    <rc><c>Se</c><c>   2</c></rc>
    <rc><c>Se</c><c>   2</c></rc>
    <rc><c>Se</c><c>   2</c></rc>
    <rc><c>Se</c><c>   2</c></rc>
   </set>
  </array>
  <array name="atomtypes" >
   <dimension dim="1">type</dimension>
   <field type="int">atomspertype</field>
   <field type="string">element</field>
   <field>mass</field>
   <field>valence</field>
   <field type="string">pseudopotential</field>
   <set>
    <rc><c>   2</c><c>Ge</c><c>     72.61000000</c><c>     14.00000000</c><c>  PAW_PBE Ge_d 03Jul2007                </c></rc>
    <rc><c>   4</c><c>Se</c><c>     78.96000000</c><c>      6.00000000</c><c>  PAW_PBE Se 06Sep2000                  </c></rc>
   </set>
  </array>
 </atominfo>
 <structure name="initialpos" >
  <crystal>
   <varray name="basis" >
    <v>       4.93054600       0.00000000       0.00000000 </v>
    <v>       0.00000000       5.57120200       0.00000000 </v>
    <v>       0.00000000       0.00000000      18.07929100 </v>
   </varray>
   <i name="volume">    496.62126910 </i>
   <varray name="rec_basis" >
    <v>       0.20281729       0.00000000       0.00000000 </v>
    <v>       0.00000000       0.17949448       0.00000000 </v>
    <v>       0.00000000       0.00000000       0.05531190 </v>
   </varray>
  </crystal>
  <varray name="positions" >
   <v>       0.50000000       0.50000000       0.50000000 </v>
   <v>       0.00000000       0.00000000       0.50000000 </v>
   <v>       0.25000000       0.25000000       0.41502600 </v>
   <v>       0.75000000       0.75000000       0.41502600 </v>
   <v>       0.75000000       0.25000000       0.58497400 </v>
   <v>       0.25000000       0.75000000       0.58497400 </v>
  </varray>
 </structure>
 <calculation>
  <scstep>
   <time name="dav">    1.98    1.98</time>
   <time name="total">    2.02    2.02</time>
   <energy>
    <i name="alphaZ">     46.25463883 </i>
    <i name="ewald">   4946.61438135 </i>
    <i name="hartreedc">  -9733.42867034 </i>
    <i name="XCdc">    142.39633493 </i>
    <i name="pawpsdc">   4514.43351212 </i>
    <i name="pawaedc">  -5329.26418529 </i>
    <i name="eentropy">     -0.00021594 </i>
    <i name="bandstr">   -371.11077895 </i>
    <i name="atom">   6220.98622430 </i>
    <i name="e_fr_energy">    436.88124102 </i>
    <i name="e_wo_entrp">    436.88145696 </i>
    <i name="e_0_energy">    436.88134899 </i>
   </energy>
  </scstep>
  <scstep>
   <time name="dav">    2.09    2.09</time>
   <time name="total">    2.09    2.10</time>
   <energy>
    <i name="e_fr_energy">     45.41659213 </i>
    <i name="e_wo_entrp">     45.41735214 </i>
    <i name="e_0_energy">     45.41697214 </i>
   </energy>
  </scstep>
  <scstep>
   <time name="dav">    2.24    2.25</time>
   <time name="total">    2.24    2.25</time>
   <energy>
    <i name="e_fr_energy">    -21.53251657 </i>
    <i name="e_wo_entrp">    -21.53251657 </i>
    <i name="e_0_energy">    -21.53251657 </i>
   </energy>
  </scstep>
  <scstep>
   <time name="dav">    2.06    2.06</time>
   <time name="total">    2.06    2.06</time>
   <energy>
    <i name="e_fr_energy">    -24.76192427 </i>
    <i name="e_wo_entrp">    -24.76192427 </i>
    <i name="e_0_energy">    -24.76192427 </i>
   </energy>
  </scstep>
  <scstep>
   <time name="dav">    2.39    2.39</time>
   <time name="total">    2.51    2.51</time>
   <energy>
    <i name="e_fr_energy">    -24.86816337 </i>
    <i name="e_wo_entrp">    -24.86816337 </i>
    <i name="e_0_energy">    -24.86816337 </i>
   </energy>
  </scstep>
  <scstep>
   <time name="dav">    2.34    2.34</time>
   <time name="total">    2.48    2.49</time>
   <energy>
    <i name="e_fr_energy">    -24.36471012 </i>
    <i name="e_wo_entrp">    -24.36471012 </i>
    <i name="e_0_energy">    -24.36471012 </i>
   </energy>
  </scstep>
  <scstep>
   <time name="dav">    2.12    2.13</time>
   <time name="total">    2.26    2.27</time>
   <energy>
    <i name="e_fr_energy">    -24.26960324 </i>
    <i name="e_wo_entrp">    -24.26960324 </i>
    <i name="e_0_energy">    -24.26960324 </i>
   </energy>
  </scstep>
  <scstep>
   <time name="dav">    2.22    2.22</time>
   <time name="total">    2.37    2.37</time>
   <energy>
    <i name="e_fr_energy">    -24.26367642 </i>
    <i name="e_wo_entrp">    -24.26367642 </i>
    <i name="e_0_energy">    -24.26367642 </i>
   </energy>
  </scstep>
  <scstep>
   <time name="dav">    2.24    2.24</time>
   <time name="total">    2.38    2.38</time>
   <energy>
    <i name="e_fr_energy">    -24.26317356 </i>
    <i name="e_wo_entrp">    -24.26317356 </i>
    <i name="e_0_energy">    -24.26317356 </i>
   </energy>
  </scstep>
  <scstep>
   <time name="dav">    2.37    2.37</time>
   <time name="total">    2.51    2.51</time>
   <energy>
    <i name="e_fr_energy">    -24.26295013 </i>
    <i name="e_wo_entrp">    -24.26295013 </i>
    <i name="e_0_energy">    -24.26295013 </i>
   </energy>
  </scstep>
  <scstep>
   <time name="dav">    1.93    1.93</time>
   <time name="total">    2.08    2.08</time>
   <energy>
    <i name="e_fr_energy">    -24.26275198 </i>
    <i name="e_wo_entrp">    -24.26275198 </i>
    <i name="e_0_energy">    -24.26275198 </i>
   </energy>
  </scstep>
  <scstep>
   <time name="dav">    1.89    1.89</time>
   <time name="total">    2.04    2.04</time>
   <energy>
    <i name="e_fr_energy">    -24.26288421 </i>
    <i name="e_wo_entrp">    -24.26288421 </i>
    <i name="e_0_energy">    -24.26288421 </i>
   </energy>
  </scstep>
  <scstep>
   <time name="dav">    1.84    1.84</time>
   <time name="total">    1.98    1.99</time>
   <energy>
    <i name="e_fr_energy">    -24.26314734 </i>
    <i name="e_wo_entrp">    -24.26314734 </i>
    <i name="e_0_energy">    -24.26314734 </i>
   </energy>
  </scstep>
  <scstep>
   <time name="dav">    1.74    1.74</time>
   <time name="total">    1.88    1.89</time>
   <energy>
    <i name="e_fr_energy">    -24.26325068 </i>
    <i name="e_wo_entrp">    -24.26325068 </i>
    <i name="e_0_energy">    -24.26325068 </i>
   </energy>
  </scstep>
  <scstep>
   <time name="dav">    1.71    1.71</time>
   <time name="total">    1.85    1.85</time>
   <energy>
    <i name="e_fr_energy">    -24.26330752 </i>
    <i name="e_wo_entrp">    -24.26330752 </i>
    <i name="e_0_energy">    -24.26330752 </i>
   </energy>
  </scstep>
  <scstep>
   <time name="dav">    1.67    1.67</time>
   <time name="total">    1.81    1.81</time>
   <energy>
    <i name="e_fr_energy">    -24.26337050 </i>
    <i name="e_wo_entrp">    -24.26337050 </i>
    <i name="e_0_energy">    -24.26337050 </i>
   </energy>
  </scstep>
  <scstep>
   <time name="dav">    1.53    1.54</time>
   <time name="total">    1.67    1.68</time>
   <energy>
    <i name="e_fr_energy">    -24.26341759 </i>
    <i name="e_wo_entrp">    -24.26341759 </i>
    <i name="e_0_energy">    -24.26341759 </i>
   </energy>
  </scstep>
  <scstep>
   <time name="dav">    1.61    1.61</time>
   <time name="total">    1.75    1.76</time>
   <energy>
    <i name="e_fr_energy">    -24.26344691 </i>
    <i name="e_wo_entrp">    -24.26344691 </i>
    <i name="e_0_energy">    -24.26344691 </i>
   </energy>
  </scstep>
  <scstep>
   <time name="dav">    1.63    1.63</time>
   <time name="total">    1.66    1.66</time>
   <energy>
    <i name="alphaZ">     46.25463883 </i>
    <i name="ewald">   4946.61438135 </i>
    <i name="hartreedc">  -9737.62328934 </i>
    <i name="XCdc">    142.93361389 </i>
    <i name="pawpsdc">   5748.81253676 </i>
    <i name="pawaedc">  -6568.84549787 </i>
    <i name="eentropy">     -0.00000000 </i>
    <i name="bandstr">   -823.39605993 </i>
    <i name="atom">   6220.98622430 </i>
    <i name="e_fr_energy">    -24.26345199 </i>
    <i name="e_wo_entrp">    -24.26345199 </i>
    <i name="e_0_energy">    -24.26345199 </i>
   </energy>
  </scstep>
  <structure>
   <crystal>
    <varray name="basis" >
     <v>       4.93054600       0.00000000       0.00000000 </v>
     <v>       0.00000000       5.57120200       0.00000000 </v>
     <v>       0.00000000       0.00000000      18.07929100 </v>
    </varray>
    <i name="volume">    496.62126910 </i>
    <varray name="rec_basis" >
     <v>       0.20281729       0.00000000       0.00000000 </v>
     <v>       0.00000000       0.17949448       0.00000000 </v>
     <v>       0.00000000       0.00000000       0.05531190 </v>
    </varray>
   </crystal>
   <varray name="positions" >
    <v>       0.50000000       0.50000000       0.50000000 </v>
    <v>       0.00000000       0.00000000       0.50000000 </v>
    <v>       0.25000000       0.25000000       0.41502600 </v>
    <v>       0.75000000       0.75000000       0.41502600 </v>
    <v>       0.75000000       0.25000000       0.58497400 </v>
    <v>       0.25000000       0.75000000       0.58497400 </v>
   </varray>
  </structure>
  <varray name="forces" >
   <v>      -0.00000000       0.00000000       0.00000000 </v>
   <v>      -0.00000000      -0.00000000       0.00000000 </v>
   <v>      -0.00000000      -0.00000000       0.02475777 </v>
   <v>      -0.00000000      -0.00000000       0.02475777 </v>
   <v>       0.00000000      -0.00000000      -0.02475777 </v>
   <v>       0.00000000      -0.00000000      -0.02475777 </v>
  </varray>
  <varray name="stress" >
   <v>      -0.60740590       0.00000000       0.00000000 </v>
   <v>       0.00000000      -0.85717597       0.00000000 </v>
   <v>       0.00000000       0.00000000      -0.53465620 </v>
  </varray>
  <energy>
   <i name="e_fr_energy">    -24.26345199 </i>
   <i name="e_wo_entrp">    -24.26345199 </i>
   <i name="e_0_energy">     -0.00000000 </i>
  </energy>
  <time name="totalsc">   40.87   40.95</time>
 </calculation>
 <calculation>
  <scstep>
   <time name="dav">    1.72    1.72</time>
   <time name="total">    1.86    1.86</time>
   <energy>
    <i name="alphaZ">     46.25463883 </i>
    <i name="ewald">   4948.23975233 </i>
    <i name="hartreedc">  -9739.19701881 </i>
    <i name="XCdc">    142.94016707 </i>
    <i name="pawpsdc">   5748.79742821 </i>
    <i name="pawaedc">  -6568.83041829 </i>
    <i name="eentropy">     -0.00000000 </i>
    <i name="bandstr">   -823.45428121 </i>
    <i name="atom">   6220.98622430 </i>
    <i name="e_fr_energy">    -24.26350756 </i>
    <i name="e_wo_entrp">    -24.26350756 </i>
    <i name="e_0_energy">    -24.26350756 </i>
   </energy>
  </scstep>
  <scstep>
   <time name="dav">    1.94    1.94</time>
   <time name="total">    2.09    2.09</time>
   <energy>
    <i name="e_fr_energy">    -24.26351710 </i>
    <i name="e_wo_entrp">    -24.26351710 </i>
    <i name="e_0_energy">    -24.26351710 </i>
   </energy>
  </scstep>
  <scstep>
   <time name="dav">    1.45    1.45</time>
   <time name="total">    1.59    1.60</time>
   <energy>
    <i name="e_fr_energy">    -24.26351742 </i>
    <i name="e_wo_entrp">    -24.26351742 </i>
    <i name="e_0_energy">    -24.26351742 </i>
   </energy>
  </scstep>
  <scstep>
   <time name="dav">    1.38    1.38</time>
   <time name="total">    1.53    1.53</time>
   <energy>
    <i name="e_fr_energy">    -24.26351807 </i>
    <i name="e_wo_entrp">    -24.26351807 </i>
    <i name="e_0_energy">    -24.26351807 </i>
   </energy>
  </scstep>
  <scstep>
   <time name="dav">    1.43    1.43</time>
   <time name="total">    1.58    1.58</time>
   <energy>
    <i name="e_fr_energy">    -24.26351841 </i>
    <i name="e_wo_entrp">    -24.26351841 </i>
    <i name="e_0_energy">    -24.26351841 </i>
   </energy>
  </scstep>
  <scstep>
   <time name="dav">    1.33    1.33</time>
   <time name="total">    1.36    1.36</time>
   <energy>
    <i name="alphaZ">     46.25463883 </i>
    <i name="ewald">   4948.23975233 </i>
    <i name="hartreedc">  -9739.19597739 </i>
    <i name="XCdc">    142.93932808 </i>
    <i name="pawpsdc">   5750.46995854 </i>
    <i name="pawaedc">  -6570.51419724 </i>
    <i name="eentropy">     -0.00000000 </i>
    <i name="bandstr">   -823.44324595 </i>
    <i name="atom">   6220.98622430 </i>
    <i name="e_fr_energy">    -24.26351849 </i>
    <i name="e_wo_entrp">    -24.26351849 </i>
    <i name="e_0_energy">    -24.26351849 </i>
   </energy>
  </scstep>
  <structure>
   <crystal>
    <varray name="basis" >
     <v>       4.93054600       0.00000000       0.00000000 </v>
     <v>       0.00000000       5.57120200       0.00000000 </v>
     <v>       0.00000000       0.00000000      18.07929100 </v>
    </varray>
    <i name="volume">    496.62126910 </i>
    <varray name="rec_basis" >
     <v>       0.20281729       0.00000000       0.00000000 </v>
     <v>       0.00000000       0.17949448       0.00000000 </v>
     <v>       0.00000000       0.00000000       0.05531190 </v>
    </varray>
   </crystal>
   <varray name="positions" >
    <v>       0.50000000       0.50000000       0.50000000 </v>
    <v>      -0.00000000      -0.00000000       0.50000000 </v>
    <v>       0.25000000       0.25000000       0.41506564 </v>
    <v>       0.75000000       0.75000000       0.41506564 </v>
    <v>       0.75000000       0.25000000       0.58493436 </v>
    <v>       0.25000000       0.75000000       0.58493436 </v>
   </varray>
  </structure>
  <varray name="forces" >
   <v>      -0.00000000       0.00000000      -0.00000000 </v>
   <v>       0.00000000      -0.00000000      -0.00000000 </v>
   <v>       0.00000000      -0.00000000       0.01659348 </v>
   <v>       0.00000000      -0.00000000       0.01659348 </v>
   <v>       0.00000000      -0.00000000      -0.01659348 </v>
   <v>       0.00000000      -0.00000000      -0.01659348 </v>
  </varray>
  <varray name="stress" >
   <v>      -0.57022618       0.00000000       0.00000000 </v>
   <v>       0.00000000      -0.81382320       0.00000000 </v>
   <v>       0.00000000       0.00000000      -0.38421738 </v>
  </varray>
  <energy>
   <i name="e_fr_energy">    -24.26351849 </i>
   <i name="e_wo_entrp">    -24.26351849 </i>
   <i name="e_0_energy">     -0.00000000 </i>
  </energy>
  <time name="totalsc">   11.19   11.22</time>
 </calculation>
 <calculation>
  <scstep>
   <time name="dav">    1.65    1.65</time>
   <time name="total">    1.80    1.80</time>
   <energy>
    <i name="alphaZ">     46.25463883 </i>
    <i name="ewald">   4951.54328055 </i>
    <i name="hartreedc">  -9742.39053433 </i>
    <i name="XCdc">    142.95264022 </i>
    <i name="pawpsdc">   5750.48149126 </i>
    <i name="pawaedc">  -6570.52575932 </i>
    <i name="eentropy">     -0.00000000 </i>
    <i name="bandstr">   -823.56551193 </i>
    <i name="atom">   6220.98622430 </i>
    <i name="e_fr_energy">    -24.26353043 </i>
    <i name="e_wo_entrp">    -24.26353043 </i>
    <i name="e_0_energy">    -24.26353043 </i>
   </energy>
  </scstep>
  <scstep>
   <time name="dav">    1.91    1.92</time>
   <time name="total">    2.05    2.06</time>
   <energy>
    <i name="e_fr_energy">    -24.26356848 </i>
    <i name="e_wo_entrp">    -24.26356848 </i>
    <i name="e_0_energy">    -24.26356848 </i>
   </energy>
  </scstep>
  <scstep>
   <time name="dav">    1.53    1.54</time>
   <time name="total">    1.68    1.68</time>
   <energy>
    <i name="e_fr_energy">    -24.26356836 </i>
    <i name="e_wo_entrp">    -24.26356836 </i>
    <i name="e_0_energy">    -24.26356836 </i>
   </energy>
  </scstep>
  <scstep>
   <time name="dav">    1.44    1.44</time>
   <time name="total">    1.58    1.59</time>
   <energy>
    <i name="e_fr_energy">    -24.26356926 </i>
    <i name="e_wo_entrp">    -24.26356926 </i>
    <i name="e_0_energy">    -24.26356926 </i>
   </energy>
  </scstep>
  <scstep>
   <time name="dav">    1.36    1.36</time>
   <time name="total">    1.51    1.51</time>
   <energy>
    <i name="e_fr_energy">    -24.26356986 </i>
    <i name="e_wo_entrp">    -24.26356986 </i>
    <i name="e_0_energy">    -24.26356986 </i>
   </energy>
  </scstep>
  <scstep>
   <time name="dav">    1.29    1.29</time>
   <time name="total">    1.33    1.33</time>
   <energy>
    <i name="alphaZ">     46.25463883 </i>
    <i name="ewald">   4951.54328055 </i>
    <i name="hartreedc">  -9742.38757096 </i>
    <i name="XCdc">    142.95090985 </i>
    <i name="pawpsdc">   5753.92582728 </i>
    <i name="pawaedc">  -6573.99272056 </i>
    <i name="eentropy">     -0.00000000 </i>
    <i name="bandstr">   -823.54415927 </i>
    <i name="atom">   6220.98622430 </i>
    <i name="e_fr_energy">    -24.26356997 </i>
    <i name="e_wo_entrp">    -24.26356997 </i>
    <i name="e_0_energy">    -24.26356997 </i>
   </energy>
  </scstep>
  <structure>
   <crystal>
    <varray name="basis" >
     <v>       4.93054600       0.00000000       0.00000000 </v>
     <v>       0.00000000       5.57120200       0.00000000 </v>
     <v>       0.00000000       0.00000000      18.07929100 </v>
    </varray>
    <i name="volume">    496.62126910 </i>
    <varray name="rec_basis" >
     <v>       0.20281729       0.00000000       0.00000000 </v>
     <v>       0.00000000       0.17949448       0.00000000 </v>
     <v>       0.00000000       0.00000000       0.05531190 </v>
    </varray>
   </crystal>
   <varray name="positions" >
    <v>       0.50000000       0.50000000       0.50000000 </v>
    <v>      -0.00000000      -0.00000000       0.50000000 </v>
    <v>       0.25000000       0.25000000       0.41514620 </v>
    <v>       0.75000000       0.75000000       0.41514620 </v>
    <v>       0.75000000       0.25000000       0.58485380 </v>
    <v>       0.25000000       0.75000000       0.58485380 </v>
   </varray>
  </structure>
  <varray name="forces" >
   <v>       0.00000000      -0.00000000       0.00000000 </v>
   <v>       0.00000000       0.00000000       0.00000000 </v>
   <v>       0.00000000       0.00000000      -0.00002743 </v>
   <v>       0.00000000       0.00000000      -0.00002743 </v>
   <v>       0.00000000       0.00000000       0.00002743 </v>
   <v>       0.00000000       0.00000000       0.00002743 </v>
  </varray>
  <varray name="stress" >
   <v>      -0.48438128       0.00000000       0.00000000 </v>
   <v>       0.00000000      -0.71504626       0.00000000 </v>
   <v>       0.00000000       0.00000000      -0.06108849 </v>
  </varray>
  <energy>
   <i name="e_fr_energy">    -24.26356997 </i>
   <i name="e_wo_entrp">    -24.26356997 </i>
   <i name="e_0_energy">     -0.00000000 </i>
  </energy>
  <time name="totalsc">   11.06   11.09</time>
  <eigenvalues>
   <array>
    <dimension dim="1">band</dimension>
    <dimension dim="2">kpoint</dimension>
    <dimension dim="3">spin</dimension>
    <field>eigene</field>
    <field>occ</field>
    <set>
     <set comment="spin 1">
      <set comment="kpoint 1">
       <r>  -27.8140    1.0000 </r>
       <r>  -27.8101    1.0000 </r>
       <r>  -27.8075    1.0000 </r>
       <r>  -27.8019    1.0000 </r>
       <r>  -27.8009    1.0000 </r>
       <r>  -27.7882    1.0000 </r>
       <r>  -27.7833    1.0000 </r>
       <r>  -27.7810    1.0000 </r>
       <r>  -27.7680    1.0000 </r>
       <r>  -27.7625    1.0000 </r>
       <r>  -16.9042    1.0000 </r>
       <r>  -15.3969    1.0000 </r>
       <r>  -14.9821    1.0000 </r>
       <r>  -14.7819    1.0000 </r>
       <r>  -11.8091    1.0000 </r>
       <r>   -9.2217    1.0000 </r>
       <r>   -7.4625    1.0000 </r>
       <r>   -5.8954    1.0000 </r>
       <r>   -5.5189    1.0000 </r>
       <r>   -5.4727    1.0000 </r>
       <r>   -5.2565    1.0000 </r>
       <r>   -5.1416    1.0000 </r>
       <r>   -4.6521    1.0000 </r>
       <r>   -4.1620    1.0000 </r>
       <r>   -2.8631    1.0000 </r>
       <r>   -2.8194    1.0000 </r>
       <r>   -1.8738    0.0000 </r>
       <r>   -1.3829    0.0000 </r>
       <r>   -0.9490    0.0000 </r>
       <r>    0.1416    0.0000 </r>
       <r>    0.6486    0.0000 </r>
       <r>    1.9359    0.0000 </r>
      </set>
      <set comment="kpoint 2">
       <r>  -27.8138    1.0000 </r>
       <r>  -27.8100    1.0000 </r>
       <r>  -27.8074    1.0000 </r>
       <r>  -27.8021    1.0000 </r>
       <r>  -27.8009    1.0000 </r>
       <r>  -27.7881    1.0000 </r>
       <r>  -27.7833    1.0000 </r>
       <r>  -27.7813    1.0000 </r>
       <r>  -27.7680    1.0000 </r>
       <r>  -27.7625    1.0000 </r>
       <r>  -16.8877    1.0000 </r>
       <r>  -15.3908    1.0000 </r>
       <r>  -14.9846    1.0000 </r>
       <r>  -14.8206    1.0000 </r>
       <r>  -11.7663    1.0000 </r>
       <r>   -9.2375    1.0000 </r>
       <r>   -7.4610    1.0000 </r>
       <r>   -5.8889    1.0000 </r>
       <r>   -5.6062    1.0000 </r>
       <r>   -5.5492    1.0000 </r>
       <r>   -5.3155    1.0000 </r>
       <r>   -5.0459    1.0000 </r>
       <r>   -4.6490    1.0000 </r>
       <r>   -4.1471    1.0000 </r>
       <r>   -2.9215    1.0000 </r>
       <r>   -2.8489    1.0000 </r>
       <r>   -1.7757    0.0000 </r>
       <r>   -1.3783    0.0000 </r>
       <r>   -0.8396    0.0000 </r>
       <r>    0.1888    0.0000 </r>
       <r>    0.6947    0.0000 </r>
       <r>    1.9647    0.0000 </r>
      </set>
      <set comment="kpoint 3">
       <r>  -27.8134    1.0000 </r>
       <r>  -27.8099    1.0000 </r>
       <r>  -27.8071    1.0000 </r>
       <r>  -27.8025    1.0000 </r>
       <r>  -27.8007    1.0000 </r>
       <r>  -27.7879    1.0000 </r>
       <r>  -27.7835    1.0000 </r>
       <r>  -27.7820    1.0000 </r>
       <r>  -27.7678    1.0000 </r>
       <r>  -27.7627    1.0000 </r>
       <r>  -16.8387    1.0000 </r>
       <r>  -15.3729    1.0000 </r>
       <r>  -14.9922    1.0000 </r>
       <r>  -14.9300    1.0000 </r>
       <r>  -11.6445    1.0000 </r>
       <r>   -9.2867    1.0000 </r>
       <r>   -7.4553    1.0000 </r>
       <r>   -5.8666    1.0000 </r>
       <r>   -5.7574    1.0000 </r>
       <r>   -5.7467    1.0000 </r>
       <r>   -5.4679    1.0000 </r>
       <r>   -4.8733    1.0000 </r>
       <r>   -4.6561    1.0000 </r>
       <r>   -4.1042    1.0000 </r>
       <r>   -3.0728    1.0000 </r>
       <r>   -2.9290    1.0000 </r>
       <r>   -1.5215    0.0000 </r>
       <r>   -1.3539    0.0000 </r>
       <r>   -0.5320    0.0000 </r>
       <r>    0.3208    0.0000 </r>
       <r>    0.8225    0.0000 </r>
       <r>    1.9987    0.0000 </r>
      </set>
      <set comment="kpoint 4">
       <r>  -27.8128    1.0000 </r>
       <r>  -27.8096    1.0000 </r>
       <r>  -27.8067    1.0000 </r>
       <r>  -27.8031    1.0000 </r>
       <r>  -27.8002    1.0000 </r>
       <r>  -27.7876    1.0000 </r>
       <r>  -27.7837    1.0000 </r>
       <r>  -27.7833    1.0000 </r>
       <r>  -27.7675    1.0000 </r>
       <r>  -27.7630    1.0000 </r>
       <r>  -16.7578    1.0000 </r>
       <r>  -15.3444    1.0000 </r>
       <r>  -15.0932    1.0000 </r>
       <r>  -15.0056    1.0000 </r>
       <r>  -11.4596    1.0000 </r>
       <r>   -9.3738    1.0000 </r>
       <r>   -7.4418    1.0000 </r>
       <r>   -6.0080    1.0000 </r>
       <r>   -5.8989    1.0000 </r>
       <r>   -5.8223    1.0000 </r>
       <r>   -5.6616    1.0000 </r>
       <r>   -4.7056    1.0000 </r>
       <r>   -4.6953    1.0000 </r>
       <r>   -4.0376    1.0000 </r>
       <r>   -3.2772    1.0000 </r>
       <r>   -3.0412    1.0000 </r>
       <r>   -1.2871    0.0000 </r>
       <r>   -1.1864    0.0000 </r>
       <r>   -0.0709    0.0000 </r>
       <r>    0.5141    0.0000 </r>
       <r>    1.0000    0.0000 </r>
       <r>    1.8333    0.0000 </r>
      </set>
      <set comment="kpoint 5">
       <r>  -27.8120    1.0000 </r>
       <r>  -27.8092    1.0000 </r>
       <r>  -27.8065    1.0000 </r>
       <r>  -27.8039    1.0000 </r>
       <r>  -27.7993    1.0000 </r>
       <r>  -27.7872    1.0000 </r>
       <r>  -27.7850    1.0000 </r>
       <r>  -27.7839    1.0000 </r>
       <r>  -27.7671    1.0000 </r>
       <r>  -27.7633    1.0000 </r>
       <r>  -16.6464    1.0000 </r>
       <r>  -15.3072    1.0000 </r>
       <r>  -15.2913    1.0000 </r>
       <r>  -15.0254    1.0000 </r>
       <r>  -11.2293    1.0000 </r>
       <r>   -9.5037    1.0000 </r>
       <r>   -7.4143    1.0000 </r>
       <r>   -6.2880    1.0000 </r>
       <r>   -6.0144    1.0000 </r>
       <r>   -5.8495    1.0000 </r>
       <r>   -5.7502    1.0000 </r>
       <r>   -4.7748    1.0000 </r>
       <r>   -4.5643    1.0000 </r>
       <r>   -3.9528    1.0000 </r>
       <r>   -3.5024    1.0000 </r>
       <r>   -3.1667    1.0000 </r>
       <r>   -1.1620    0.0000 </r>
       <r>   -0.8427    0.0000 </r>
       <r>    0.4980    0.0000 </r>
       <r>    0.7398    0.0000 </r>
       <r>    1.1758    0.0000 </r>
       <r>    1.6697    0.0000 </r>
      </set>
      <set comment="kpoint 6">
       <r>  -27.8110    1.0000 </r>
       <r>  -27.8088    1.0000 </r>
       <r>  -27.8065    1.0000 </r>
       <r>  -27.8050    1.0000 </r>
       <r>  -27.7979    1.0000 </r>
       <r>  -27.7870    1.0000 </r>
       <r>  -27.7868    1.0000 </r>
       <r>  -27.7843    1.0000 </r>
       <r>  -27.7666    1.0000 </r>
       <r>  -27.7638    1.0000 </r>
       <r>  -16.5065    1.0000 </r>
       <r>  -15.5078    1.0000 </r>
       <r>  -15.2638    1.0000 </r>
       <r>  -15.0521    1.0000 </r>
       <r>  -10.9696    1.0000 </r>
       <r>   -9.6783    1.0000 </r>
       <r>   -7.3644    1.0000 </r>
       <r>   -6.5578    1.0000 </r>
       <r>   -6.0999    1.0000 </r>
       <r>   -6.0020    1.0000 </r>
       <r>   -5.6479    1.0000 </r>
       <r>   -4.8925    1.0000 </r>
       <r>   -4.4484    1.0000 </r>
       <r>   -3.8554    1.0000 </r>
       <r>   -3.7236    1.0000 </r>
       <r>   -3.2925    1.0000 </r>
       <r>   -0.9814    0.0000 </r>
       <r>   -0.5615    0.0000 </r>
       <r>    0.9643    0.0000 </r>
       <r>    1.1338    0.0000 </r>
       <r>    1.2986    0.0000 </r>
       <r>    1.5465    0.0000 </r>
      </set>
      <set comment="kpoint 7">
       <r>  -27.8098    1.0000 </r>
       <r>  -27.8083    1.0000 </r>
       <r>  -27.8068    1.0000 </r>
       <r>  -27.8061    1.0000 </r>
       <r>  -27.7960    1.0000 </r>
       <r>  -27.7892    1.0000 </r>
       <r>  -27.7862    1.0000 </r>
       <r>  -27.7847    1.0000 </r>
       <r>  -27.7661    1.0000 </r>
       <r>  -27.7643    1.0000 </r>
       <r>  -16.3409    1.0000 </r>
       <r>  -15.7297    1.0000 </r>
       <r>  -15.2171    1.0000 </r>
       <r>  -15.0857    1.0000 </r>
       <r>  -10.6938    1.0000 </r>
       <r>   -9.8945    1.0000 </r>
       <r>   -7.2835    1.0000 </r>
       <r>   -6.7996    1.0000 </r>
       <r>   -6.1547    1.0000 </r>
       <r>   -6.1068    1.0000 </r>
       <r>   -5.5174    1.0000 </r>
       <r>   -5.0393    1.0000 </r>
       <r>   -4.3433    1.0000 </r>
       <r>   -3.9235    1.0000 </r>
       <r>   -3.7501    1.0000 </r>
       <r>   -3.4130    1.0000 </r>
       <r>   -0.7681    0.0000 </r>
       <r>   -0.4101    0.0000 </r>
       <r>    1.1523    0.0000 </r>
       <r>    1.3535    0.0000 </r>
       <r>    1.4312    0.0000 </r>
       <r>    1.4398    0.0000 </r>
      </set>
      <set comment="kpoint 8">
       <r>  -27.8086    1.0000 </r>
       <r>  -27.8077    1.0000 </r>
       <r>  -27.8074    1.0000 </r>
       <r>  -27.8072    1.0000 </r>
       <r>  -27.7939    1.0000 </r>
       <r>  -27.7915    1.0000 </r>
       <r>  -27.7857    1.0000 </r>
       <r>  -27.7852    1.0000 </r>
       <r>  -27.7655    1.0000 </r>
       <r>  -27.7649    1.0000 </r>
       <r>  -16.1529    1.0000 </r>
       <r>  -15.9473    1.0000 </r>
       <r>  -15.1701    1.0000 </r>
       <r>  -15.1256    1.0000 </r>
       <r>  -10.4144    1.0000 </r>
       <r>  -10.1438    1.0000 </r>
       <r>   -7.1645    1.0000 </r>
       <r>   -7.0033    1.0000 </r>
       <r>   -6.1771    1.0000 </r>
       <r>   -6.1632    1.0000 </r>
       <r>   -5.3654    1.0000 </r>
       <r>   -5.2017    1.0000 </r>
       <r>   -4.2300    1.0000 </r>
       <r>   -4.0926    1.0000 </r>
       <r>   -3.6406    1.0000 </r>
       <r>   -3.5284    1.0000 </r>
       <r>   -0.5624    0.0000 </r>
       <r>   -0.4213    0.0000 </r>
       <r>    1.2799    0.0000 </r>
       <r>    1.3583    0.0000 </r>
       <r>    1.3699    0.0000 </r>
       <r>    1.3878    0.0000 </r>
      </set>
      <set comment="kpoint 9">
       <r>  -27.8138    1.0000 </r>
       <r>  -27.8099    1.0000 </r>
       <r>  -27.8075    1.0000 </r>
       <r>  -27.8018    1.0000 </r>
       <r>  -27.8011    1.0000 </r>
       <r>  -27.7881    1.0000 </r>
       <r>  -27.7834    1.0000 </r>
       <r>  -27.7813    1.0000 </r>
       <r>  -27.7680    1.0000 </r>
       <r>  -27.7626    1.0000 </r>
       <r>  -16.8855    1.0000 </r>
       <r>  -15.3883    1.0000 </r>
       <r>  -15.0320    1.0000 </r>
       <r>  -14.7910    1.0000 </r>
       <r>  -11.7466    1.0000 </r>
       <r>   -9.2404    1.0000 </r>
       <r>   -7.4493    1.0000 </r>
       <r>   -5.9199    1.0000 </r>
       <r>   -5.5312    1.0000 </r>
       <r>   -5.5102    1.0000 </r>
       <r>   -5.3400    1.0000 </r>
       <r>   -5.1061    1.0000 </r>
       <r>   -4.6484    1.0000 </r>
       <r>   -4.1321    1.0000 </r>
       <r>   -2.8926    1.0000 </r>
       <r>   -2.8889    1.0000 </r>
       <r>   -1.7576    0.0000 </r>
       <r>   -1.3602    0.0000 </r>
       <r>   -0.8196    0.0000 </r>
       <r>    0.1604    0.0000 </r>
       <r>    0.6826    0.0000 </r>
       <r>    1.9631    0.0000 </r>
      </set>
      <set comment="kpoint 10">
       <r>  -27.8137    1.0000 </r>
       <r>  -27.8099    1.0000 </r>
       <r>  -27.8074    1.0000 </r>
       <r>  -27.8019    1.0000 </r>
       <r>  -27.8010    1.0000 </r>
       <r>  -27.7881    1.0000 </r>
       <r>  -27.7834    1.0000 </r>
       <r>  -27.7816    1.0000 </r>
       <r>  -27.7679    1.0000 </r>
       <r>  -27.7626    1.0000 </r>
       <r>  -16.8693    1.0000 </r>
       <r>  -15.3823    1.0000 </r>
       <r>  -15.0381    1.0000 </r>
       <r>  -14.8232    1.0000 </r>
       <r>  -11.7078    1.0000 </r>
       <r>   -9.2578    1.0000 </r>
       <r>   -7.4448    1.0000 </r>
       <r>   -5.9264    1.0000 </r>
       <r>   -5.6659    1.0000 </r>
       <r>   -5.5799    1.0000 </r>
       <r>   -5.3114    1.0000 </r>
       <r>   -5.0162    1.0000 </r>
       <r>   -4.6529    1.0000 </r>
       <r>   -4.1182    1.0000 </r>
       <r>   -3.0263    1.0000 </r>
       <r>   -2.8259    1.0000 </r>
       <r>   -1.7164    0.0000 </r>
       <r>   -1.3545    0.0000 </r>
       <r>   -0.6876    0.0000 </r>
       <r>    0.2058    0.0000 </r>
       <r>    0.7277    0.0000 </r>
       <r>    1.9374    0.0000 </r>
      </set>
      <set comment="kpoint 11">
       <r>  -27.8134    1.0000 </r>
       <r>  -27.8097    1.0000 </r>
       <r>  -27.8071    1.0000 </r>
       <r>  -27.8023    1.0000 </r>
       <r>  -27.8008    1.0000 </r>
       <r>  -27.7879    1.0000 </r>
       <r>  -27.7836    1.0000 </r>
       <r>  -27.7822    1.0000 </r>
       <r>  -27.7677    1.0000 </r>
       <r>  -27.7628    1.0000 </r>
       <r>  -16.8207    1.0000 </r>
       <r>  -15.3650    1.0000 </r>
       <r>  -15.0647    1.0000 </r>
       <r>  -14.9060    1.0000 </r>
       <r>  -11.5969    1.0000 </r>
       <r>   -9.3114    1.0000 </r>
       <r>   -7.4305    1.0000 </r>
       <r>   -5.9573    1.0000 </r>
       <r>   -5.9099    1.0000 </r>
       <r>   -5.6774    1.0000 </r>
       <r>   -5.3590    1.0000 </r>
       <r>   -4.8485    1.0000 </r>
       <r>   -4.6714    1.0000 </r>
       <r>   -4.0770    1.0000 </r>
       <r>   -3.2082    1.0000 </r>
       <r>   -2.8418    1.0000 </r>
       <r>   -1.5680    0.0000 </r>
       <r>   -1.3277    0.0000 </r>
       <r>   -0.3444    0.0000 </r>
       <r>    0.3320    0.0000 </r>
       <r>    0.8535    0.0000 </r>
       <r>    1.8144    0.0000 </r>
      </set>
      <set comment="kpoint 12">
       <r>  -27.8129    1.0000 </r>
       <r>  -27.8093    1.0000 </r>
       <r>  -27.8069    1.0000 </r>
       <r>  -27.8028    1.0000 </r>
       <r>  -27.8003    1.0000 </r>
       <r>  -27.7875    1.0000 </r>
       <r>  -27.7843    1.0000 </r>
       <r>  -27.7831    1.0000 </r>
       <r>  -27.7674    1.0000 </r>
       <r>  -27.7630    1.0000 </r>
       <r>  -16.7408    1.0000 </r>
       <r>  -15.3375    1.0000 </r>
       <r>  -15.1532    1.0000 </r>
       <r>  -14.9841    1.0000 </r>
       <r>  -11.4273    1.0000 </r>
       <r>   -9.4050    1.0000 </r>
       <r>   -7.4046    1.0000 </r>
       <r>   -6.1695    1.0000 </r>
       <r>   -6.0267    1.0000 </r>
       <r>   -5.7093    1.0000 </r>
       <r>   -5.5016    1.0000 </r>
       <r>   -4.7204    1.0000 </r>
       <r>   -4.6850    1.0000 </r>
       <r>   -4.0101    1.0000 </r>
       <r>   -3.4102    1.0000 </r>
       <r>   -2.9232    1.0000 </r>
       <r>   -1.3108    0.0000 </r>
       <r>   -1.2596    0.0000 </r>
       <r>    0.1259    0.0000 </r>
       <r>    0.5148    0.0000 </r>
       <r>    1.0315    0.0000 </r>
       <r>    1.6542    0.0000 </r>
      </set>
      <set comment="kpoint 13">
       <r>  -27.8122    1.0000 </r>
       <r>  -27.8088    1.0000 </r>
       <r>  -27.8069    1.0000 </r>
       <r>  -27.8035    1.0000 </r>
       <r>  -27.7994    1.0000 </r>
       <r>  -27.7871    1.0000 </r>
       <r>  -27.7856    1.0000 </r>
       <r>  -27.7836    1.0000 </r>
       <r>  -27.7670    1.0000 </r>
       <r>  -27.7634    1.0000 </r>
       <r>  -16.6309    1.0000 </r>
       <r>  -15.3200    1.0000 </r>
       <r>  -15.3016    1.0000 </r>
       <r>  -15.0244    1.0000 </r>
       <r>  -11.2144    1.0000 </r>
       <r>   -9.5420    1.0000 </r>
       <r>   -7.3639    1.0000 </r>
       <r>   -6.4123    1.0000 </r>
       <r>   -6.1063    1.0000 </r>
       <r>   -5.6882    1.0000 </r>
       <r>   -5.6791    1.0000 </r>
       <r>   -4.8107    1.0000 </r>
       <r>   -4.5488    1.0000 </r>
       <r>   -3.9211    1.0000 </r>
       <r>   -3.6105    1.0000 </r>
       <r>   -3.0430    1.0000 </r>
       <r>   -1.1369    0.0000 </r>
       <r>   -0.9988    0.0000 </r>
       <r>    0.6631    0.0000 </r>
       <r>    0.7240    0.0000 </r>
       <r>    1.2140    0.0000 </r>
       <r>    1.5111    0.0000 </r>
      </set>
      <set comment="kpoint 14">
       <r>  -27.8113    1.0000 </r>
       <r>  -27.8083    1.0000 </r>
       <r>  -27.8072    1.0000 </r>
       <r>  -27.8043    1.0000 </r>
       <r>  -27.7980    1.0000 </r>
       <r>  -27.7875    1.0000 </r>
       <r>  -27.7866    1.0000 </r>
       <r>  -27.7841    1.0000 </r>
       <r>  -27.7666    1.0000 </r>
       <r>  -27.7638    1.0000 </r>
       <r>  -16.4930    1.0000 </r>
       <r>  -15.5216    1.0000 </r>
       <r>  -15.2599    1.0000 </r>
       <r>  -15.0557    1.0000 </r>
       <r>  -10.9721    1.0000 </r>
       <r>   -9.7220    1.0000 </r>
       <r>   -7.3040    1.0000 </r>
       <r>   -6.6270    1.0000 </r>
       <r>   -6.1646    1.0000 </r>
       <r>   -5.8718    1.0000 </r>
       <r>   -5.6092    1.0000 </r>
       <r>   -4.9378    1.0000 </r>
       <r>   -4.4378    1.0000 </r>
       <r>   -3.8159    1.0000 </r>
       <r>   -3.7963    1.0000 </r>
       <r>   -3.1788    1.0000 </r>
       <r>   -0.9648    0.0000 </r>
       <r>   -0.7104    0.0000 </r>
       <r>    0.9274    0.0000 </r>
       <r>    1.1961    0.0000 </r>
       <r>    1.3502    0.0000 </r>
       <r>    1.4415    0.0000 </r>
      </set>
      <set comment="kpoint 15">
       <r>  -27.8104    1.0000 </r>
       <r>  -27.8078    1.0000 </r>
       <r>  -27.8076    1.0000 </r>
       <r>  -27.8051    1.0000 </r>
       <r>  -27.7962    1.0000 </r>
       <r>  -27.7896    1.0000 </r>
       <r>  -27.7861    1.0000 </r>
       <r>  -27.7845    1.0000 </r>
       <r>  -27.7660    1.0000 </r>
       <r>  -27.7643    1.0000 </r>
       <r>  -16.3301    1.0000 </r>
       <r>  -15.7342    1.0000 </r>
       <r>  -15.2152    1.0000 </r>
       <r>  -15.0894    1.0000 </r>
       <r>  -10.7126    1.0000 </r>
       <r>   -9.9397    1.0000 </r>
       <r>   -7.2206    1.0000 </r>
       <r>   -6.8136    1.0000 </r>
       <r>   -6.1902    1.0000 </r>
       <r>   -6.0216    1.0000 </r>
       <r>   -5.5092    1.0000 </r>
       <r>   -5.0868    1.0000 </r>
       <r>   -4.3374    1.0000 </r>
       <r>   -3.9625    1.0000 </r>
       <r>   -3.7003    1.0000 </r>
       <r>   -3.3164    1.0000 </r>
       <r>   -0.7691    0.0000 </r>
       <r>   -0.5259    0.0000 </r>
       <r>    1.0971    0.0000 </r>
       <r>    1.3283    0.0000 </r>
       <r>    1.4167    0.0000 </r>
       <r>    1.5093    0.0000 </r>
      </set>
      <set comment="kpoint 16">
       <r>  -27.8095    1.0000 </r>
       <r>  -27.8086    1.0000 </r>
       <r>  -27.8068    1.0000 </r>
       <r>  -27.8060    1.0000 </r>
       <r>  -27.7941    1.0000 </r>
       <r>  -27.7918    1.0000 </r>
       <r>  -27.7856    1.0000 </r>
       <r>  -27.7850    1.0000 </r>
       <r>  -27.7655    1.0000 </r>
       <r>  -27.7649    1.0000 </r>
       <r>  -16.1458    1.0000 </r>
       <r>  -15.9451    1.0000 </r>
       <r>  -15.1703    1.0000 </r>
       <r>  -15.1278    1.0000 </r>
       <r>  -10.4466    1.0000 </r>
       <r>  -10.1851    1.0000 </r>
       <r>   -7.1110    1.0000 </r>
       <r>   -6.9748    1.0000 </r>
       <r>   -6.1783    1.0000 </r>
       <r>   -6.1238    1.0000 </r>
       <r>   -5.3843    1.0000 </r>
       <r>   -5.2404    1.0000 </r>
       <r>   -4.2309    1.0000 </r>
       <r>   -4.1073    1.0000 </r>
       <r>   -3.5779    1.0000 </r>
       <r>   -3.4499    1.0000 </r>
       <r>   -0.5926    0.0000 </r>
       <r>   -0.4925    0.0000 </r>
       <r>    1.2241    0.0000 </r>
       <r>    1.3116    0.0000 </r>
       <r>    1.4269    0.0000 </r>
       <r>    1.4269    0.0000 </r>
      </set>
      <set comment="kpoint 17">
       <r>  -27.8135    1.0000 </r>
       <r>  -27.8096    1.0000 </r>
       <r>  -27.8073    1.0000 </r>
       <r>  -27.8015    1.0000 </r>
       <r>  -27.8013    1.0000 </r>
       <r>  -27.7879    1.0000 </r>
       <r>  -27.7835    1.0000 </r>
       <r>  -27.7823    1.0000 </r>
       <r>  -27.7677    1.0000 </r>
       <r>  -27.7628    1.0000 </r>
       <r>  -16.8299    1.0000 </r>
       <r>  -15.3627    1.0000 </r>
       <r>  -15.1691    1.0000 </r>
       <r>  -14.8178    1.0000 </r>
       <r>  -11.5723    1.0000 </r>
       <r>   -9.2992    1.0000 </r>
       <r>   -7.4087    1.0000 </r>
       <r>   -5.9819    1.0000 </r>
       <r>   -5.6809    1.0000 </r>
       <r>   -5.5515    1.0000 </r>
       <r>   -5.4820    1.0000 </r>
       <r>   -5.0101    1.0000 </r>
       <r>   -4.6576    1.0000 </r>
       <r>   -4.0484    1.0000 </r>
       <r>   -3.0600    1.0000 </r>
       <r>   -2.9666    1.0000 </r>
       <r>   -1.4660    0.0000 </r>
       <r>   -1.2892    0.0000 </r>
       <r>   -0.4615    0.0000 </r>
       <r>    0.2148    0.0000 </r>
       <r>    0.7763    0.0000 </r>
       <r>    1.8845    0.0000 </r>
      </set>
      <set comment="kpoint 18">
       <r>  -27.8134    1.0000 </r>
       <r>  -27.8095    1.0000 </r>
       <r>  -27.8073    1.0000 </r>
       <r>  -27.8015    1.0000 </r>
       <r>  -27.8013    1.0000 </r>
       <r>  -27.7878    1.0000 </r>
       <r>  -27.7837    1.0000 </r>
       <r>  -27.7824    1.0000 </r>
       <r>  -27.7677    1.0000 </r>
       <r>  -27.7628    1.0000 </r>
       <r>  -16.8141    1.0000 </r>
       <r>  -15.3574    1.0000 </r>
       <r>  -15.1775    1.0000 </r>
       <r>  -14.8404    1.0000 </r>
       <r>  -11.5440    1.0000 </r>
       <r>   -9.3209    1.0000 </r>
       <r>   -7.3958    1.0000 </r>
       <r>   -6.0063    1.0000 </r>
       <r>   -5.8916    1.0000 </r>
       <r>   -5.5267    1.0000 </r>
       <r>   -5.3910    1.0000 </r>
       <r>   -4.9320    1.0000 </r>
       <r>   -4.6726    1.0000 </r>
       <r>   -4.0359    1.0000 </r>
       <r>   -3.2074    1.0000 </r>
       <r>   -2.8629    1.0000 </r>
       <r>   -1.5193    0.0000 </r>
       <r>   -1.2809    0.0000 </r>
       <r>   -0.2980    0.0000 </r>
       <r>    0.2546    0.0000 </r>
       <r>    0.8189    0.0000 </r>
       <r>    1.7582    0.0000 </r>
      </set>
      <set comment="kpoint 19">
       <r>  -27.8132    1.0000 </r>
       <r>  -27.8091    1.0000 </r>
       <r>  -27.8073    1.0000 </r>
       <r>  -27.8016    1.0000 </r>
       <r>  -27.8011    1.0000 </r>
       <r>  -27.7876    1.0000 </r>
       <r>  -27.7843    1.0000 </r>
       <r>  -27.7827    1.0000 </r>
       <r>  -27.7675    1.0000 </r>
       <r>  -27.7630    1.0000 </r>
       <r>  -16.7673    1.0000 </r>
       <r>  -15.3418    1.0000 </r>
       <r>  -15.2082    1.0000 </r>
       <r>  -14.8996    1.0000 </r>
       <r>  -11.4622    1.0000 </r>
       <r>   -9.3866    1.0000 </r>
       <r>   -7.3574    1.0000 </r>
       <r>   -6.1572    1.0000 </r>
       <r>   -6.0791    1.0000 </r>
       <r>   -5.5836    1.0000 </r>
       <r>   -5.2818    1.0000 </r>
       <r>   -4.7782    1.0000 </r>
       <r>   -4.7165    1.0000 </r>
       <r>   -3.9958    1.0000 </r>
       <r>   -3.4085    1.0000 </r>
       <r>   -2.7877    1.0000 </r>
       <r>   -1.5636    0.0000 </r>
       <r>   -1.2491    0.0000 </r>
       <r>    0.0768    0.0000 </r>
       <r>    0.3637    0.0000 </r>
       <r>    0.9408    0.0000 </r>
       <r>    1.5965    0.0000 </r>
      </set>
      <set comment="kpoint 20">
       <r>  -27.8129    1.0000 </r>
       <r>  -27.8086    1.0000 </r>
       <r>  -27.8075    1.0000 </r>
       <r>  -27.8020    1.0000 </r>
       <r>  -27.8005    1.0000 </r>
       <r>  -27.7873    1.0000 </r>
       <r>  -27.7854    1.0000 </r>
       <r>  -27.7829    1.0000 </r>
       <r>  -27.7672    1.0000 </r>
       <r>  -27.7632    1.0000 </r>
       <r>  -16.6903    1.0000 </r>
       <r>  -15.3172    1.0000 </r>
       <r>  -15.2776    1.0000 </r>
       <r>  -14.9697    1.0000 </r>
       <r>  -11.3341    1.0000 </r>
       <r>   -9.4974    1.0000 </r>
       <r>   -7.2962    1.0000 </r>
       <r>   -6.3955    1.0000 </r>
       <r>   -6.1783    1.0000 </r>
       <r>   -5.5985    1.0000 </r>
       <r>   -5.2997    1.0000 </r>
       <r>   -4.7934    1.0000 </r>
       <r>   -4.6301    1.0000 </r>
       <r>   -3.9230    1.0000 </r>
       <r>   -3.6019    1.0000 </r>
       <r>   -2.7870    1.0000 </r>
       <r>   -1.4852    0.0000 </r>
       <r>   -1.1799    0.0000 </r>
       <r>    0.5176    0.0000 </r>
       <r>    0.5252    0.0000 </r>
       <r>    1.1200    0.0000 </r>
       <r>    1.4561    0.0000 </r>
      </set>
      <set comment="kpoint 21">
       <r>  -27.8125    1.0000 </r>
       <r>  -27.8080    1.0000 </r>
       <r>  -27.8078    1.0000 </r>
       <r>  -27.8025    1.0000 </r>
       <r>  -27.7996    1.0000 </r>
       <r>  -27.7868    1.0000 </r>
       <r>  -27.7868    1.0000 </r>
       <r>  -27.7833    1.0000 </r>
       <r>  -27.7668    1.0000 </r>
       <r>  -27.7635    1.0000 </r>
       <r>  -16.5848    1.0000 </r>
       <r>  -15.3994    1.0000 </r>
       <r>  -15.2854    1.0000 </r>
       <r>  -15.0253    1.0000 </r>
       <r>  -11.1688    1.0000 </r>
       <r>   -9.6518    1.0000 </r>
       <r>   -7.2174    1.0000 </r>
       <r>   -6.5884    1.0000 </r>
       <r>   -6.2636    1.0000 </r>
       <r>   -5.5796    1.0000 </r>
       <r>   -5.4220    1.0000 </r>
       <r>   -4.9106    1.0000 </r>
       <r>   -4.5134    1.0000 </r>
       <r>   -3.8181    1.0000 </r>
       <r>   -3.7701    1.0000 </r>
       <r>   -2.8531    1.0000 </r>
       <r>   -1.2856    0.0000 </r>
       <r>   -1.0674    0.0000 </r>
       <r>    0.6892    0.0000 </r>
       <r>    0.9393    0.0000 </r>
       <r>    1.3141    0.0000 </r>
       <r>    1.4050    0.0000 </r>
      </set>
      <set comment="kpoint 22">
       <r>  -27.8119    1.0000 </r>
       <r>  -27.8083    1.0000 </r>
       <r>  -27.8072    1.0000 </r>
       <r>  -27.8031    1.0000 </r>
       <r>  -27.7982    1.0000 </r>
       <r>  -27.7886    1.0000 </r>
       <r>  -27.7863    1.0000 </r>
       <r>  -27.7837    1.0000 </r>
       <r>  -27.7664    1.0000 </r>
       <r>  -27.7639    1.0000 </r>
       <r>  -16.4531    1.0000 </r>
       <r>  -15.5633    1.0000 </r>
       <r>  -15.2487    1.0000 </r>
       <r>  -15.0654    1.0000 </r>
       <r>  -10.9747    1.0000 </r>
       <r>   -9.8435    1.0000 </r>
       <r>   -7.1310    1.0000 </r>
       <r>   -6.7329    1.0000 </r>
       <r>   -6.3021    1.0000 </r>
       <r>   -5.6044    1.0000 </r>
       <r>   -5.5404    1.0000 </r>
       <r>   -5.0546    1.0000 </r>
       <r>   -4.4218    1.0000 </r>
       <r>   -3.9124    1.0000 </r>
       <r>   -3.6902    1.0000 </r>
       <r>   -2.9649    1.0000 </r>
       <r>   -1.0322    0.0000 </r>
       <r>   -0.9240    0.0000 </r>
       <r>    0.8572    0.0000 </r>
       <r>    1.1161    0.0000 </r>
       <r>    1.4655    0.0000 </r>
       <r>    1.6239    0.0000 </r>
      </set>
      <set comment="kpoint 23">
       <r>  -27.8113    1.0000 </r>
       <r>  -27.8090    1.0000 </r>
       <r>  -27.8064    1.0000 </r>
       <r>  -27.8038    1.0000 </r>
       <r>  -27.7965    1.0000 </r>
       <r>  -27.7905    1.0000 </r>
       <r>  -27.7858    1.0000 </r>
       <r>  -27.7841    1.0000 </r>
       <r>  -27.7659    1.0000 </r>
       <r>  -27.7644    1.0000 </r>
       <r>  -16.2985    1.0000 </r>
       <r>  -15.7485    1.0000 </r>
       <r>  -15.2098    1.0000 </r>
       <r>  -15.0996    1.0000 </r>
       <r>  -10.7594    1.0000 </r>
       <r>  -10.0618    1.0000 </r>
       <r>   -7.0497    1.0000 </r>
       <r>   -6.8370    1.0000 </r>
       <r>   -6.2726    1.0000 </r>
       <r>   -5.8095    1.0000 </r>
       <r>   -5.4861    1.0000 </r>
       <r>   -5.1976    1.0000 </r>
       <r>   -4.3381    1.0000 </r>
       <r>   -4.0367    1.0000 </r>
       <r>   -3.5495    1.0000 </r>
       <r>   -3.1024    1.0000 </r>
       <r>   -0.8104    0.0000 </r>
       <r>   -0.7820    0.0000 </r>
       <r>    1.0104    0.0000 </r>
       <r>    1.1659    0.0000 </r>
       <r>    1.5304    0.0000 </r>
       <r>    1.6458    0.0000 </r>
      </set>
      <set comment="kpoint 24">
       <r>  -27.8106    1.0000 </r>
       <r>  -27.8098    1.0000 </r>
       <r>  -27.8055    1.0000 </r>
       <r>  -27.8046    1.0000 </r>
       <r>  -27.7946    1.0000 </r>
       <r>  -27.7926    1.0000 </r>
       <r>  -27.7852    1.0000 </r>
       <r>  -27.7846    1.0000 </r>
       <r>  -27.7654    1.0000 </r>
       <r>  -27.7649    1.0000 </r>
       <r>  -16.1254    1.0000 </r>
       <r>  -15.9395    1.0000 </r>
       <r>  -15.1710    1.0000 </r>
       <r>  -15.1342    1.0000 </r>
       <r>  -10.5301    1.0000 </r>
       <r>  -10.2944    1.0000 </r>
       <r>   -6.9798    1.0000 </r>
       <r>   -6.9139    1.0000 </r>
       <r>   -6.1697    1.0000 </r>
       <r>   -6.0072    1.0000 </r>
       <r>   -5.4144    1.0000 </r>
       <r>   -5.3195    1.0000 </r>
       <r>   -4.2487    1.0000 </r>
       <r>   -4.1484    1.0000 </r>
       <r>   -3.4018    1.0000 </r>
       <r>   -3.2511    1.0000 </r>
       <r>   -0.6885    0.0000 </r>
       <r>   -0.6878    0.0000 </r>
       <r>    1.1425    0.0000 </r>
       <r>    1.2057    0.0000 </r>
       <r>    1.5145    0.0000 </r>
       <r>    1.5175    0.0000 </r>
      </set>
      <set comment="kpoint 25">
       <r>  -27.8129    1.0000 </r>
       <r>  -27.8089    1.0000 </r>
       <r>  -27.8074    1.0000 </r>
       <r>  -27.8021    1.0000 </r>
       <r>  -27.8003    1.0000 </r>
       <r>  -27.7875    1.0000 </r>
       <r>  -27.7839    1.0000 </r>
       <r>  -27.7838    1.0000 </r>
       <r>  -27.7674    1.0000 </r>
       <r>  -27.7632    1.0000 </r>
       <r>  -16.7381    1.0000 </r>
       <r>  -15.3651    1.0000 </r>
       <r>  -15.3216    1.0000 </r>
       <r>  -14.8606    1.0000 </r>
       <r>  -11.3163    1.0000 </r>
       <r>   -9.4049    1.0000 </r>
       <r>   -7.3373    1.0000 </r>
       <r>   -6.0606    1.0000 </r>
       <r>   -5.8663    1.0000 </r>
       <r>   -5.8280    1.0000 </r>
       <r>   -5.4310    1.0000 </r>
       <r>   -4.8717    1.0000 </r>
       <r>   -4.7009    1.0000 </r>
       <r>   -3.9258    1.0000 </r>
       <r>   -3.2857    1.0000 </r>
       <r>   -3.0615    1.0000 </r>
       <r>   -1.1645    0.0000 </r>
       <r>   -1.0924    0.0000 </r>
       <r>    0.0664    0.0000 </r>
       <r>    0.3003    0.0000 </r>
       <r>    0.9059    0.0000 </r>
       <r>    1.6237    0.0000 </r>
      </set>
      <set comment="kpoint 26">
       <r>  -27.8129    1.0000 </r>
       <r>  -27.8088    1.0000 </r>
       <r>  -27.8075    1.0000 </r>
       <r>  -27.8020    1.0000 </r>
       <r>  -27.8003    1.0000 </r>
       <r>  -27.7874    1.0000 </r>
       <r>  -27.7846    1.0000 </r>
       <r>  -27.7834    1.0000 </r>
       <r>  -27.7673    1.0000 </r>
       <r>  -27.7632    1.0000 </r>
       <r>  -16.7233    1.0000 </r>
       <r>  -15.3714    1.0000 </r>
       <r>  -15.3173    1.0000 </r>
       <r>  -14.8764    1.0000 </r>
       <r>  -11.3023    1.0000 </r>
       <r>   -9.4326    1.0000 </r>
       <r>   -7.3129    1.0000 </r>
       <r>   -6.1280    1.0000 </r>
       <r>   -6.0919    1.0000 </r>
       <r>   -5.5685    1.0000 </r>
       <r>   -5.4650    1.0000 </r>
       <r>   -4.8056    1.0000 </r>
       <r>   -4.7246    1.0000 </r>
       <r>   -3.9119    1.0000 </r>
       <r>   -3.4147    1.0000 </r>
       <r>   -2.9505    1.0000 </r>
       <r>   -1.2051    0.0000 </r>
       <r>   -1.1543    0.0000 </r>
       <r>    0.2302    0.0000 </r>
       <r>    0.3306    0.0000 </r>
       <r>    0.9468    0.0000 </r>
       <r>    1.5252    0.0000 </r>
      </set>
      <set comment="kpoint 27">
       <r>  -27.8129    1.0000 </r>
       <r>  -27.8083    1.0000 </r>
       <r>  -27.8078    1.0000 </r>
       <r>  -27.8016    1.0000 </r>
       <r>  -27.8005    1.0000 </r>
       <r>  -27.7872    1.0000 </r>
       <r>  -27.7856    1.0000 </r>
       <r>  -27.7831    1.0000 </r>
       <r>  -27.7671    1.0000 </r>
       <r>  -27.7633    1.0000 </r>
       <r>  -16.6794    1.0000 </r>
       <r>  -15.3930    1.0000 </r>
       <r>  -15.3047    1.0000 </r>
       <r>  -14.9193    1.0000 </r>
       <r>  -11.2600    1.0000 </r>
       <r>   -9.5146    1.0000 </r>
       <r>   -7.2414    1.0000 </r>
       <r>   -6.3763    1.0000 </r>
       <r>   -6.1812    1.0000 </r>
       <r>   -5.5111    1.0000 </r>
       <r>   -5.3403    1.0000 </r>
       <r>   -4.7946    1.0000 </r>
       <r>   -4.6738    1.0000 </r>
       <r>   -3.8646    1.0000 </r>
       <r>   -3.6044    1.0000 </r>
       <r>   -2.8136    1.0000 </r>
       <r>   -1.3983    0.0000 </r>
       <r>   -1.1205    0.0000 </r>
       <r>    0.4124    0.0000 </r>
       <r>    0.5738    0.0000 </r>
       <r>    1.0659    0.0000 </r>
       <r>    1.3968    0.0000 </r>
      </set>
      <set comment="kpoint 28">
       <r>  -27.8129    1.0000 </r>
       <r>  -27.8082    1.0000 </r>
       <r>  -27.8077    1.0000 </r>
       <r>  -27.8012    1.0000 </r>
       <r>  -27.8005    1.0000 </r>
       <r>  -27.7869    1.0000 </r>
       <r>  -27.7868    1.0000 </r>
       <r>  -27.7831    1.0000 </r>
       <r>  -27.7669    1.0000 </r>
       <r>  -27.7635    1.0000 </r>
       <r>  -16.6075    1.0000 </r>
       <r>  -15.4382    1.0000 </r>
       <r>  -15.2849    1.0000 </r>
       <r>  -14.9772    1.0000 </r>
       <r>  -11.1896    1.0000 </r>
       <r>   -9.6465    1.0000 </r>
       <r>   -7.1288    1.0000 </r>
       <r>   -6.5742    1.0000 </r>
       <r>   -6.3025    1.0000 </r>
       <r>   -5.5244    1.0000 </r>
       <r>   -5.2121    1.0000 </r>
       <r>   -4.9073    1.0000 </r>
       <r>   -4.5553    1.0000 </r>
       <r>   -3.7735    1.0000 </r>
       <r>   -3.7717    1.0000 </r>
       <r>   -2.7313    1.0000 </r>
       <r>   -1.5129    0.0000 </r>
       <r>   -1.0585    0.0000 </r>
       <r>    0.5270    0.0000 </r>
       <r>    0.8933    0.0000 </r>
       <r>    1.2462    0.0000 </r>
       <r>    1.3580    0.0000 </r>
      </set>
      <set comment="kpoint 29">
       <r>  -27.8127    1.0000 </r>
       <r>  -27.8088    1.0000 </r>
       <r>  -27.8069    1.0000 </r>
       <r>  -27.8014    1.0000 </r>
       <r>  -27.7997    1.0000 </r>
       <r>  -27.7883    1.0000 </r>
       <r>  -27.7864    1.0000 </r>
       <r>  -27.7832    1.0000 </r>
       <r>  -27.7665    1.0000 </r>
       <r>  -27.7637    1.0000 </r>
       <r>  -16.5095    1.0000 </r>
       <r>  -15.5169    1.0000 </r>
       <r>  -15.2597    1.0000 </r>
       <r>  -15.0339    1.0000 </r>
       <r>  -11.0911    1.0000 </r>
       <r>   -9.8190    1.0000 </r>
       <r>   -6.9900    1.0000 </r>
       <r>   -6.7157    1.0000 </r>
       <r>   -6.4117    1.0000 </r>
       <r>   -5.5104    1.0000 </r>
       <r>   -5.2112    1.0000 </r>
       <r>   -5.0526    1.0000 </r>
       <r>   -4.4739    1.0000 </r>
       <r>   -3.9056    1.0000 </r>
       <r>   -3.6410    1.0000 </r>
       <r>   -2.7174    1.0000 </r>
       <r>   -1.4908    0.0000 </r>
       <r>   -0.9731    0.0000 </r>
       <r>    0.6592    0.0000 </r>
       <r>    0.9944    0.0000 </r>
       <r>    1.4462    0.0000 </r>
       <r>    1.5587    0.0000 </r>
      </set>
      <set comment="kpoint 30">
       <r>  -27.8124    1.0000 </r>
       <r>  -27.8094    1.0000 </r>
       <r>  -27.8060    1.0000 </r>
       <r>  -27.8019    1.0000 </r>
       <r>  -27.7985    1.0000 </r>
       <r>  -27.7900    1.0000 </r>
       <r>  -27.7858    1.0000 </r>
       <r>  -27.7834    1.0000 </r>
       <r>  -27.7661    1.0000 </r>
       <r>  -27.7641    1.0000 </r>
       <r>  -16.3883    1.0000 </r>
       <r>  -15.6321    1.0000 </r>
       <r>  -15.2312    1.0000 </r>
       <r>  -15.0792    1.0000 </r>
       <r>  -10.9649    1.0000 </r>
       <r>  -10.0184    1.0000 </r>
       <r>   -6.8693    1.0000 </r>
       <r>   -6.8051    1.0000 </r>
       <r>   -6.4465    1.0000 </r>
       <r>   -5.4832    1.0000 </r>
       <r>   -5.3452    1.0000 </r>
       <r>   -5.1881    1.0000 </r>
       <r>   -4.4154    1.0000 </r>
       <r>   -4.0161    1.0000 </r>
       <r>   -3.4844    1.0000 </r>
       <r>   -2.7683    1.0000 </r>
       <r>   -1.3477    0.0000 </r>
       <r>   -0.8862    0.0000 </r>
       <r>    0.8017    0.0000 </r>
       <r>    1.0015    0.0000 </r>
       <r>    1.6017    0.0000 </r>
       <r>    1.8444    0.0000 </r>
      </set>
      <set comment="kpoint 31">
       <r>  -27.8120    1.0000 </r>
       <r>  -27.8101    1.0000 </r>
       <r>  -27.8051    1.0000 </r>
       <r>  -27.8026    1.0000 </r>
       <r>  -27.7970    1.0000 </r>
       <r>  -27.7918    1.0000 </r>
       <r>  -27.7853    1.0000 </r>
       <r>  -27.7837    1.0000 </r>
       <r>  -27.7657    1.0000 </r>
       <r>  -27.7644    1.0000 </r>
       <r>  -16.2480    1.0000 </r>
       <r>  -15.7753    1.0000 </r>
       <r>  -15.2016    1.0000 </r>
       <r>  -15.1140    1.0000 </r>
       <r>  -10.8121    1.0000 </r>
       <r>  -10.2295    1.0000 </r>
       <r>   -6.8514    1.0000 </r>
       <r>   -6.8352    1.0000 </r>
       <r>   -6.3330    1.0000 </r>
       <r>   -5.5802    1.0000 </r>
       <r>   -5.4503    1.0000 </r>
       <r>   -5.2848    1.0000 </r>
       <r>   -4.3583    1.0000 </r>
       <r>   -4.1156    1.0000 </r>
       <r>   -3.3200    1.0000 </r>
       <r>   -2.8695    1.0000 </r>
       <r>   -1.1480    0.0000 </r>
       <r>   -0.8348    0.0000 </r>
       <r>    0.9494    0.0000 </r>
       <r>    1.0408    0.0000 </r>
       <r>    1.6506    0.0000 </r>
       <r>    1.7469    0.0000 </r>
      </set>
      <set comment="kpoint 32">
       <r>  -27.8115    1.0000 </r>
       <r>  -27.8108    1.0000 </r>
       <r>  -27.8042    1.0000 </r>
       <r>  -27.8034    1.0000 </r>
       <r>  -27.7953    1.0000 </r>
       <r>  -27.7936    1.0000 </r>
       <r>  -27.7847    1.0000 </r>
       <r>  -27.7842    1.0000 </r>
       <r>  -27.7652    1.0000 </r>
       <r>  -27.7648    1.0000 </r>
       <r>  -16.0940    1.0000 </r>
       <r>  -15.9332    1.0000 </r>
       <r>  -15.1723    1.0000 </r>
       <r>  -15.1436    1.0000 </r>
       <r>  -10.6352    1.0000 </r>
       <r>  -10.4386    1.0000 </r>
       <r>   -6.8641    1.0000 </r>
       <r>   -6.8523    1.0000 </r>
       <r>   -6.1110    1.0000 </r>
       <r>   -5.8479    1.0000 </r>
       <r>   -5.4107    1.0000 </r>
       <r>   -5.3577    1.0000 </r>
       <r>   -4.2899    1.0000 </r>
       <r>   -4.2079    1.0000 </r>
       <r>   -3.1573    1.0000 </r>
       <r>   -3.0038    1.0000 </r>
       <r>   -0.9662    0.0000 </r>
       <r>   -0.8558    0.0000 </r>
       <r>    1.0759    0.0000 </r>
       <r>    1.1013    0.0000 </r>
       <r>    1.6016    0.0000 </r>
       <r>    1.6118    0.0000 </r>
      </set>
      <set comment="kpoint 33">
       <r>  -27.8122    1.0000 </r>
       <r>  -27.8081    1.0000 </r>
       <r>  -27.8078    1.0000 </r>
       <r>  -27.8030    1.0000 </r>
       <r>  -27.7986    1.0000 </r>
       <r>  -27.7870    1.0000 </r>
       <r>  -27.7860    1.0000 </r>
       <r>  -27.7842    1.0000 </r>
       <r>  -27.7669    1.0000 </r>
       <r>  -27.7637    1.0000 </r>
       <r>  -16.6117    1.0000 </r>
       <r>  -15.5914    1.0000 </r>
       <r>  -15.2672    1.0000 </r>
       <r>  -14.9171    1.0000 </r>
       <r>  -11.0108    1.0000 </r>
       <r>   -9.5645    1.0000 </r>
       <r>   -7.2308    1.0000 </r>
       <r>   -6.1385    1.0000 </r>
       <r>   -6.1241    1.0000 </r>
       <r>   -6.0364    1.0000 </r>
       <r>   -5.3551    1.0000 </r>
       <r>   -4.7802    1.0000 </r>
       <r>   -4.7024    1.0000 </r>
       <r>   -3.7832    1.0000 </r>
       <r>   -3.5382    1.0000 </r>
       <r>   -3.1627    1.0000 </r>
       <r>   -0.9856    0.0000 </r>
       <r>   -0.7247    0.0000 </r>
       <r>    0.4120    0.0000 </r>
       <r>    0.7128    0.0000 </r>
       <r>    1.0366    0.0000 </r>
       <r>    1.3635    0.0000 </r>
      </set>
      <set comment="kpoint 34">
       <r>  -27.8123    1.0000 </r>
       <r>  -27.8080    1.0000 </r>
       <r>  -27.8079    1.0000 </r>
       <r>  -27.8028    1.0000 </r>
       <r>  -27.7987    1.0000 </r>
       <r>  -27.7869    1.0000 </r>
       <r>  -27.7865    1.0000 </r>
       <r>  -27.7840    1.0000 </r>
       <r>  -27.7668    1.0000 </r>
       <r>  -27.7637    1.0000 </r>
       <r>  -16.5983    1.0000 </r>
       <r>  -15.5936    1.0000 </r>
       <r>  -15.2642    1.0000 </r>
       <r>  -14.9279    1.0000 </r>
       <r>  -11.0119    1.0000 </r>
       <r>   -9.5981    1.0000 </r>
       <r>   -7.1959    1.0000 </r>
       <r>   -6.3389    1.0000 </r>
       <r>   -6.1655    1.0000 </r>
       <r>   -5.7917    1.0000 </r>
       <r>   -5.3911    1.0000 </r>
       <r>   -4.8138    1.0000 </r>
       <r>   -4.6493    1.0000 </r>
       <r>   -3.7632    1.0000 </r>
       <r>   -3.6321    1.0000 </r>
       <r>   -3.0612    1.0000 </r>
       <r>   -0.9773    0.0000 </r>
       <r>   -0.8528    0.0000 </r>
       <r>    0.4300    0.0000 </r>
       <r>    0.8321    0.0000 </r>
       <r>    1.0769    0.0000 </r>
       <r>    1.3083    0.0000 </r>
      </set>
      <set comment="kpoint 35">
       <r>  -27.8125    1.0000 </r>
       <r>  -27.8084    1.0000 </r>
       <r>  -27.8074    1.0000 </r>
       <r>  -27.8023    1.0000 </r>
       <r>  -27.7988    1.0000 </r>
       <r>  -27.7874    1.0000 </r>
       <r>  -27.7867    1.0000 </r>
       <r>  -27.7836    1.0000 </r>
       <r>  -27.7667    1.0000 </r>
       <r>  -27.7638    1.0000 </r>
       <r>  -16.5587    1.0000 </r>
       <r>  -15.6020    1.0000 </r>
       <r>  -15.2557    1.0000 </r>
       <r>  -14.9583    1.0000 </r>
       <r>  -11.0126    1.0000 </r>
       <r>   -9.6946    1.0000 </r>
       <r>   -7.0945    1.0000 </r>
       <r>   -6.5425    1.0000 </r>
       <r>   -6.2460    1.0000 </r>
       <r>   -5.5116    1.0000 </r>
       <r>   -5.4491    1.0000 </r>
       <r>   -4.9094    1.0000 </r>
       <r>   -4.5476    1.0000 </r>
       <r>   -3.7833    1.0000 </r>
       <r>   -3.6965    1.0000 </r>
       <r>   -2.8929    1.0000 </r>
       <r>   -1.1182    0.0000 </r>
       <r>   -0.9534    0.0000 </r>
       <r>    0.4805    0.0000 </r>
       <r>    1.0030    0.0000 </r>
       <r>    1.1940    0.0000 </r>
       <r>    1.3198    0.0000 </r>
[...]
       <r>    1.2425    0.0000 </r>
       <r>    1.3596    0.0000 </r>
      </set>
      <set comment="kpoint 54">
       <r>  -27.8125    1.0000 </r>
       <r>  -27.8120    1.0000 </r>
       <r>  -27.8026    1.0000 </r>
       <r>  -27.8017    1.0000 </r>
       <r>  -27.7964    1.0000 </r>
       <r>  -27.7948    1.0000 </r>
       <r>  -27.7842    1.0000 </r>
       <r>  -27.7837    1.0000 </r>
       <r>  -27.7651    1.0000 </r>
       <r>  -27.7648    1.0000 </r>
       <r>  -16.0797    1.0000 </r>
       <r>  -15.9567    1.0000 </r>
       <r>  -15.1599    1.0000 </r>
       <r>  -15.1363    1.0000 </r>
       <r>  -10.7476    1.0000 </r>
       <r>  -10.5985    1.0000 </r>
       <r>   -6.8173    1.0000 </r>
       <r>   -6.7709    1.0000 </r>
       <r>   -5.8646    1.0000 </r>
       <r>   -5.6518    1.0000 </r>
       <r>   -5.3254    1.0000 </r>
       <r>   -5.1914    1.0000 </r>
       <r>   -4.3370    1.0000 </r>
       <r>   -4.2713    1.0000 </r>
       <r>   -2.7873    1.0000 </r>
       <r>   -2.6625    1.0000 </r>
       <r>   -1.3973    0.0000 </r>
       <r>   -1.1878    0.0000 </r>
       <r>    1.0722    0.0000 </r>
       <r>    1.1166    0.0000 </r>
       <r>    1.3252    0.0000 </r>
       <r>    1.3690    0.0000 </r>
      </set>
      <set comment="kpoint 55">
       <r>  -27.8127    1.0000 </r>
       <r>  -27.8124    1.0000 </r>
       <r>  -27.8018    1.0000 </r>
       <r>  -27.8011    1.0000 </r>
       <r>  -27.7968    1.0000 </r>
       <r>  -27.7958    1.0000 </r>
       <r>  -27.7838    1.0000 </r>
       <r>  -27.7836    1.0000 </r>
       <r>  -27.7650    1.0000 </r>
       <r>  -27.7648    1.0000 </r>
       <r>  -16.0243    1.0000 </r>
       <r>  -15.9451    1.0000 </r>
       <r>  -15.1696    1.0000 </r>
       <r>  -15.1577    1.0000 </r>
       <r>  -10.8028    1.0000 </r>
       <r>  -10.7110    1.0000 </r>
       <r>   -6.8349    1.0000 </r>
       <r>   -6.8037    1.0000 </r>
       <r>   -5.8064    1.0000 </r>
       <r>   -5.6980    1.0000 </r>
       <r>   -5.1932    1.0000 </r>
       <r>   -5.0651    1.0000 </r>
       <r>   -4.3659    1.0000 </r>
       <r>   -4.3211    1.0000 </r>
       <r>   -2.6619    1.0000 </r>
       <r>   -2.5895    1.0000 </r>
       <r>   -1.5417    0.0000 </r>
       <r>   -1.3828    0.0000 </r>
       <r>    1.1442    0.0000 </r>
       <r>    1.1776    0.0000 </r>
       <r>    1.3637    0.0000 </r>
       <r>    1.3771    0.0000 </r>
      </set>
      <set comment="kpoint 56">
       <r>  -27.8128    1.0000 </r>
       <r>  -27.8127    1.0000 </r>
       <r>  -27.8012    1.0000 </r>
       <r>  -27.8009    1.0000 </r>
       <r>  -27.7969    1.0000 </r>
       <r>  -27.7965    1.0000 </r>
       <r>  -27.7836    1.0000 </r>
       <r>  -27.7835    1.0000 </r>
       <r>  -27.7649    1.0000 </r>
       <r>  -27.7648    1.0000 </r>
       <r>  -15.9793    1.0000 </r>
       <r>  -15.9518    1.0000 </r>
       <r>  -15.1747    1.0000 </r>
       <r>  -15.1713    1.0000 </r>
       <r>  -10.8168    1.0000 </r>
       <r>  -10.7858    1.0000 </r>
       <r>   -6.8413    1.0000 </r>
       <r>   -6.8307    1.0000 </r>
       <r>   -5.7665    1.0000 </r>
       <r>   -5.7339    1.0000 </r>
       <r>   -5.0744    1.0000 </r>
       <r>   -5.0231    1.0000 </r>
       <r>   -4.3731    1.0000 </r>
       <r>   -4.3564    1.0000 </r>
       <r>   -2.5900    1.0000 </r>
       <r>   -2.5679    1.0000 </r>
       <r>   -1.5835    0.0000 </r>
       <r>   -1.5251    0.0000 </r>
       <r>    1.1865    0.0000 </r>
       <r>    1.2151    0.0000 </r>
       <r>    1.3708    0.0000 </r>
       <r>    1.3876    0.0000 </r>
      </set>
     </set>
    </set>
   </array>
  </eigenvalues>
  <separator name="orbital magnetization" >
   <v name="MAGDIPOLOUT">      0.00000000      0.00000000      0.00000000</v>
  </separator>
  <dos>
   <i name="efermi">     -2.39990143 </i>
   <total>
    <array>
     <dimension dim="1">gridpoints</dimension>
     <dimension dim="2">spin</dimension>
     <field>energy</field>
     <field>total</field>
     <field>integrated</field>
     <set>
      <set comment="spin 1">
       <r>   -29.3046     0.0000     0.0000 </r>
       <r>   -29.1953     0.0000     0.0000 </r>
       <r>   -29.0860     0.0000     0.0000 </r>
       <r>   -28.9767     0.0000     0.0000 </r>
       <r>   -28.8673     0.0000     0.0000 </r>
       <r>   -28.7580     0.0000     0.0000 </r>
       <r>   -28.6487     0.0000     0.0000 </r>
       <r>   -28.5394     0.0000     0.0000 </r>
       <r>   -28.4301     0.0000     0.0000 </r>
       <r>   -28.3208     0.0000     0.0000 </r>
       <r>   -28.2115     0.0000     0.0000 </r>
       <r>   -28.1021     0.0000     0.0000 </r>
       <r>   -27.9928     0.0000     0.0000 </r>
       <r>   -27.8835     0.0000     0.0000 </r>
       <r>   -27.7742   143.1163    15.6445 </r>
       <r>   -27.6649    39.8443    20.0000 </r>
       <r>   -27.5556     0.0000    20.0000 </r>
       <r>   -27.4463     0.0000    20.0000 </r>
       <r>   -27.3370     0.0000    20.0000 </r>
       <r>   -27.2276     0.0000    20.0000 </r>
       <r>   -27.1183     0.0000    20.0000 </r>
       <r>   -27.0090     0.0000    20.0000 </r>
       <r>   -26.8997     0.0000    20.0000 </r>
       <r>   -26.7904     0.0000    20.0000 </r>
       <r>   -26.6811     0.0000    20.0000 </r>
       <r>   -26.5718     0.0000    20.0000 </r>
       <r>   -26.4625     0.0000    20.0000 </r>
       <r>   -26.3531     0.0000    20.0000 </r>
       <r>   -26.2438     0.0000    20.0000 </r>
       <r>   -26.1345     0.0000    20.0000 </r>
       <r>   -26.0252     0.0000    20.0000 </r>
       <r>   -25.9159     0.0000    20.0000 </r>
       <r>   -25.8066     0.0000    20.0000 </r>
       <r>   -25.6973     0.0000    20.0000 </r>
       <r>   -25.5879     0.0000    20.0000 </r>
       <r>   -25.4786     0.0000    20.0000 </r>
       <r>   -25.3693     0.0000    20.0000 </r>
       <r>   -25.2600     0.0000    20.0000 </r>
       <r>   -25.1507     0.0000    20.0000 </r>
       <r>   -25.0414     0.0000    20.0000 </r>
       <r>   -24.9321     0.0000    20.0000 </r>
       <r>   -24.8228     0.0000    20.0000 </r>
       <r>   -24.7134     0.0000    20.0000 </r>
       <r>   -24.6041     0.0000    20.0000 </r>
       <r>   -24.4948     0.0000    20.0000 </r>
       <r>   -24.3855     0.0000    20.0000 </r>
       <r>   -24.2762     0.0000    20.0000 </r>
       <r>   -24.1669     0.0000    20.0000 </r>
       <r>   -24.0576     0.0000    20.0000 </r>
       <r>   -23.9482     0.0000    20.0000 </r>
       <r>   -23.8389     0.0000    20.0000 </r>
       <r>   -23.7296     0.0000    20.0000 </r>
       <r>   -23.6203     0.0000    20.0000 </r>
       <r>   -23.5110     0.0000    20.0000 </r>
       <r>   -23.4017     0.0000    20.0000 </r>
       <r>   -23.2924     0.0000    20.0000 </r>
       <r>   -23.1831     0.0000    20.0000 </r>
       <r>   -23.0737     0.0000    20.0000 </r>
       <r>   -22.9644     0.0000    20.0000 </r>
       <r>   -22.8551     0.0000    20.0000 </r>
       <r>   -22.7458     0.0000    20.0000 </r>
       <r>   -22.6365     0.0000    20.0000 </r>
       <r>   -22.5272     0.0000    20.0000 </r>
       <r>   -22.4179     0.0000    20.0000 </r>
       <r>   -22.3086     0.0000    20.0000 </r>
       <r>   -22.1992     0.0000    20.0000 </r>
       <r>   -22.0899     0.0000    20.0000 </r>
       <r>   -21.9806     0.0000    20.0000 </r>
       <r>   -21.8713     0.0000    20.0000 </r>
       <r>   -21.7620     0.0000    20.0000 </r>
       <r>   -21.6527     0.0000    20.0000 </r>
       <r>   -21.5434     0.0000    20.0000 </r>
       <r>   -21.4340     0.0000    20.0000 </r>
       <r>   -21.3247     0.0000    20.0000 </r>
       <r>   -21.2154     0.0000    20.0000 </r>
       <r>   -21.1061     0.0000    20.0000 </r>
       <r>   -20.9968     0.0000    20.0000 </r>
       <r>   -20.8875     0.0000    20.0000 </r>
       <r>   -20.7782     0.0000    20.0000 </r>
       <r>   -20.6689     0.0000    20.0000 </r>
       <r>   -20.5595     0.0000    20.0000 </r>
       <r>   -20.4502     0.0000    20.0000 </r>
       <r>   -20.3409     0.0000    20.0000 </r>
       <r>   -20.2316     0.0000    20.0000 </r>
       <r>   -20.1223     0.0000    20.0000 </r>
       <r>   -20.0130     0.0000    20.0000 </r>
       <r>   -19.9037     0.0000    20.0000 </r>
       <r>   -19.7944     0.0000    20.0000 </r>
       <r>   -19.6850     0.0000    20.0000 </r>
       <r>   -19.5757     0.0000    20.0000 </r>
       <r>   -19.4664     0.0000    20.0000 </r>
       <r>   -19.3571     0.0000    20.0000 </r>
       <r>   -19.2478     0.0000    20.0000 </r>
       <r>   -19.1385     0.0000    20.0000 </r>
       <r>   -19.0292     0.0000    20.0000 </r>
       <r>   -18.9198     0.0000    20.0000 </r>
       <r>   -18.8105     0.0000    20.0000 </r>
       <r>   -18.7012     0.0000    20.0000 </r>
       <r>   -18.5919     0.0000    20.0000 </r>
       <r>   -18.4826     0.0000    20.0000 </r>
       <r>   -18.3733     0.0000    20.0000 </r>
       <r>   -18.2640     0.0000    20.0000 </r>
       <r>   -18.1547     0.0000    20.0000 </r>
       <r>   -18.0453     0.0000    20.0000 </r>
       <r>   -17.9360     0.0000    20.0000 </r>
       <r>   -17.8267     0.0000    20.0000 </r>
       <r>   -17.7174     0.0000    20.0000 </r>
       <r>   -17.6081     0.0000    20.0000 </r>
       <r>   -17.4988     0.0000    20.0000 </r>
       <r>   -17.3895     0.0000    20.0000 </r>
       <r>   -17.2801     0.0000    20.0000 </r>
       <r>   -17.1708     0.0000    20.0000 </r>
       <r>   -17.0615     0.0000    20.0000 </r>
       <r>   -16.9522     0.0000    20.0000 </r>
       <r>   -16.8429     0.9673    20.1057 </r>
       <r>   -16.7336     2.0210    20.3267 </r>
       <r>   -16.6243     1.7582    20.5189 </r>
       <r>   -16.5150     1.9592    20.7330 </r>
       <r>   -16.4056     2.4746    21.0035 </r>
       <r>   -16.2963     2.1184    21.2351 </r>
       <r>   -16.1870     2.5663    21.5156 </r>
       <r>   -16.0777     2.7466    21.8159 </r>
       <r>   -15.9684     3.4002    22.1876 </r>
       <r>   -15.8591     3.5106    22.5713 </r>
       <r>   -15.7498     3.0837    22.9084 </r>
       <r>   -15.6405     1.5569    23.0786 </r>
       <r>   -15.5311     2.1129    23.3096 </r>
       <r>   -15.4218     1.1476    23.4350 </r>
       <r>   -15.3125     5.3744    24.0225 </r>
       <r>   -15.2032     7.8845    24.8844 </r>
       <r>   -15.0939    14.5959    26.4799 </r>
       <r>   -14.9846     8.4272    27.4011 </r>
       <r>   -14.8753     3.7162    27.8074 </r>
       <r>   -14.7659     1.7426    27.9979 </r>
       <r>   -14.6566     0.0195    28.0000 </r>
       <r>   -14.5473     0.0000    28.0000 </r>
       <r>   -14.4380     0.0000    28.0000 </r>
       <r>   -14.3287     0.0000    28.0000 </r>
       <r>   -14.2194     0.0000    28.0000 </r>
       <r>   -14.1101     0.0000    28.0000 </r>
       <r>   -14.0008     0.0000    28.0000 </r>
       <r>   -13.8914     0.0000    28.0000 </r>
       <r>   -13.7821     0.0000    28.0000 </r>
       <r>   -13.6728     0.0000    28.0000 </r>
       <r>   -13.5635     0.0000    28.0000 </r>
       <r>   -13.4542     0.0000    28.0000 </r>
       <r>   -13.3449     0.0000    28.0000 </r>
       <r>   -13.2356     0.0000    28.0000 </r>
       <r>   -13.1263     0.0000    28.0000 </r>
       <r>   -13.0169     0.0000    28.0000 </r>
       <r>   -12.9076     0.0000    28.0000 </r>
       <r>   -12.7983     0.0000    28.0000 </r>
       <r>   -12.6890     0.0000    28.0000 </r>
       <r>   -12.5797     0.0000    28.0000 </r>
       <r>   -12.4704     0.0000    28.0000 </r>
       <r>   -12.3611     0.0000    28.0000 </r>
       <r>   -12.2517     0.0000    28.0000 </r>
       <r>   -12.1424     0.0000    28.0000 </r>
       <r>   -12.0331     0.0000    28.0000 </r>
       <r>   -11.9238     0.0000    28.0000 </r>
       <r>   -11.8145     0.0331    28.0036 </r>
       <r>   -11.7052     0.6510    28.0748 </r>
       <r>   -11.5959     0.5556    28.1355 </r>
       <r>   -11.4866     0.7520    28.2177 </r>
       <r>   -11.3772     0.9173    28.3180 </r>
       <r>   -11.2679     1.0439    28.4321 </r>
       <r>   -11.1586     1.4891    28.5949 </r>
       <r>   -11.0493     0.4728    28.6466 </r>
       <r>   -10.9400     3.0580    28.9808 </r>
       <r>   -10.8307     1.6948    29.1661 </r>
       <r>   -10.7214     3.9977    29.6031 </r>
       <r>   -10.6120     2.5609    29.8830 </r>
       <r>   -10.5027     1.8114    30.0810 </r>
       <r>   -10.3934     2.4590    30.3498 </r>
       <r>   -10.2841     1.2081    30.4819 </r>
       <r>   -10.1748     1.7391    30.6720 </r>
       <r>   -10.0655     1.1607    30.7989 </r>
       <r>    -9.9562     1.3713    30.9488 </r>
       <r>    -9.8469     1.1983    31.0798 </r>
       <r>    -9.7375     1.4325    31.2364 </r>
       <r>    -9.6282     1.5890    31.4101 </r>
       <r>    -9.5189     1.1602    31.5369 </r>
       <r>    -9.4096     1.3498    31.6845 </r>
       <r>    -9.3003     1.6786    31.8679 </r>
       <r>    -9.1910     1.2065    31.9998 </r>
       <r>    -9.0817     0.0015    32.0000 </r>
       <r>    -8.9724     0.0000    32.0000 </r>
       <r>    -8.8630     0.0000    32.0000 </r>
       <r>    -8.7537     0.0000    32.0000 </r>
       <r>    -8.6444     0.0000    32.0000 </r>
       <r>    -8.5351     0.0000    32.0000 </r>
       <r>    -8.4258     0.0000    32.0000 </r>
       <r>    -8.3165     0.0000    32.0000 </r>
       <r>    -8.2072     0.0000    32.0000 </r>
       <r>    -8.0978     0.0000    32.0000 </r>
       <r>    -7.9885     0.0000    32.0000 </r>
       <r>    -7.8792     0.0000    32.0000 </r>
       <r>    -7.7699     0.0000    32.0000 </r>
       <r>    -7.6606     0.0000    32.0000 </r>
       <r>    -7.5513     0.0000    32.0000 </r>
       <r>    -7.4420     0.9408    32.1028 </r>
       <r>    -7.3327     2.8543    32.4149 </r>
       <r>    -7.2233     2.1296    32.6477 </r>
       <r>    -7.1140     1.9550    32.8614 </r>
       <r>    -7.0047     1.7595    33.0537 </r>
       <r>    -6.8954     2.4018    33.3162 </r>
       <r>    -6.7861     9.9567    34.4046 </r>
       <r>    -6.6768     5.9866    35.0591 </r>
       <r>    -6.5675     2.0501    35.2832 </r>
       <r>    -6.4582     1.8451    35.4849 </r>
       <r>    -6.3488     2.4620    35.7540 </r>
       <r>    -6.2395     3.8802    36.1782 </r>
       <r>    -6.1302     7.3955    36.9866 </r>
       <r>    -6.0209     3.9755    37.4212 </r>
       <r>    -5.9116     4.5067    37.9138 </r>
       <r>    -5.8023     4.0692    38.3586 </r>
       <r>    -5.6930     4.2475    38.8229 </r>
       <r>    -5.5836     4.9744    39.3667 </r>
       <r>    -5.4743     7.6143    40.1991 </r>
       <r>    -5.3650     8.3527    41.1121 </r>
       <r>    -5.2557     7.3508    41.9157 </r>
       <r>    -5.1464     5.8158    42.5514 </r>
       <r>    -5.0371     5.1364    43.1129 </r>
       <r>    -4.9278     2.3928    43.3745 </r>
       <r>    -4.8185     2.8766    43.6889 </r>
       <r>    -4.7091     3.4036    44.0610 </r>
       <r>    -4.5998     4.2226    44.5226 </r>
       <r>    -4.4905     1.9408    44.7347 </r>
       <r>    -4.3812     4.6224    45.2400 </r>
       <r>    -4.2719     6.8831    45.9924 </r>
       <r>    -4.1626     4.0651    46.4368 </r>
       <r>    -4.0533     4.6038    46.9401 </r>
       <r>    -3.9439     3.7438    47.3493 </r>
       <r>    -3.8346     3.7184    47.7558 </r>
       <r>    -3.7253     3.6477    48.1545 </r>
       <r>    -3.6160     2.6224    48.4412 </r>
       <r>    -3.5067     3.0927    48.7793 </r>
       <r>    -3.3974     3.1772    49.1266 </r>
       <r>    -3.2881     2.6812    49.4197 </r>
       <r>    -3.1788     2.6625    49.7107 </r>
       <r>    -3.0694     2.8011    50.0169 </r>
       <r>    -2.9601     3.7923    50.4315 </r>
       <r>    -2.8508     3.8995    50.8577 </r>
       <r>    -2.7415     4.8380    51.3866 </r>
       <r>    -2.6322     3.4800    51.7670 </r>
       <r>    -2.5229     2.1311    52.0000 </r>
       <r>    -2.4136     0.0003    52.0000 </r>
       <r>    -2.3043     0.0000    52.0000 </r>
       <r>    -2.1949     0.0000    52.0000 </r>
       <r>    -2.0856     0.0000    52.0000 </r>
       <r>    -1.9763     0.0000    52.0000 </r>
       <r>    -1.8670     0.0643    52.0070 </r>
       <r>    -1.7577     0.2920    52.0390 </r>
       <r>    -1.6484     0.4881    52.0923 </r>
       <r>    -1.5391     2.1391    52.3261 </r>
       <r>    -1.4297     3.6958    52.7301 </r>
       <r>    -1.3204     4.1380    53.1825 </r>
       <r>    -1.2111     2.8505    53.4941 </r>
       <r>    -1.1018     4.5566    53.9922 </r>
       <r>    -0.9925     2.4477    54.2598 </r>
       <r>    -0.8832     5.1577    54.8236 </r>
       <r>    -0.7739     4.5673    55.3228 </r>
       <r>    -0.6646     2.8570    55.6351 </r>
       <r>    -0.5552     1.9710    55.8506 </r>
       <r>    -0.4459     1.9817    56.0672 </r>
       <r>    -0.3366     0.8717    56.1625 </r>
       <r>    -0.2273     0.4836    56.2154 </r>
       <r>    -0.1180     0.0001    56.2154 </r>
       <r>    -0.0087     0.1876    56.2359 </r>
       <r>     0.1006     0.5584    56.2969 </r>
       <r>     0.2099     1.1651    56.4243 </r>
       <r>     0.3193     1.4026    56.5776 </r>
       <r>     0.4286     1.7619    56.7702 </r>
       <r>     0.5379     2.4348    57.0364 </r>
       <r>     0.6472     2.1732    57.2739 </r>
       <r>     0.7565     4.1148    57.7237 </r>
       <r>     0.8658     3.1319    58.0661 </r>
       <r>     0.9751     5.6504    58.6838 </r>
       <r>     1.0845     8.2176    59.5821 </r>
       <r>     1.1938     8.2379    60.4826 </r>
       <r>     1.3031     5.1533    61.0459 </r>
       <r>     1.4124     8.0387    61.9247 </r>
       <r>     1.5217     4.9489    62.4657 </r>
       <r>     1.6310     6.3895    63.1641 </r>
       <r>     1.7403     3.9083    63.5913 </r>
       <r>     1.8496     2.3610    63.8494 </r>
       <r>     1.9590     0.9226    63.9503 </r>
       <r>     2.0683     0.4548    64.0000 </r>
       <r>     2.1776     0.0000    64.0000 </r>
       <r>     2.2869     0.0000    64.0000 </r>
       <r>     2.3962     0.0000    64.0000 </r>
       <r>     2.5055     0.0000    64.0000 </r>
       <r>     2.6148     0.0000    64.0000 </r>
       <r>     2.7242     0.0000    64.0000 </r>
       <r>     2.8335     0.0000    64.0000 </r>
       <r>     2.9428     0.0000    64.0000 </r>
       <r>     3.0521     0.0000    64.0000 </r>
       <r>     3.1614     0.0000    64.0000 </r>
       <r>     3.2707     0.0000    64.0000 </r>
       <r>     3.3800     0.0000    64.0000 </r>
       <r>     3.4893     0.0000    64.0000 </r>
      </set>
     </set>
    </array>
   </total>
  </dos>
 </calculation>
 <structure name="finalpos" >
  <crystal>
   <varray name="basis" >
    <v>       4.93054600       0.00000000       0.00000000 </v>
    <v>       0.00000000       5.57120200       0.00000000 </v>
    <v>       0.00000000       0.00000000      18.07929100 </v>
   </varray>
   <i name="volume">    496.62126910 </i>
   <varray name="rec_basis" >
    <v>       0.20281729       0.00000000       0.00000000 </v>
    <v>       0.00000000       0.17949448       0.00000000 </v>
    <v>       0.00000000       0.00000000       0.05531190 </v>
   </varray>
  </crystal>
  <varray name="positions" >
   <v>       0.50000000       0.50000000       0.50000000 </v>
   <v>      -0.00000000      -0.00000000       0.50000000 </v>
   <v>       0.25000000       0.25000000       0.41514620 </v>
   <v>       0.75000000       0.75000000       0.41514620 </v>
   <v>       0.75000000       0.25000000       0.58485380 </v>
   <v>       0.25000000       0.75000000       0.58485380 </v>
  </varray>
 </structure>
</modeling>
