<?xml version="1.0" encoding="ISO-8859-1"?>
<modeling>
 <generator>
  <i name="program" type="string">vasp </i>
  <i name="version" type="string">5.4.1  </i>
  <i name="subversion" type="string">24Jun15 (build Nov 20 2020 10:29:34) complex                          parallel </i>
  <i name="platform" type="string">IFC91_ompi </i>
  <i name="date" type="string">2021 09 09 </i>
  <i name="time" type="string">15:19:16 </i>
 </generator>
 <incar>
  <i type="string" name="PREC">a</i>
  <i type="string" name="ALGO"> Normal</i>
  <i type="int" name="ISPIN">     1</i>
  <i type="int" name="ICHARG">     2</i>
  <i type="int" name="NELM">   250</i>
  <i type="int" name="NELMDL">    -5</i>
  <i type="int" name="NELMIN">     6</i>
  <i type="int" name="IBRION">     2</i>
  <i name="EDIFF">      0.00001000</i>
  <i name="EDIFFG">     -0.01000000</i>
  <i type="int" name="NSW">   200</i>
  <i type="int" name="ISIF">     2</i>
  <i name="ENCUT">    520.00000000</i>
  <i name="POTIM">      0.30000000</i>
  <i type="logical" name="LREAL"> F  </i>
  <i type="int" name="ISMEAR">     0</i>
  <i name="SIGMA">      0.02000000</i>
  <i type="logical" name="LWAVE"> F  </i>
  <i type="logical" name="LCHARG"> F  </i>
  <i type="logical" name="LAECHG"> F  </i>
  <v type="int" name="KPOINT_BSE">    -1     0     0     0</v>
  <i type="int" name="NELM">   250</i>
 </incar>
 <kpoints>
  <generation param="Gamma">
   <v type="int" name="divisions">      22       15        1 </v>
   <v name="usershift">      0.00000000       0.00000000       0.00000000 </v>
   <v name="genvec1">      0.04545455       0.00000000       0.00000000 </v>
   <v name="genvec2">      0.00000000       0.06666667       0.00000000 </v>
   <v name="genvec3">      0.00000000       0.00000000       1.00000000 </v>
   <v name="shift">      0.00000000       0.00000000       0.00000000 </v>
  </generation>
  <varray name="kpointlist" >
   <v>       0.00000000       0.00000000       0.00000000 </v>
   <v>       0.04545455       0.00000000       0.00000000 </v>
   <v>       0.09090909       0.00000000       0.00000000 </v>
   <v>       0.13636364       0.00000000       0.00000000 </v>
   <v>       0.18181818       0.00000000       0.00000000 </v>
   <v>       0.22727273       0.00000000       0.00000000 </v>
   <v>       0.27272727       0.00000000       0.00000000 </v>
   <v>       0.31818182       0.00000000       0.00000000 </v>
   <v>       0.36363636       0.00000000       0.00000000 </v>
   <v>       0.40909091       0.00000000       0.00000000 </v>
   <v>       0.45454545       0.00000000       0.00000000 </v>
   <v>       0.50000000       0.00000000       0.00000000 </v>
   <v>       0.00000000       0.06666667       0.00000000 </v>
   <v>       0.04545455       0.06666667       0.00000000 </v>
   <v>       0.09090909       0.06666667       0.00000000 </v>
   <v>       0.13636364       0.06666667       0.00000000 </v>
   <v>       0.18181818       0.06666667       0.00000000 </v>
   <v>       0.22727273       0.06666667       0.00000000 </v>
   <v>       0.27272727       0.06666667       0.00000000 </v>
   <v>       0.31818182       0.06666667       0.00000000 </v>
   <v>       0.36363636       0.06666667       0.00000000 </v>
   <v>       0.40909091       0.06666667       0.00000000 </v>
   <v>       0.45454545       0.06666667       0.00000000 </v>
   <v>       0.50000000       0.06666667       0.00000000 </v>
   <v>      -0.45454545       0.06666667       0.00000000 </v>
   <v>      -0.40909091       0.06666667       0.00000000 </v>
   <v>      -0.36363636       0.06666667       0.00000000 </v>
   <v>      -0.31818182       0.06666667       0.00000000 </v>
   <v>      -0.27272727       0.06666667       0.00000000 </v>
   <v>      -0.22727273       0.06666667       0.00000000 </v>
   <v>      -0.18181818       0.06666667       0.00000000 </v>
   <v>      -0.13636364       0.06666667       0.00000000 </v>
   <v>      -0.09090909       0.06666667       0.00000000 </v>
   <v>      -0.04545455       0.06666667       0.00000000 </v>
   <v>       0.00000000       0.13333333       0.00000000 </v>
   <v>       0.04545455       0.13333333       0.00000000 </v>
   <v>       0.09090909       0.13333333       0.00000000 </v>
   <v>       0.13636364       0.13333333       0.00000000 </v>
   <v>       0.18181818       0.13333333       0.00000000 </v>
   <v>       0.22727273       0.13333333       0.00000000 </v>
   <v>       0.27272727       0.13333333       0.00000000 </v>
   <v>       0.31818182       0.13333333       0.00000000 </v>
   <v>       0.36363636       0.13333333       0.00000000 </v>
   <v>       0.40909091       0.13333333       0.00000000 </v>
   <v>       0.45454545       0.13333333       0.00000000 </v>
   <v>       0.50000000       0.13333333       0.00000000 </v>
   <v>      -0.45454545       0.13333333       0.00000000 </v>
   <v>      -0.40909091       0.13333333       0.00000000 </v>
   <v>      -0.36363636       0.13333333       0.00000000 </v>
   <v>      -0.31818182       0.13333333       0.00000000 </v>
   <v>      -0.27272727       0.13333333       0.00000000 </v>
   <v>      -0.22727273       0.13333333       0.00000000 </v>
   <v>      -0.18181818       0.13333333       0.00000000 </v>
   <v>      -0.13636364       0.13333333       0.00000000 </v>
   <v>      -0.09090909       0.13333333       0.00000000 </v>
   <v>      -0.04545455       0.13333333       0.00000000 </v>
   <v>       0.00000000       0.20000000       0.00000000 </v>
   <v>       0.04545455       0.20000000       0.00000000 </v>
   <v>       0.09090909       0.20000000       0.00000000 </v>
   <v>       0.13636364       0.20000000       0.00000000 </v>
   <v>       0.18181818       0.20000000       0.00000000 </v>
   <v>       0.22727273       0.20000000       0.00000000 </v>
   <v>       0.27272727       0.20000000       0.00000000 </v>
   <v>       0.31818182       0.20000000       0.00000000 </v>
   <v>       0.36363636       0.20000000       0.00000000 </v>
   <v>       0.40909091       0.20000000       0.00000000 </v>
   <v>       0.45454545       0.20000000       0.00000000 </v>
   <v>       0.50000000       0.20000000       0.00000000 </v>
   <v>      -0.45454545       0.20000000       0.00000000 </v>
   <v>      -0.40909091       0.20000000       0.00000000 </v>
   <v>      -0.36363636       0.20000000       0.00000000 </v>
   <v>      -0.31818182       0.20000000       0.00000000 </v>
   <v>      -0.27272727       0.20000000       0.00000000 </v>
   <v>      -0.22727273       0.20000000       0.00000000 </v>
   <v>      -0.18181818       0.20000000       0.00000000 </v>
   <v>      -0.13636364       0.20000000       0.00000000 </v>
   <v>      -0.09090909       0.20000000       0.00000000 </v>
   <v>      -0.04545455       0.20000000       0.00000000 </v>
   <v>       0.00000000       0.26666667       0.00000000 </v>
   <v>       0.04545455       0.26666667       0.00000000 </v>
   <v>       0.09090909       0.26666667       0.00000000 </v>
   <v>       0.13636364       0.26666667       0.00000000 </v>
   <v>       0.18181818       0.26666667       0.00000000 </v>
   <v>       0.22727273       0.26666667       0.00000000 </v>
   <v>       0.27272727       0.26666667       0.00000000 </v>
   <v>       0.31818182       0.26666667       0.00000000 </v>
   <v>       0.36363636       0.26666667       0.00000000 </v>
   <v>       0.40909091       0.26666667       0.00000000 </v>
   <v>       0.45454545       0.26666667       0.00000000 </v>
   <v>       0.50000000       0.26666667       0.00000000 </v>
   <v>      -0.45454545       0.26666667       0.00000000 </v>
   <v>      -0.40909091       0.26666667       0.00000000 </v>
   <v>      -0.36363636       0.26666667       0.00000000 </v>
   <v>      -0.31818182       0.26666667       0.00000000 </v>
   <v>      -0.27272727       0.26666667       0.00000000 </v>
   <v>      -0.22727273       0.26666667       0.00000000 </v>
   <v>      -0.18181818       0.26666667       0.00000000 </v>
   <v>      -0.13636364       0.26666667       0.00000000 </v>
   <v>      -0.09090909       0.26666667       0.00000000 </v>
   <v>      -0.04545455       0.26666667       0.00000000 </v>
   <v>       0.00000000       0.33333333       0.00000000 </v>
   <v>       0.04545455       0.33333333       0.00000000 </v>
   <v>       0.09090909       0.33333333       0.00000000 </v>
   <v>       0.13636364       0.33333333       0.00000000 </v>
   <v>       0.18181818       0.33333333       0.00000000 </v>
   <v>       0.22727273       0.33333333       0.00000000 </v>
   <v>       0.27272727       0.33333333       0.00000000 </v>
   <v>       0.31818182       0.33333333       0.00000000 </v>
   <v>       0.36363636       0.33333333       0.00000000 </v>
   <v>       0.40909091       0.33333333       0.00000000 </v>
   <v>       0.45454545       0.33333333       0.00000000 </v>
   <v>       0.50000000       0.33333333       0.00000000 </v>
   <v>      -0.45454545       0.33333333       0.00000000 </v>
   <v>      -0.40909091       0.33333333       0.00000000 </v>
   <v>      -0.36363636       0.33333333       0.00000000 </v>
   <v>      -0.31818182       0.33333333       0.00000000 </v>
   <v>      -0.27272727       0.33333333       0.00000000 </v>
   <v>      -0.22727273       0.33333333       0.00000000 </v>
   <v>      -0.18181818       0.33333333       0.00000000 </v>
   <v>      -0.13636364       0.33333333       0.00000000 </v>
   <v>      -0.09090909       0.33333333       0.00000000 </v>
   <v>      -0.04545455       0.33333333       0.00000000 </v>
   <v>       0.00000000       0.40000000       0.00000000 </v>
   <v>       0.04545455       0.40000000       0.00000000 </v>
   <v>       0.09090909       0.40000000       0.00000000 </v>
   <v>       0.13636364       0.40000000       0.00000000 </v>
   <v>       0.18181818       0.40000000       0.00000000 </v>
   <v>       0.22727273       0.40000000       0.00000000 </v>
   <v>       0.27272727       0.40000000       0.00000000 </v>
   <v>       0.31818182       0.40000000       0.00000000 </v>
   <v>       0.36363636       0.40000000       0.00000000 </v>
   <v>       0.40909091       0.40000000       0.00000000 </v>
   <v>       0.45454545       0.40000000       0.00000000 </v>
   <v>       0.50000000       0.40000000       0.00000000 </v>
   <v>      -0.45454545       0.40000000       0.00000000 </v>
   <v>      -0.40909091       0.40000000       0.00000000 </v>
   <v>      -0.36363636       0.40000000       0.00000000 </v>
   <v>      -0.31818182       0.40000000       0.00000000 </v>
   <v>      -0.27272727       0.40000000       0.00000000 </v>
   <v>      -0.22727273       0.40000000       0.00000000 </v>
   <v>      -0.18181818       0.40000000       0.00000000 </v>
   <v>      -0.13636364       0.40000000       0.00000000 </v>
   <v>      -0.09090909       0.40000000       0.00000000 </v>
   <v>      -0.04545455       0.40000000       0.00000000 </v>
   <v>       0.00000000       0.46666667       0.00000000 </v>
   <v>       0.04545455       0.46666667       0.00000000 </v>
   <v>       0.09090909       0.46666667       0.00000000 </v>
   <v>       0.13636364       0.46666667       0.00000000 </v>
   <v>       0.18181818       0.46666667       0.00000000 </v>
   <v>       0.22727273       0.46666667       0.00000000 </v>
   <v>       0.27272727       0.46666667       0.00000000 </v>
   <v>       0.31818182       0.46666667       0.00000000 </v>
   <v>       0.36363636       0.46666667       0.00000000 </v>
   <v>       0.40909091       0.46666667       0.00000000 </v>
   <v>       0.45454545       0.46666667       0.00000000 </v>
   <v>       0.50000000       0.46666667       0.00000000 </v>
   <v>      -0.45454545       0.46666667       0.00000000 </v>
   <v>      -0.40909091       0.46666667       0.00000000 </v>
   <v>      -0.36363636       0.46666667       0.00000000 </v>
   <v>      -0.31818182       0.46666667       0.00000000 </v>
   <v>      -0.27272727       0.46666667       0.00000000 </v>
   <v>      -0.22727273       0.46666667       0.00000000 </v>
   <v>      -0.18181818       0.46666667       0.00000000 </v>
   <v>      -0.13636364       0.46666667       0.00000000 </v>
   <v>      -0.09090909       0.46666667       0.00000000 </v>
   <v>      -0.04545455       0.46666667       0.00000000 </v>
  </varray>
  <varray name="weights" >
   <v>       0.00303030 </v>
   <v>       0.00606061 </v>
   <v>       0.00606061 </v>
   <v>       0.00606061 </v>
   <v>       0.00606061 </v>
   <v>       0.00606061 </v>
   <v>       0.00606061 </v>
   <v>       0.00606061 </v>
   <v>       0.00606061 </v>
   <v>       0.00606061 </v>
   <v>       0.00606061 </v>
   <v>       0.00303030 </v>
   <v>       0.00606061 </v>
   <v>       0.00606061 </v>
   <v>       0.00606061 </v>
   <v>       0.00606061 </v>
   <v>       0.00606061 </v>
   <v>       0.00606061 </v>
   <v>       0.00606061 </v>
   <v>       0.00606061 </v>
   <v>       0.00606061 </v>
   <v>       0.00606061 </v>
   <v>       0.00606061 </v>
   <v>       0.00606061 </v>
   <v>       0.00606061 </v>
   <v>       0.00606061 </v>
   <v>       0.00606061 </v>
   <v>       0.00606061 </v>
   <v>       0.00606061 </v>
   <v>       0.00606061 </v>
   <v>       0.00606061 </v>
   <v>       0.00606061 </v>
   <v>       0.00606061 </v>
   <v>       0.00606061 </v>
   <v>       0.00606061 </v>
   <v>       0.00606061 </v>
   <v>       0.00606061 </v>
   <v>       0.00606061 </v>
   <v>       0.00606061 </v>
   <v>       0.00606061 </v>
   <v>       0.00606061 </v>
   <v>       0.00606061 </v>
   <v>       0.00606061 </v>
   <v>       0.00606061 </v>
   <v>       0.00606061 </v>
   <v>       0.00606061 </v>
   <v>       0.00606061 </v>
   <v>       0.00606061 </v>
   <v>       0.00606061 </v>
   <v>       0.00606061 </v>
   <v>       0.00606061 </v>
   <v>       0.00606061 </v>
   <v>       0.00606061 </v>
   <v>       0.00606061 </v>
   <v>       0.00606061 </v>
   <v>       0.00606061 </v>
   <v>       0.00606061 </v>
   <v>       0.00606061 </v>
   <v>       0.00606061 </v>
   <v>       0.00606061 </v>
   <v>       0.00606061 </v>
   <v>       0.00606061 </v>
   <v>       0.00606061 </v>
   <v>       0.00606061 </v>
   <v>       0.00606061 </v>
   <v>       0.00606061 </v>
   <v>       0.00606061 </v>
   <v>       0.00606061 </v>
   <v>       0.00606061 </v>
   <v>       0.00606061 </v>
   <v>       0.00606061 </v>
   <v>       0.00606061 </v>
   <v>       0.00606061 </v>
   <v>       0.00606061 </v>
   <v>       0.00606061 </v>
   <v>       0.00606061 </v>
   <v>       0.00606061 </v>
   <v>       0.00606061 </v>
   <v>       0.00606061 </v>
   <v>       0.00606061 </v>
   <v>       0.00606061 </v>
   <v>       0.00606061 </v>
   <v>       0.00606061 </v>
   <v>       0.00606061 </v>
   <v>       0.00606061 </v>
   <v>       0.00606061 </v>
   <v>       0.00606061 </v>
   <v>       0.00606061 </v>
   <v>       0.00606061 </v>
   <v>       0.00606061 </v>
   <v>       0.00606061 </v>
   <v>       0.00606061 </v>
   <v>       0.00606061 </v>
   <v>       0.00606061 </v>
   <v>       0.00606061 </v>
   <v>       0.00606061 </v>
   <v>       0.00606061 </v>
   <v>       0.00606061 </v>
   <v>       0.00606061 </v>
   <v>       0.00606061 </v>
   <v>       0.00606061 </v>
   <v>       0.00606061 </v>
   <v>       0.00606061 </v>
   <v>       0.00606061 </v>
   <v>       0.00606061 </v>
   <v>       0.00606061 </v>
   <v>       0.00606061 </v>
   <v>       0.00606061 </v>
   <v>       0.00606061 </v>
   <v>       0.00606061 </v>
   <v>       0.00606061 </v>
   <v>       0.00606061 </v>
   <v>       0.00606061 </v>
   <v>       0.00606061 </v>
   <v>       0.00606061 </v>
   <v>       0.00606061 </v>
   <v>       0.00606061 </v>
   <v>       0.00606061 </v>
   <v>       0.00606061 </v>
   <v>       0.00606061 </v>
   <v>       0.00606061 </v>
   <v>       0.00606061 </v>
   <v>       0.00606061 </v>
   <v>       0.00606061 </v>
   <v>       0.00606061 </v>
   <v>       0.00606061 </v>
   <v>       0.00606061 </v>
   <v>       0.00606061 </v>
   <v>       0.00606061 </v>
   <v>       0.00606061 </v>
   <v>       0.00606061 </v>
   <v>       0.00606061 </v>
   <v>       0.00606061 </v>
   <v>       0.00606061 </v>
   <v>       0.00606061 </v>
   <v>       0.00606061 </v>
   <v>       0.00606061 </v>
   <v>       0.00606061 </v>
   <v>       0.00606061 </v>
   <v>       0.00606061 </v>
   <v>       0.00606061 </v>
   <v>       0.00606061 </v>
   <v>       0.00606061 </v>
   <v>       0.00606061 </v>
   <v>       0.00606061 </v>
   <v>       0.00606061 </v>
   <v>       0.00606061 </v>
   <v>       0.00606061 </v>
   <v>       0.00606061 </v>
   <v>       0.00606061 </v>
   <v>       0.00606061 </v>
   <v>       0.00606061 </v>
   <v>       0.00606061 </v>
   <v>       0.00606061 </v>
   <v>       0.00606061 </v>
   <v>       0.00606061 </v>
   <v>       0.00606061 </v>
   <v>       0.00606061 </v>
   <v>       0.00606061 </v>
   <v>       0.00606061 </v>
   <v>       0.00606061 </v>
   <v>       0.00606061 </v>
   <v>       0.00606061 </v>
   <v>       0.00606061 </v>
   <v>       0.00606061 </v>
   <v>       0.00606061 </v>
  </varray>
 </kpoints>
 <parameters>
  <separator name="general" >
   <i type="string" name="SYSTEM">unknown system</i>
   <i type="logical" name="LCOMPAT"> F  </i>
  </separator>
  <separator name="electronic" >
   <i type="string" name="PREC">a</i>
   <i name="ENMAX">    520.00000000</i>
   <i name="ENAUG">    342.92400000</i>
   <i name="EDIFF">      0.00001000</i>
   <i type="int" name="IALGO">    38</i>
   <i type="int" name="IWAVPR">    11</i>
   <i type="int" name="NBANDS">    16</i>
   <i name="NELECT">     20.00000000</i>
   <i type="int" name="TURBO">     0</i>
   <i type="int" name="IRESTART">     0</i>
   <i type="int" name="NREBOOT">     0</i>
   <i type="int" name="NMIN">     0</i>
   <i name="EREF">      0.00000000</i>
   <separator name="electronic smearing" >
    <i type="int" name="ISMEAR">     0</i>
    <i name="SIGMA">      0.02000000</i>
    <i name="KSPACING">      0.50000000</i>
    <i type="logical" name="KGAMMA"> T  </i>
   </separator>
   <separator name="electronic projectors" >
    <i type="logical" name="LREAL"> F  </i>
    <v name="ROPT">      0.00000000</v>
    <i type="int" name="LMAXPAW">  -100</i>
    <i type="int" name="LMAXMIX">     2</i>
    <i type="logical" name="NLSPLINE"> F  </i>
   </separator>
   <separator name="electronic startup" >
    <i type="int" name="ISTART">     0</i>
    <i type="int" name="ICHARG">     2</i>
    <i type="int" name="INIWAV">     1</i>
   </separator>
   <separator name="electronic spin" >
    <i type="int" name="ISPIN">     1</i>
    <i type="logical" name="LNONCOLLINEAR"> F  </i>
    <v name="MAGMOM">      1.00000000      1.00000000      1.00000000      1.00000000</v>
    <i name="NUPDOWN">     -1.00000000</i>
    <i type="logical" name="LSORBIT"> F  </i>
    <v name="SAXIS">      0.00000000      0.00000000      1.00000000</v>
    <i type="logical" name="LSPIRAL"> F  </i>
    <v name="QSPIRAL">      0.00000000      0.00000000      0.00000000</v>
    <i type="logical" name="LZEROZ"> F  </i>
   </separator>
   <separator name="electronic exchange-correlation" >
    <i type="logical" name="LASPH"> F  </i>
    <i type="logical" name="LMETAGGA"> F  </i>
   </separator>
   <separator name="electronic convergence" >
    <i type="int" name="NELM">   250</i>
    <i type="int" name="NELMDL">    -5</i>
    <i type="int" name="NELMIN">     6</i>
    <i name="ENINI">    520.00000000</i>
    <separator name="electronic convergence detail" >
     <i type="logical" name="LDIAG"> T  </i>
     <i type="logical" name="LSUBROT"> F  </i>
     <i name="WEIMIN">      0.00100000</i>
     <i name="EBREAK">      0.00000016</i>
     <i name="DEPER">      0.30000000</i>
     <i type="int" name="NRMM">     4</i>
     <i name="TIME">      0.40000000</i>
    </separator>
   </separator>
   <separator name="electronic mixer" >
    <i name="AMIX">      0.40000000</i>
    <i name="BMIX">      1.00000000</i>
    <i name="AMIN">      0.10000000</i>
    <i name="AMIX_MAG">      1.60000000</i>
    <i name="BMIX_MAG">      1.00000000</i>
    <separator name="electronic mixer details" >
     <i type="int" name="IMIX">     4</i>
     <i type="logical" name="MIXFIRST"> F  </i>
     <i type="int" name="MAXMIX">   -45</i>
     <i name="WC">    100.00000000</i>
     <i type="int" name="INIMIX">     1</i>
     <i type="int" name="MIXPRE">     1</i>
     <i type="int" name="MREMOVE">     5</i>
    </separator>
   </separator>
   <separator name="electronic dipolcorrection" >
    <i type="logical" name="LDIPOL"> F  </i>
    <i type="logical" name="LMONO"> F  </i>
    <i type="int" name="IDIPOL">     0</i>
    <i name="EPSILON">      1.00000000</i>
    <v name="DIPOL">   -100.00000000   -100.00000000   -100.00000000</v>
    <i name="EFIELD">      0.00000000</i>
   </separator>
  </separator>
  <separator name="grids" >
   <i type="int" name="NGX">    28</i>
   <i type="int" name="NGY">    36</i>
   <i type="int" name="NGZ">   150</i>
   <i type="int" name="NGXF">    56</i>
   <i type="int" name="NGYF">    72</i>
   <i type="int" name="NGZF">   300</i>
   <i type="logical" name="ADDGRID"> F  </i>
  </separator>
  <separator name="ionic" >
   <i type="int" name="NSW">   200</i>
   <i type="int" name="IBRION">     2</i>
   <i type="int" name="ISIF">     2</i>
   <i name="PSTRESS">      0.00000000</i>
   <i name="EDIFFG">     -0.01000000</i>
   <i type="int" name="NFREE">     1</i>
   <i name="POTIM">      0.30000000</i>
   <i name="SMASS">     -3.00000000</i>
   <i name="SCALEE">      1.00000000</i>
  </separator>
  <separator name="ionic md" >
   <i name="TEBEG">      0.00010000</i>
   <i name="TEEND">      0.00010000</i>
   <i type="int" name="NBLOCK">     1</i>
   <i type="int" name="KBLOCK">   200</i>
   <i type="int" name="NPACO">   256</i>
   <i name="APACO">     16.00000000</i>
  </separator>
  <separator name="symmetry" >
   <i type="int" name="ISYM">     2</i>
   <i name="SYMPREC">      0.00001000</i>
  </separator>
  <separator name="dos" >
   <i type="logical" name="LORBIT"> F  </i>
   <v name="RWIGS">     -1.00000000</v>
   <i type="int" name="NEDOS">   301</i>
   <i name="EMIN">     10.00000000</i>
   <i name="EMAX">    -10.00000000</i>
   <i name="EFERMI">      0.00000000</i>
  </separator>
  <separator name="writing" >
   <i type="int" name="NWRITE">     2</i>
   <i type="logical" name="LWAVE"> F  </i>
   <i type="logical" name="LCHARG"> F  </i>
   <i type="logical" name="LPARD"> F  </i>
   <i type="logical" name="LVTOT"> F  </i>
   <i type="logical" name="LVHAR"> F  </i>
   <i type="logical" name="LELF"> F  </i>
   <i type="logical" name="LOPTICS"> F  </i>
   <v name="STM">      0.00000000      0.00000000      0.00000000      0.00000000      0.00000000      0.00000000      0.00000000</v>
  </separator>
  <separator name="performance" >
   <i type="int" name="NPAR">     4</i>
   <i type="int" name="NSIM">     4</i>
   <i type="int" name="NBLK">    -1</i>
   <i type="logical" name="LPLANE"> T  </i>
   <i type="logical" name="LSCALAPACK"> T  </i>
   <i type="logical" name="LSCAAWARE"> F  </i>
   <i type="logical" name="LSCALU"> F  </i>
   <i type="logical" name="LASYNC"> F  </i>
   <i type="logical" name="LORBITALREAL"> F  </i>
  </separator>
  <separator name="miscellaneous" >
   <i type="int" name="IDIOT">     3</i>
   <i type="logical" name="LMUSIC"> F  </i>
   <v name="POMASS">     30.97400000</v>
   <v name="DARWINR">      0.00000000</v>
   <v name="DARWINV">      1.00000000</v>
   <i type="logical" name="LCORR"> T  </i>
  </separator>
  <i type="logical" name="GGA_COMPAT"> T  </i>
  <i type="logical" name="LBERRY"> F  </i>
  <i type="int" name="ICORELEVEL">     0</i>
  <i type="logical" name="LDAU"> F  </i>
  <i type="int" name="I_CONSTRAINED_M">     0</i>
  <separator name="electronic exchange-correlation" >
   <i type="string" name="GGA">--</i>
   <i type="int" name="VOSKOWN">     0</i>
   <i type="logical" name="LHFCALC"> F  </i>
   <i type="string" name="PRECFOCK"></i>
   <i type="logical" name="LSYMGRAD"> F  </i>
   <i type="logical" name="LHFONE"> F  </i>
   <i type="logical" name="LRHFCALC"> F  </i>
   <i type="logical" name="LTHOMAS"> F  </i>
   <i type="logical" name="LMODELHF"> F  </i>
   <i name="ENCUT4O">     -1.00000000</i>
   <i type="int" name="EXXOEP">     0</i>
   <i type="int" name="FOURORBIT">     0</i>
   <i name="AEXX">      0.00000000</i>
   <i name="HFALPHA">      0.00000000</i>
   <i name="MCALPHA">      0.00000000</i>
   <i name="ALDAX">      1.00000000</i>
   <i name="AGGAX">      1.00000000</i>
   <i name="ALDAC">      1.00000000</i>
   <i name="AGGAC">      1.00000000</i>
   <i type="int" name="NKREDX">     1</i>
   <i type="int" name="NKREDY">     1</i>
   <i type="int" name="NKREDZ">     1</i>
   <i type="logical" name="SHIFTRED"> F  </i>
   <i type="logical" name="ODDONLY"> F  </i>
   <i type="logical" name="EVENONLY"> F  </i>
   <i type="int" name="LMAXFOCK">     0</i>
   <i type="int" name="NMAXFOCKAE">     0</i>
   <i type="logical" name="LFOCKAEDFT"> F  </i>
   <i name="HFSCREEN">      0.00000000</i>
   <i name="HFSCREENC">      0.00000000</i>
   <i type="int" name="NBANDSGWLOW">     0</i>
  </separator>
  <separator name="vdW DFT" >
   <i type="logical" name="LUSE_VDW"> F  </i>
   <i name="Zab_VDW">     -0.84910000</i>
   <i name="PARAM1">      0.12340000</i>
   <i name="PARAM2">      1.00000000</i>
   <i name="PARAM3">      0.00000000</i>
  </separator>
  <separator name="model GW" >
   <i type="int" name="MODEL_GW">     0</i>
   <i name="MODEL_EPS0">     46.69494535</i>
   <i name="MODEL_ALPHA">      1.00000000</i>
  </separator>
  <separator name="linear response parameters" >
   <i type="logical" name="LEPSILON"> F  </i>
   <i type="logical" name="LRPA"> F  </i>
   <i type="logical" name="LNABLA"> F  </i>
   <i type="logical" name="LVEL"> F  </i>
   <i type="int" name="KINTER">     0</i>
   <i name="CSHIFT">      0.10000000</i>
   <i name="OMEGAMAX">     -1.00000000</i>
   <i name="DEG_THRESHOLD">      0.00200000</i>
  </separator>
  <separator name="orbital magnetization" >
   <i type="logical" name="NUCIND"> F  </i>
   <v name="MAGPOS">      0.00000000      0.00000000      0.00000000</v>
   <i type="logical" name="LNICSALL"> T  </i>
   <i type="logical" name="ORBITALMAG"> F  </i>
   <i type="logical" name="LMAGBLOCH"> F  </i>
   <i type="logical" name="LCHIMAG"> F  </i>
   <i type="logical" name="LGAUGE"> T  </i>
   <i type="int" name="MAGATOM">     0</i>
   <v name="MAGDIPOL">      0.00000000      0.00000000      0.00000000</v>
   <v name="AVECCONST">      0.00000000      0.00000000      0.00000000</v>
  </separator>
  <separator name="response functions" >
   <i type="logical" name="LADDER"> F  </i>
   <i type="logical" name="LFXC"> F  </i>
   <i type="logical" name="LHARTREE"> T  </i>
   <i type="int" name="IBSE">     0</i>
   <v type="int" name="KPOINT">    -1     0     0     0</v>
   <i type="logical" name="LTCTE"> F  </i>
   <i type="logical" name="LTETE"> F  </i>
   <i type="logical" name="LTRIPLET"> F  </i>
   <i type="logical" name="LFXCEPS"> F  </i>
   <i type="logical" name="LFXHEG"> F  </i>
   <i type="int" name="NATURALO">     0</i>
   <i type="logical" name="L2ORDER"> F  </i>
   <i type="logical" name="LUSEW"> F  </i>
   <i name="ENCUTGW">     -2.00000000</i>
   <i name="ENCUTGWSOFT">     -2.00000000</i>
   <i name="ENCUTLF">     -1.00000000</i>
   <i type="int" name="LMAXMP2">    -1</i>
   <i name="SCISSOR">      0.00000000</i>
   <i type="int" name="NOMEGA">     0</i>
   <i type="int" name="NOMEGAR">     0</i>
   <i type="int" name="NBANDSGW">    -1</i>
   <i type="int" name="NBANDSO">    -1</i>
   <i type="int" name="NBANDSV">    -1</i>
   <i type="int" name="NELM">   250</i>
   <i type="int" name="NELMHF">     1</i>
   <i type="int" name="DIM">     3</i>
   <i type="int" name="ANTIRES">     0</i>
   <i name="OMEGAMAX">    -30.00000000</i>
   <i name="OMEGAMIN">    -30.00000000</i>
   <i name="OMEGATL">   -200.00000000</i>
   <i type="int" name="OMEGAGRID">     0</i>
   <i name="CSHIFT">     -0.10000000</i>
   <i type="logical" name="SELFENERGY"> F  </i>
   <i type="logical" name="LSPECTRAL"> F  </i>
   <i type="logical" name="LSPECTRALGW"> F  </i>
   <i type="logical" name="LSINGLES"> F  </i>
   <i type="logical" name="LFERMIGW"> F  </i>
   <i type="logical" name="ODDONLYGW"> F  </i>
   <i type="logical" name="EVENONLYGW"> F  </i>
   <i type="int" name="NKREDLFX">     1</i>
   <i type="int" name="NKREDLFY">     1</i>
   <i type="int" name="NKREDLFZ">     1</i>
   <i type="int" name="MAXMEM">  1800</i>
   <i type="int" name="TELESCOPE">     0</i>
   <i type="int" name="TAUPAR">     1</i>
   <i type="int" name="OMEGAPAR">    -1</i>
   <i name="LAMBDA">      1.00000000</i>
  </separator>
  <separator name="External order field" >
   <i name="OFIELD_KAPPA">      0.00000000</i>
   <v name="OFIELD_K">      0.00000000      0.00000000      0.00000000</v>
   <i name="OFIELD_Q6_NEAR">      0.00000000</i>
   <i name="OFIELD_Q6_FAR">      0.00000000</i>
   <i name="OFIELD_A">      0.00000000</i>
  </separator>
 </parameters>
 <atominfo>
  <atoms>       4 </atoms>
  <types>       1 </types>
  <array name="atoms" >
   <dimension dim="1">ion</dimension>
   <field type="string">element</field>
   <field type="int">atomtype</field>
   <set>
    <rc><c>P </c><c>   1</c></rc>
    <rc><c>P </c><c>   1</c></rc>
    <rc><c>P </c><c>   1</c></rc>
    <rc><c>P </c><c>   1</c></rc>
   </set>
  </array>
  <array name="atomtypes" >
   <dimension dim="1">type</dimension>
   <field type="int">atomspertype</field>
   <field type="string">element</field>
   <field>mass</field>
   <field>valence</field>
   <field type="string">pseudopotential</field>
   <set>
    <rc><c>   4</c><c>P </c><c>     30.97400000</c><c>      5.00000000</c><c>  PAW_PBE P 06Sep2000                   </c></rc>
   </set>
  </array>
 </atominfo>
 <structure name="initialpos" >
  <crystal>
   <varray name="basis" >
    <v>       3.29720400       0.00000000       0.00000000 </v>
    <v>       0.00000000       4.71491100      -0.00005300 </v>
    <v>       0.00000000       0.00000000      20.02439000 </v>
   </varray>
   <i name="volume">    311.29963569 </i>
   <varray name="rec_basis" >
    <v>       0.30328727       0.00000000       0.00000000 </v>
    <v>       0.00000000       0.21209308       0.00000000 </v>
    <v>       0.00000000       0.00000056       0.04993910 </v>
   </varray>
  </crystal>
  <varray name="positions" >
   <v>       0.50000000       0.91077300       0.55252100 </v>
   <v>       0.50000000       0.08922700       0.44747900 </v>
   <v>       0.00000000       0.41076900       0.44747900 </v>
   <v>       0.00000000       0.58923100       0.55252100 </v>
  </varray>
 </structure>
 <calculation>
  <scstep>
   <time name="dav">    1.56    1.56</time>
   <time name="total">    1.59    1.59</time>
   <energy>
    <i name="alphaZ">      5.15310928 </i>
    <i name="ewald">   1817.93470698 </i>
    <i name="hartreedc">  -2411.91919304 </i>
    <i name="XCdc">     12.86224706 </i>
    <i name="pawpsdc">    559.04011960 </i>
    <i name="pawaedc">   -526.39432044 </i>
    <i name="eentropy">     -0.00068939 </i>
    <i name="bandstr">    -28.61884616 </i>
    <i name="atom">    704.16778566 </i>
    <i name="e_fr_energy">    132.22491955 </i>
    <i name="e_wo_entrp">    132.22560894 </i>
    <i name="e_0_energy">    132.22526424 </i>
   </energy>
  </scstep>
  <scstep>
   <time name="dav">    2.11    2.11</time>
   <time name="total">    2.11    2.11</time>
   <energy>
    <i name="e_fr_energy">     -6.34638136 </i>
    <i name="e_wo_entrp">     -6.34638136 </i>
    <i name="e_0_energy">     -6.34638136 </i>
   </energy>
  </scstep>
  <scstep>
   <time name="dav">    1.94    1.94</time>
   <time name="total">    1.94    1.94</time>
   <energy>
    <i name="e_fr_energy">    -21.33201012 </i>
    <i name="e_wo_entrp">    -21.33201012 </i>
    <i name="e_0_energy">    -21.33201012 </i>
   </energy>
  </scstep>
  <scstep>
   <time name="dav">    1.96    1.96</time>
   <time name="total">    1.97    1.97</time>
   <energy>
    <i name="e_fr_energy">    -21.63741472 </i>
    <i name="e_wo_entrp">    -21.63741472 </i>
    <i name="e_0_energy">    -21.63741472 </i>
   </energy>
  </scstep>
  <scstep>
   <time name="dav">    2.09    2.09</time>
   <time name="total">    2.19    2.19</time>
   <energy>
    <i name="e_fr_energy">    -21.64624500 </i>
    <i name="e_wo_entrp">    -21.64624500 </i>
    <i name="e_0_energy">    -21.64624500 </i>
   </energy>
  </scstep>
  <scstep>
   <time name="dav">    1.88    1.88</time>
   <time name="total">    2.01    2.01</time>
   <energy>
    <i name="e_fr_energy">    -21.50977089 </i>
    <i name="e_wo_entrp">    -21.50977089 </i>
    <i name="e_0_energy">    -21.50977089 </i>
   </energy>
  </scstep>
  <scstep>
   <time name="dav">    1.83    1.83</time>
   <time name="total">    1.94    1.94</time>
   <energy>
    <i name="e_fr_energy">    -21.44510800 </i>
    <i name="e_wo_entrp">    -21.44510800 </i>
    <i name="e_0_energy">    -21.44510800 </i>
   </energy>
  </scstep>
  <scstep>
   <time name="dav">    1.89    1.89</time>
   <time name="total">    2.01    2.01</time>
   <energy>
    <i name="e_fr_energy">    -21.44459359 </i>
    <i name="e_wo_entrp">    -21.44459359 </i>
    <i name="e_0_energy">    -21.44459359 </i>
   </energy>
  </scstep>
  <scstep>
   <time name="dav">    2.21    2.21</time>
   <time name="total">    2.32    2.32</time>
   <energy>
    <i name="e_fr_energy">    -21.44445828 </i>
    <i name="e_wo_entrp">    -21.44445828 </i>
    <i name="e_0_energy">    -21.44445828 </i>
   </energy>
  </scstep>
  <scstep>
   <time name="dav">    1.89    1.89</time>
   <time name="total">    2.00    2.01</time>
   <energy>
    <i name="e_fr_energy">    -21.44429806 </i>
    <i name="e_wo_entrp">    -21.44429806 </i>
    <i name="e_0_energy">    -21.44429806 </i>
   </energy>
  </scstep>
  <scstep>
   <time name="dav">    1.90    1.90</time>
   <time name="total">    2.01    2.01</time>
   <energy>
    <i name="e_fr_energy">    -21.44422671 </i>
    <i name="e_wo_entrp">    -21.44422671 </i>
    <i name="e_0_energy">    -21.44422671 </i>
   </energy>
  </scstep>
  <scstep>
   <time name="dav">    1.69    1.69</time>
   <time name="total">    1.81    1.81</time>
   <energy>
    <i name="e_fr_energy">    -21.44457188 </i>
    <i name="e_wo_entrp">    -21.44457188 </i>
    <i name="e_0_energy">    -21.44457188 </i>
   </energy>
  </scstep>
  <scstep>
   <time name="dav">    1.70    1.70</time>
   <time name="total">    1.81    1.82</time>
   <energy>
    <i name="e_fr_energy">    -21.44466924 </i>
    <i name="e_wo_entrp">    -21.44466924 </i>
    <i name="e_0_energy">    -21.44466924 </i>
   </energy>
  </scstep>
  <scstep>
   <time name="dav">    1.57    1.57</time>
   <time name="total">    1.69    1.69</time>
   <energy>
    <i name="e_fr_energy">    -21.44481496 </i>
    <i name="e_wo_entrp">    -21.44481496 </i>
    <i name="e_0_energy">    -21.44481496 </i>
   </energy>
  </scstep>
  <scstep>
   <time name="dav">    1.62    1.62</time>
   <time name="total">    1.74    1.74</time>
   <energy>
    <i name="e_fr_energy">    -21.44483865 </i>
    <i name="e_wo_entrp">    -21.44483865 </i>
    <i name="e_0_energy">    -21.44483865 </i>
   </energy>
  </scstep>
  <scstep>
   <time name="dav">    1.51    1.51</time>
   <time name="total">    1.63    1.63</time>
   <energy>
    <i name="e_fr_energy">    -21.44487149 </i>
    <i name="e_wo_entrp">    -21.44487149 </i>
    <i name="e_0_energy">    -21.44487149 </i>
   </energy>
  </scstep>
  <scstep>
   <time name="dav">    1.57    1.57</time>
   <time name="total">    1.59    1.59</time>
   <energy>
    <i name="alphaZ">      5.15310928 </i>
    <i name="ewald">   1817.93470698 </i>
    <i name="hartreedc">  -2426.63164985 </i>
    <i name="XCdc">     13.90203912 </i>
    <i name="pawpsdc">   2021.92070323 </i>
    <i name="pawaedc">  -1989.58505798 </i>
    <i name="eentropy">     -0.00000000 </i>
    <i name="bandstr">   -168.30651070 </i>
    <i name="atom">    704.16778566 </i>
    <i name="e_fr_energy">    -21.44487427 </i>
    <i name="e_wo_entrp">    -21.44487427 </i>
    <i name="e_0_energy">    -21.44487427 </i>
   </energy>
  </scstep>
  <structure>
   <crystal>
    <varray name="basis" >
     <v>       3.29720400       0.00000000       0.00000000 </v>
     <v>       0.00000000       4.71491100      -0.00005300 </v>
     <v>       0.00000000       0.00000000      20.02439000 </v>
    </varray>
    <i name="volume">    311.29963569 </i>
    <varray name="rec_basis" >
     <v>       0.30328727       0.00000000       0.00000000 </v>
     <v>       0.00000000       0.21209308       0.00000000 </v>
     <v>       0.00000000       0.00000056       0.04993910 </v>
    </varray>
   </crystal>
   <varray name="positions" >
    <v>       0.50000000       0.91077300       0.55252100 </v>
    <v>       0.50000000       0.08922700       0.44747900 </v>
    <v>       0.00000000       0.41076900       0.44747900 </v>
    <v>       0.00000000       0.58923100       0.55252100 </v>
   </varray>
  </structure>
  <varray name="forces" >
   <v>       0.00000028      -0.27324905      -0.05340967 </v>
   <v>      -0.00000028       0.27324905       0.05340967 </v>
   <v>      -0.00000027      -0.27327503       0.05341921 </v>
   <v>       0.00000027       0.27327503      -0.05341921 </v>
  </varray>
  <varray name="stress" >
   <v>      -2.66246579      -0.00000109       0.00000001 </v>
   <v>      -0.00000108      -6.71833227       0.00035736 </v>
   <v>       0.00000003       0.00035736      -1.22048307 </v>
  </varray>
  <energy>
   <i name="e_fr_energy">    -21.44487427 </i>
   <i name="e_wo_entrp">    -21.44487427 </i>
   <i name="e_0_energy">     -0.00000000 </i>
  </energy>
  <time name="totalsc">   33.17   33.21</time>
 </calculation>
 <calculation>
  <scstep>
   <time name="dav">    1.66    1.66</time>
   <time name="total">    1.77    1.78</time>
   <energy>
    <i name="alphaZ">      5.15310928 </i>
    <i name="ewald">   1820.52416110 </i>
    <i name="hartreedc">  -2428.77446543 </i>
    <i name="XCdc">     13.94846691 </i>
    <i name="pawpsdc">   2021.52978583 </i>
    <i name="pawaedc">  -1989.19417888 </i>
    <i name="eentropy">     -0.00000000 </i>
    <i name="bandstr">   -168.80513673 </i>
    <i name="atom">    704.16778566 </i>
    <i name="e_fr_energy">    -21.45047226 </i>
    <i name="e_wo_entrp">    -21.45047226 </i>
    <i name="e_0_energy">    -21.45047226 </i>
   </energy>
  </scstep>
  <scstep>
   <time name="dav">    1.98    1.98</time>
   <time name="total">    2.09    2.09</time>
   <energy>
    <i name="e_fr_energy">    -21.45132636 </i>
    <i name="e_wo_entrp">    -21.45132636 </i>
    <i name="e_0_energy">    -21.45132636 </i>
   </energy>
  </scstep>
  <scstep>
   <time name="dav">    2.10    2.10</time>
   <time name="total">    2.21    2.21</time>
   <energy>
    <i name="e_fr_energy">    -21.45132020 </i>
    <i name="e_wo_entrp">    -21.45132020 </i>
    <i name="e_0_energy">    -21.45132020 </i>
   </energy>
  </scstep>
  <scstep>
   <time name="dav">    1.85    1.85</time>
   <time name="total">    1.96    1.96</time>
   <energy>
    <i name="e_fr_energy">    -21.45132174 </i>
    <i name="e_wo_entrp">    -21.45132174 </i>
    <i name="e_0_energy">    -21.45132174 </i>
   </energy>
  </scstep>
  <scstep>
   <time name="dav">    1.34    1.34</time>
   <time name="total">    1.46    1.46</time>
   <energy>
    <i name="e_fr_energy">    -21.45132185 </i>
    <i name="e_wo_entrp">    -21.45132185 </i>
    <i name="e_0_energy">    -21.45132185 </i>
   </energy>
  </scstep>
  <scstep>
   <time name="dav">    1.29    1.30</time>
   <time name="total">    1.31    1.32</time>
   <energy>
    <i name="alphaZ">      5.15310928 </i>
    <i name="ewald">   1820.52416110 </i>
    <i name="hartreedc">  -2428.79151233 </i>
    <i name="XCdc">     13.95373372 </i>
    <i name="pawpsdc">   2050.89219620 </i>
    <i name="pawaedc">  -2018.56739178 </i>
    <i name="eentropy">     -0.00000000 </i>
    <i name="bandstr">   -168.78340439 </i>
    <i name="atom">    704.16778566 </i>
    <i name="e_fr_energy">    -21.45132254 </i>
    <i name="e_wo_entrp">    -21.45132254 </i>
    <i name="e_0_energy">    -21.45132254 </i>
   </energy>
  </scstep>
  <structure>
   <crystal>
    <varray name="basis" >
     <v>       3.29720400       0.00000000       0.00000000 </v>
     <v>       0.00000000       4.71491100      -0.00005300 </v>
     <v>       0.00000000       0.00000000      20.02439000 </v>
    </varray>
    <i name="volume">    311.29963569 </i>
    <varray name="rec_basis" >
     <v>       0.30328727       0.00000000       0.00000000 </v>
     <v>       0.00000000       0.21209308       0.00000000 </v>
     <v>       0.00000000       0.00000056       0.04993910 </v>
    </varray>
   </crystal>
   <varray name="positions" >
    <v>       0.50000000       0.90909548       0.55244379 </v>
    <v>       0.50000000       0.09090452       0.44755621 </v>
    <v>      -0.00000000       0.40909132       0.44755621 </v>
    <v>       0.00000000       0.59090868       0.55244379 </v>
   </varray>
  </structure>
  <varray name="forces" >
   <v>       0.00000027      -0.11039290      -0.05498404 </v>
   <v>      -0.00000027       0.11039290       0.05498404 </v>
   <v>       0.00000020      -0.11041449       0.05498639 </v>
   <v>      -0.00000020       0.11041449      -0.05498639 </v>
  </varray>
  <varray name="stress" >
   <v>      -2.02159264      -0.00000313      -0.00000082 </v>
   <v>      -0.00000319      -4.32360615       0.00027926 </v>
   <v>      -0.00000081       0.00027927      -1.29530863 </v>
  </varray>
  <energy>
   <i name="e_fr_energy">    -21.45132254 </i>
   <i name="e_wo_entrp">    -21.45132254 </i>
   <i name="e_0_energy">     -0.00000000 </i>
  </energy>
  <time name="totalsc">   11.63   11.66</time>
 </calculation>
 <calculation>
  <scstep>
   <time name="dav">    1.65    1.65</time>
   <time name="total">    1.77    1.77</time>
   <energy>
    <i name="alphaZ">      5.15310928 </i>
    <i name="ewald">   1822.31195429 </i>
    <i name="hartreedc">  -2430.25012376 </i>
    <i name="XCdc">     13.98561953 </i>
    <i name="pawpsdc">   2051.06286853 </i>
    <i name="pawaedc">  -2018.73799046 </i>
    <i name="eentropy">     -0.00000000 </i>
    <i name="bandstr">   -169.14555114 </i>
    <i name="atom">    704.16778566 </i>
    <i name="e_fr_energy">    -21.45232808 </i>
    <i name="e_wo_entrp">    -21.45232808 </i>
    <i name="e_0_energy">    -21.45232808 </i>
   </energy>
  </scstep>
  <scstep>
   <time name="dav">    1.99    1.99</time>
   <time name="total">    2.10    2.10</time>
   <energy>
    <i name="e_fr_energy">    -21.45273561 </i>
    <i name="e_wo_entrp">    -21.45273561 </i>
    <i name="e_0_energy">    -21.45273561 </i>
   </energy>
  </scstep>
  <scstep>
   <time name="dav">    2.09    2.09</time>
   <time name="total">    2.21    2.21</time>
   <energy>
    <i name="e_fr_energy">    -21.45273304 </i>
    <i name="e_wo_entrp">    -21.45273304 </i>
    <i name="e_0_energy">    -21.45273304 </i>
   </energy>
  </scstep>
  <scstep>
   <time name="dav">    1.60    1.60</time>
   <time name="total">    1.71    1.71</time>
   <energy>
    <i name="e_fr_energy">    -21.45273424 </i>
    <i name="e_wo_entrp">    -21.45273424 </i>
    <i name="e_0_energy">    -21.45273424 </i>
   </energy>
  </scstep>
  <scstep>
   <time name="dav">    1.31    1.31</time>
   <time name="total">    1.43    1.43</time>
   <energy>
    <i name="e_fr_energy">    -21.45273442 </i>
    <i name="e_wo_entrp">    -21.45273442 </i>
    <i name="e_0_energy">    -21.45273442 </i>
   </energy>
  </scstep>
  <scstep>
   <time name="dav">    1.22    1.22</time>
   <time name="total">    1.24    1.24</time>
   <energy>
    <i name="alphaZ">      5.15310928 </i>
    <i name="ewald">   1822.31195429 </i>
    <i name="hartreedc">  -2430.25284501 </i>
    <i name="XCdc">     13.98920673 </i>
    <i name="pawpsdc">   2071.61729596 </i>
    <i name="pawaedc">  -2039.29999814 </i>
    <i name="eentropy">     -0.00000000 </i>
    <i name="bandstr">   -169.13924365 </i>
    <i name="atom">    704.16778566 </i>
    <i name="e_fr_energy">    -21.45273489 </i>
    <i name="e_wo_entrp">    -21.45273489 </i>
    <i name="e_0_energy">    -21.45273489 </i>
   </energy>
  </scstep>
  <structure>
   <crystal>
    <varray name="basis" >
     <v>       3.29720400       0.00000000       0.00000000 </v>
     <v>       0.00000000       4.71491100      -0.00005300 </v>
     <v>       0.00000000       0.00000000      20.02439000 </v>
    </varray>
    <i name="volume">    311.29963569 </i>
    <varray name="rec_basis" >
     <v>       0.30328727       0.00000000       0.00000000 </v>
     <v>       0.00000000       0.21209308       0.00000000 </v>
     <v>       0.00000000       0.00000056       0.04993910 </v>
    </varray>
   </crystal>
   <varray name="positions" >
    <v>       0.50000000       0.90794415       0.55239080 </v>
    <v>       0.50000000       0.09205585       0.44760920 </v>
    <v>      -0.00000000       0.40793988       0.44760921 </v>
    <v>       0.00000000       0.59206012       0.55239079 </v>
   </varray>
  </structure>
  <varray name="forces" >
   <v>      -0.00000004       0.00409324      -0.05669894 </v>
   <v>       0.00000004      -0.00409324       0.05669894 </v>
   <v>       0.00000002       0.00407467       0.05669664 </v>
   <v>      -0.00000002      -0.00407467      -0.05669664 </v>
  </varray>
  <varray name="stress" >
   <v>      -1.53044645       0.00000007      -0.00000110 </v>
   <v>       0.00000004      -2.65469599       0.00022634 </v>
   <v>      -0.00000105       0.00022633      -1.32362000 </v>
  </varray>
  <energy>
   <i name="e_fr_energy">    -21.45273489 </i>
   <i name="e_wo_entrp">    -21.45273489 </i>
   <i name="e_0_energy">     -0.00000000 </i>
  </energy>
  <time name="totalsc">   11.27   11.29</time>
 </calculation>
 <calculation>
  <scstep>
   <time name="dav">    1.69    1.69</time>
   <time name="total">    1.80    1.80</time>
   <energy>
    <i name="alphaZ">      5.15310928 </i>
    <i name="ewald">   1822.42184276 </i>
    <i name="hartreedc">  -2430.33502664 </i>
    <i name="XCdc">     13.99108517 </i>
    <i name="pawpsdc">   2071.81059234 </i>
    <i name="pawaedc">  -2039.49324478 </i>
    <i name="eentropy">     -0.00000000 </i>
    <i name="bandstr">   -169.16888271 </i>
    <i name="atom">    704.16778566 </i>
    <i name="e_fr_energy">    -21.45273893 </i>
    <i name="e_wo_entrp">    -21.45273893 </i>
    <i name="e_0_energy">    -21.45273893 </i>
   </energy>
  </scstep>
  <scstep>
   <time name="dav">    1.49    1.49</time>
   <time name="total">    1.60    1.61</time>
   <energy>
    <i name="e_fr_energy">    -21.45274093 </i>
    <i name="e_wo_entrp">    -21.45274093 </i>
    <i name="e_0_energy">    -21.45274093 </i>
   </energy>
  </scstep>
  <scstep>
   <time name="dav">    1.23    1.23</time>
   <time name="total">    1.34    1.34</time>
   <energy>
    <i name="e_fr_energy">    -21.45274164 </i>
    <i name="e_wo_entrp">    -21.45274164 </i>
    <i name="e_0_energy">    -21.45274164 </i>
   </energy>
  </scstep>
  <scstep>
   <time name="dav">    1.31    1.31</time>
   <time name="total">    1.42    1.42</time>
   <energy>
    <i name="e_fr_energy">    -21.45274235 </i>
    <i name="e_wo_entrp">    -21.45274235 </i>
    <i name="e_0_energy">    -21.45274235 </i>
   </energy>
  </scstep>
  <scstep>
   <time name="dav">    1.32    1.32</time>
   <time name="total">    1.43    1.43</time>
   <energy>
    <i name="e_fr_energy">    -21.45274299 </i>
    <i name="e_wo_entrp">    -21.45274299 </i>
    <i name="e_0_energy">    -21.45274299 </i>
   </energy>
  </scstep>
  <scstep>
   <time name="dav">    1.28    1.28</time>
   <time name="total">    1.30    1.30</time>
   <energy>
    <i name="alphaZ">      5.15310928 </i>
    <i name="ewald">   1822.42184276 </i>
    <i name="hartreedc">  -2430.32301549 </i>
    <i name="XCdc">     13.99117815 </i>
    <i name="pawpsdc">   2073.09113670 </i>
    <i name="pawaedc">  -2040.77424789 </i>
    <i name="eentropy">     -0.00000000 </i>
    <i name="bandstr">   -169.18053249 </i>
    <i name="atom">    704.16778566 </i>
    <i name="e_fr_energy">    -21.45274332 </i>
    <i name="e_wo_entrp">    -21.45274332 </i>
    <i name="e_0_energy">    -21.45274332 </i>
   </energy>
  </scstep>
  <structure>
   <crystal>
    <varray name="basis" >
     <v>       3.29720400       0.00000000       0.00000000 </v>
     <v>       0.00000000       4.71491100      -0.00005300 </v>
     <v>       0.00000000       0.00000000      20.02439000 </v>
    </varray>
    <i name="volume">    311.29963569 </i>
    <varray name="rec_basis" >
     <v>       0.30328727       0.00000000       0.00000000 </v>
     <v>       0.00000000       0.21209308       0.00000000 </v>
     <v>       0.00000000       0.00000056       0.04993910 </v>
    </varray>
   </crystal>
   <varray name="positions" >
    <v>       0.50000000       0.90787356       0.55238755 </v>
    <v>       0.50000000       0.09212644       0.44761245 </v>
    <v>      -0.00000000       0.40786928       0.44761246 </v>
    <v>       0.00000000       0.59213072       0.55238754 </v>
   </varray>
  </structure>
  <varray name="forces" >
   <v>      -0.00000006       0.01117627      -0.05677720 </v>
   <v>       0.00000006      -0.01117627       0.05677720 </v>
   <v>       0.00000004       0.01115788       0.05677455 </v>
   <v>      -0.00000004      -0.01115788      -0.05677455 </v>
  </varray>
  <varray name="stress" >
   <v>      -1.50357533      -0.00000008      -0.00000121 </v>
   <v>      -0.00000001      -2.54480011       0.00022304 </v>
   <v>      -0.00000114       0.00022311      -1.29993454 </v>
  </varray>
  <energy>
   <i name="e_fr_energy">    -21.45274332 </i>
   <i name="e_wo_entrp">    -21.45274332 </i>
   <i name="e_0_energy">     -0.00000000 </i>
  </energy>
  <time name="totalsc">    9.72    9.73</time>
 </calculation>
 <calculation>
  <scstep>
   <time name="dav">    1.51    1.51</time>
   <time name="total">    1.63    1.63</time>
   <energy>
    <i name="alphaZ">      5.15310928 </i>
    <i name="ewald">   1824.18903857 </i>
    <i name="hartreedc">  -2431.99133443 </i>
    <i name="XCdc">     14.00315120 </i>
    <i name="pawpsdc">   2073.12992464 </i>
    <i name="pawaedc">  -2040.81303429 </i>
    <i name="eentropy">     -0.00000000 </i>
    <i name="bandstr">   -169.29165901 </i>
    <i name="atom">    704.16778566 </i>
    <i name="e_fr_energy">    -21.45301837 </i>
    <i name="e_wo_entrp">    -21.45301837 </i>
    <i name="e_0_energy">    -21.45301837 </i>
   </energy>
  </scstep>
  <scstep>
   <time name="dav">    1.91    1.91</time>
   <time name="total">    2.02    2.02</time>
   <energy>
    <i name="e_fr_energy">    -21.45308630 </i>
    <i name="e_wo_entrp">    -21.45308630 </i>
    <i name="e_0_energy">    -21.45308630 </i>
   </energy>
  </scstep>
  <scstep>
   <time name="dav">    1.52    1.52</time>
   <time name="total">    1.63    1.64</time>
   <energy>
    <i name="e_fr_energy">    -21.45308478 </i>
    <i name="e_wo_entrp">    -21.45308478 </i>
    <i name="e_0_energy">    -21.45308478 </i>
   </energy>
  </scstep>
  <scstep>
   <time name="dav">    1.28    1.28</time>
   <time name="total">    1.40    1.40</time>
   <energy>
    <i name="e_fr_energy">    -21.45308531 </i>
    <i name="e_wo_entrp">    -21.45308531 </i>
    <i name="e_0_energy">    -21.45308531 </i>
   </energy>
  </scstep>
  <scstep>
   <time name="dav">    1.23    1.23</time>
   <time name="total">    1.34    1.34</time>
   <energy>
    <i name="e_fr_energy">    -21.45308520 </i>
    <i name="e_wo_entrp">    -21.45308520 </i>
    <i name="e_0_energy">    -21.45308520 </i>
   </energy>
  </scstep>
  <scstep>
   <time name="dav">    1.17    1.17</time>
   <time name="total">    1.19    1.19</time>
   <energy>
    <i name="alphaZ">      5.15310928 </i>
    <i name="ewald">   1824.18903857 </i>
    <i name="hartreedc">  -2431.99295133 </i>
    <i name="XCdc">     14.00393083 </i>
    <i name="pawpsdc">   2078.86589900 </i>
    <i name="pawaedc">  -2046.55097853 </i>
    <i name="eentropy">     -0.00000000 </i>
    <i name="bandstr">   -169.28891874 </i>
    <i name="atom">    704.16778566 </i>
    <i name="e_fr_energy">    -21.45308526 </i>
    <i name="e_wo_entrp">    -21.45308526 </i>
    <i name="e_0_energy">    -21.45308526 </i>
   </energy>
  </scstep>
  <structure>
   <crystal>
    <varray name="basis" >
     <v>       3.29720400       0.00000000       0.00000000 </v>
     <v>       0.00000000       4.71491100      -0.00005300 </v>
     <v>       0.00000000       0.00000000      20.02439000 </v>
    </varray>
    <i name="volume">    311.29963569 </i>
    <varray name="rec_basis" >
     <v>       0.30328727       0.00000000       0.00000000 </v>
     <v>       0.00000000       0.21209308       0.00000000 </v>
     <v>       0.00000000       0.00000056       0.04993910 </v>
    </varray>
   </crystal>
   <varray name="positions" >
    <v>       0.50000000       0.90786870       0.55228968 </v>
    <v>       0.50000000       0.09213130       0.44771032 </v>
    <v>      -0.00000000       0.40786428       0.44771032 </v>
    <v>       0.00000000       0.59213572       0.55228968 </v>
   </varray>
  </structure>
  <varray name="forces" >
   <v>      -0.00000006       0.00555985      -0.02967150 </v>
   <v>       0.00000006      -0.00555985       0.02967150 </v>
   <v>       0.00000006       0.00554469       0.02966990 </v>
   <v>      -0.00000006      -0.00554469      -0.02966990 </v>
  </varray>
  <varray name="stress" >
   <v>      -1.45287338      -0.00000005      -0.00000105 </v>
   <v>       0.00000002      -2.43837029       0.00018736 </v>
   <v>      -0.00000104       0.00018736      -0.72215920 </v>
  </varray>
  <energy>
   <i name="e_fr_energy">    -21.45308526 </i>
   <i name="e_wo_entrp">    -21.45308526 </i>
   <i name="e_0_energy">     -0.00000000 </i>
  </energy>
  <time name="totalsc">   10.04   10.05</time>
 </calculation>
 <calculation>
  <scstep>
   <time name="dav">    1.51    1.51</time>
   <time name="total">    1.63    1.63</time>
   <energy>
    <i name="alphaZ">      5.15310928 </i>
    <i name="ewald">   1826.12488485 </i>
    <i name="hartreedc">  -2433.81771891 </i>
    <i name="XCdc">     14.01702510 </i>
    <i name="pawpsdc">   2078.97111301 </i>
    <i name="pawaedc">  -2046.65615296 </i>
    <i name="eentropy">     -0.00000000 </i>
    <i name="bandstr">   -169.41318123 </i>
    <i name="atom">    704.16778566 </i>
    <i name="e_fr_energy">    -21.45313520 </i>
    <i name="e_wo_entrp">    -21.45313520 </i>
    <i name="e_0_energy">    -21.45313520 </i>
   </energy>
  </scstep>
  <scstep>
   <time name="dav">    1.91    1.91</time>
   <time name="total">    2.03    2.03</time>
   <energy>
    <i name="e_fr_energy">    -21.45321746 </i>
    <i name="e_wo_entrp">    -21.45321746 </i>
    <i name="e_0_energy">    -21.45321746 </i>
   </energy>
  </scstep>
  <scstep>
   <time name="dav">    1.72    1.72</time>
   <time name="total">    1.83    1.83</time>
   <energy>
    <i name="e_fr_energy">    -21.45321589 </i>
    <i name="e_wo_entrp">    -21.45321589 </i>
    <i name="e_0_energy">    -21.45321589 </i>
   </energy>
  </scstep>
  <scstep>
   <time name="dav">    1.32    1.32</time>
   <time name="total">    1.43    1.43</time>
   <energy>
    <i name="e_fr_energy">    -21.45321613 </i>
    <i name="e_wo_entrp">    -21.45321613 </i>
    <i name="e_0_energy">    -21.45321613 </i>
   </energy>
  </scstep>
  <scstep>
   <time name="dav">    1.21    1.21</time>
   <time name="total">    1.33    1.33</time>
   <energy>
    <i name="e_fr_energy">    -21.45321615 </i>
    <i name="e_wo_entrp">    -21.45321615 </i>
    <i name="e_0_energy">    -21.45321615 </i>
   </energy>
  </scstep>
  <scstep>
   <time name="dav">    1.17    1.17</time>
   <time name="total">    1.19    1.19</time>
   <energy>
    <i name="alphaZ">      5.15310928 </i>
    <i name="ewald">   1826.12488485 </i>
    <i name="hartreedc">  -2433.81824883 </i>
    <i name="XCdc">     14.01787760 </i>
    <i name="pawpsdc">   2085.38198402 </i>
    <i name="pawaedc">  -2053.06920881 </i>
    <i name="eentropy">     -0.00000000 </i>
    <i name="bandstr">   -169.41139994 </i>
    <i name="atom">    704.16778566 </i>
    <i name="e_fr_energy">    -21.45321617 </i>
    <i name="e_wo_entrp">    -21.45321617 </i>
    <i name="e_0_energy">    -21.45321617 </i>
   </energy>
  </scstep>
  <structure>
   <crystal>
    <varray name="basis" >
     <v>       3.29720400       0.00000000       0.00000000 </v>
     <v>       0.00000000       4.71491100      -0.00005300 </v>
     <v>       0.00000000       0.00000000      20.02439000 </v>
    </varray>
    <i name="volume">    311.29963569 </i>
    <varray name="rec_basis" >
     <v>       0.30328727       0.00000000       0.00000000 </v>
     <v>       0.00000000       0.21209308       0.00000000 </v>
     <v>       0.00000000       0.00000056       0.04993910 </v>
    </varray>
   </crystal>
   <varray name="positions" >
    <v>       0.50000000       0.90786337       0.55218252 </v>
    <v>       0.50000000       0.09213663       0.44781748 </v>
    <v>      -0.00000000       0.40785881       0.44781748 </v>
    <v>       0.00000000       0.59214119       0.55218252 </v>
   </varray>
  </structure>
  <varray name="forces" >
   <v>      -0.00000004      -0.00078140       0.00019034 </v>
   <v>       0.00000004       0.00078140      -0.00019034 </v>
   <v>       0.00000005      -0.00079308      -0.00019059 </v>
   <v>      -0.00000005       0.00079308       0.00019059 </v>
  </varray>
  <varray name="stress" >
   <v>      -1.39454382       0.00000044      -0.00000087 </v>
   <v>       0.00000043      -2.31614932       0.00014779 </v>
   <v>      -0.00000084       0.00014779      -0.07849714 </v>
  </varray>
  <energy>
   <i name="e_fr_energy">    -21.45321617 </i>
   <i name="e_wo_entrp">    -21.45321617 </i>
   <i name="e_0_energy">     -0.00000000 </i>
  </energy>
  <time name="totalsc">   10.19   10.20</time>
  <eigenvalues>
   <array>
    <dimension dim="1">band</dimension>
    <dimension dim="2">kpoint</dimension>
    <dimension dim="3">spin</dimension>
    <field>eigene</field>
    <field>occ</field>
    <set>
     <set comment="spin 1">
      <set comment="kpoint 1">
       <r>  -17.2432    1.0000 </r>
       <r>  -14.8478    1.0000 </r>
       <r>  -11.6147    1.0000 </r>
       <r>   -7.9784    1.0000 </r>
       <r>   -7.1348    1.0000 </r>
       <r>   -6.7811    1.0000 </r>
       <r>   -5.6133    1.0000 </r>
       <r>   -4.0839    1.0000 </r>
       <r>   -3.9307    1.0000 </r>
       <r>   -2.3721    1.0000 </r>
       <r>   -1.3863    0.0000 </r>
       <r>   -0.6757    0.0000 </r>
       <r>    0.3040    0.0000 </r>
       <r>    0.8823    0.0000 </r>
       <r>    2.0670    0.0000 </r>
       <r>    2.2829    0.0000 </r>
      </set>
      <set comment="kpoint 2">
       <r>  -17.2186    1.0000 </r>
       <r>  -14.8221    1.0000 </r>
       <r>  -11.6208    1.0000 </r>
       <r>   -7.9600    1.0000 </r>
       <r>   -7.1487    1.0000 </r>
       <r>   -6.7595    1.0000 </r>
       <r>   -5.7777    1.0000 </r>
       <r>   -4.2568    1.0000 </r>
       <r>   -3.9218    1.0000 </r>
       <r>   -2.3719    1.0000 </r>
       <r>   -1.3636    0.0000 </r>
       <r>   -0.4501    0.0000 </r>
       <r>    0.5271    0.0000 </r>
       <r>    0.7317    0.0000 </r>
       <r>    2.0924    0.0000 </r>
       <r>    2.3103    0.0000 </r>
      </set>
      <set comment="kpoint 3">
       <r>  -17.1450    1.0000 </r>
       <r>  -14.7450    1.0000 </r>
       <r>  -11.6436    1.0000 </r>
       <r>   -7.9055    1.0000 </r>
       <r>   -7.2057    1.0000 </r>
       <r>   -6.6951    1.0000 </r>
       <r>   -6.1855    1.0000 </r>
       <r>   -4.6653    1.0000 </r>
       <r>   -3.8985    1.0000 </r>
       <r>   -2.3863    1.0000 </r>
       <r>   -1.2960    0.0000 </r>
       <r>    0.1566    0.0000 </r>
       <r>    0.3542    0.0000 </r>
       <r>    1.0812    0.0000 </r>
       <r>    2.1642    0.0000 </r>
       <r>    2.3923    0.0000 </r>
      </set>
      <set comment="kpoint 4">
       <r>  -17.0226    1.0000 </r>
       <r>  -14.6166    1.0000 </r>
       <r>  -11.6959    1.0000 </r>
       <r>   -7.8172    1.0000 </r>
       <r>   -7.3557    1.0000 </r>
       <r>   -6.6849    1.0000 </r>
       <r>   -6.5890    1.0000 </r>
       <r>   -5.1058    1.0000 </r>
       <r>   -3.8712    1.0000 </r>
       <r>   -2.4333    1.0000 </r>
       <r>   -1.1848    0.0000 </r>
       <r>   -0.1175    0.0000 </r>
       <r>    1.0094    0.0000 </r>
       <r>    1.7017    0.0000 </r>
       <r>    2.2367    0.0000 </r>
       <r>    2.5286    0.0000 </r>
      </set>
      <set comment="kpoint 5">
       <r>  -16.8520    1.0000 </r>
       <r>  -14.4372    1.0000 </r>
       <r>  -11.7987    1.0000 </r>
       <r>   -7.6991    1.0000 </r>
       <r>   -7.6671    1.0000 </r>
       <r>   -7.1614    1.0000 </r>
       <r>   -6.4433    1.0000 </r>
       <r>   -5.4140    1.0000 </r>
       <r>   -3.8602    1.0000 </r>
       <r>   -2.5232    1.0000 </r>
       <r>   -1.0332    0.0000 </r>
       <r>   -0.5770    0.0000 </r>
       <r>    1.8394    0.0000 </r>
       <r>    1.9279    0.0000 </r>
       <r>    1.9822    0.0000 </r>
       <r>    2.5876    0.0000 </r>
      </set>
      <set comment="kpoint 6">
       <r>  -16.6341    1.0000 </r>
       <r>  -14.2072    1.0000 </r>
       <r>  -11.9760    1.0000 </r>
       <r>   -8.1527    1.0000 </r>
       <r>   -7.5584    1.0000 </r>
       <r>   -7.5418    1.0000 </r>
       <r>   -6.2617    1.0000 </r>
       <r>   -5.5317    1.0000 </r>
       <r>   -3.8947    1.0000 </r>
       <r>   -2.6653    1.0000 </r>
       <r>   -0.9434    0.0000 </r>
       <r>   -0.8485    0.0000 </r>
       <r>    1.3506    0.0000 </r>
       <r>    1.3851    0.0000 </r>
       <r>    2.5926    0.0000 </r>
       <r>    2.8083    0.0000 </r>
      </set>
      <set comment="kpoint 7">
       <r>  -16.3700    1.0000 </r>
       <r>  -13.9271    1.0000 </r>
       <r>  -12.2447    1.0000 </r>
       <r>   -8.7486    1.0000 </r>
       <r>   -7.7854    1.0000 </r>
       <r>   -7.4074    1.0000 </r>
       <r>   -6.0498    1.0000 </r>
       <r>   -5.5044    1.0000 </r>
       <r>   -4.0002    1.0000 </r>
       <r>   -2.8649    1.0000 </r>
       <r>   -1.1553    0.0000 </r>
       <r>   -0.6517    0.0000 </r>
       <r>    0.7370    0.0000 </r>
       <r>    0.8670    0.0000 </r>
       <r>    2.2238    0.0000 </r>
       <r>    3.1058    0.0000 </r>
      </set>
      <set comment="kpoint 8">
       <r>  -16.0613    1.0000 </r>
       <r>  -13.5974    1.0000 </r>
       <r>  -12.6022    1.0000 </r>
       <r>   -9.3877    1.0000 </r>
       <r>   -7.8838    1.0000 </r>
       <r>   -7.2659    1.0000 </r>
       <r>   -5.8164    1.0000 </r>
       <r>   -5.3966    1.0000 </r>
       <r>   -4.1675    1.0000 </r>
       <r>   -3.1190    1.0000 </r>
       <r>   -1.1890    0.0000 </r>
       <r>   -0.5184    0.0000 </r>
       <r>    0.1450    0.0000 </r>
       <r>    0.4894    0.0000 </r>
       <r>    1.7538    0.0000 </r>
       <r>    3.1180    0.0000 </r>
      </set>
      <set comment="kpoint 9">
       <r>  -15.7104    1.0000 </r>
       <r>  -13.2190    1.0000 </r>
       <r>  -13.0274    1.0000 </r>
       <r>  -10.0298    1.0000 </r>
       <r>   -7.8557    1.0000 </r>
       <r>   -7.1646    1.0000 </r>
       <r>   -5.5756    1.0000 </r>
       <r>   -5.2576    1.0000 </r>
       <r>   -4.3398    1.0000 </r>
       <r>   -3.4135    1.0000 </r>
       <r>   -1.0640    0.0000 </r>
       <r>   -0.6169    0.0000 </r>
       <r>   -0.3770    0.0000 </r>
       <r>    0.4460    0.0000 </r>
       <r>    1.2813    0.0000 </r>
       <r>    2.7601    0.0000 </r>
      </set>
      <set comment="kpoint 10">
       <r>  -15.3203    1.0000 </r>
       <r>  -13.4918    1.0000 </r>
       <r>  -12.7931    1.0000 </r>
       <r>  -10.6537    1.0000 </r>
       <r>   -7.7340    1.0000 </r>
       <r>   -7.1401    1.0000 </r>
       <r>   -5.3490    1.0000 </r>
       <r>   -5.1291    1.0000 </r>
       <r>   -4.4406    1.0000 </r>
       <r>   -3.7244    1.0000 </r>
       <r>   -0.8756    0.0000 </r>
       <r>   -0.8186    0.0000 </r>
       <r>   -0.7925    0.0000 </r>
       <r>    0.6916    0.0000 </r>
       <r>    0.8091    0.0000 </r>
       <r>    2.3407    0.0000 </r>
      </set>
      <set comment="kpoint 11">
       <r>  -14.8955    1.0000 </r>
       <r>  -13.9698    1.0000 </r>
       <r>  -12.3210    1.0000 </r>
       <r>  -11.2478    1.0000 </r>
       <r>   -7.5569    1.0000 </r>
       <r>   -7.2133    1.0000 </r>
       <r>   -5.1667    1.0000 </r>
       <r>   -5.0524    1.0000 </r>
       <r>   -4.4168    1.0000 </r>
       <r>   -4.0208    1.0000 </r>
       <r>   -1.0890    0.0000 </r>
       <r>   -1.0648    0.0000 </r>
       <r>   -0.4860    0.0000 </r>
       <r>    0.3464    0.0000 </r>
       <r>    1.0514    0.0000 </r>
       <r>    1.8993    0.0000 </r>
      </set>
      <set comment="kpoint 12">
       <r>  -14.4422    1.0000 </r>
       <r>  -14.4422    1.0000 </r>
       <r>  -11.8050    1.0000 </r>
       <r>  -11.8050    1.0000 </r>
       <r>   -7.3672    1.0000 </r>
       <r>   -7.3672    1.0000 </r>
       <r>   -5.0615    1.0000 </r>
       <r>   -5.0615    1.0000 </r>
       <r>   -4.2656    1.0000 </r>
       <r>   -4.2656    1.0000 </r>
       <r>   -1.1645    0.0000 </r>
       <r>   -1.1645    0.0000 </r>
       <r>   -0.0911    0.0000 </r>
       <r>   -0.0911    0.0000 </r>
       <r>    1.4625    0.0000 </r>
       <r>    1.4625    0.0000 </r>
      </set>
      <set comment="kpoint 13">
       <r>  -17.2229    1.0000 </r>
       <r>  -14.8803    1.0000 </r>
       <r>  -11.6119    1.0000 </r>
       <r>   -8.1508    1.0000 </r>
       <r>   -7.0094    1.0000 </r>
       <r>   -6.6983    1.0000 </r>
       <r>   -5.5978    1.0000 </r>
       <r>   -4.1000    1.0000 </r>
       <r>   -3.8521    1.0000 </r>
       <r>   -2.5614    1.0000 </r>
       <r>   -1.2081    0.0000 </r>
       <r>   -0.6599    0.0000 </r>
       <r>    0.2585    0.0000 </r>
       <r>    0.8766    0.0000 </r>
       <r>    2.1219    0.0000 </r>
       <r>    2.3115    0.0000 </r>
      </set>
      <set comment="kpoint 14">
       <r>  -17.1983    1.0000 </r>
       <r>  -14.8547    1.0000 </r>
       <r>  -11.6171    1.0000 </r>
       <r>   -8.1364    1.0000 </r>
       <r>   -7.0179    1.0000 </r>
       <r>   -6.6832    1.0000 </r>
       <r>   -5.7561    1.0000 </r>
       <r>   -4.2773    1.0000 </r>
       <r>   -3.8436    1.0000 </r>
       <r>   -2.5578    1.0000 </r>
       <r>   -1.1888    0.0000 </r>
       <r>   -0.4349    0.0000 </r>
       <r>    0.4747    0.0000 </r>
       <r>    0.7369    0.0000 </r>
       <r>    2.1462    0.0000 </r>
       <r>    2.3388    0.0000 </r>
      </set>
      <set comment="kpoint 15">
       <r>  -17.1247    1.0000 </r>
       <r>  -14.7781    1.0000 </r>
       <r>  -11.6369    1.0000 </r>
       <r>   -8.0966    1.0000 </r>
       <r>   -7.0562    1.0000 </r>
       <r>   -6.6556    1.0000 </r>
       <r>   -6.1290    1.0000 </r>
       <r>   -4.6931    1.0000 </r>
       <r>   -3.8261    1.0000 </r>
       <r>   -2.5594    1.0000 </r>
       <r>   -1.1341    0.0000 </r>
       <r>    0.1708    0.0000 </r>
       <r>    0.3476    0.0000 </r>
       <r>    1.0538    0.0000 </r>
       <r>    2.2150    0.0000 </r>
       <r>    2.4207    0.0000 </r>
      </set>
      <set comment="kpoint 16">
       <r>  -17.0024    1.0000 </r>
       <r>  -14.6507    1.0000 </r>
       <r>  -11.6841    1.0000 </r>
       <r>   -8.0479    1.0000 </r>
       <r>   -7.1615    1.0000 </r>
       <r>   -6.8050    1.0000 </r>
       <r>   -6.3776    1.0000 </r>
       <r>   -5.1406    1.0000 </r>
       <r>   -3.8112    1.0000 </r>
       <r>   -2.5841    1.0000 </r>
       <r>   -1.0446    0.0000 </r>
       <r>   -0.1057    0.0000 </r>
       <r>    1.0195    0.0000 </r>
       <r>    1.6871    0.0000 </r>
       <r>    2.2582    0.0000 </r>
       <r>    2.5207    0.0000 </r>
      </set>
      <set comment="kpoint 17">
       <r>  -16.8320    1.0000 </r>
       <r>  -14.4730    1.0000 </r>
       <r>  -11.7796    1.0000 </r>
       <r>   -8.0550    1.0000 </r>
       <r>   -7.3466    1.0000 </r>
       <r>   -7.2211    1.0000 </r>
       <r>   -6.2999    1.0000 </r>
       <r>   -5.4509    1.0000 </r>
       <r>   -3.8195    1.0000 </r>
       <r>   -2.6460    1.0000 </r>
       <r>   -0.9196    0.0000 </r>
       <r>   -0.5418    0.0000 </r>
       <r>    1.7395    0.0000 </r>
       <r>    1.8832    0.0000 </r>
       <r>    2.0722    0.0000 </r>
       <r>    2.5582    0.0000 </r>
      </set>
      <set comment="kpoint 18">
       <r>  -16.6143    1.0000 </r>
       <r>  -14.2458    1.0000 </r>
       <r>  -11.9481    1.0000 </r>
       <r>   -8.3045    1.0000 </r>
       <r>   -7.5910    1.0000 </r>
       <r>   -7.4462    1.0000 </r>
       <r>   -6.1390    1.0000 </r>
       <r>   -5.5660    1.0000 </r>
       <r>   -3.8785    1.0000 </r>
       <r>   -2.7585    1.0000 </r>
       <r>   -0.8785    0.0000 </r>
       <r>   -0.7624    0.0000 </r>
       <r>    1.2238    0.0000 </r>
       <r>    1.4297    0.0000 </r>
       <r>    2.6065    0.0000 </r>
       <r>    2.9266    0.0000 </r>
      </set>
      <set comment="kpoint 19">
       <r>  -16.3505    1.0000 </r>
       <r>  -13.9711    1.0000 </r>
       <r>  -12.2059    1.0000 </r>
       <r>   -8.8181    1.0000 </r>
       <r>   -7.8317    1.0000 </r>
       <r>   -7.3801    1.0000 </r>
       <r>   -5.9427    1.0000 </r>
       <r>   -5.5409    1.0000 </r>
       <r>   -4.0046    1.0000 </r>
       <r>   -2.9300    1.0000 </r>
       <r>   -1.0607    0.0000 </r>
       <r>   -0.5918    0.0000 </r>
       <r>    0.7067    0.0000 </r>
       <r>    0.8252    0.0000 </r>
       <r>    2.3617    0.0000 </r>
       <r>    3.1710    0.0000 </r>
      </set>
      <set comment="kpoint 20">
       <r>  -16.0423    1.0000 </r>
       <r>  -13.6551    1.0000 </r>
       <r>  -12.5461    1.0000 </r>
       <r>   -9.4297    1.0000 </r>
       <r>   -7.9277    1.0000 </r>
       <r>   -7.2633    1.0000 </r>
       <r>   -5.7279    1.0000 </r>
       <r>   -5.4496    1.0000 </r>
       <r>   -4.1736    1.0000 </r>
       <r>   -3.1578    1.0000 </r>
       <r>   -1.0746    0.0000 </r>
       <r>   -0.4920    0.0000 </r>
       <r>    0.2348    0.0000 </r>
       <r>    0.3421    0.0000 </r>
       <r>    1.9442    0.0000 </r>
       <r>    3.0601    0.0000 </r>
      </set>
      <set comment="kpoint 21">
       <r>  -15.6921    1.0000 </r>
       <r>  -13.3493    1.0000 </r>
       <r>  -12.8969    1.0000 </r>
       <r>  -10.0600    1.0000 </r>
       <r>   -7.8956    1.0000 </r>
       <r>   -7.1670    1.0000 </r>
       <r>   -5.5143    1.0000 </r>
       <r>   -5.3496    1.0000 </r>
       <r>   -4.3148    1.0000 </r>
       <r>   -3.4250    1.0000 </r>
       <r>   -0.9511    0.0000 </r>
       <r>   -0.6442    0.0000 </r>
       <r>   -0.2824    0.0000 </r>
       <r>    0.3285    0.0000 </r>
       <r>    1.5088    0.0000 </r>
       <r>    2.7113    0.0000 </r>
      </set>
      <set comment="kpoint 22">
       <r>  -15.3032    1.0000 </r>
       <r>  -13.5190    1.0000 </r>
       <r>  -12.7653    1.0000 </r>
       <r>  -10.6772    1.0000 </r>
       <r>   -7.7678    1.0000 </r>
       <r>   -7.1429    1.0000 </r>
       <r>   -5.3303    1.0000 </r>
       <r>   -5.2742    1.0000 </r>
       <r>   -4.3564    1.0000 </r>
       <r>   -3.7022    1.0000 </r>
       <r>   -0.9222    0.0000 </r>
       <r>   -0.8525    0.0000 </r>
       <r>   -0.5640    0.0000 </r>
       <r>    0.5218    0.0000 </r>
       <r>    1.1168    0.0000 </r>
       <r>    2.3003    0.0000 </r>
      </set>
      <set comment="kpoint 23">
       <r>  -14.8803    1.0000 </r>
       <r>  -13.9669    1.0000 </r>
       <r>  -12.3239    1.0000 </r>
       <r>  -11.2660    1.0000 </r>
       <r>   -7.5827    1.0000 </r>
       <r>   -7.2205    1.0000 </r>
       <r>   -5.2171    1.0000 </r>
       <r>   -5.2118    1.0000 </r>
       <r>   -4.2908    1.0000 </r>
       <r>   -3.9541    1.0000 </r>
       <r>   -1.1287    0.0000 </r>
       <r>   -1.0699    0.0000 </r>
       <r>   -0.3130    0.0000 </r>
       <r>    0.4344    0.0000 </r>
       <r>    1.1054    0.0000 </r>
       <r>    1.8703    0.0000 </r>
      </set>
      <set comment="kpoint 24">
       <r>  -14.4308    1.0000 </r>
       <r>  -14.4308    1.0000 </r>
       <r>  -11.8175    1.0000 </r>
       <r>  -11.8175    1.0000 </r>
       <r>   -7.3833    1.0000 </r>
       <r>   -7.3833    1.0000 </r>
       <r>   -5.1816    1.0000 </r>
       <r>   -5.1816    1.0000 </r>
       <r>   -4.1527    1.0000 </r>
       <r>   -4.1527    1.0000 </r>
       <r>   -1.1860    0.0000 </r>
       <r>   -1.1860    0.0000 </r>
       <r>    0.0580    0.0000 </r>
       <r>    0.0580    0.0000 </r>
       <r>    1.4540    0.0000 </r>
       <r>    1.4540    0.0000 </r>
      </set>
      <set comment="kpoint 25">
       <r>  -14.8803    1.0000 </r>
       <r>  -13.9669    1.0000 </r>
       <r>  -12.3239    1.0000 </r>
       <r>  -11.2660    1.0000 </r>
       <r>   -7.5827    1.0000 </r>
       <r>   -7.2205    1.0000 </r>
       <r>   -5.2171    1.0000 </r>
       <r>   -5.2118    1.0000 </r>
       <r>   -4.2908    1.0000 </r>
       <r>   -3.9541    1.0000 </r>
       <r>   -1.1287    0.0000 </r>
       <r>   -1.0699    0.0000 </r>
       <r>   -0.3130    0.0000 </r>
       <r>    0.4344    0.0000 </r>
       <r>    1.1054    0.0000 </r>
       <r>    1.8703    0.0000 </r>
      </set>
      <set comment="kpoint 26">
       <r>  -15.3032    1.0000 </r>
       <r>  -13.5190    1.0000 </r>
       <r>  -12.7653    1.0000 </r>
       <r>  -10.6772    1.0000 </r>
       <r>   -7.7678    1.0000 </r>
       <r>   -7.1429    1.0000 </r>
       <r>   -5.3303    1.0000 </r>
       <r>   -5.2742    1.0000 </r>
       <r>   -4.3564    1.0000 </r>
       <r>   -3.7022    1.0000 </r>
       <r>   -0.9222    0.0000 </r>
       <r>   -0.8525    0.0000 </r>
       <r>   -0.5640    0.0000 </r>
       <r>    0.5218    0.0000 </r>
       <r>    1.1168    0.0000 </r>
       <r>    2.3003    0.0000 </r>
      </set>
      <set comment="kpoint 27">
       <r>  -15.6921    1.0000 </r>
       <r>  -13.3493    1.0000 </r>
       <r>  -12.8969    1.0000 </r>
       <r>  -10.0600    1.0000 </r>
       <r>   -7.8956    1.0000 </r>
       <r>   -7.1670    1.0000 </r>
       <r>   -5.5143    1.0000 </r>
       <r>   -5.3496    1.0000 </r>
       <r>   -4.3148    1.0000 </r>
       <r>   -3.4250    1.0000 </r>
       <r>   -0.9511    0.0000 </r>
       <r>   -0.6442    0.0000 </r>
       <r>   -0.2824    0.0000 </r>
       <r>    0.3285    0.0000 </r>
       <r>    1.5088    0.0000 </r>
       <r>    2.7113    0.0000 </r>
      </set>
      <set comment="kpoint 28">
       <r>  -16.0423    1.0000 </r>
       <r>  -13.6551    1.0000 </r>
       <r>  -12.5461    1.0000 </r>
       <r>   -9.4297    1.0000 </r>
       <r>   -7.9277    1.0000 </r>
       <r>   -7.2633    1.0000 </r>
       <r>   -5.7279    1.0000 </r>
       <r>   -5.4496    1.0000 </r>
       <r>   -4.1736    1.0000 </r>
       <r>   -3.1578    1.0000 </r>
       <r>   -1.0746    0.0000 </r>
       <r>   -0.4920    0.0000 </r>
       <r>    0.2348    0.0000 </r>
       <r>    0.3421    0.0000 </r>
       <r>    1.9442    0.0000 </r>
       <r>    3.0601    0.0000 </r>
      </set>
      <set comment="kpoint 29">
       <r>  -16.3505    1.0000 </r>
       <r>  -13.9711    1.0000 </r>
       <r>  -12.2059    1.0000 </r>
       <r>   -8.8181    1.0000 </r>
       <r>   -7.8317    1.0000 </r>
       <r>   -7.3801    1.0000 </r>
       <r>   -5.9427    1.0000 </r>
       <r>   -5.5409    1.0000 </r>
       <r>   -4.0046    1.0000 </r>
       <r>   -2.9300    1.0000 </r>
       <r>   -1.0607    0.0000 </r>
       <r>   -0.5918    0.0000 </r>
       <r>    0.7067    0.0000 </r>
       <r>    0.8252    0.0000 </r>
       <r>    2.3617    0.0000 </r>
       <r>    3.1710    0.0000 </r>
      </set>
      <set comment="kpoint 30">
       <r>  -16.6143    1.0000 </r>
       <r>  -14.2458    1.0000 </r>
       <r>  -11.9481    1.0000 </r>
       <r>   -8.3045    1.0000 </r>
       <r>   -7.5910    1.0000 </r>
       <r>   -7.4462    1.0000 </r>
       <r>   -6.1390    1.0000 </r>
       <r>   -5.5660    1.0000 </r>
       <r>   -3.8785    1.0000 </r>
       <r>   -2.7585    1.0000 </r>
       <r>   -0.8785    0.0000 </r>
       <r>   -0.7624    0.0000 </r>
       <r>    1.2238    0.0000 </r>
       <r>    1.4297    0.0000 </r>
       <r>    2.6065    0.0000 </r>
       <r>    2.9266    0.0000 </r>
      </set>
      <set comment="kpoint 31">
       <r>  -16.8320    1.0000 </r>
       <r>  -14.4730    1.0000 </r>
       <r>  -11.7796    1.0000 </r>
       <r>   -8.0550    1.0000 </r>
       <r>   -7.3466    1.0000 </r>
       <r>   -7.2211    1.0000 </r>
       <r>   -6.2999    1.0000 </r>
       <r>   -5.4509    1.0000 </r>
       <r>   -3.8195    1.0000 </r>
       <r>   -2.6460    1.0000 </r>
       <r>   -0.9196    0.0000 </r>
       <r>   -0.5418    0.0000 </r>
       <r>    1.7395    0.0000 </r>
       <r>    1.8832    0.0000 </r>
       <r>    2.0722    0.0000 </r>
       <r>    2.5582    0.0000 </r>
      </set>
      <set comment="kpoint 32">
       <r>  -17.0024    1.0000 </r>
       <r>  -14.6507    1.0000 </r>
       <r>  -11.6841    1.0000 </r>
       <r>   -8.0479    1.0000 </r>
       <r>   -7.1615    1.0000 </r>
       <r>   -6.8050    1.0000 </r>
       <r>   -6.3776    1.0000 </r>
       <r>   -5.1406    1.0000 </r>
       <r>   -3.8112    1.0000 </r>
       <r>   -2.5841    1.0000 </r>
       <r>   -1.0446    0.0000 </r>
       <r>   -0.1057    0.0000 </r>
       <r>    1.0195    0.0000 </r>
       <r>    1.6871    0.0000 </r>
       <r>    2.2582    0.0000 </r>
       <r>    2.5207    0.0000 </r>
      </set>
      <set comment="kpoint 33">
       <r>  -17.1247    1.0000 </r>
       <r>  -14.7781    1.0000 </r>
       <r>  -11.6369    1.0000 </r>
       <r>   -8.0966    1.0000 </r>
       <r>   -7.0562    1.0000 </r>
       <r>   -6.6556    1.0000 </r>
       <r>   -6.1290    1.0000 </r>
       <r>   -4.6931    1.0000 </r>
       <r>   -3.8261    1.0000 </r>
       <r>   -2.5594    1.0000 </r>
       <r>   -1.1341    0.0000 </r>
       <r>    0.1708    0.0000 </r>
       <r>    0.3476    0.0000 </r>
       <r>    1.0538    0.0000 </r>
       <r>    2.2150    0.0000 </r>
       <r>    2.4207    0.0000 </r>
      </set>
      <set comment="kpoint 34">
       <r>  -17.1983    1.0000 </r>
       <r>  -14.8547    1.0000 </r>
       <r>  -11.6171    1.0000 </r>
       <r>   -8.1364    1.0000 </r>
       <r>   -7.0179    1.0000 </r>
       <r>   -6.6832    1.0000 </r>
       <r>   -5.7561    1.0000 </r>
       <r>   -4.2773    1.0000 </r>
       <r>   -3.8436    1.0000 </r>
       <r>   -2.5578    1.0000 </r>
       <r>   -1.1888    0.0000 </r>
       <r>   -0.4349    0.0000 </r>
       <r>    0.4747    0.0000 </r>
       <r>    0.7369    0.0000 </r>
       <r>    2.1462    0.0000 </r>
       <r>    2.3388    0.0000 </r>
      </set>
      <set comment="kpoint 35">
       <r>  -17.1623    1.0000 </r>
       <r>  -14.9761    1.0000 </r>
[...]
       <r>    3.2428    0.0000 </r>
       <r>    3.3341    0.0000 </r>
      </set>
      <set comment="kpoint 161">
       <r>  -15.4854    1.0000 </r>
       <r>  -15.2462    1.0000 </r>
       <r>  -10.9104    1.0000 </r>
       <r>  -10.5906    1.0000 </r>
       <r>   -7.8943    1.0000 </r>
       <r>   -7.7456    1.0000 </r>
       <r>   -5.2398    1.0000 </r>
       <r>   -5.0123    1.0000 </r>
       <r>   -3.8949    1.0000 </r>
       <r>   -3.8578    1.0000 </r>
       <r>    0.1156    0.0000 </r>
       <r>    0.4424    0.0000 </r>
       <r>    1.0736    0.0000 </r>
       <r>    1.3645    0.0000 </r>
       <r>    3.1608    0.0000 </r>
       <r>    3.2997    0.0000 </r>
      </set>
      <set comment="kpoint 162">
       <r>  -15.7344    1.0000 </r>
       <r>  -15.4917    1.0000 </r>
       <r>  -10.7858    1.0000 </r>
       <r>  -10.4604    1.0000 </r>
       <r>   -7.5410    1.0000 </r>
       <r>   -7.3878    1.0000 </r>
       <r>   -5.1568    1.0000 </r>
       <r>   -4.8747    1.0000 </r>
       <r>   -3.8642    1.0000 </r>
       <r>   -3.7804    1.0000 </r>
       <r>    0.1855    0.0000 </r>
       <r>    0.4200    0.0000 </r>
       <r>    1.1641    0.0000 </r>
       <r>    1.4899    0.0000 </r>
       <r>    2.8122    0.0000 </r>
       <r>    3.1020    0.0000 </r>
      </set>
      <set comment="kpoint 163">
       <r>  -15.9428    1.0000 </r>
       <r>  -15.6980    1.0000 </r>
       <r>  -10.7566    1.0000 </r>
       <r>  -10.4339    1.0000 </r>
       <r>   -7.0237    1.0000 </r>
       <r>   -6.8596    1.0000 </r>
       <r>   -5.1833    1.0000 </r>
       <r>   -4.8657    1.0000 </r>
       <r>   -3.8111    1.0000 </r>
       <r>   -3.6098    1.0000 </r>
       <r>    0.3442    0.0000 </r>
       <r>    0.4706    0.0000 </r>
       <r>    1.1687    0.0000 </r>
       <r>    1.5202    0.0000 </r>
       <r>    2.2056    0.0000 </r>
       <r>    2.4405    0.0000 </r>
      </set>
      <set comment="kpoint 164">
       <r>  -16.1071    1.0000 </r>
       <r>  -15.8612    1.0000 </r>
       <r>  -10.7766    1.0000 </r>
       <r>  -10.4587    1.0000 </r>
       <r>   -6.4100    1.0000 </r>
       <r>   -6.2356    1.0000 </r>
       <r>   -5.2469    1.0000 </r>
       <r>   -4.9152    1.0000 </r>
       <r>   -3.7741    1.0000 </r>
       <r>   -3.4741    1.0000 </r>
       <r>    0.5141    0.0000 </r>
       <r>    0.5371    0.0000 </r>
       <r>    1.0990    0.0000 </r>
       <r>    1.3988    0.0000 </r>
       <r>    1.6299    0.0000 </r>
       <r>    1.7380    0.0000 </r>
      </set>
      <set comment="kpoint 165">
       <r>  -16.2257    1.0000 </r>
       <r>  -15.9791    1.0000 </r>
       <r>  -10.8103    1.0000 </r>
       <r>  -10.4965    1.0000 </r>
       <r>   -5.7734    1.0000 </r>
       <r>   -5.6019    1.0000 </r>
       <r>   -5.2998    1.0000 </r>
       <r>   -4.9717    1.0000 </r>
       <r>   -3.8050    1.0000 </r>
       <r>   -3.4252    1.0000 </r>
       <r>    0.3311    0.0000 </r>
       <r>    0.3504    0.0000 </r>
       <r>    1.0825    0.0000 </r>
       <r>    1.1478    0.0000 </r>
       <r>    1.4166    0.0000 </r>
       <r>    1.5175    0.0000 </r>
      </set>
      <set comment="kpoint 166">
       <r>  -16.2972    1.0000 </r>
       <r>  -16.0503    1.0000 </r>
       <r>  -10.8373    1.0000 </r>
       <r>  -10.5259    1.0000 </r>
       <r>   -5.3697    1.0000 </r>
       <r>   -5.2148    1.0000 </r>
       <r>   -5.0236    1.0000 </r>
       <r>   -5.0114    1.0000 </r>
       <r>   -3.9188    1.0000 </r>
       <r>   -3.4736    1.0000 </r>
       <r>   -0.0932    0.0000 </r>
       <r>   -0.0601    0.0000 </r>
       <r>    1.1337    0.0000 </r>
       <r>    1.2159    0.0000 </r>
       <r>    1.4489    0.0000 </r>
       <r>    1.4744    0.0000 </r>
      </set>
     </set>
    </set>
   </array>
  </eigenvalues>
  <separator name="orbital magnetization" >
   <v name="MAGDIPOLOUT">      0.00000000      0.00000000      0.00000000</v>
  </separator>
  <dos>
   <i name="efermi">     -2.28208627 </i>
   <total>
    <array>
     <dimension dim="1">gridpoints</dimension>
     <dimension dim="2">spin</dimension>
     <field>energy</field>
     <field>total</field>
     <field>integrated</field>
     <set>
      <set comment="spin 1">
       <r>   -18.2808     0.0000     0.0000 </r>
       <r>   -18.2047     0.0000     0.0000 </r>
       <r>   -18.1287     0.0000     0.0000 </r>
       <r>   -18.0526     0.0000     0.0000 </r>
       <r>   -17.9765     0.0000     0.0000 </r>
       <r>   -17.9004     0.0000     0.0000 </r>
       <r>   -17.8243     0.0000     0.0000 </r>
       <r>   -17.7482     0.0000     0.0000 </r>
       <r>   -17.6721     0.0000     0.0000 </r>
       <r>   -17.5960     0.0000     0.0000 </r>
       <r>   -17.5199     0.0000     0.0000 </r>
       <r>   -17.4438     0.0000     0.0000 </r>
       <r>   -17.3677     0.0000     0.0000 </r>
       <r>   -17.2916     0.0000     0.0000 </r>
       <r>   -17.2155     0.3180     0.0242 </r>
       <r>   -17.1394     0.8453     0.0885 </r>
       <r>   -17.0633     0.7644     0.1467 </r>
       <r>   -16.9872     0.9912     0.2221 </r>
       <r>   -16.9112     0.8667     0.2881 </r>
       <r>   -16.8351     0.8752     0.3547 </r>
       <r>   -16.7590     0.8377     0.4184 </r>
       <r>   -16.6829     0.8725     0.4848 </r>
       <r>   -16.6068     0.9371     0.5561 </r>
       <r>   -16.5307     1.0979     0.6397 </r>
       <r>   -16.4546     0.7754     0.6987 </r>
       <r>   -16.3785     0.4275     0.7312 </r>
       <r>   -16.3024     1.6136     0.8540 </r>
       <r>   -16.2263     0.6449     0.9030 </r>
       <r>   -16.1502     0.9782     0.9775 </r>
       <r>   -16.0741     0.6634     1.0280 </r>
       <r>   -15.9980     1.1566     1.1160 </r>
       <r>   -15.9219     1.1854     1.2062 </r>
       <r>   -15.8458     0.9143     1.2757 </r>
       <r>   -15.7697     0.6184     1.3228 </r>
       <r>   -15.6936     1.5861     1.4435 </r>
       <r>   -15.6176     0.7949     1.5040 </r>
       <r>   -15.5415     1.0791     1.5861 </r>
       <r>   -15.4654     1.0883     1.6689 </r>
       <r>   -15.3893     1.0736     1.7506 </r>
       <r>   -15.3132     0.7659     1.8089 </r>
       <r>   -15.2371     1.6539     1.9347 </r>
       <r>   -15.1610     1.3182     2.0350 </r>
       <r>   -15.0849     1.0962     2.1184 </r>
       <r>   -15.0088     0.8055     2.1797 </r>
       <r>   -14.9327     1.6833     2.3078 </r>
       <r>   -14.8566     2.0608     2.4646 </r>
       <r>   -14.7805     0.9338     2.5357 </r>
       <r>   -14.7044     2.4934     2.7254 </r>
       <r>   -14.6283     0.9930     2.8010 </r>
       <r>   -14.5522     0.9147     2.8706 </r>
       <r>   -14.4761     1.1024     2.9545 </r>
       <r>   -14.4000     1.8106     3.0923 </r>
       <r>   -14.3240     1.0839     3.1747 </r>
       <r>   -14.2479     1.1549     3.2626 </r>
       <r>   -14.1718     1.8389     3.4025 </r>
       <r>   -14.0957     0.8534     3.4675 </r>
       <r>   -14.0196     0.7075     3.5213 </r>
       <r>   -13.9435     2.6828     3.7255 </r>
       <r>   -13.8674     0.3037     3.7486 </r>
       <r>   -13.7913     0.5373     3.7895 </r>
       <r>   -13.7152     0.4765     3.8257 </r>
       <r>   -13.6391     0.4973     3.8636 </r>
       <r>   -13.5630     0.5596     3.9061 </r>
       <r>   -13.4869     0.6936     3.9589 </r>
       <r>   -13.4108     0.0619     3.9636 </r>
       <r>   -13.3347     0.2704     3.9842 </r>
       <r>   -13.2586     0.0486     3.9879 </r>
       <r>   -13.1825     0.1581     3.9999 </r>
       <r>   -13.1065     0.0008     4.0000 </r>
       <r>   -13.0304     0.0663     4.0050 </r>
       <r>   -12.9543     0.0930     4.0121 </r>
       <r>   -12.8782     0.2889     4.0341 </r>
       <r>   -12.8021     0.0728     4.0396 </r>
       <r>   -12.7260     0.4418     4.0733 </r>
       <r>   -12.6499     0.6288     4.1211 </r>
       <r>   -12.5738     0.3066     4.1444 </r>
       <r>   -12.4977     0.5352     4.1852 </r>
       <r>   -12.4216     0.4873     4.2223 </r>
       <r>   -12.3455     0.5827     4.2666 </r>
       <r>   -12.2694     1.6502     4.3922 </r>
       <r>   -12.1933     1.5764     4.5121 </r>
       <r>   -12.1172     0.8475     4.5766 </r>
       <r>   -12.0411     1.1336     4.6629 </r>
       <r>   -11.9650     1.3364     4.7646 </r>
       <r>   -11.8889     1.1077     4.8489 </r>
       <r>   -11.8129     1.4858     4.9619 </r>
       <r>   -11.7368     1.3182     5.0622 </r>
       <r>   -11.6607     1.8057     5.1996 </r>
       <r>   -11.5846     2.8978     5.4201 </r>
       <r>   -11.5085     1.8427     5.5603 </r>
       <r>   -11.4324     2.2061     5.7282 </r>
       <r>   -11.3563     0.8154     5.7903 </r>
       <r>   -11.2802     1.5960     5.9117 </r>
       <r>   -11.2041     1.5598     6.0304 </r>
       <r>   -11.1280     0.6458     6.0795 </r>
       <r>   -11.0519     1.2800     6.1769 </r>
       <r>   -10.9758     0.8297     6.2401 </r>
       <r>   -10.8997     0.5181     6.2795 </r>
       <r>   -10.8236     1.1767     6.3690 </r>
       <r>   -10.7475     1.3476     6.4716 </r>
       <r>   -10.6714     0.7978     6.5323 </r>
       <r>   -10.5954     0.3709     6.5605 </r>
       <r>   -10.5193     0.8945     6.6286 </r>
       <r>   -10.4432     1.3793     6.7335 </r>
       <r>   -10.3671     0.3161     6.7576 </r>
       <r>   -10.2910     0.1799     6.7713 </r>
       <r>   -10.2149     0.7766     6.8304 </r>
       <r>   -10.1388     0.8931     6.8983 </r>
       <r>   -10.0627     1.2593     6.9941 </r>
       <r>    -9.9866     0.5066     7.0327 </r>
       <r>    -9.9105     0.4149     7.0643 </r>
       <r>    -9.8344     0.1113     7.0727 </r>
       <r>    -9.7583     0.5747     7.1165 </r>
       <r>    -9.6822     1.3989     7.2229 </r>
       <r>    -9.6061     0.1113     7.2314 </r>
       <r>    -9.5300     0.6018     7.2772 </r>
       <r>    -9.4539     0.0350     7.2798 </r>
       <r>    -9.3778     0.5125     7.3188 </r>
       <r>    -9.3018     1.1968     7.4099 </r>
       <r>    -9.2257     0.8254     7.4727 </r>
       <r>    -9.1496     0.0002     7.4727 </r>
       <r>    -9.0735     0.0000     7.4727 </r>
       <r>    -8.9974     0.2452     7.4914 </r>
       <r>    -8.9213     0.7467     7.5482 </r>
       <r>    -8.8452     1.0492     7.6280 </r>
       <r>    -8.7691     0.3599     7.6554 </r>
       <r>    -8.6930     0.1477     7.6667 </r>
       <r>    -8.6169     0.1328     7.6768 </r>
       <r>    -8.5408     0.1922     7.6914 </r>
       <r>    -8.4647     0.7867     7.7513 </r>
       <r>    -8.3886     0.6404     7.8000 </r>
       <r>    -8.3125     0.0910     7.8069 </r>
       <r>    -8.2364     0.2308     7.8245 </r>
       <r>    -8.1603     1.1143     7.9093 </r>
       <r>    -8.0843     2.3458     8.0878 </r>
       <r>    -8.0082     2.5522     8.2820 </r>
       <r>    -7.9321     2.2038     8.4497 </r>
       <r>    -7.8560     2.1018     8.6096 </r>
       <r>    -7.7799     1.8136     8.7476 </r>
       <r>    -7.7038     2.6270     8.9475 </r>
       <r>    -7.6277     2.2292     9.1171 </r>
       <r>    -7.5516     1.4779     9.2296 </r>
       <r>    -7.4755     1.2420     9.3241 </r>
       <r>    -7.3994     2.6516     9.5259 </r>
       <r>    -7.3233     3.4109     9.7854 </r>
       <r>    -7.2472     4.1904    10.1043 </r>
       <r>    -7.1711     3.7277    10.3879 </r>
       <r>    -7.0950     2.6478    10.5894 </r>
       <r>    -7.0189     1.4781    10.7019 </r>
       <r>    -6.9428     0.4131    10.7333 </r>
       <r>    -6.8667     0.8121    10.7951 </r>
       <r>    -6.7907     1.6096    10.9176 </r>
       <r>    -6.7146     1.4843    11.0306 </r>
       <r>    -6.6385     1.9547    11.1793 </r>
       <r>    -6.5624     1.9055    11.3243 </r>
       <r>    -6.4863     1.4573    11.4352 </r>
       <r>    -6.4102     1.3468    11.5377 </r>
       <r>    -6.3341     1.2283    11.6311 </r>
       <r>    -6.2580     1.9034    11.7760 </r>
       <r>    -6.1819     1.7754    11.9111 </r>
       <r>    -6.1058     1.7995    12.0480 </r>
       <r>    -6.0297     1.5700    12.1675 </r>
       <r>    -5.9536     2.6656    12.3703 </r>
       <r>    -5.8775     1.3078    12.4698 </r>
       <r>    -5.8014     1.6499    12.5954 </r>
       <r>    -5.7253     2.6661    12.7982 </r>
       <r>    -5.6492     4.4781    13.1390 </r>
       <r>    -5.5732     4.2796    13.4647 </r>
       <r>    -5.4971     4.1475    13.7803 </r>
       <r>    -5.4210     3.3085    14.0320 </r>
       <r>    -5.3449     2.9045    14.2530 </r>
       <r>    -5.2688     3.2859    14.5031 </r>
       <r>    -5.1927     3.6225    14.7787 </r>
       <r>    -5.1166     2.3715    14.9592 </r>
       <r>    -5.0405     1.5554    15.0775 </r>
       <r>    -4.9644     2.5612    15.2724 </r>
       <r>    -4.8883     0.9753    15.3466 </r>
       <r>    -4.8122     1.5627    15.4655 </r>
       <r>    -4.7361     1.0268    15.5437 </r>
       <r>    -4.6600     1.3245    15.6444 </r>
       <r>    -4.5839     1.6860    15.7727 </r>
       <r>    -4.5078     1.1498    15.8602 </r>
       <r>    -4.4317     0.4269    15.8927 </r>
       <r>    -4.3556     0.9122    15.9621 </r>
       <r>    -4.2796     1.5761    16.0821 </r>
       <r>    -4.2035     2.2864    16.2560 </r>
       <r>    -4.1274     3.0412    16.4875 </r>
       <r>    -4.0513     1.9340    16.6346 </r>
       <r>    -3.9752     3.2672    16.8832 </r>
       <r>    -3.8991     2.8209    17.0979 </r>
       <r>    -3.8230     4.0009    17.4023 </r>
       <r>    -3.7469     5.4433    17.8165 </r>
       <r>    -3.6708     2.3474    17.9952 </r>
       <r>    -3.5947     3.7260    18.2787 </r>
       <r>    -3.5186     2.0699    18.4362 </r>
       <r>    -3.4425     4.2470    18.7594 </r>
       <r>    -3.3664     4.4639    19.0990 </r>
       <r>    -3.2903     3.0345    19.3300 </r>
       <r>    -3.2142     0.8179    19.3922 </r>
       <r>    -3.1381     1.4237    19.5005 </r>
       <r>    -3.0620     1.2345    19.5945 </r>
       <r>    -2.9860     0.7131    19.6487 </r>
       <r>    -2.9099     1.6765    19.7763 </r>
       <r>    -2.8338     0.3092    19.7998 </r>
       <r>    -2.7577     0.1687    19.8127 </r>
       <r>    -2.6816     0.1738    19.8259 </r>
       <r>    -2.6055     0.4767    19.8622 </r>
       <r>    -2.5294     1.1330    19.9484 </r>
       <r>    -2.4533     0.1333    19.9585 </r>
       <r>    -2.3772     0.3496    19.9851 </r>
       <r>    -2.3011     0.1955    20.0000 </r>
       <r>    -2.2250     0.0000    20.0000 </r>
       <r>    -2.1489     0.0000    20.0000 </r>
       <r>    -2.0728     0.0000    20.0000 </r>
       <r>    -1.9967     0.0000    20.0000 </r>
       <r>    -1.9206     0.0000    20.0000 </r>
       <r>    -1.8445     0.0000    20.0000 </r>
       <r>    -1.7685     0.0000    20.0000 </r>
       <r>    -1.6924     0.0000    20.0000 </r>
       <r>    -1.6163     0.0000    20.0000 </r>
       <r>    -1.5402     0.0000    20.0000 </r>
       <r>    -1.4641     0.0000    20.0000 </r>
       <r>    -1.3880     0.0428    20.0033 </r>
       <r>    -1.3119     0.2169    20.0198 </r>
       <r>    -1.2358     0.1428    20.0306 </r>
       <r>    -1.1597     1.6795    20.1584 </r>
       <r>    -1.0836     1.5809    20.2787 </r>
       <r>    -1.0075     2.1199    20.4400 </r>
       <r>    -0.9314     1.3959    20.5463 </r>
       <r>    -0.8553     1.8826    20.6895 </r>
       <r>    -0.7792     1.9194    20.8356 </r>
       <r>    -0.7031     2.0278    20.9899 </r>
       <r>    -0.6270     2.2992    21.1648 </r>
       <r>    -0.5509     1.9277    21.3115 </r>
       <r>    -0.4749     1.9956    21.4634 </r>
       <r>    -0.3988     3.0528    21.6957 </r>
       <r>    -0.3227     2.7183    21.9025 </r>
       <r>    -0.2466     3.2742    22.1517 </r>
       <r>    -0.1705     2.6225    22.3512 </r>
       <r>    -0.0944     2.2099    22.5194 </r>
       <r>    -0.0183     2.8523    22.7364 </r>
       <r>     0.0578     3.0180    22.9661 </r>
       <r>     0.1339     4.6674    23.3212 </r>
       <r>     0.2100     3.5508    23.5914 </r>
       <r>     0.2861     1.6366    23.7160 </r>
       <r>     0.3622     6.3634    24.2002 </r>
       <r>     0.4383     5.2641    24.6007 </r>
       <r>     0.5144     4.4906    24.9424 </r>
       <r>     0.5905     4.6796    25.2985 </r>
       <r>     0.6666     1.8819    25.4417 </r>
       <r>     0.7426     3.2078    25.6858 </r>
       <r>     0.8187     4.9391    26.0617 </r>
       <r>     0.8948     3.1082    26.2982 </r>
       <r>     0.9709     1.6693    26.4252 </r>
       <r>     1.0470     2.7935    26.6378 </r>
       <r>     1.1231     3.8278    26.9290 </r>
       <r>     1.1992     3.2708    27.1779 </r>
       <r>     1.2753     1.8678    27.3201 </r>
       <r>     1.3514     1.2484    27.4151 </r>
       <r>     1.4275     2.3149    27.5912 </r>
       <r>     1.5036     2.7904    27.8035 </r>
       <r>     1.5797     1.3635    27.9073 </r>
       <r>     1.6558     2.5896    28.1043 </r>
       <r>     1.7319     2.2316    28.2742 </r>
       <r>     1.8080     3.3401    28.5283 </r>
       <r>     1.8841     1.5909    28.6494 </r>
       <r>     1.9602     2.1115    28.8101 </r>
       <r>     2.0362     2.8125    29.0241 </r>
       <r>     2.1123     1.7288    29.1556 </r>
       <r>     2.1884     2.2859    29.3296 </r>
       <r>     2.2645     2.5692    29.5251 </r>
       <r>     2.3406     3.3119    29.7771 </r>
       <r>     2.4167     2.5575    29.9717 </r>
       <r>     2.4928     2.2663    30.1442 </r>
       <r>     2.5689     4.5229    30.4883 </r>
       <r>     2.6450     2.4940    30.6781 </r>
       <r>     2.7211     2.5643    30.8732 </r>
       <r>     2.7972     2.3683    31.0534 </r>
       <r>     2.8733     1.3426    31.1556 </r>
       <r>     2.9494     2.9610    31.3809 </r>
       <r>     3.0255     0.5280    31.4211 </r>
       <r>     3.1016     1.8880    31.5648 </r>
       <r>     3.1777     1.9596    31.7139 </r>
       <r>     3.2537     1.6519    31.8396 </r>
       <r>     3.3298     1.0033    31.9159 </r>
       <r>     3.4059     0.7454    31.9726 </r>
       <r>     3.4820     0.0490    31.9764 </r>
       <r>     3.5581     0.3105    32.0000 </r>
       <r>     3.6342     0.0001    32.0000 </r>
       <r>     3.7103     0.0000    32.0000 </r>
       <r>     3.7864     0.0000    32.0000 </r>
       <r>     3.8625     0.0000    32.0000 </r>
       <r>     3.9386     0.0000    32.0000 </r>
       <r>     4.0147     0.0000    32.0000 </r>
       <r>     4.0908     0.0000    32.0000 </r>
       <r>     4.1669     0.0000    32.0000 </r>
       <r>     4.2430     0.0000    32.0000 </r>
       <r>     4.3191     0.0000    32.0000 </r>
       <r>     4.3952     0.0000    32.0000 </r>
       <r>     4.4713     0.0000    32.0000 </r>
       <r>     4.5473     0.0000    32.0000 </r>
      </set>
     </set>
    </array>
   </total>
  </dos>
 </calculation>
 <structure name="finalpos" >
  <crystal>
   <varray name="basis" >
    <v>       3.29720400       0.00000000       0.00000000 </v>
    <v>       0.00000000       4.71491100      -0.00005300 </v>
    <v>       0.00000000       0.00000000      20.02439000 </v>
   </varray>
   <i name="volume">    311.29963569 </i>
   <varray name="rec_basis" >
    <v>       0.30328727       0.00000000       0.00000000 </v>
    <v>       0.00000000       0.21209308       0.00000000 </v>
    <v>       0.00000000       0.00000056       0.04993910 </v>
   </varray>
  </crystal>
  <varray name="positions" >
   <v>       0.50000000       0.90786337       0.55218252 </v>
   <v>       0.50000000       0.09213663       0.44781748 </v>
   <v>      -0.00000000       0.40785881       0.44781748 </v>
   <v>       0.00000000       0.59214119       0.55218252 </v>
  </varray>
 </structure>
</modeling>
