<?xml version="1.0" encoding="ISO-8859-1"?>
<modeling>
 <generator>
  <i name="program" type="string">vasp </i>
  <i name="version" type="string">5.4.1  </i>
  <i name="subversion" type="string">24Jun15 (build Nov 20 2020 10:29:34) complex                          parallel </i>
  <i name="platform" type="string">IFC91_ompi </i>
  <i name="date" type="string">2021 09 09 </i>
  <i name="time" type="string">15:23:59 </i>
 </generator>
 <incar>
  <i type="string" name="PREC">a</i>
  <i type="string" name="ALGO"> Normal</i>
  <i type="int" name="ISPIN">     1</i>
  <i type="int" name="ICHARG">     2</i>
  <i type="int" name="NELM">   250</i>
  <i type="int" name="NELMDL">    -5</i>
  <i type="int" name="NELMIN">     6</i>
  <i type="int" name="IBRION">     2</i>
  <i name="EDIFF">      0.00001000</i>
  <i name="EDIFFG">     -0.01000000</i>
  <i type="int" name="NSW">   200</i>
  <i type="int" name="ISIF">     2</i>
  <i name="ENCUT">    520.00000000</i>
  <i name="POTIM">      0.30000000</i>
  <i type="logical" name="LREAL"> F  </i>
  <i type="int" name="ISMEAR">     0</i>
  <i name="SIGMA">      0.02000000</i>
  <i type="logical" name="LWAVE"> F  </i>
  <i type="logical" name="LCHARG"> F  </i>
  <i type="logical" name="LAECHG"> F  </i>
  <v type="int" name="KPOINT_BSE">    -1     0     0     0</v>
  <i type="int" name="NELM">   250</i>
 </incar>
 <kpoints>
  <generation param="Gamma">
   <v type="int" name="divisions">      20       16        1 </v>
   <v name="usershift">      0.00000000       0.00000000       0.00000000 </v>
   <v name="genvec1">      0.05000000       0.00000000       0.00000000 </v>
   <v name="genvec2">      0.00000000       0.06250000       0.00000000 </v>
   <v name="genvec3">      0.00000000       0.00000000       1.00000000 </v>
   <v name="shift">      0.00000000       0.00000000       0.00000000 </v>
  </generation>
  <varray name="kpointlist" >
   <v>       0.00000000       0.00000000       0.00000000 </v>
   <v>       0.05000000       0.00000000       0.00000000 </v>
   <v>       0.10000000       0.00000000       0.00000000 </v>
   <v>       0.15000000       0.00000000       0.00000000 </v>
   <v>       0.20000000       0.00000000       0.00000000 </v>
   <v>       0.25000000       0.00000000       0.00000000 </v>
   <v>       0.30000000       0.00000000       0.00000000 </v>
   <v>       0.35000000       0.00000000       0.00000000 </v>
   <v>       0.40000000       0.00000000       0.00000000 </v>
   <v>       0.45000000       0.00000000       0.00000000 </v>
   <v>       0.50000000       0.00000000       0.00000000 </v>
   <v>       0.00000000       0.06250000       0.00000000 </v>
   <v>       0.05000000       0.06250000       0.00000000 </v>
   <v>       0.10000000       0.06250000       0.00000000 </v>
   <v>       0.15000000       0.06250000       0.00000000 </v>
   <v>       0.20000000       0.06250000       0.00000000 </v>
   <v>       0.25000000       0.06250000       0.00000000 </v>
   <v>       0.30000000       0.06250000       0.00000000 </v>
   <v>       0.35000000       0.06250000       0.00000000 </v>
   <v>       0.40000000       0.06250000       0.00000000 </v>
   <v>       0.45000000       0.06250000       0.00000000 </v>
   <v>       0.50000000       0.06250000       0.00000000 </v>
   <v>      -0.45000000       0.06250000       0.00000000 </v>
   <v>      -0.40000000       0.06250000       0.00000000 </v>
   <v>      -0.35000000       0.06250000       0.00000000 </v>
   <v>      -0.30000000       0.06250000       0.00000000 </v>
   <v>      -0.25000000       0.06250000       0.00000000 </v>
   <v>      -0.20000000       0.06250000       0.00000000 </v>
   <v>      -0.15000000       0.06250000       0.00000000 </v>
   <v>      -0.10000000       0.06250000       0.00000000 </v>
   <v>      -0.05000000       0.06250000       0.00000000 </v>
   <v>       0.00000000       0.12500000       0.00000000 </v>
   <v>       0.05000000       0.12500000       0.00000000 </v>
   <v>       0.10000000       0.12500000       0.00000000 </v>
   <v>       0.15000000       0.12500000       0.00000000 </v>
   <v>       0.20000000       0.12500000       0.00000000 </v>
   <v>       0.25000000       0.12500000       0.00000000 </v>
   <v>       0.30000000       0.12500000       0.00000000 </v>
   <v>       0.35000000       0.12500000       0.00000000 </v>
   <v>       0.40000000       0.12500000       0.00000000 </v>
   <v>       0.45000000       0.12500000       0.00000000 </v>
   <v>       0.50000000       0.12500000       0.00000000 </v>
   <v>      -0.45000000       0.12500000       0.00000000 </v>
   <v>      -0.40000000       0.12500000       0.00000000 </v>
   <v>      -0.35000000       0.12500000       0.00000000 </v>
   <v>      -0.30000000       0.12500000       0.00000000 </v>
   <v>      -0.25000000       0.12500000       0.00000000 </v>
   <v>      -0.20000000       0.12500000       0.00000000 </v>
   <v>      -0.15000000       0.12500000       0.00000000 </v>
   <v>      -0.10000000       0.12500000       0.00000000 </v>
   <v>      -0.05000000       0.12500000       0.00000000 </v>
   <v>       0.00000000       0.18750000       0.00000000 </v>
   <v>       0.05000000       0.18750000       0.00000000 </v>
   <v>       0.10000000       0.18750000       0.00000000 </v>
   <v>       0.15000000       0.18750000       0.00000000 </v>
   <v>       0.20000000       0.18750000       0.00000000 </v>
   <v>       0.25000000       0.18750000       0.00000000 </v>
   <v>       0.30000000       0.18750000       0.00000000 </v>
   <v>       0.35000000       0.18750000       0.00000000 </v>
   <v>       0.40000000       0.18750000       0.00000000 </v>
   <v>       0.45000000       0.18750000       0.00000000 </v>
   <v>       0.50000000       0.18750000       0.00000000 </v>
   <v>      -0.45000000       0.18750000       0.00000000 </v>
   <v>      -0.40000000       0.18750000       0.00000000 </v>
   <v>      -0.35000000       0.18750000       0.00000000 </v>
   <v>      -0.30000000       0.18750000       0.00000000 </v>
   <v>      -0.25000000       0.18750000       0.00000000 </v>
   <v>      -0.20000000       0.18750000       0.00000000 </v>
   <v>      -0.15000000       0.18750000       0.00000000 </v>
   <v>      -0.10000000       0.18750000       0.00000000 </v>
   <v>      -0.05000000       0.18750000       0.00000000 </v>
   <v>       0.00000000       0.25000000       0.00000000 </v>
   <v>       0.05000000       0.25000000       0.00000000 </v>
   <v>       0.10000000       0.25000000       0.00000000 </v>
   <v>       0.15000000       0.25000000       0.00000000 </v>
   <v>       0.20000000       0.25000000       0.00000000 </v>
   <v>       0.25000000       0.25000000       0.00000000 </v>
   <v>       0.30000000       0.25000000       0.00000000 </v>
   <v>       0.35000000       0.25000000       0.00000000 </v>
   <v>       0.40000000       0.25000000       0.00000000 </v>
   <v>       0.45000000       0.25000000       0.00000000 </v>
   <v>       0.50000000       0.25000000       0.00000000 </v>
   <v>      -0.45000000       0.25000000       0.00000000 </v>
   <v>      -0.40000000       0.25000000       0.00000000 </v>
   <v>      -0.35000000       0.25000000       0.00000000 </v>
   <v>      -0.30000000       0.25000000       0.00000000 </v>
   <v>      -0.25000000       0.25000000       0.00000000 </v>
   <v>      -0.20000000       0.25000000       0.00000000 </v>
   <v>      -0.15000000       0.25000000       0.00000000 </v>
   <v>      -0.10000000       0.25000000       0.00000000 </v>
   <v>      -0.05000000       0.25000000       0.00000000 </v>
   <v>       0.00000000       0.31250000       0.00000000 </v>
   <v>       0.05000000       0.31250000       0.00000000 </v>
   <v>       0.10000000       0.31250000       0.00000000 </v>
   <v>       0.15000000       0.31250000       0.00000000 </v>
   <v>       0.20000000       0.31250000       0.00000000 </v>
   <v>       0.25000000       0.31250000       0.00000000 </v>
   <v>       0.30000000       0.31250000       0.00000000 </v>
   <v>       0.35000000       0.31250000       0.00000000 </v>
   <v>       0.40000000       0.31250000       0.00000000 </v>
   <v>       0.45000000       0.31250000       0.00000000 </v>
   <v>       0.50000000       0.31250000       0.00000000 </v>
   <v>      -0.45000000       0.31250000       0.00000000 </v>
   <v>      -0.40000000       0.31250000       0.00000000 </v>
   <v>      -0.35000000       0.31250000       0.00000000 </v>
   <v>      -0.30000000       0.31250000       0.00000000 </v>
   <v>      -0.25000000       0.31250000       0.00000000 </v>
   <v>      -0.20000000       0.31250000       0.00000000 </v>
   <v>      -0.15000000       0.31250000       0.00000000 </v>
   <v>      -0.10000000       0.31250000       0.00000000 </v>
   <v>      -0.05000000       0.31250000       0.00000000 </v>
   <v>       0.00000000       0.37500000       0.00000000 </v>
   <v>       0.05000000       0.37500000       0.00000000 </v>
   <v>       0.10000000       0.37500000       0.00000000 </v>
   <v>       0.15000000       0.37500000       0.00000000 </v>
   <v>       0.20000000       0.37500000       0.00000000 </v>
   <v>       0.25000000       0.37500000       0.00000000 </v>
   <v>       0.30000000       0.37500000       0.00000000 </v>
   <v>       0.35000000       0.37500000       0.00000000 </v>
   <v>       0.40000000       0.37500000       0.00000000 </v>
   <v>       0.45000000       0.37500000       0.00000000 </v>
   <v>       0.50000000       0.37500000       0.00000000 </v>
   <v>      -0.45000000       0.37500000       0.00000000 </v>
   <v>      -0.40000000       0.37500000       0.00000000 </v>
   <v>      -0.35000000       0.37500000       0.00000000 </v>
   <v>      -0.30000000       0.37500000       0.00000000 </v>
   <v>      -0.25000000       0.37500000       0.00000000 </v>
   <v>      -0.20000000       0.37500000       0.00000000 </v>
   <v>      -0.15000000       0.37500000       0.00000000 </v>
   <v>      -0.10000000       0.37500000       0.00000000 </v>
   <v>      -0.05000000       0.37500000       0.00000000 </v>
   <v>       0.00000000       0.43750000       0.00000000 </v>
   <v>       0.05000000       0.43750000       0.00000000 </v>
   <v>       0.10000000       0.43750000       0.00000000 </v>
   <v>       0.15000000       0.43750000       0.00000000 </v>
   <v>       0.20000000       0.43750000       0.00000000 </v>
   <v>       0.25000000       0.43750000       0.00000000 </v>
   <v>       0.30000000       0.43750000       0.00000000 </v>
   <v>       0.35000000       0.43750000       0.00000000 </v>
   <v>       0.40000000       0.43750000       0.00000000 </v>
   <v>       0.45000000       0.43750000       0.00000000 </v>
   <v>       0.50000000       0.43750000       0.00000000 </v>
   <v>      -0.45000000       0.43750000       0.00000000 </v>
   <v>      -0.40000000       0.43750000       0.00000000 </v>
   <v>      -0.35000000       0.43750000       0.00000000 </v>
   <v>      -0.30000000       0.43750000       0.00000000 </v>
   <v>      -0.25000000       0.43750000       0.00000000 </v>
   <v>      -0.20000000       0.43750000       0.00000000 </v>
   <v>      -0.15000000       0.43750000       0.00000000 </v>
   <v>      -0.10000000       0.43750000       0.00000000 </v>
   <v>      -0.05000000       0.43750000       0.00000000 </v>
   <v>       0.00000000       0.50000000       0.00000000 </v>
   <v>       0.05000000       0.50000000       0.00000000 </v>
   <v>       0.10000000       0.50000000       0.00000000 </v>
   <v>       0.15000000       0.50000000       0.00000000 </v>
   <v>       0.20000000       0.50000000       0.00000000 </v>
   <v>       0.25000000       0.50000000       0.00000000 </v>
   <v>       0.30000000       0.50000000       0.00000000 </v>
   <v>       0.35000000       0.50000000       0.00000000 </v>
   <v>       0.40000000       0.50000000       0.00000000 </v>
   <v>       0.45000000       0.50000000       0.00000000 </v>
   <v>       0.50000000       0.50000000       0.00000000 </v>
  </varray>
  <varray name="weights" >
   <v>       0.00312500 </v>
   <v>       0.00625000 </v>
   <v>       0.00625000 </v>
   <v>       0.00625000 </v>
   <v>       0.00625000 </v>
   <v>       0.00625000 </v>
   <v>       0.00625000 </v>
   <v>       0.00625000 </v>
   <v>       0.00625000 </v>
   <v>       0.00625000 </v>
   <v>       0.00312500 </v>
   <v>       0.00625000 </v>
   <v>       0.00625000 </v>
   <v>       0.00625000 </v>
   <v>       0.00625000 </v>
   <v>       0.00625000 </v>
   <v>       0.00625000 </v>
   <v>       0.00625000 </v>
   <v>       0.00625000 </v>
   <v>       0.00625000 </v>
   <v>       0.00625000 </v>
   <v>       0.00625000 </v>
   <v>       0.00625000 </v>
   <v>       0.00625000 </v>
   <v>       0.00625000 </v>
   <v>       0.00625000 </v>
   <v>       0.00625000 </v>
   <v>       0.00625000 </v>
   <v>       0.00625000 </v>
   <v>       0.00625000 </v>
   <v>       0.00625000 </v>
   <v>       0.00625000 </v>
   <v>       0.00625000 </v>
   <v>       0.00625000 </v>
   <v>       0.00625000 </v>
   <v>       0.00625000 </v>
   <v>       0.00625000 </v>
   <v>       0.00625000 </v>
   <v>       0.00625000 </v>
   <v>       0.00625000 </v>
   <v>       0.00625000 </v>
   <v>       0.00625000 </v>
   <v>       0.00625000 </v>
   <v>       0.00625000 </v>
   <v>       0.00625000 </v>
   <v>       0.00625000 </v>
   <v>       0.00625000 </v>
   <v>       0.00625000 </v>
   <v>       0.00625000 </v>
   <v>       0.00625000 </v>
   <v>       0.00625000 </v>
   <v>       0.00625000 </v>
   <v>       0.00625000 </v>
   <v>       0.00625000 </v>
   <v>       0.00625000 </v>
   <v>       0.00625000 </v>
   <v>       0.00625000 </v>
   <v>       0.00625000 </v>
   <v>       0.00625000 </v>
   <v>       0.00625000 </v>
   <v>       0.00625000 </v>
   <v>       0.00625000 </v>
   <v>       0.00625000 </v>
   <v>       0.00625000 </v>
   <v>       0.00625000 </v>
   <v>       0.00625000 </v>
   <v>       0.00625000 </v>
   <v>       0.00625000 </v>
   <v>       0.00625000 </v>
   <v>       0.00625000 </v>
   <v>       0.00625000 </v>
   <v>       0.00625000 </v>
   <v>       0.00625000 </v>
   <v>       0.00625000 </v>
   <v>       0.00625000 </v>
   <v>       0.00625000 </v>
   <v>       0.00625000 </v>
   <v>       0.00625000 </v>
   <v>       0.00625000 </v>
   <v>       0.00625000 </v>
   <v>       0.00625000 </v>
   <v>       0.00625000 </v>
   <v>       0.00625000 </v>
   <v>       0.00625000 </v>
   <v>       0.00625000 </v>
   <v>       0.00625000 </v>
   <v>       0.00625000 </v>
   <v>       0.00625000 </v>
   <v>       0.00625000 </v>
   <v>       0.00625000 </v>
   <v>       0.00625000 </v>
   <v>       0.00625000 </v>
   <v>       0.00625000 </v>
   <v>       0.00625000 </v>
   <v>       0.00625000 </v>
   <v>       0.00625000 </v>
   <v>       0.00625000 </v>
   <v>       0.00625000 </v>
   <v>       0.00625000 </v>
   <v>       0.00625000 </v>
   <v>       0.00625000 </v>
   <v>       0.00625000 </v>
   <v>       0.00625000 </v>
   <v>       0.00625000 </v>
   <v>       0.00625000 </v>
   <v>       0.00625000 </v>
   <v>       0.00625000 </v>
   <v>       0.00625000 </v>
   <v>       0.00625000 </v>
   <v>       0.00625000 </v>
   <v>       0.00625000 </v>
   <v>       0.00625000 </v>
   <v>       0.00625000 </v>
   <v>       0.00625000 </v>
   <v>       0.00625000 </v>
   <v>       0.00625000 </v>
   <v>       0.00625000 </v>
   <v>       0.00625000 </v>
   <v>       0.00625000 </v>
   <v>       0.00625000 </v>
   <v>       0.00625000 </v>
   <v>       0.00625000 </v>
   <v>       0.00625000 </v>
   <v>       0.00625000 </v>
   <v>       0.00625000 </v>
   <v>       0.00625000 </v>
   <v>       0.00625000 </v>
   <v>       0.00625000 </v>
   <v>       0.00625000 </v>
   <v>       0.00625000 </v>
   <v>       0.00625000 </v>
   <v>       0.00625000 </v>
   <v>       0.00625000 </v>
   <v>       0.00625000 </v>
   <v>       0.00625000 </v>
   <v>       0.00625000 </v>
   <v>       0.00625000 </v>
   <v>       0.00625000 </v>
   <v>       0.00625000 </v>
   <v>       0.00625000 </v>
   <v>       0.00625000 </v>
   <v>       0.00625000 </v>
   <v>       0.00625000 </v>
   <v>       0.00625000 </v>
   <v>       0.00625000 </v>
   <v>       0.00625000 </v>
   <v>       0.00625000 </v>
   <v>       0.00625000 </v>
   <v>       0.00625000 </v>
   <v>       0.00625000 </v>
   <v>       0.00625000 </v>
   <v>       0.00312500 </v>
   <v>       0.00625000 </v>
   <v>       0.00625000 </v>
   <v>       0.00625000 </v>
   <v>       0.00625000 </v>
   <v>       0.00625000 </v>
   <v>       0.00625000 </v>
   <v>       0.00625000 </v>
   <v>       0.00625000 </v>
   <v>       0.00625000 </v>
   <v>       0.00312500 </v>
  </varray>
 </kpoints>
 <parameters>
  <separator name="general" >
   <i type="string" name="SYSTEM">unknown system</i>
   <i type="logical" name="LCOMPAT"> F  </i>
  </separator>
  <separator name="electronic" >
   <i type="string" name="PREC">a</i>
   <i name="ENMAX">    520.00000000</i>
   <i name="ENAUG">    342.92400000</i>
   <i name="EDIFF">      0.00001000</i>
   <i type="int" name="IALGO">    38</i>
   <i type="int" name="IWAVPR">    11</i>
   <i type="int" name="NBANDS">    16</i>
   <i name="NELECT">     20.00000000</i>
   <i type="int" name="TURBO">     0</i>
   <i type="int" name="IRESTART">     0</i>
   <i type="int" name="NREBOOT">     0</i>
   <i type="int" name="NMIN">     0</i>
   <i name="EREF">      0.00000000</i>
   <separator name="electronic smearing" >
    <i type="int" name="ISMEAR">     0</i>
    <i name="SIGMA">      0.02000000</i>
    <i name="KSPACING">      0.50000000</i>
    <i type="logical" name="KGAMMA"> T  </i>
   </separator>
   <separator name="electronic projectors" >
    <i type="logical" name="LREAL"> F  </i>
    <v name="ROPT">      0.00000000</v>
    <i type="int" name="LMAXPAW">  -100</i>
    <i type="int" name="LMAXMIX">     2</i>
    <i type="logical" name="NLSPLINE"> F  </i>
   </separator>
   <separator name="electronic startup" >
    <i type="int" name="ISTART">     0</i>
    <i type="int" name="ICHARG">     2</i>
    <i type="int" name="INIWAV">     1</i>
   </separator>
   <separator name="electronic spin" >
    <i type="int" name="ISPIN">     1</i>
    <i type="logical" name="LNONCOLLINEAR"> F  </i>
    <v name="MAGMOM">      1.00000000      1.00000000      1.00000000      1.00000000</v>
    <i name="NUPDOWN">     -1.00000000</i>
    <i type="logical" name="LSORBIT"> F  </i>
    <v name="SAXIS">      0.00000000      0.00000000      1.00000000</v>
    <i type="logical" name="LSPIRAL"> F  </i>
    <v name="QSPIRAL">      0.00000000      0.00000000      0.00000000</v>
    <i type="logical" name="LZEROZ"> F  </i>
   </separator>
   <separator name="electronic exchange-correlation" >
    <i type="logical" name="LASPH"> F  </i>
    <i type="logical" name="LMETAGGA"> F  </i>
   </separator>
   <separator name="electronic convergence" >
    <i type="int" name="NELM">   250</i>
    <i type="int" name="NELMDL">    -5</i>
    <i type="int" name="NELMIN">     6</i>
    <i name="ENINI">    520.00000000</i>
    <separator name="electronic convergence detail" >
     <i type="logical" name="LDIAG"> T  </i>
     <i type="logical" name="LSUBROT"> F  </i>
     <i name="WEIMIN">      0.00100000</i>
     <i name="EBREAK">      0.00000016</i>
     <i name="DEPER">      0.30000000</i>
     <i type="int" name="NRMM">     4</i>
     <i name="TIME">      0.40000000</i>
    </separator>
   </separator>
   <separator name="electronic mixer" >
    <i name="AMIX">      0.40000000</i>
    <i name="BMIX">      1.00000000</i>
    <i name="AMIN">      0.10000000</i>
    <i name="AMIX_MAG">      1.60000000</i>
    <i name="BMIX_MAG">      1.00000000</i>
    <separator name="electronic mixer details" >
     <i type="int" name="IMIX">     4</i>
     <i type="logical" name="MIXFIRST"> F  </i>
     <i type="int" name="MAXMIX">   -45</i>
     <i name="WC">    100.00000000</i>
     <i type="int" name="INIMIX">     1</i>
     <i type="int" name="MIXPRE">     1</i>
     <i type="int" name="MREMOVE">     5</i>
    </separator>
   </separator>
   <separator name="electronic dipolcorrection" >
    <i type="logical" name="LDIPOL"> F  </i>
    <i type="logical" name="LMONO"> F  </i>
    <i type="int" name="IDIPOL">     0</i>
    <i name="EPSILON">      1.00000000</i>
    <v name="DIPOL">   -100.00000000   -100.00000000   -100.00000000</v>
    <i name="EFIELD">      0.00000000</i>
   </separator>
  </separator>
  <separator name="grids" >
   <i type="int" name="NGX">    28</i>
   <i type="int" name="NGY">    36</i>
   <i type="int" name="NGZ">   150</i>
   <i type="int" name="NGXF">    56</i>
   <i type="int" name="NGYF">    72</i>
   <i type="int" name="NGZF">   300</i>
   <i type="logical" name="ADDGRID"> F  </i>
  </separator>
  <separator name="ionic" >
   <i type="int" name="NSW">   200</i>
   <i type="int" name="IBRION">     2</i>
   <i type="int" name="ISIF">     2</i>
   <i name="PSTRESS">      0.00000000</i>
   <i name="EDIFFG">     -0.01000000</i>
   <i type="int" name="NFREE">     1</i>
   <i name="POTIM">      0.30000000</i>
   <i name="SMASS">     -3.00000000</i>
   <i name="SCALEE">      1.00000000</i>
  </separator>
  <separator name="ionic md" >
   <i name="TEBEG">      0.00010000</i>
   <i name="TEEND">      0.00010000</i>
   <i type="int" name="NBLOCK">     1</i>
   <i type="int" name="KBLOCK">   200</i>
   <i type="int" name="NPACO">   256</i>
   <i name="APACO">     16.00000000</i>
  </separator>
  <separator name="symmetry" >
   <i type="int" name="ISYM">     2</i>
   <i name="SYMPREC">      0.00001000</i>
  </separator>
  <separator name="dos" >
   <i type="logical" name="LORBIT"> F  </i>
   <v name="RWIGS">     -1.00000000</v>
   <i type="int" name="NEDOS">   301</i>
   <i name="EMIN">     10.00000000</i>
   <i name="EMAX">    -10.00000000</i>
   <i name="EFERMI">      0.00000000</i>
  </separator>
  <separator name="writing" >
   <i type="int" name="NWRITE">     2</i>
   <i type="logical" name="LWAVE"> F  </i>
   <i type="logical" name="LCHARG"> F  </i>
   <i type="logical" name="LPARD"> F  </i>
   <i type="logical" name="LVTOT"> F  </i>
   <i type="logical" name="LVHAR"> F  </i>
   <i type="logical" name="LELF"> F  </i>
   <i type="logical" name="LOPTICS"> F  </i>
   <v name="STM">      0.00000000      0.00000000      0.00000000      0.00000000      0.00000000      0.00000000      0.00000000</v>
  </separator>
  <separator name="performance" >
   <i type="int" name="NPAR">     4</i>
   <i type="int" name="NSIM">     4</i>
   <i type="int" name="NBLK">    -1</i>
   <i type="logical" name="LPLANE"> T  </i>
   <i type="logical" name="LSCALAPACK"> T  </i>
   <i type="logical" name="LSCAAWARE"> F  </i>
   <i type="logical" name="LSCALU"> F  </i>
   <i type="logical" name="LASYNC"> F  </i>
   <i type="logical" name="LORBITALREAL"> F  </i>
  </separator>
  <separator name="miscellaneous" >
   <i type="int" name="IDIOT">     3</i>
   <i type="logical" name="LMUSIC"> F  </i>
   <v name="POMASS">     30.97400000</v>
   <v name="DARWINR">      0.00000000</v>
   <v name="DARWINV">      1.00000000</v>
   <i type="logical" name="LCORR"> T  </i>
  </separator>
  <i type="logical" name="GGA_COMPAT"> T  </i>
  <i type="logical" name="LBERRY"> F  </i>
  <i type="int" name="ICORELEVEL">     0</i>
  <i type="logical" name="LDAU"> F  </i>
  <i type="int" name="I_CONSTRAINED_M">     0</i>
  <separator name="electronic exchange-correlation" >
   <i type="string" name="GGA">--</i>
   <i type="int" name="VOSKOWN">     0</i>
   <i type="logical" name="LHFCALC"> F  </i>
   <i type="string" name="PRECFOCK"></i>
   <i type="logical" name="LSYMGRAD"> F  </i>
   <i type="logical" name="LHFONE"> F  </i>
   <i type="logical" name="LRHFCALC"> F  </i>
   <i type="logical" name="LTHOMAS"> F  </i>
   <i type="logical" name="LMODELHF"> F  </i>
   <i name="ENCUT4O">     -1.00000000</i>
   <i type="int" name="EXXOEP">     0</i>
   <i type="int" name="FOURORBIT">     0</i>
   <i name="AEXX">      0.00000000</i>
   <i name="HFALPHA">      0.00000000</i>
   <i name="MCALPHA">      0.00000000</i>
   <i name="ALDAX">      1.00000000</i>
   <i name="AGGAX">      1.00000000</i>
   <i name="ALDAC">      1.00000000</i>
   <i name="AGGAC">      1.00000000</i>
   <i type="int" name="NKREDX">     1</i>
   <i type="int" name="NKREDY">     1</i>
   <i type="int" name="NKREDZ">     1</i>
   <i type="logical" name="SHIFTRED"> F  </i>
   <i type="logical" name="ODDONLY"> F  </i>
   <i type="logical" name="EVENONLY"> F  </i>
   <i type="int" name="LMAXFOCK">     0</i>
   <i type="int" name="NMAXFOCKAE">     0</i>
   <i type="logical" name="LFOCKAEDFT"> F  </i>
   <i name="HFSCREEN">      0.00000000</i>
   <i name="HFSCREENC">      0.00000000</i>
   <i type="int" name="NBANDSGWLOW">     0</i>
  </separator>
  <separator name="vdW DFT" >
   <i type="logical" name="LUSE_VDW"> F  </i>
   <i name="Zab_VDW">     -0.84910000</i>
   <i name="PARAM1">      0.12340000</i>
   <i name="PARAM2">      1.00000000</i>
   <i name="PARAM3">      0.00000000</i>
  </separator>
  <separator name="model GW" >
   <i type="int" name="MODEL_GW">     0</i>
   <i name="MODEL_EPS0">     49.31535743</i>
   <i name="MODEL_ALPHA">      1.00000000</i>
  </separator>
  <separator name="linear response parameters" >
   <i type="logical" name="LEPSILON"> F  </i>
   <i type="logical" name="LRPA"> F  </i>
   <i type="logical" name="LNABLA"> F  </i>
   <i type="logical" name="LVEL"> F  </i>
   <i type="int" name="KINTER">     0</i>
   <i name="CSHIFT">      0.10000000</i>
   <i name="OMEGAMAX">     -1.00000000</i>
   <i name="DEG_THRESHOLD">      0.00200000</i>
  </separator>
  <separator name="orbital magnetization" >
   <i type="logical" name="NUCIND"> F  </i>
   <v name="MAGPOS">      0.00000000      0.00000000      0.00000000</v>
   <i type="logical" name="LNICSALL"> T  </i>
   <i type="logical" name="ORBITALMAG"> F  </i>
   <i type="logical" name="LMAGBLOCH"> F  </i>
   <i type="logical" name="LCHIMAG"> F  </i>
   <i type="logical" name="LGAUGE"> T  </i>
   <i type="int" name="MAGATOM">     0</i>
   <v name="MAGDIPOL">      0.00000000      0.00000000      0.00000000</v>
   <v name="AVECCONST">      0.00000000      0.00000000      0.00000000</v>
  </separator>
  <separator name="response functions" >
   <i type="logical" name="LADDER"> F  </i>
   <i type="logical" name="LFXC"> F  </i>
   <i type="logical" name="LHARTREE"> T  </i>
   <i type="int" name="IBSE">     0</i>
   <v type="int" name="KPOINT">    -1     0     0     0</v>
   <i type="logical" name="LTCTE"> F  </i>
   <i type="logical" name="LTETE"> F  </i>
   <i type="logical" name="LTRIPLET"> F  </i>
   <i type="logical" name="LFXCEPS"> F  </i>
   <i type="logical" name="LFXHEG"> F  </i>
   <i type="int" name="NATURALO">     0</i>
   <i type="logical" name="L2ORDER"> F  </i>
   <i type="logical" name="LUSEW"> F  </i>
   <i name="ENCUTGW">     -2.00000000</i>
   <i name="ENCUTGWSOFT">     -2.00000000</i>
   <i name="ENCUTLF">     -1.00000000</i>
   <i type="int" name="LMAXMP2">    -1</i>
   <i name="SCISSOR">      0.00000000</i>
   <i type="int" name="NOMEGA">     0</i>
   <i type="int" name="NOMEGAR">     0</i>
   <i type="int" name="NBANDSGW">    -1</i>
   <i type="int" name="NBANDSO">    -1</i>
   <i type="int" name="NBANDSV">    -1</i>
   <i type="int" name="NELM">   250</i>
   <i type="int" name="NELMHF">     1</i>
   <i type="int" name="DIM">     3</i>
   <i type="int" name="ANTIRES">     0</i>
   <i name="OMEGAMAX">    -30.00000000</i>
   <i name="OMEGAMIN">    -30.00000000</i>
   <i name="OMEGATL">   -200.00000000</i>
   <i type="int" name="OMEGAGRID">     0</i>
   <i name="CSHIFT">     -0.10000000</i>
   <i type="logical" name="SELFENERGY"> F  </i>
   <i type="logical" name="LSPECTRAL"> F  </i>
   <i type="logical" name="LSPECTRALGW"> F  </i>
   <i type="logical" name="LSINGLES"> F  </i>
   <i type="logical" name="LFERMIGW"> F  </i>
   <i type="logical" name="ODDONLYGW"> F  </i>
   <i type="logical" name="EVENONLYGW"> F  </i>
   <i type="int" name="NKREDLFX">     1</i>
   <i type="int" name="NKREDLFY">     1</i>
   <i type="int" name="NKREDLFZ">     1</i>
   <i type="int" name="MAXMEM">  1800</i>
   <i type="int" name="TELESCOPE">     0</i>
   <i type="int" name="TAUPAR">     1</i>
   <i type="int" name="OMEGAPAR">    -1</i>
   <i name="LAMBDA">      1.00000000</i>
  </separator>
  <separator name="External order field" >
   <i name="OFIELD_KAPPA">      0.00000000</i>
   <v name="OFIELD_K">      0.00000000      0.00000000      0.00000000</v>
   <i name="OFIELD_Q6_NEAR">      0.00000000</i>
   <i name="OFIELD_Q6_FAR">      0.00000000</i>
   <i name="OFIELD_A">      0.00000000</i>
  </separator>
 </parameters>
 <atominfo>
  <atoms>       4 </atoms>
  <types>       1 </types>
  <array name="atoms" >
   <dimension dim="1">ion</dimension>
   <field type="string">element</field>
   <field type="int">atomtype</field>
   <set>
    <rc><c>P </c><c>   1</c></rc>
    <rc><c>P </c><c>   1</c></rc>
    <rc><c>P </c><c>   1</c></rc>
    <rc><c>P </c><c>   1</c></rc>
   </set>
  </array>
  <array name="atomtypes" >
   <dimension dim="1">type</dimension>
   <field type="int">atomspertype</field>
   <field type="string">element</field>
   <field>mass</field>
   <field>valence</field>
   <field type="string">pseudopotential</field>
   <set>
    <rc><c>   4</c><c>P </c><c>     30.97400000</c><c>      5.00000000</c><c>  PAW_PBE P 06Sep2000                   </c></rc>
   </set>
  </array>
 </atominfo>
 <structure name="initialpos" >
  <crystal>
   <varray name="basis" >
    <v>       3.55119700       0.00000000       0.00000000 </v>
    <v>       0.00000000       4.62335100      -0.00005300 </v>
    <v>       0.00000000       0.00000000      20.02439000 </v>
   </varray>
   <i name="volume">    328.76904954 </i>
   <varray name="rec_basis" >
    <v>       0.28159519       0.00000000       0.00000000 </v>
    <v>       0.00000000       0.21629333       0.00000000 </v>
    <v>       0.00000000       0.00000057       0.04993910 </v>
   </varray>
  </crystal>
  <varray name="positions" >
   <v>       0.50000000       0.91077300       0.55252100 </v>
   <v>       0.50000000       0.08922700       0.44747900 </v>
   <v>       0.00000000       0.41076900       0.44747900 </v>
   <v>       0.00000000       0.58923100       0.55252100 </v>
  </varray>
 </structure>
 <calculation>
  <scstep>
   <time name="dav">    1.56    1.56</time>
   <time name="total">    1.58    1.59</time>
   <energy>
    <i name="alphaZ">      4.87929458 </i>
    <i name="ewald">   1692.33754207 </i>
    <i name="hartreedc">  -2287.41630334 </i>
    <i name="XCdc">     12.33218991 </i>
    <i name="pawpsdc">    559.04011960 </i>
    <i name="pawaedc">   -526.39432044 </i>
    <i name="eentropy">     -0.00050946 </i>
    <i name="bandstr">    -28.82093752 </i>
    <i name="atom">    704.16778566 </i>
    <i name="e_fr_energy">    130.12486106 </i>
    <i name="e_wo_entrp">    130.12537052 </i>
    <i name="e_0_energy">    130.12511579 </i>
   </energy>
  </scstep>
  <scstep>
   <time name="dav">    2.04    2.04</time>
   <time name="total">    2.04    2.05</time>
   <energy>
    <i name="e_fr_energy">     -5.60291804 </i>
    <i name="e_wo_entrp">     -5.60291804 </i>
    <i name="e_0_energy">     -5.60291804 </i>
   </energy>
  </scstep>
  <scstep>
   <time name="dav">    1.93    1.93</time>
   <time name="total">    1.93    1.93</time>
   <energy>
    <i name="e_fr_energy">    -21.03692779 </i>
    <i name="e_wo_entrp">    -21.03692779 </i>
    <i name="e_0_energy">    -21.03692779 </i>
   </energy>
  </scstep>
  <scstep>
   <time name="dav">    1.90    1.90</time>
   <time name="total">    1.90    1.91</time>
   <energy>
    <i name="e_fr_energy">    -21.36352331 </i>
    <i name="e_wo_entrp">    -21.36352331 </i>
    <i name="e_0_energy">    -21.36352331 </i>
   </energy>
  </scstep>
  <scstep>
   <time name="dav">    2.07    2.07</time>
   <time name="total">    2.17    2.17</time>
   <energy>
    <i name="e_fr_energy">    -21.37430462 </i>
    <i name="e_wo_entrp">    -21.37430462 </i>
    <i name="e_0_energy">    -21.37430462 </i>
   </energy>
  </scstep>
  <scstep>
   <time name="dav">    1.87    1.87</time>
   <time name="total">    1.99    1.99</time>
   <energy>
    <i name="e_fr_energy">    -21.26632706 </i>
    <i name="e_wo_entrp">    -21.26632706 </i>
    <i name="e_0_energy">    -21.26632706 </i>
   </energy>
  </scstep>
  <scstep>
   <time name="dav">    1.81    1.81</time>
   <time name="total">    1.92    1.93</time>
   <energy>
    <i name="e_fr_energy">    -21.21125607 </i>
    <i name="e_wo_entrp">    -21.21125607 </i>
    <i name="e_0_energy">    -21.21125607 </i>
   </energy>
  </scstep>
  <scstep>
   <time name="dav">    1.95    1.95</time>
   <time name="total">    2.07    2.07</time>
   <energy>
    <i name="e_fr_energy">    -21.21144488 </i>
    <i name="e_wo_entrp">    -21.21144488 </i>
    <i name="e_0_energy">    -21.21144488 </i>
   </energy>
  </scstep>
  <scstep>
   <time name="dav">    2.18    2.18</time>
   <time name="total">    2.30    2.30</time>
   <energy>
    <i name="e_fr_energy">    -21.21141644 </i>
    <i name="e_wo_entrp">    -21.21141644 </i>
    <i name="e_0_energy">    -21.21141644 </i>
   </energy>
  </scstep>
  <scstep>
   <time name="dav">    1.92    1.92</time>
   <time name="total">    2.03    2.03</time>
   <energy>
    <i name="e_fr_energy">    -21.21133652 </i>
    <i name="e_wo_entrp">    -21.21133652 </i>
    <i name="e_0_energy">    -21.21133652 </i>
   </energy>
  </scstep>
  <scstep>
   <time name="dav">    1.86    1.86</time>
   <time name="total">    1.97    1.98</time>
   <energy>
    <i name="e_fr_energy">    -21.21131482 </i>
    <i name="e_wo_entrp">    -21.21131482 </i>
    <i name="e_0_energy">    -21.21131482 </i>
   </energy>
  </scstep>
  <scstep>
   <time name="dav">    1.71    1.71</time>
   <time name="total">    1.83    1.83</time>
   <energy>
    <i name="e_fr_energy">    -21.21159779 </i>
    <i name="e_wo_entrp">    -21.21159779 </i>
    <i name="e_0_energy">    -21.21159779 </i>
   </energy>
  </scstep>
  <scstep>
   <time name="dav">    1.67    1.67</time>
   <time name="total">    1.78    1.78</time>
   <energy>
    <i name="e_fr_energy">    -21.21170356 </i>
    <i name="e_wo_entrp">    -21.21170356 </i>
    <i name="e_0_energy">    -21.21170356 </i>
   </energy>
  </scstep>
  <scstep>
   <time name="dav">    1.57    1.57</time>
   <time name="total">    1.68    1.69</time>
   <energy>
    <i name="e_fr_energy">    -21.21179420 </i>
    <i name="e_wo_entrp">    -21.21179420 </i>
    <i name="e_0_energy">    -21.21179420 </i>
   </energy>
  </scstep>
  <scstep>
   <time name="dav">    1.62    1.62</time>
   <time name="total">    1.73    1.74</time>
   <energy>
    <i name="e_fr_energy">    -21.21181706 </i>
    <i name="e_wo_entrp">    -21.21181706 </i>
    <i name="e_0_energy">    -21.21181706 </i>
   </energy>
  </scstep>
  <scstep>
   <time name="dav">    1.57    1.57</time>
   <time name="total">    1.68    1.69</time>
   <energy>
    <i name="e_fr_energy">    -21.21183578 </i>
    <i name="e_wo_entrp">    -21.21183578 </i>
    <i name="e_0_energy">    -21.21183578 </i>
   </energy>
  </scstep>
  <scstep>
   <time name="dav">    1.47    1.47</time>
   <time name="total">    1.49    1.49</time>
   <energy>
    <i name="alphaZ">      4.87929458 </i>
    <i name="ewald">   1692.33754207 </i>
    <i name="hartreedc">  -2299.55437657 </i>
    <i name="XCdc">     13.27829718 </i>
    <i name="pawpsdc">   1801.35330981 </i>
    <i name="pawaedc">  -1768.93767471 </i>
    <i name="eentropy">     -0.00000000 </i>
    <i name="bandstr">   -168.73601790 </i>
    <i name="atom">    704.16778566 </i>
    <i name="e_fr_energy">    -21.21183990 </i>
    <i name="e_wo_entrp">    -21.21183990 </i>
    <i name="e_0_energy">    -21.21183990 </i>
   </energy>
  </scstep>
  <structure>
   <crystal>
    <varray name="basis" >
     <v>       3.55119700       0.00000000       0.00000000 </v>
     <v>       0.00000000       4.62335100      -0.00005300 </v>
     <v>       0.00000000       0.00000000      20.02439000 </v>
    </varray>
    <i name="volume">    328.76904954 </i>
    <varray name="rec_basis" >
     <v>       0.28159519       0.00000000       0.00000000 </v>
     <v>       0.00000000       0.21629333       0.00000000 </v>
     <v>       0.00000000       0.00000057       0.04993910 </v>
    </varray>
   </crystal>
   <varray name="positions" >
    <v>       0.50000000       0.91077300       0.55252100 </v>
    <v>       0.50000000       0.08922700       0.44747900 </v>
    <v>       0.00000000       0.41076900       0.44747900 </v>
    <v>       0.00000000       0.58923100       0.55252100 </v>
   </varray>
  </structure>
  <varray name="forces" >
   <v>      -0.00000020      -0.18396128      -0.10769135 </v>
   <v>       0.00000020       0.18396128       0.10769135 </v>
   <v>       0.00000009      -0.18398828       0.10769615 </v>
   <v>      -0.00000009       0.18398828      -0.10769615 </v>
  </varray>
  <varray name="stress" >
   <v>     -30.17993098      -0.00000157      -0.00000181 </v>
   <v>      -0.00000158      -8.99036613       0.00037248 </v>
   <v>      -0.00000189       0.00037246      -2.26751969 </v>
  </varray>
  <energy>
   <i name="e_fr_energy">    -21.21183990 </i>
   <i name="e_wo_entrp">    -21.21183990 </i>
   <i name="e_0_energy">     -0.00000000 </i>
  </energy>
  <time name="totalsc">   32.95   32.99</time>
 </calculation>
 <calculation>
  <scstep>
   <time name="dav">    1.61    1.61</time>
   <time name="total">    1.73    1.73</time>
   <energy>
    <i name="alphaZ">      4.87929458 </i>
    <i name="ewald">   1695.63824228 </i>
    <i name="hartreedc">  -2302.51865922 </i>
    <i name="XCdc">     13.31797459 </i>
    <i name="pawpsdc">   1801.11746079 </i>
    <i name="pawaedc">  -1768.70185665 </i>
    <i name="eentropy">     -0.00000000 </i>
    <i name="bandstr">   -169.11585230 </i>
    <i name="atom">    704.16778566 </i>
    <i name="e_fr_energy">    -21.21561027 </i>
    <i name="e_wo_entrp">    -21.21561027 </i>
    <i name="e_0_energy">    -21.21561027 </i>
   </energy>
  </scstep>
  <scstep>
   <time name="dav">    1.90    1.90</time>
   <time name="total">    2.01    2.02</time>
   <energy>
    <i name="e_fr_energy">    -21.21606198 </i>
    <i name="e_wo_entrp">    -21.21606198 </i>
    <i name="e_0_energy">    -21.21606198 </i>
   </energy>
  </scstep>
  <scstep>
   <time name="dav">    2.07    2.07</time>
   <time name="total">    2.18    2.19</time>
   <energy>
    <i name="e_fr_energy">    -21.21606839 </i>
    <i name="e_wo_entrp">    -21.21606839 </i>
    <i name="e_0_energy">    -21.21606839 </i>
   </energy>
  </scstep>
  <scstep>
   <time name="dav">    1.51    1.51</time>
   <time name="total">    1.62    1.62</time>
   <energy>
    <i name="e_fr_energy">    -21.21606811 </i>
    <i name="e_wo_entrp">    -21.21606811 </i>
    <i name="e_0_energy">    -21.21606811 </i>
   </energy>
  </scstep>
  <scstep>
   <time name="dav">    1.40    1.40</time>
   <time name="total">    1.51    1.51</time>
   <energy>
    <i name="e_fr_energy">    -21.21606991 </i>
    <i name="e_wo_entrp">    -21.21606991 </i>
    <i name="e_0_energy">    -21.21606991 </i>
   </energy>
  </scstep>
  <scstep>
   <time name="dav">    1.29    1.29</time>
   <time name="total">    1.31    1.31</time>
   <energy>
    <i name="alphaZ">      4.87929458 </i>
    <i name="ewald">   1695.63824228 </i>
    <i name="hartreedc">  -2302.51958135 </i>
    <i name="XCdc">     13.32093038 </i>
    <i name="pawpsdc">   1820.62447572 </i>
    <i name="pawaedc">  -1788.21617651 </i>
    <i name="eentropy">     -0.00000000 </i>
    <i name="bandstr">   -169.11104092 </i>
    <i name="atom">    704.16778566 </i>
    <i name="e_fr_energy">    -21.21607017 </i>
    <i name="e_wo_entrp">    -21.21607017 </i>
    <i name="e_0_energy">    -21.21607017 </i>
   </energy>
  </scstep>
  <structure>
   <crystal>
    <varray name="basis" >
     <v>       3.55119700       0.00000000       0.00000000 </v>
     <v>       0.00000000       4.62335100      -0.00005300 </v>
     <v>       0.00000000       0.00000000      20.02439000 </v>
    </varray>
    <i name="volume">    328.76904954 </i>
    <varray name="rec_basis" >
     <v>       0.28159519       0.00000000       0.00000000 </v>
     <v>       0.00000000       0.21629333       0.00000000 </v>
     <v>       0.00000000       0.00000057       0.04993910 </v>
    </varray>
   </crystal>
   <varray name="positions" >
    <v>       0.50000000       0.90962127       0.55236533 </v>
    <v>       0.50000000       0.09037873       0.44763467 </v>
    <v>       0.00000000       0.40961710       0.44763467 </v>
    <v>      -0.00000000       0.59038290       0.55236533 </v>
   </varray>
  </structure>
  <varray name="forces" >
   <v>       0.00000014      -0.10224347      -0.08007467 </v>
   <v>      -0.00000014       0.10224347       0.08007467 </v>
   <v>       0.00000001      -0.10226654       0.08007689 </v>
   <v>      -0.00000001       0.10226654      -0.08007689 </v>
  </varray>
  <varray name="stress" >
   <v>     -29.96280371       0.00000291       0.00000050 </v>
   <v>       0.00000291      -7.69279596       0.00032363 </v>
   <v>       0.00000040       0.00032362      -1.73427386 </v>
  </varray>
  <energy>
   <i name="e_fr_energy">    -21.21607017 </i>
   <i name="e_wo_entrp">    -21.21607017 </i>
   <i name="e_0_energy">     -0.00000000 </i>
  </energy>
  <time name="totalsc">   11.21   11.22</time>
 </calculation>
 <calculation>
  <scstep>
   <time name="dav">    1.60    1.60</time>
   <time name="total">    1.72    1.72</time>
   <energy>
    <i name="alphaZ">      4.87929458 </i>
    <i name="ewald">   1700.67175930 </i>
    <i name="hartreedc">  -2307.00901913 </i>
    <i name="XCdc">     13.38123565 </i>
    <i name="pawpsdc">   1820.81874088 </i>
    <i name="pawaedc">  -1788.41036936 </i>
    <i name="eentropy">     -0.00000000 </i>
    <i name="bandstr">   -169.71681989 </i>
    <i name="atom">    704.16778566 </i>
    <i name="e_fr_energy">    -21.21739231 </i>
    <i name="e_wo_entrp">    -21.21739231 </i>
    <i name="e_0_energy">    -21.21739231 </i>
   </energy>
  </scstep>
  <scstep>
   <time name="dav">    1.91    1.91</time>
   <time name="total">    2.02    2.02</time>
   <energy>
    <i name="e_fr_energy">    -21.21844963 </i>
    <i name="e_wo_entrp">    -21.21844963 </i>
    <i name="e_0_energy">    -21.21844963 </i>
   </energy>
  </scstep>
  <scstep>
   <time name="dav">    2.08    2.08</time>
   <time name="total">    2.19    2.19</time>
   <energy>
    <i name="e_fr_energy">    -21.21846107 </i>
    <i name="e_wo_entrp">    -21.21846107 </i>
    <i name="e_0_energy">    -21.21846107 </i>
   </energy>
  </scstep>
  <scstep>
   <time name="dav">    1.61    1.61</time>
   <time name="total">    1.72    1.73</time>
   <energy>
    <i name="e_fr_energy">    -21.21845921 </i>
    <i name="e_wo_entrp">    -21.21845921 </i>
    <i name="e_0_energy">    -21.21845921 </i>
   </energy>
  </scstep>
  <scstep>
   <time name="dav">    1.53    1.53</time>
   <time name="total">    1.65    1.65</time>
   <energy>
    <i name="e_fr_energy">    -21.21845951 </i>
    <i name="e_wo_entrp">    -21.21845951 </i>
    <i name="e_0_energy">    -21.21845951 </i>
   </energy>
  </scstep>
  <scstep>
   <time name="dav">    1.32    1.32</time>
   <time name="total">    1.34    1.34</time>
   <energy>
    <i name="alphaZ">      4.87929458 </i>
    <i name="ewald">   1700.67175930 </i>
    <i name="hartreedc">  -2306.99596137 </i>
    <i name="XCdc">     13.38565653 </i>
    <i name="pawpsdc">   1851.09870710 </i>
    <i name="pawaedc">  -1818.70162625 </i>
    <i name="eentropy">     -0.00000000 </i>
    <i name="bandstr">   -169.72407545 </i>
    <i name="atom">    704.16778566 </i>
    <i name="e_fr_energy">    -21.21845991 </i>
    <i name="e_wo_entrp">    -21.21845991 </i>
    <i name="e_0_energy">    -21.21845991 </i>
   </energy>
  </scstep>
  <structure>
   <crystal>
    <varray name="basis" >
     <v>       3.55119700       0.00000000       0.00000000 </v>
     <v>       0.00000000       4.62335100      -0.00005300 </v>
     <v>       0.00000000       0.00000000      20.02439000 </v>
    </varray>
    <i name="volume">    328.76904954 </i>
    <varray name="rec_basis" >
     <v>       0.28159519       0.00000000       0.00000000 </v>
     <v>       0.00000000       0.21629333       0.00000000 </v>
     <v>       0.00000000       0.00000057       0.04993910 </v>
    </varray>
   </crystal>
   <varray name="positions" >
    <v>       0.50000000       0.90786661       0.55212816 </v>
    <v>       0.50000000       0.09213339       0.44787184 </v>
    <v>       0.00000000       0.40786219       0.44787184 </v>
    <v>      -0.00000000       0.59213781       0.55212816 </v>
   </varray>
  </structure>
  <varray name="forces" >
   <v>       0.00000035       0.02477940      -0.03906205 </v>
   <v>      -0.00000035      -0.02477940       0.03906205 </v>
   <v>      -0.00000030       0.02476180       0.03905951 </v>
   <v>       0.00000030      -0.02476180      -0.03905951 </v>
  </varray>
  <varray name="stress" >
   <v>     -29.57400775       0.00000359       0.00000278 </v>
   <v>       0.00000359      -5.70751810       0.00024427 </v>
   <v>       0.00000273       0.00024426      -0.91790866 </v>
  </varray>
  <energy>
   <i name="e_fr_energy">    -21.21845991 </i>
   <i name="e_wo_entrp">    -21.21845991 </i>
   <i name="e_0_energy">     -0.00000000 </i>
  </energy>
  <time name="totalsc">   11.46   11.48</time>
 </calculation>
 <calculation>
  <scstep>
   <time name="dav">    1.53    1.53</time>
   <time name="total">    1.65    1.65</time>
   <energy>
    <i name="alphaZ">      4.87929458 </i>
    <i name="ewald">   1702.06840971 </i>
    <i name="hartreedc">  -2308.30075870 </i>
    <i name="XCdc">     13.39368963 </i>
    <i name="pawpsdc">   1851.45132933 </i>
    <i name="pawaedc">  -1819.05412176 </i>
    <i name="eentropy">     -0.00000000 </i>
    <i name="bandstr">   -169.82424079 </i>
    <i name="atom">    704.16778566 </i>
    <i name="e_fr_energy">    -21.21861234 </i>
    <i name="e_wo_entrp">    -21.21861234 </i>
    <i name="e_0_energy">    -21.21861234 </i>
   </energy>
  </scstep>
  <scstep>
   <time name="dav">    1.87    1.87</time>
   <time name="total">    1.98    1.99</time>
   <energy>
    <i name="e_fr_energy">    -21.21867198 </i>
    <i name="e_wo_entrp">    -21.21867198 </i>
    <i name="e_0_energy">    -21.21867198 </i>
   </energy>
  </scstep>
  <scstep>
   <time name="dav">    1.52    1.52</time>
   <time name="total">    1.64    1.64</time>
   <energy>
    <i name="e_fr_energy">    -21.21867180 </i>
    <i name="e_wo_entrp">    -21.21867180 </i>
    <i name="e_0_energy">    -21.21867180 </i>
   </energy>
  </scstep>
  <scstep>
   <time name="dav">    1.35    1.35</time>
   <time name="total">    1.46    1.47</time>
   <energy>
    <i name="e_fr_energy">    -21.21867388 </i>
    <i name="e_wo_entrp">    -21.21867388 </i>
    <i name="e_0_energy">    -21.21867388 </i>
   </energy>
  </scstep>
  <scstep>
   <time name="dav">    1.27    1.27</time>
   <time name="total">    1.38    1.39</time>
   <energy>
    <i name="e_fr_energy">    -21.21867505 </i>
    <i name="e_wo_entrp">    -21.21867505 </i>
    <i name="e_0_energy">    -21.21867505 </i>
   </energy>
  </scstep>
  <scstep>
   <time name="dav">    1.22    1.22</time>
   <time name="total">    1.24    1.24</time>
   <energy>
    <i name="alphaZ">      4.87929458 </i>
    <i name="ewald">   1702.06840971 </i>
    <i name="hartreedc">  -2308.28350779 </i>
    <i name="XCdc">     13.39418281 </i>
    <i name="pawpsdc">   1855.42843787 </i>
    <i name="pawaedc">  -1823.03262870 </i>
    <i name="eentropy">     -0.00000000 </i>
    <i name="bandstr">   -169.84064983 </i>
    <i name="atom">    704.16778566 </i>
    <i name="e_fr_energy">    -21.21867569 </i>
    <i name="e_wo_entrp">    -21.21867569 </i>
    <i name="e_0_energy">    -21.21867569 </i>
   </energy>
  </scstep>
  <structure>
   <crystal>
    <varray name="basis" >
     <v>       3.55119700       0.00000000       0.00000000 </v>
     <v>       0.00000000       4.62335100      -0.00005300 </v>
     <v>       0.00000000       0.00000000      20.02439000 </v>
    </varray>
    <i name="volume">    328.76904954 </i>
    <varray name="rec_basis" >
     <v>       0.28159519       0.00000000       0.00000000 </v>
     <v>       0.00000000       0.21629333       0.00000000 </v>
     <v>       0.00000000       0.00000057       0.04993910 </v>
    </varray>
   </crystal>
   <varray name="positions" >
    <v>       0.50000000       0.90798669       0.55204336 </v>
    <v>       0.50000000       0.09201331       0.44795664 </v>
    <v>      -0.00000000       0.40798211       0.44795663 </v>
    <v>       0.00000000       0.59201789       0.55204337 </v>
   </varray>
  </structure>
  <varray name="forces" >
   <v>      -0.00000004       0.00849851      -0.01077440 </v>
   <v>       0.00000004      -0.00849851       0.01077440 </v>
   <v>       0.00000008       0.00848448       0.01077380 </v>
   <v>      -0.00000008      -0.00848448      -0.01077380 </v>
  </varray>
  <varray name="stress" >
   <v>     -29.54314952       0.00000009      -0.00000021 </v>
   <v>       0.00000017      -5.72927968       0.00020838 </v>
   <v>      -0.00000026       0.00020836      -0.29885809 </v>
  </varray>
  <energy>
   <i name="e_fr_energy">    -21.21867569 </i>
   <i name="e_wo_entrp">    -21.21867569 </i>
   <i name="e_0_energy">     -0.00000000 </i>
  </energy>
  <time name="totalsc">   10.19   10.20</time>
 </calculation>
 <calculation>
  <scstep>
   <time name="dav">    1.53    1.53</time>
   <time name="total">    1.64    1.64</time>
   <energy>
    <i name="alphaZ">      4.87929458 </i>
    <i name="ewald">   1702.63182812 </i>
    <i name="hartreedc">  -2308.80712945 </i>
    <i name="XCdc">     13.39737955 </i>
    <i name="pawpsdc">   1855.52890721 </i>
    <i name="pawaedc">  -1823.13307791 </i>
    <i name="eentropy">     -0.00000000 </i>
    <i name="bandstr">   -169.88367538 </i>
    <i name="atom">    704.16778566 </i>
    <i name="e_fr_energy">    -21.21868761 </i>
    <i name="e_wo_entrp">    -21.21868761 </i>
    <i name="e_0_energy">    -21.21868761 </i>
   </energy>
  </scstep>
  <scstep>
   <time name="dav">    1.95    1.95</time>
   <time name="total">    2.06    2.06</time>
   <energy>
    <i name="e_fr_energy">    -21.21869782 </i>
    <i name="e_wo_entrp">    -21.21869782 </i>
    <i name="e_0_energy">    -21.21869782 </i>
   </energy>
  </scstep>
  <scstep>
   <time name="dav">    1.28    1.28</time>
   <time name="total">    1.39    1.39</time>
   <energy>
    <i name="e_fr_energy">    -21.21869793 </i>
    <i name="e_wo_entrp">    -21.21869793 </i>
    <i name="e_0_energy">    -21.21869793 </i>
   </energy>
  </scstep>
  <scstep>
   <time name="dav">    1.25    1.25</time>
   <time name="total">    1.36    1.36</time>
   <energy>
    <i name="e_fr_energy">    -21.21869841 </i>
    <i name="e_wo_entrp">    -21.21869841 </i>
    <i name="e_0_energy">    -21.21869841 </i>
   </energy>
  </scstep>
  <scstep>
   <time name="dav">    1.22    1.22</time>
   <time name="total">    1.33    1.33</time>
   <energy>
    <i name="e_fr_energy">    -21.21869858 </i>
    <i name="e_wo_entrp">    -21.21869858 </i>
    <i name="e_0_energy">    -21.21869858 </i>
   </energy>
  </scstep>
  <scstep>
   <time name="dav">    1.20    1.20</time>
   <time name="total">    1.22    1.22</time>
   <energy>
    <i name="alphaZ">      4.87929458 </i>
    <i name="ewald">   1702.63182812 </i>
    <i name="hartreedc">  -2308.80493889 </i>
    <i name="XCdc">     13.39767088 </i>
    <i name="pawpsdc">   1856.98344441 </i>
    <i name="pawaedc">  -1824.58818782 </i>
    <i name="eentropy">     -0.00000000 </i>
    <i name="bandstr">   -169.88559559 </i>
    <i name="atom">    704.16778566 </i>
    <i name="e_fr_energy">    -21.21869866 </i>
    <i name="e_wo_entrp">    -21.21869866 </i>
    <i name="e_0_energy">    -21.21869866 </i>
   </energy>
  </scstep>
  <structure>
   <crystal>
    <varray name="basis" >
     <v>       3.55119700       0.00000000       0.00000000 </v>
     <v>       0.00000000       4.62335100      -0.00005300 </v>
     <v>       0.00000000       0.00000000      20.02439000 </v>
    </varray>
    <i name="volume">    328.76904954 </i>
    <varray name="rec_basis" >
     <v>       0.28159519       0.00000000       0.00000000 </v>
     <v>       0.00000000       0.21629333       0.00000000 </v>
     <v>       0.00000000       0.00000057       0.04993910 </v>
    </varray>
   </crystal>
   <varray name="positions" >
    <v>       0.50000000       0.90803510       0.55200918 </v>
    <v>       0.50000000       0.09196490       0.44799082 </v>
    <v>      -0.00000000       0.40803046       0.44799082 </v>
    <v>       0.00000000       0.59196954       0.55200918 </v>
   </varray>
  </structure>
  <varray name="forces" >
   <v>      -0.00000002       0.00176991       0.00050993 </v>
   <v>       0.00000002      -0.00176991      -0.00050993 </v>
   <v>       0.00000009       0.00175718      -0.00050967 </v>
   <v>      -0.00000009      -0.00175718       0.00050967 </v>
  </varray>
  <varray name="stress" >
   <v>     -29.52597732       0.00000034      -0.00000048 </v>
   <v>       0.00000034      -5.74095363       0.00019541 </v>
   <v>      -0.00000051       0.00019542      -0.05939106 </v>
  </varray>
  <energy>
   <i name="e_fr_energy">    -21.21869866 </i>
   <i name="e_wo_entrp">    -21.21869866 </i>
   <i name="e_0_energy">     -0.00000000 </i>
  </energy>
  <time name="totalsc">    9.77    9.79</time>
  <eigenvalues>
   <array>
    <dimension dim="1">band</dimension>
    <dimension dim="2">kpoint</dimension>
    <dimension dim="3">spin</dimension>
    <field>eigene</field>
    <field>occ</field>
    <set>
     <set comment="spin 1">
      <set comment="kpoint 1">
       <r>  -16.9573    1.0000 </r>
       <r>  -14.3603    1.0000 </r>
       <r>  -11.7392    1.0000 </r>
       <r>   -7.7346    1.0000 </r>
       <r>   -7.1541    1.0000 </r>
       <r>   -6.5481    1.0000 </r>
       <r>   -6.4564    1.0000 </r>
       <r>   -4.7672    1.0000 </r>
       <r>   -3.6866    1.0000 </r>
       <r>   -2.4900    1.0000 </r>
       <r>   -1.6768    0.0000 </r>
       <r>   -1.1361    0.0000 </r>
       <r>   -0.9003    0.0000 </r>
       <r>    0.1001    0.0000 </r>
       <r>    2.1121    0.0000 </r>
       <r>    2.1808    0.0000 </r>
      </set>
      <set comment="kpoint 2">
       <r>  -16.9325    1.0000 </r>
       <r>  -14.3338    1.0000 </r>
       <r>  -11.7648    1.0000 </r>
       <r>   -7.7168    1.0000 </r>
       <r>   -7.2183    1.0000 </r>
       <r>   -6.5661    1.0000 </r>
       <r>   -6.5268    1.0000 </r>
       <r>   -4.8681    1.0000 </r>
       <r>   -3.6861    1.0000 </r>
       <r>   -2.5081    1.0000 </r>
       <r>   -1.4792    0.0000 </r>
       <r>   -1.1136    0.0000 </r>
       <r>   -0.7035    0.0000 </r>
       <r>   -0.0181    0.0000 </r>
       <r>    2.1372    0.0000 </r>
       <r>    2.2092    0.0000 </r>
      </set>
      <set comment="kpoint 3">
       <r>  -16.8580    1.0000 </r>
       <r>  -14.2543    1.0000 </r>
       <r>  -11.8456    1.0000 </r>
       <r>   -7.6646    1.0000 </r>
       <r>   -7.4254    1.0000 </r>
       <r>   -6.8345    1.0000 </r>
       <r>   -6.4634    1.0000 </r>
       <r>   -5.0767    1.0000 </r>
       <r>   -3.6900    1.0000 </r>
       <r>   -2.5696    1.0000 </r>
       <r>   -1.0469    0.0000 </r>
       <r>   -0.9402    0.0000 </r>
       <r>   -0.3112    0.0000 </r>
       <r>   -0.2136    0.0000 </r>
       <r>    2.1908    0.0000 </r>
       <r>    2.2941    0.0000 </r>
      </set>
      <set comment="kpoint 4">
       <r>  -16.7344    1.0000 </r>
       <r>  -14.1220    1.0000 </r>
       <r>  -11.9917    1.0000 </r>
       <r>   -7.7924    1.0000 </r>
       <r>   -7.5807    1.0000 </r>
       <r>   -7.1460    1.0000 </r>
       <r>   -6.3594    1.0000 </r>
       <r>   -5.2439    1.0000 </r>
       <r>   -3.7149    1.0000 </r>
       <r>   -2.6817    1.0000 </r>
       <r>   -0.9386    0.0000 </r>
       <r>   -0.6592    0.0000 </r>
       <r>   -0.1726    0.0000 </r>
       <r>    0.3414    0.0000 </r>
       <r>    1.9333    0.0000 </r>
       <r>    2.4180    0.0000 </r>
      </set>
      <set comment="kpoint 5">
       <r>  -16.5625    1.0000 </r>
       <r>  -13.9374    1.0000 </r>
       <r>  -12.2135    1.0000 </r>
       <r>   -8.2941    1.0000 </r>
       <r>   -7.4706    1.0000 </r>
       <r>   -7.4106    1.0000 </r>
       <r>   -6.2179    1.0000 </r>
       <r>   -5.3093    1.0000 </r>
       <r>   -3.7859    1.0000 </r>
       <r>   -2.8473    1.0000 </r>
       <r>   -0.9562    0.0000 </r>
       <r>   -0.7950    0.0000 </r>
       <r>    0.6080    0.0000 </r>
       <r>    0.7072    0.0000 </r>
       <r>    1.4427    0.0000 </r>
       <r>    2.4664    0.0000 </r>
      </set>
      <set comment="kpoint 6">
       <r>  -16.3433    1.0000 </r>
       <r>  -13.7007    1.0000 </r>
       <r>  -12.5134    1.0000 </r>
       <r>   -8.8750    1.0000 </r>
       <r>   -7.5807    1.0000 </r>
       <r>   -7.3439    1.0000 </r>
       <r>   -6.0434    1.0000 </r>
       <r>   -5.2885    1.0000 </r>
       <r>   -3.9232    1.0000 </r>
       <r>   -3.0652    1.0000 </r>
       <r>   -1.1293    0.0000 </r>
       <r>   -0.6327    0.0000 </r>
       <r>    0.3837    0.0000 </r>
       <r>    0.9612    0.0000 </r>
       <r>    1.4669    0.0000 </r>
       <r>    2.6177    0.0000 </r>
      </set>
      <set comment="kpoint 7">
       <r>  -16.0784    1.0000 </r>
       <r>  -13.4127    1.0000 </r>
       <r>  -12.8813    1.0000 </r>
       <r>   -9.4864    1.0000 </r>
       <r>   -7.6434    1.0000 </r>
       <r>   -7.2164    1.0000 </r>
       <r>   -5.8436    1.0000 </r>
       <r>   -5.2172    1.0000 </r>
       <r>   -4.1162    1.0000 </r>
       <r>   -3.3270    1.0000 </r>
       <r>   -1.1495    0.0000 </r>
       <r>   -0.5052    0.0000 </r>
       <r>   -0.0433    0.0000 </r>
       <r>    0.5825    0.0000 </r>
       <r>    1.5415    0.0000 </r>
       <r>    2.6368    0.0000 </r>
      </set>
      <set comment="kpoint 8">
       <r>  -15.7702    1.0000 </r>
       <r>  -13.2972    1.0000 </r>
       <r>  -13.0743    1.0000 </r>
       <r>  -10.0969    1.0000 </r>
       <r>   -7.6098    1.0000 </r>
       <r>   -7.1128    1.0000 </r>
       <r>   -5.6298    1.0000 </r>
       <r>   -5.1307    1.0000 </r>
       <r>   -4.3153    1.0000 </r>
       <r>   -3.6162    1.0000 </r>
       <r>   -1.0296    0.0000 </r>
       <r>   -0.5425    0.0000 </r>
       <r>   -0.4656    0.0000 </r>
       <r>    0.4624    0.0000 </r>
       <r>    1.1861    0.0000 </r>
       <r>    2.4183    0.0000 </r>
      </set>
      <set comment="kpoint 9">
       <r>  -15.4216    1.0000 </r>
       <r>  -13.7387    1.0000 </r>
       <r>  -12.6868    1.0000 </r>
       <r>  -10.6879    1.0000 </r>
       <r>   -7.5037    1.0000 </r>
       <r>   -7.0651    1.0000 </r>
       <r>   -5.4193    1.0000 </r>
       <r>   -5.0633    1.0000 </r>
       <r>   -4.4538    1.0000 </r>
       <r>   -3.9086    1.0000 </r>
       <r>   -0.8010    0.0000 </r>
       <r>   -0.7989    0.0000 </r>
       <r>   -0.7506    0.0000 </r>
       <r>    0.6304    0.0000 </r>
       <r>    0.7504    0.0000 </r>
       <r>    2.0771    0.0000 </r>
      </set>
      <set comment="kpoint 10">
       <r>  -15.0369    1.0000 </r>
       <r>  -14.1856    1.0000 </r>
       <r>  -12.2516    1.0000 </r>
       <r>  -11.2483    1.0000 </r>
       <r>   -7.3564    1.0000 </r>
       <r>   -7.0979    1.0000 </r>
       <r>   -5.2354    1.0000 </r>
       <r>   -5.0476    1.0000 </r>
       <r>   -4.4788    1.0000 </r>
       <r>   -4.1744    1.0000 </r>
       <r>   -1.0044    0.0000 </r>
       <r>   -0.9546    0.0000 </r>
       <r>   -0.4850    0.0000 </r>
       <r>    0.3089    0.0000 </r>
       <r>    0.9361    0.0000 </r>
       <r>    1.6906    0.0000 </r>
      </set>
      <set comment="kpoint 11">
       <r>  -14.6222    1.0000 </r>
       <r>  -14.6222    1.0000 </r>
       <r>  -11.7711    1.0000 </r>
       <r>  -11.7711    1.0000 </r>
       <r>   -7.2066    1.0000 </r>
       <r>   -7.2066    1.0000 </r>
       <r>   -5.1050    1.0000 </r>
       <r>   -5.1049    1.0000 </r>
       <r>   -4.3774    1.0000 </r>
       <r>   -4.3774    1.0000 </r>
       <r>   -1.0533    0.0000 </r>
       <r>   -1.0533    0.0000 </r>
       <r>   -0.1096    0.0000 </r>
       <r>   -0.1096    0.0000 </r>
       <r>    1.3007    0.0000 </r>
       <r>    1.3007    0.0000 </r>
      </set>
      <set comment="kpoint 12">
       <r>  -16.9386    1.0000 </r>
       <r>  -14.3937    1.0000 </r>
       <r>  -11.7284    1.0000 </r>
       <r>   -7.9235    1.0000 </r>
       <r>   -7.0049    1.0000 </r>
       <r>   -6.4868    1.0000 </r>
       <r>   -6.4412    1.0000 </r>
       <r>   -4.7819    1.0000 </r>
       <r>   -3.6243    1.0000 </r>
       <r>   -2.6123    1.0000 </r>
       <r>   -1.6567    0.0000 </r>
       <r>   -1.0232    0.0000 </r>
       <r>   -0.9506    0.0000 </r>
       <r>    0.0878    0.0000 </r>
       <r>    2.1535    0.0000 </r>
       <r>    2.2068    0.0000 </r>
      </set>
      <set comment="kpoint 13">
       <r>  -16.9138    1.0000 </r>
       <r>  -14.3675    1.0000 </r>
       <r>  -11.7525    1.0000 </r>
       <r>   -7.9197    1.0000 </r>
       <r>   -7.0530    1.0000 </r>
       <r>   -6.6102    1.0000 </r>
       <r>   -6.4064    1.0000 </r>
       <r>   -4.8885    1.0000 </r>
       <r>   -3.6255    1.0000 </r>
       <r>   -2.6266    1.0000 </r>
       <r>   -1.4608    0.0000 </r>
       <r>   -1.0041    0.0000 </r>
       <r>   -0.7553    0.0000 </r>
       <r>   -0.0198    0.0000 </r>
       <r>    2.1774    0.0000 </r>
       <r>    2.2352    0.0000 </r>
      </set>
      <set comment="kpoint 14">
       <r>  -16.8394    1.0000 </r>
       <r>  -14.2892    1.0000 </r>
       <r>  -11.8290    1.0000 </r>
       <r>   -7.9278    1.0000 </r>
       <r>   -7.1954    1.0000 </r>
       <r>   -6.8822    1.0000 </r>
       <r>   -6.3412    1.0000 </r>
       <r>   -5.1078    1.0000 </r>
       <r>   -3.6376    1.0000 </r>
       <r>   -2.6761    1.0000 </r>
       <r>   -0.9727    0.0000 </r>
       <r>   -0.9013    0.0000 </r>
       <r>   -0.3861    0.0000 </r>
       <r>   -0.1664    0.0000 </r>
       <r>    2.2101    0.0000 </r>
       <r>    2.3199    0.0000 </r>
      </set>
      <set comment="kpoint 15">
       <r>  -16.7160    1.0000 </r>
       <r>  -14.1592    1.0000 </r>
       <r>  -11.9682    1.0000 </r>
       <r>   -8.0431    1.0000 </r>
       <r>   -7.3606    1.0000 </r>
       <r>   -7.1957    1.0000 </r>
       <r>   -6.2402    1.0000 </r>
       <r>   -5.2824    1.0000 </r>
       <r>   -3.6800    1.0000 </r>
       <r>   -2.7701    1.0000 </r>
       <r>   -0.8601    0.0000 </r>
       <r>   -0.6433    0.0000 </r>
       <r>   -0.1617    0.0000 </r>
       <r>    0.3441    0.0000 </r>
       <r>    1.8244    0.0000 </r>
       <r>    2.4052    0.0000 </r>
      </set>
      <set comment="kpoint 16">
       <r>  -16.5443    1.0000 </r>
       <r>  -13.9789    1.0000 </r>
       <r>  -12.1805    1.0000 </r>
       <r>   -8.4018    1.0000 </r>
       <r>   -7.4622    1.0000 </r>
       <r>   -7.3935    1.0000 </r>
       <r>   -6.1047    1.0000 </r>
       <r>   -5.3517    1.0000 </r>
       <r>   -3.7749    1.0000 </r>
       <r>   -2.9150    1.0000 </r>
       <r>   -0.9021    0.0000 </r>
       <r>   -0.7335    0.0000 </r>
       <r>    0.6495    0.0000 </r>
       <r>    0.6711    0.0000 </r>
       <r>    1.3728    0.0000 </r>
       <r>    2.4757    0.0000 </r>
      </set>
      <set comment="kpoint 17">
       <r>  -16.3254    1.0000 </r>
       <r>  -13.7518    1.0000 </r>
       <r>  -12.4663    1.0000 </r>
       <r>   -8.9312    1.0000 </r>
       <r>   -7.6332    1.0000 </r>
       <r>   -7.3182    1.0000 </r>
       <r>   -5.9403    1.0000 </r>
       <r>   -5.3369    1.0000 </r>
       <r>   -3.9321    1.0000 </r>
       <r>   -3.1118    1.0000 </r>
       <r>   -1.0413    0.0000 </r>
       <r>   -0.5895    0.0000 </r>
       <r>    0.4580    0.0000 </r>
       <r>    0.7438    0.0000 </r>
       <r>    1.6254    0.0000 </r>
       <r>    2.5951    0.0000 </r>
      </set>
      <set comment="kpoint 18">
       <r>  -16.0611    1.0000 </r>
       <r>  -13.4949    1.0000 </r>
       <r>  -12.7998    1.0000 </r>
       <r>   -9.5220    1.0000 </r>
       <r>   -7.6949    1.0000 </r>
       <r>   -7.2091    1.0000 </r>
       <r>   -5.7564    1.0000 </r>
       <r>   -5.2818    1.0000 </r>
       <r>   -4.1256    1.0000 </r>
       <r>   -3.3524    1.0000 </r>
       <r>   -1.0405    0.0000 </r>
       <r>   -0.4880    0.0000 </r>
       <r>    0.0396    0.0000 </r>
       <r>    0.4071    0.0000 </r>
       <r>    1.7444    0.0000 </r>
       <r>    2.6023    0.0000 </r>
      </set>
      <set comment="kpoint 19">
       <r>  -15.7536    1.0000 </r>
       <r>  -13.4030    1.0000 </r>
       <r>  -12.9675    1.0000 </r>
       <r>  -10.1223    1.0000 </r>
       <r>   -7.6577    1.0000 </r>
       <r>   -7.1117    1.0000 </r>
       <r>   -5.5684    1.0000 </r>
       <r>   -5.2308    1.0000 </r>
       <r>   -4.2921    1.0000 </r>
       <r>   -3.6179    1.0000 </r>
       <r>   -0.9274    0.0000 </r>
       <r>   -0.5758    0.0000 </r>
       <r>   -0.3715    0.0000 </r>
       <r>    0.3255    0.0000 </r>
       <r>    1.4238    0.0000 </r>
       <r>    2.3844    0.0000 </r>
      </set>
      <set comment="kpoint 20">
       <r>  -15.4063    1.0000 </r>
       <r>  -13.7532    1.0000 </r>
       <r>  -12.6705    1.0000 </r>
       <r>  -10.7072    1.0000 </r>
       <r>   -7.5451    1.0000 </r>
       <r>   -7.0674    1.0000 </r>
       <r>   -5.3992    1.0000 </r>
       <r>   -5.2117    1.0000 </r>
       <r>   -4.3699    1.0000 </r>
       <r>   -3.8800    1.0000 </r>
       <r>   -0.8736    0.0000 </r>
       <r>   -0.8127    0.0000 </r>
       <r>   -0.5441    0.0000 </r>
       <r>    0.4658    0.0000 </r>
       <r>    1.0582    0.0000 </r>
       <r>    2.0488    0.0000 </r>
      </set>
      <set comment="kpoint 21">
       <r>  -15.0236    1.0000 </r>
       <r>  -14.1825    1.0000 </r>
       <r>  -12.2531    1.0000 </r>
       <r>  -11.2627    1.0000 </r>
       <r>   -7.3885    1.0000 </r>
       <r>   -7.1072    1.0000 </r>
       <r>   -5.2777    1.0000 </r>
       <r>   -5.2114    1.0000 </r>
       <r>   -4.3525    1.0000 </r>
       <r>   -4.1045    1.0000 </r>
       <r>   -1.0361    0.0000 </r>
       <r>   -1.0154    0.0000 </r>
       <r>   -0.2991    0.0000 </r>
       <r>    0.4007    0.0000 </r>
       <r>    1.0003    0.0000 </r>
       <r>    1.6719    0.0000 </r>
      </set>
      <set comment="kpoint 22">
       <r>  -14.6123    1.0000 </r>
       <r>  -14.6123    1.0000 </r>
       <r>  -11.7803    1.0000 </r>
       <r>  -11.7803    1.0000 </r>
       <r>   -7.2271    1.0000 </r>
       <r>   -7.2271    1.0000 </r>
       <r>   -5.2219    1.0000 </r>
       <r>   -5.2219    1.0000 </r>
       <r>   -4.2636    1.0000 </r>
       <r>   -4.2636    1.0000 </r>
       <r>   -1.0995    0.0000 </r>
       <r>   -1.0995    0.0000 </r>
       <r>    0.0504    0.0000 </r>
       <r>    0.0504    0.0000 </r>
       <r>    1.3008    0.0000 </r>
       <r>    1.3008    0.0000 </r>
      </set>
      <set comment="kpoint 23">
       <r>  -15.0236    1.0000 </r>
       <r>  -14.1825    1.0000 </r>
       <r>  -12.2531    1.0000 </r>
       <r>  -11.2627    1.0000 </r>
       <r>   -7.3885    1.0000 </r>
       <r>   -7.1072    1.0000 </r>
       <r>   -5.2777    1.0000 </r>
       <r>   -5.2114    1.0000 </r>
       <r>   -4.3525    1.0000 </r>
       <r>   -4.1045    1.0000 </r>
       <r>   -1.0361    0.0000 </r>
       <r>   -1.0154    0.0000 </r>
       <r>   -0.2991    0.0000 </r>
       <r>    0.4007    0.0000 </r>
       <r>    1.0003    0.0000 </r>
       <r>    1.6719    0.0000 </r>
      </set>
      <set comment="kpoint 24">
       <r>  -15.4063    1.0000 </r>
       <r>  -13.7532    1.0000 </r>
       <r>  -12.6705    1.0000 </r>
       <r>  -10.7072    1.0000 </r>
       <r>   -7.5451    1.0000 </r>
       <r>   -7.0674    1.0000 </r>
       <r>   -5.3992    1.0000 </r>
       <r>   -5.2117    1.0000 </r>
       <r>   -4.3699    1.0000 </r>
       <r>   -3.8800    1.0000 </r>
       <r>   -0.8736    0.0000 </r>
       <r>   -0.8127    0.0000 </r>
       <r>   -0.5441    0.0000 </r>
       <r>    0.4658    0.0000 </r>
       <r>    1.0582    0.0000 </r>
       <r>    2.0488    0.0000 </r>
      </set>
      <set comment="kpoint 25">
       <r>  -15.7536    1.0000 </r>
       <r>  -13.4030    1.0000 </r>
       <r>  -12.9675    1.0000 </r>
       <r>  -10.1223    1.0000 </r>
       <r>   -7.6577    1.0000 </r>
       <r>   -7.1117    1.0000 </r>
       <r>   -5.5684    1.0000 </r>
       <r>   -5.2308    1.0000 </r>
       <r>   -4.2921    1.0000 </r>
       <r>   -3.6179    1.0000 </r>
       <r>   -0.9274    0.0000 </r>
       <r>   -0.5758    0.0000 </r>
       <r>   -0.3715    0.0000 </r>
       <r>    0.3255    0.0000 </r>
       <r>    1.4238    0.0000 </r>
       <r>    2.3844    0.0000 </r>
      </set>
      <set comment="kpoint 26">
       <r>  -16.0611    1.0000 </r>
       <r>  -13.4949    1.0000 </r>
       <r>  -12.7998    1.0000 </r>
       <r>   -9.5220    1.0000 </r>
       <r>   -7.6949    1.0000 </r>
       <r>   -7.2091    1.0000 </r>
       <r>   -5.7564    1.0000 </r>
       <r>   -5.2818    1.0000 </r>
       <r>   -4.1256    1.0000 </r>
       <r>   -3.3524    1.0000 </r>
       <r>   -1.0405    0.0000 </r>
       <r>   -0.4880    0.0000 </r>
       <r>    0.0396    0.0000 </r>
       <r>    0.4071    0.0000 </r>
       <r>    1.7444    0.0000 </r>
       <r>    2.6023    0.0000 </r>
      </set>
      <set comment="kpoint 27">
       <r>  -16.3254    1.0000 </r>
       <r>  -13.7518    1.0000 </r>
       <r>  -12.4663    1.0000 </r>
       <r>   -8.9312    1.0000 </r>
       <r>   -7.6332    1.0000 </r>
       <r>   -7.3182    1.0000 </r>
       <r>   -5.9403    1.0000 </r>
       <r>   -5.3369    1.0000 </r>
       <r>   -3.9321    1.0000 </r>
       <r>   -3.1118    1.0000 </r>
       <r>   -1.0413    0.0000 </r>
       <r>   -0.5895    0.0000 </r>
       <r>    0.4580    0.0000 </r>
       <r>    0.7438    0.0000 </r>
       <r>    1.6254    0.0000 </r>
       <r>    2.5951    0.0000 </r>
      </set>
      <set comment="kpoint 28">
       <r>  -16.5443    1.0000 </r>
       <r>  -13.9789    1.0000 </r>
       <r>  -12.1805    1.0000 </r>
       <r>   -8.4018    1.0000 </r>
       <r>   -7.4622    1.0000 </r>
       <r>   -7.3935    1.0000 </r>
       <r>   -6.1047    1.0000 </r>
       <r>   -5.3517    1.0000 </r>
       <r>   -3.7749    1.0000 </r>
       <r>   -2.9150    1.0000 </r>
       <r>   -0.9021    0.0000 </r>
       <r>   -0.7335    0.0000 </r>
       <r>    0.6495    0.0000 </r>
       <r>    0.6711    0.0000 </r>
       <r>    1.3728    0.0000 </r>
       <r>    2.4754    0.0000 </r>
      </set>
      <set comment="kpoint 29">
       <r>  -16.7160    1.0000 </r>
       <r>  -14.1592    1.0000 </r>
       <r>  -11.9682    1.0000 </r>
       <r>   -8.0431    1.0000 </r>
       <r>   -7.3606    1.0000 </r>
       <r>   -7.1957    1.0000 </r>
       <r>   -6.2402    1.0000 </r>
       <r>   -5.2824    1.0000 </r>
       <r>   -3.6800    1.0000 </r>
       <r>   -2.7701    1.0000 </r>
       <r>   -0.8601    0.0000 </r>
       <r>   -0.6433    0.0000 </r>
       <r>   -0.1617    0.0000 </r>
       <r>    0.3441    0.0000 </r>
       <r>    1.8244    0.0000 </r>
       <r>    2.4052    0.0000 </r>
      </set>
      <set comment="kpoint 30">
       <r>  -16.8394    1.0000 </r>
       <r>  -14.2892    1.0000 </r>
       <r>  -11.8290    1.0000 </r>
       <r>   -7.9278    1.0000 </r>
       <r>   -7.1954    1.0000 </r>
       <r>   -6.8822    1.0000 </r>
       <r>   -6.3412    1.0000 </r>
       <r>   -5.1078    1.0000 </r>
       <r>   -3.6376    1.0000 </r>
       <r>   -2.6761    1.0000 </r>
       <r>   -0.9727    0.0000 </r>
       <r>   -0.9013    0.0000 </r>
       <r>   -0.3861    0.0000 </r>
       <r>   -0.1664    0.0000 </r>
       <r>    2.2101    0.0000 </r>
       <r>    2.3199    0.0000 </r>
      </set>
      <set comment="kpoint 31">
       <r>  -16.9138    1.0000 </r>
       <r>  -14.3675    1.0000 </r>
       <r>  -11.7525    1.0000 </r>
       <r>   -7.9197    1.0000 </r>
       <r>   -7.0530    1.0000 </r>
       <r>   -6.6102    1.0000 </r>
       <r>   -6.4064    1.0000 </r>
       <r>   -4.8885    1.0000 </r>
       <r>   -3.6255    1.0000 </r>
       <r>   -2.6266    1.0000 </r>
       <r>   -1.4608    0.0000 </r>
       <r>   -1.0041    0.0000 </r>
       <r>   -0.7553    0.0000 </r>
       <r>   -0.0198    0.0000 </r>
       <r>    2.1774    0.0000 </r>
       <r>    2.2352    0.0000 </r>
      </set>
      <set comment="kpoint 32">
       <r>  -16.8827    1.0000 </r>
       <r>  -14.4919    1.0000 </r>
       <r>  -11.6921    1.0000 </r>
       <r>   -8.2841    1.0000 </r>
       <r>   -6.7533    1.0000 </r>
       <r>   -6.3960    1.0000 </r>
       <r>   -6.3096    1.0000 </r>
       <r>   -4.8262    1.0000 </r>
       <r>   -3.4539    1.0000 </r>
       <r>   -2.9017    1.0000 </r>
       <r>   -1.5980    0.0000 </r>
       <r>   -1.0931    0.0000 </r>
       <r>   -0.7594    0.0000 </r>
       <r>    0.0583    0.0000 </r>
       <r>    2.2747    0.0000 </r>
       <r>    2.2843    0.0000 </r>
      </set>
      <set comment="kpoint 33">
       <r>  -16.8580    1.0000 </r>
       <r>  -14.4666    1.0000 </r>
       <r>  -11.7124    1.0000 </r>
       <r>   -8.2865    1.0000 </r>
       <r>   -6.7898    1.0000 </r>
       <r>   -6.6079    1.0000 </r>
       <r>   -6.1868    1.0000 </r>
       <r>   -4.9463    1.0000 </r>
       <r>   -3.4633    1.0000 </r>
       <r>   -2.9096    1.0000 </r>
       <r>   -1.4077    0.0000 </r>
       <r>   -0.8953    0.0000 </r>
       <r>   -0.7449    0.0000 </r>
       <r>   -0.0244    0.0000 </r>
       <r>    2.2950    0.0000 </r>
       <r>    2.3126    0.0000 </r>
      </set>
      <set comment="kpoint 34">
       <r>  -16.7839    1.0000 </r>
       <r>  -14.3910    1.0000 </r>
       <r>  -11.7776    1.0000 </r>
       <r>   -8.3080    1.0000 </r>
       <r>   -6.9370    1.0000 </r>
       <r>   -6.9081    1.0000 </r>
       <r>   -6.0696    1.0000 </r>
       <r>   -5.1910    1.0000 </r>
       <r>   -3.5046    1.0000 </r>
       <r>   -2.9381    1.0000 </r>
       <r>   -0.9077    0.0000 </r>
       <r>   -0.6840    0.0000 </r>
       <r>   -0.4969    0.0000 </r>
       <r>   -0.1249    0.0000 </r>
       <r>    2.0074    0.0000 </r>
       <r>    2.3585    0.0000 </r>
      </set>
      <set comment="kpoint 35">
       <r>  -16.6610    1.0000 </r>
       <r>  -14.2665    1.0000 </r>
       <r>  -11.8987    1.0000 </r>
       <r>   -8.4008    1.0000 </r>
       <r>   -7.2805    1.0000 </r>
       <r>   -7.0917    1.0000 </r>
       <r>   -5.9527    1.0000 </r>
       <r>   -5.3821    1.0000 </r>
       <r>   -3.5980    1.0000 </r>
       <r>   -2.9970    1.0000 </r>
       <r>   -0.6644    0.0000 </r>
       <r>   -0.5747    0.0000 </r>
       <r>   -0.1311    0.0000 </r>
       <r>    0.3319    0.0000 </r>
       <r>    1.5515    0.0000 </r>
       <r>    2.4520    0.0000 </r>
      </set>
      <set comment="kpoint 36">
       <r>  -16.4899    1.0000 </r>
       <r>  -14.0961    1.0000 </r>
       <r>  -12.0868    1.0000 </r>
       <r>   -8.6530    1.0000 </r>
       <r>   -7.5659    1.0000 </r>
       <r>   -7.2348    1.0000 </r>
       <r>   -5.8227    1.0000 </r>
       <r>   -5.4588    1.0000 </r>
       <r>   -3.7540    1.0000 </r>
       <r>   -3.0960    1.0000 </r>
       <r>   -0.7335    0.0000 </r>
       <r>   -0.5689    0.0000 </r>
       <r>    0.5280    0.0000 </r>
       <r>    0.7406    0.0000 </r>
       <r>    1.2768    0.0000 </r>
       <r>    2.4964    0.0000 </r>
      </set>
      <set comment="kpoint 37">
       <r>  -16.2722    1.0000 </r>
       <r>  -13.8883    1.0000 </r>
       <r>  -12.3405    1.0000 </r>
       <r>   -9.0871    1.0000 </r>
       <r>   -7.7481    1.0000 </r>
       <r>   -7.2563    1.0000 </r>
       <r>   -5.6815    1.0000 </r>
       <r>   -5.4595    1.0000 </r>
       <r>   -3.9556    1.0000 </r>
       <r>   -3.2394    1.0000 </r>
       <r>   -0.7909    0.0000 </r>
       <r>   -0.4685    0.0000 </r>
       <r>    0.3807    0.0000 </r>
       <r>    0.6565    0.0000 </r>
       <r>    1.8431    0.0000 </r>
       <r>    2.5275    0.0000 </r>
      </set>
      <set comment="kpoint 38">
       <r>  -16.0094    1.0000 </r>
       <r>  -13.6725    1.0000 </r>
       <r>  -12.6240    1.0000 </r>
       <r>   -9.6258    1.0000 </r>
       <r>   -7.8134    1.0000 </r>
       <r>   -7.1928    1.0000 </r>
       <r>   -5.5424    1.0000 </r>
       <r>   -5.4462    1.0000 </r>
       <r>   -4.1465    1.0000 </r>
       <r>   -3.4198    1.0000 </r>
       <r>   -0.7404    0.0000 </r>
       <r>   -0.4528    0.0000 </r>
       <r>    0.1194    0.0000 </r>
       <r>    0.2720    0.0000 </r>
       <r>    2.1182    0.0000 </r>
       <r>    2.5034    0.0000 </r>
      </set>
      <set comment="kpoint 39">
       <r>  -15.7044    1.0000 </r>
       <r>  -13.5780    1.0000 </r>
       <r>  -12.7893    1.0000 </r>
       <r>  -10.1980    1.0000 </r>
       <r>   -7.7716    1.0000 </r>
       <r>   -7.1104    1.0000 </r>
       <r>   -5.4690    1.0000 </r>
       <r>   -5.4293    1.0000 </r>
       <r>   -4.2515    1.0000 </r>
       <r>   -3.6145    1.0000 </r>
       <r>   -0.6702    0.0000 </r>
       <r>   -0.6432    0.0000 </r>
       <r>   -0.1067    0.0000 </r>
       <r>    0.1635    0.0000 </r>
       <r>    1.8795    0.0000 </r>
       <r>    2.2880    0.0000 </r>
      </set>
      <set comment="kpoint 40">
       <r>  -15.3607    1.0000 </r>
       <r>  -13.7970    1.0000 </r>
       <r>  -12.6218    1.0000 </r>
       <r>  -10.7650    1.0000 </r>
       <r>   -7.6463    1.0000 </r>
       <r>   -7.0727    1.0000 </r>
       <r>   -5.5166    1.0000 </r>
       <r>   -5.3730    1.0000 </r>
       <r>   -4.2413    1.0000 </r>
       <r>   -3.7920    1.0000 </r>
       <r>   -0.9333    0.0000 </r>
       <r>   -0.7490    0.0000 </r>
       <r>   -0.1502    0.0000 </r>
       <r>    0.3568    0.0000 </r>
       <r>    1.5352    0.0000 </r>
       <r>    1.9699    0.0000 </r>
      </set>
      <set comment="kpoint 41">
       <r>  -14.9842    1.0000 </r>
       <r>  -14.1750    1.0000 </r>
       <r>  -12.2565    1.0000 </r>
       <r>  -11.3061    1.0000 </r>
       <r>   -7.4686    1.0000 </r>
       <r>   -7.1299    1.0000 </r>
       <r>   -5.5211    1.0000 </r>
       <r>   -5.3919    1.0000 </r>
       <r>   -4.1571    1.0000 </r>
       <r>   -3.9333    1.0000 </r>
       <r>   -1.1009    0.0000 </r>
       <r>   -0.9877    0.0000 </r>
       <r>    0.0977    0.0000 </r>
       <r>    0.5080    0.0000 </r>
       <r>    1.2706    0.0000 </r>
       <r>    1.6264    0.0000 </r>
      </set>
      <set comment="kpoint 42">
       <r>  -14.5836    1.0000 </r>
       <r>  -14.5836    1.0000 </r>
       <r>  -11.8078    1.0000 </r>
       <r>  -11.8078    1.0000 </r>
       <r>   -7.2788    1.0000 </r>
[...]
       <r>    1.6350    0.0000 </r>
       <r>    1.6350    0.0000 </r>
      </set>
      <set comment="kpoint 157">
       <r>  -15.2960    1.0000 </r>
       <r>  -15.2959    1.0000 </r>
       <r>  -10.8557    1.0000 </r>
       <r>  -10.8557    1.0000 </r>
       <r>   -7.6807    1.0000 </r>
       <r>   -7.6807    1.0000 </r>
       <r>   -5.2465    1.0000 </r>
       <r>   -5.2465    1.0000 </r>
       <r>   -3.8201    1.0000 </r>
       <r>   -3.8201    1.0000 </r>
       <r>    0.0241    0.0000 </r>
       <r>    0.0241    0.0000 </r>
       <r>    1.1028    0.0000 </r>
       <r>    1.1028    0.0000 </r>
       <r>    2.2189    0.0000 </r>
       <r>    2.2189    0.0000 </r>
      </set>
      <set comment="kpoint 158">
       <r>  -15.0690    1.0000 </r>
       <r>  -15.0690    1.0000 </r>
       <r>  -11.1053    1.0000 </r>
       <r>  -11.1053    1.0000 </r>
       <r>   -7.8226    1.0000 </r>
       <r>   -7.8226    1.0000 </r>
       <r>   -5.5104    1.0000 </r>
       <r>   -5.5104    1.0000 </r>
       <r>   -3.8176    1.0000 </r>
       <r>   -3.8175    1.0000 </r>
       <r>    0.2056    0.0000 </r>
       <r>    0.2056    0.0000 </r>
       <r>    0.9732    0.0000 </r>
       <r>    0.9732    0.0000 </r>
       <r>    2.7949    0.0000 </r>
       <r>    2.7949    0.0000 </r>
      </set>
      <set comment="kpoint 159">
       <r>  -14.8237    1.0000 </r>
       <r>  -14.8237    1.0000 </r>
       <r>  -11.4214    1.0000 </r>
       <r>  -11.4214    1.0000 </r>
       <r>   -7.7955    1.0000 </r>
       <r>   -7.7955    1.0000 </r>
       <r>   -5.8655    1.0000 </r>
       <r>   -5.8655    1.0000 </r>
       <r>   -3.7457    1.0000 </r>
       <r>   -3.7457    1.0000 </r>
       <r>    0.2751    0.0000 </r>
       <r>    0.2751    0.0000 </r>
       <r>    0.9101    0.0000 </r>
       <r>    0.9101    0.0000 </r>
       <r>    3.0754    0.0000 </r>
       <r>    3.0754    0.0000 </r>
      </set>
      <set comment="kpoint 160">
       <r>  -14.5840    1.0000 </r>
       <r>  -14.5840    1.0000 </r>
       <r>  -11.7438    1.0000 </r>
       <r>  -11.7438    1.0000 </r>
       <r>   -7.6359    1.0000 </r>
       <r>   -7.6359    1.0000 </r>
       <r>   -6.2598    1.0000 </r>
       <r>   -6.2598    1.0000 </r>
       <r>   -3.6484    1.0000 </r>
       <r>   -3.6484    1.0000 </r>
       <r>    0.1727    0.0000 </r>
       <r>    0.1727    0.0000 </r>
       <r>    1.0327    0.0000 </r>
       <r>    1.0327    0.0000 </r>
       <r>    3.1239    0.0000 </r>
       <r>    3.1239    0.0000 </r>
      </set>
      <set comment="kpoint 161">
       <r>  -14.3946    1.0000 </r>
       <r>  -14.3946    1.0000 </r>
       <r>  -11.9956    1.0000 </r>
       <r>  -11.9956    1.0000 </r>
       <r>   -7.3839    1.0000 </r>
       <r>   -7.3839    1.0000 </r>
       <r>   -6.6514    1.0000 </r>
       <r>   -6.6514    1.0000 </r>
       <r>   -3.5681    1.0000 </r>
       <r>   -3.5681    1.0000 </r>
       <r>    0.0426    0.0000 </r>
       <r>    0.0426    0.0000 </r>
       <r>    1.2101    0.0000 </r>
       <r>    1.2101    0.0000 </r>
       <r>    3.0315    0.0000 </r>
       <r>    3.0315    0.0000 </r>
      </set>
      <set comment="kpoint 162">
       <r>  -14.3192    1.0000 </r>
       <r>  -14.3192    1.0000 </r>
       <r>  -12.0938    1.0000 </r>
       <r>  -12.0938    1.0000 </r>
       <r>   -7.1452    1.0000 </r>
       <r>   -7.1452    1.0000 </r>
       <r>   -6.9364    1.0000 </r>
       <r>   -6.9364    1.0000 </r>
       <r>   -3.5371    1.0000 </r>
       <r>   -3.5371    1.0000 </r>
       <r>   -0.0101    0.0000 </r>
       <r>   -0.0101    0.0000 </r>
       <r>    1.2929    0.0000 </r>
       <r>    1.2929    0.0000 </r>
       <r>    2.9619    0.0000 </r>
       <r>    2.9619    0.0000 </r>
      </set>
     </set>
    </set>
   </array>
  </eigenvalues>
  <separator name="orbital magnetization" >
   <v name="MAGDIPOLOUT">      0.00000000      0.00000000      0.00000000</v>
  </separator>
  <dos>
   <i name="efermi">     -2.35799358 </i>
   <total>
    <array>
     <dimension dim="1">gridpoints</dimension>
     <dimension dim="2">spin</dimension>
     <field>energy</field>
     <field>total</field>
     <field>integrated</field>
     <set>
      <set comment="spin 1">
       <r>   -17.9705     0.0000     0.0000 </r>
       <r>   -17.8962     0.0000     0.0000 </r>
       <r>   -17.8219     0.0000     0.0000 </r>
       <r>   -17.7476     0.0000     0.0000 </r>
       <r>   -17.6733     0.0000     0.0000 </r>
       <r>   -17.5990     0.0000     0.0000 </r>
       <r>   -17.5247     0.0000     0.0000 </r>
       <r>   -17.4504     0.0000     0.0000 </r>
       <r>   -17.3761     0.0000     0.0000 </r>
       <r>   -17.3018     0.0000     0.0000 </r>
       <r>   -17.2275     0.0000     0.0000 </r>
       <r>   -17.1532     0.0000     0.0000 </r>
       <r>   -17.0789     0.0000     0.0000 </r>
       <r>   -17.0046     0.0000     0.0000 </r>
       <r>   -16.9303     0.3385     0.0252 </r>
       <r>   -16.8560     0.9035     0.0923 </r>
       <r>   -16.7817     0.8813     0.1578 </r>
       <r>   -16.7074     0.9412     0.2277 </r>
       <r>   -16.6331     1.0982     0.3093 </r>
       <r>   -16.5588     0.7757     0.3669 </r>
       <r>   -16.4845     1.0135     0.4422 </r>
       <r>   -16.4102     0.9025     0.5093 </r>
       <r>   -16.3359     0.6666     0.5588 </r>
       <r>   -16.2616     1.6666     0.6827 </r>
       <r>   -16.1873     0.6190     0.7286 </r>
       <r>   -16.1130     0.5092     0.7665 </r>
       <r>   -16.0387     1.6831     0.8915 </r>
       <r>   -15.9644     0.7081     0.9441 </r>
       <r>   -15.8901     1.0919     1.0253 </r>
       <r>   -15.8158     0.8030     1.0849 </r>
       <r>   -15.7415     1.1409     1.1697 </r>
       <r>   -15.6672     1.1268     1.2534 </r>
       <r>   -15.5929     1.0558     1.3319 </r>
       <r>   -15.5186     0.7544     1.3879 </r>
       <r>   -15.4443     1.2656     1.4820 </r>
       <r>   -15.3700     1.1087     1.5643 </r>
       <r>   -15.2957     1.2298     1.6557 </r>
       <r>   -15.2214     1.3945     1.7593 </r>
       <r>   -15.1471     0.7310     1.8136 </r>
       <r>   -15.0728     0.6997     1.8656 </r>
       <r>   -14.9985     2.1453     2.0250 </r>
       <r>   -14.9242     0.9657     2.0968 </r>
       <r>   -14.8499     1.0349     2.1737 </r>
       <r>   -14.7756     1.6632     2.2973 </r>
       <r>   -14.7013     1.2902     2.3931 </r>
       <r>   -14.6270     0.8788     2.4584 </r>
       <r>   -14.5527     2.5087     2.6448 </r>
       <r>   -14.4784     1.6745     2.7692 </r>
       <r>   -14.4041     1.6756     2.8937 </r>
       <r>   -14.3298     2.4476     3.0756 </r>
       <r>   -14.2554     2.1069     3.2321 </r>
       <r>   -14.1811     1.6815     3.3571 </r>
       <r>   -14.1068     2.1679     3.5182 </r>
       <r>   -14.0325     0.9333     3.5875 </r>
       <r>   -13.9582     0.8768     3.6526 </r>
       <r>   -13.8839     0.7450     3.7080 </r>
       <r>   -13.8096     0.6288     3.7547 </r>
       <r>   -13.7353     1.3046     3.8516 </r>
       <r>   -13.6610     0.5798     3.8947 </r>
       <r>   -13.5867     0.1610     3.9067 </r>
       <r>   -13.5124     0.2827     3.9277 </r>
       <r>   -13.4381     0.3084     3.9506 </r>
       <r>   -13.3638     0.4955     3.9874 </r>
       <r>   -13.2895     0.1199     3.9963 </r>
       <r>   -13.2152     0.0493     4.0000 </r>
       <r>   -13.1409     0.0000     4.0000 </r>
       <r>   -13.0666     0.1190     4.0088 </r>
       <r>   -12.9923     0.0626     4.0135 </r>
       <r>   -12.9180     0.3238     4.0376 </r>
       <r>   -12.8437     0.1672     4.0500 </r>
       <r>   -12.7694     0.6408     4.0976 </r>
       <r>   -12.6951     0.0927     4.1045 </r>
       <r>   -12.6208     0.8274     4.1660 </r>
       <r>   -12.5465     0.7457     4.2214 </r>
       <r>   -12.4722     0.4991     4.2584 </r>
       <r>   -12.3979     0.8871     4.3244 </r>
       <r>   -12.3236     0.6456     4.3723 </r>
       <r>   -12.2493     1.3678     4.4739 </r>
       <r>   -12.1750     1.7801     4.6062 </r>
       <r>   -12.1007     1.5538     4.7217 </r>
       <r>   -12.0264     1.1355     4.8060 </r>
       <r>   -11.9521     1.5329     4.9199 </r>
       <r>   -11.8778     2.1602     5.0804 </r>
       <r>   -11.8035     1.3645     5.1818 </r>
       <r>   -11.7292     2.7560     5.3866 </r>
       <r>   -11.6549     2.0728     5.5406 </r>
       <r>   -11.5806     1.1954     5.6294 </r>
       <r>   -11.5063     1.4126     5.7344 </r>
       <r>   -11.4320     0.9918     5.8081 </r>
       <r>   -11.3577     1.6983     5.9343 </r>
       <r>   -11.2834     1.1800     6.0219 </r>
       <r>   -11.2091     0.7210     6.0755 </r>
       <r>   -11.1348     1.9519     6.2205 </r>
       <r>   -11.0605     0.4805     6.2562 </r>
       <r>   -10.9862     0.5407     6.2964 </r>
       <r>   -10.9119     0.8301     6.3581 </r>
       <r>   -10.8376     1.4580     6.4664 </r>
       <r>   -10.7633     0.5520     6.5074 </r>
       <r>   -10.6890     0.9986     6.5816 </r>
       <r>   -10.6147     0.7681     6.6387 </r>
       <r>   -10.5404     0.9761     6.7112 </r>
       <r>   -10.4661     0.7560     6.7674 </r>
       <r>   -10.3918     0.0466     6.7709 </r>
       <r>   -10.3175     0.5358     6.8107 </r>
       <r>   -10.2432     1.5393     6.9250 </r>
       <r>   -10.1689     0.7499     6.9808 </r>
       <r>   -10.0946     0.4298     7.0127 </r>
       <r>   -10.0203     0.3493     7.0386 </r>
       <r>    -9.9460     0.4997     7.0758 </r>
       <r>    -9.8717     1.4051     7.1802 </r>
       <r>    -9.7974     0.1174     7.1889 </r>
       <r>    -9.7231     0.2336     7.2063 </r>
       <r>    -9.6488     0.3337     7.2310 </r>
       <r>    -9.5745     0.6996     7.2830 </r>
       <r>    -9.5002     1.4028     7.3873 </r>
       <r>    -9.4259     0.2556     7.4062 </r>
       <r>    -9.3516     0.0033     7.4065 </r>
       <r>    -9.2773     0.6670     7.4561 </r>
       <r>    -9.2030     0.0076     7.4566 </r>
       <r>    -9.1287     0.4517     7.4902 </r>
       <r>    -9.0544     1.0539     7.5685 </r>
       <r>    -8.9801     0.0738     7.5740 </r>
       <r>    -8.9058     0.5931     7.6180 </r>
       <r>    -8.8315     0.1778     7.6312 </r>
       <r>    -8.7572     0.3232     7.6553 </r>
       <r>    -8.6829     0.7127     7.7082 </r>
       <r>    -8.6086     0.4780     7.7437 </r>
       <r>    -8.5343     0.0003     7.7437 </r>
       <r>    -8.4600     0.0000     7.7438 </r>
       <r>    -8.3857     0.5822     7.7870 </r>
       <r>    -8.3114     0.2635     7.8066 </r>
       <r>    -8.2371     0.8365     7.8687 </r>
       <r>    -8.1628     0.0002     7.8687 </r>
       <r>    -8.0885     0.0106     7.8695 </r>
       <r>    -8.0142     1.7329     7.9983 </r>
       <r>    -7.9399     1.5866     8.1162 </r>
       <r>    -7.8656     2.8461     8.3276 </r>
       <r>    -7.7913     2.0813     8.4823 </r>
       <r>    -7.7170     1.6977     8.6084 </r>
       <r>    -7.6427     3.2732     8.8516 </r>
       <r>    -7.5684     2.8730     9.0651 </r>
       <r>    -7.4941     1.9041     9.2066 </r>
       <r>    -7.4198     1.9793     9.3536 </r>
       <r>    -7.3455     3.3449     9.6022 </r>
       <r>    -7.2712     2.9785     9.8235 </r>
       <r>    -7.1968     4.6795    10.1711 </r>
       <r>    -7.1225     4.6558    10.5171 </r>
       <r>    -7.0482     4.4921    10.8508 </r>
       <r>    -6.9739     0.8922    10.9171 </r>
       <r>    -6.8996     1.7763    11.0491 </r>
       <r>    -6.8253     1.2869    11.1447 </r>
       <r>    -6.7510     1.4916    11.2556 </r>
       <r>    -6.6767     0.9619    11.3270 </r>
       <r>    -6.6024     1.7112    11.4542 </r>
       <r>    -6.5281     2.0369    11.6055 </r>
       <r>    -6.4538     2.0878    11.7606 </r>
       <r>    -6.3795     1.8614    11.8989 </r>
       <r>    -6.3052     1.6660    12.0227 </r>
       <r>    -6.2309     1.6205    12.1431 </r>
       <r>    -6.1566     2.4532    12.3254 </r>
       <r>    -6.0823     1.6300    12.4465 </r>
       <r>    -6.0080     2.1944    12.6096 </r>
       <r>    -5.9337     1.6470    12.7319 </r>
       <r>    -5.8594     1.5262    12.8453 </r>
       <r>    -5.7851     2.2678    13.0138 </r>
       <r>    -5.7108     2.4461    13.1956 </r>
       <r>    -5.6365     3.6358    13.4657 </r>
       <r>    -5.5622     2.7088    13.6670 </r>
       <r>    -5.4879     3.9639    13.9615 </r>
       <r>    -5.4136     3.9432    14.2545 </r>
       <r>    -5.3393     3.8780    14.5426 </r>
       <r>    -5.2650     4.3369    14.8649 </r>
       <r>    -5.1907     2.5887    15.0572 </r>
       <r>    -5.1164     2.2828    15.2268 </r>
       <r>    -5.0421     3.5904    15.4936 </r>
       <r>    -4.9678     0.6954    15.5453 </r>
       <r>    -4.8935     1.1040    15.6273 </r>
       <r>    -4.8192     1.5274    15.7408 </r>
       <r>    -4.7449     2.1346    15.8994 </r>
       <r>    -4.6706     0.6725    15.9494 </r>
       <r>    -4.5963     0.2400    15.9672 </r>
       <r>    -4.5220     0.4417    16.0000 </r>
       <r>    -4.4477     0.2779    16.0207 </r>
       <r>    -4.3734     0.7046    16.0730 </r>
       <r>    -4.2991     1.1221    16.1564 </r>
       <r>    -4.2248     1.8259    16.2921 </r>
       <r>    -4.1505     1.8032    16.4260 </r>
       <r>    -4.0762     2.5883    16.6184 </r>
       <r>    -4.0019     2.3488    16.7929 </r>
       <r>    -3.9276     3.7626    17.0724 </r>
       <r>    -3.8533     3.3596    17.3221 </r>
       <r>    -3.7790     2.9960    17.5447 </r>
       <r>    -3.7047     4.9464    17.9122 </r>
       <r>    -3.6304     4.7064    18.2619 </r>
       <r>    -3.5561     5.2203    18.6498 </r>
       <r>    -3.4818     4.6132    18.9925 </r>
       <r>    -3.4075     3.0800    19.2214 </r>
       <r>    -3.3332     1.3733    19.3234 </r>
       <r>    -3.2589     1.3295    19.4222 </r>
       <r>    -3.1846     1.6814    19.5471 </r>
       <r>    -3.1103     1.0302    19.6237 </r>
       <r>    -3.0360     0.9724    19.6959 </r>
       <r>    -2.9617     0.9551    19.7669 </r>
       <r>    -2.8874     1.1489    19.8522 </r>
       <r>    -2.8131     0.2213    19.8687 </r>
       <r>    -2.7388     0.3329    19.8934 </r>
       <r>    -2.6645     0.4226    19.9248 </r>
       <r>    -2.5902     0.5920    19.9688 </r>
       <r>    -2.5159     0.2194    19.9851 </r>
       <r>    -2.4416     0.2005    20.0000 </r>
       <r>    -2.3673     0.0000    20.0000 </r>
       <r>    -2.2930     0.0000    20.0000 </r>
       <r>    -2.2187     0.0000    20.0000 </r>
       <r>    -2.1444     0.0000    20.0000 </r>
       <r>    -2.0701     0.0000    20.0000 </r>
       <r>    -1.9958     0.0000    20.0000 </r>
       <r>    -1.9215     0.0000    20.0000 </r>
       <r>    -1.8472     0.0000    20.0000 </r>
       <r>    -1.7729     0.0000    20.0000 </r>
       <r>    -1.6986     0.0055    20.0004 </r>
       <r>    -1.6243     0.2554    20.0194 </r>
       <r>    -1.5500     0.3297    20.0439 </r>
       <r>    -1.4757     0.6478    20.0920 </r>
       <r>    -1.4014     0.6690    20.1417 </r>
       <r>    -1.3271     1.1901    20.2301 </r>
       <r>    -1.2528     0.9699    20.3022 </r>
       <r>    -1.1785     1.0176    20.3778 </r>
       <r>    -1.1042     1.9474    20.5225 </r>
       <r>    -1.0299     3.1654    20.7577 </r>
       <r>    -0.9556     2.8572    20.9700 </r>
       <r>    -0.8813     3.6967    21.2447 </r>
       <r>    -0.8070     2.4715    21.4283 </r>
       <r>    -0.7327     4.9816    21.7984 </r>
       <r>    -0.6584     2.9601    22.0184 </r>
       <r>    -0.5841     2.3108    22.1901 </r>
       <r>    -0.5098     2.2584    22.3579 </r>
       <r>    -0.4355     3.9569    22.6519 </r>
       <r>    -0.3612     4.7288    23.0032 </r>
       <r>    -0.2869     2.8739    23.2168 </r>
       <r>    -0.2126     2.1462    23.3762 </r>
       <r>    -0.1382     2.3142    23.5482 </r>
       <r>    -0.0639     4.3570    23.8719 </r>
       <r>     0.0104     4.7138    24.2221 </r>
       <r>     0.0847     4.3546    24.5457 </r>
       <r>     0.1590     3.0856    24.7750 </r>
       <r>     0.2333     2.9394    24.9934 </r>
       <r>     0.3076     5.2420    25.3828 </r>
       <r>     0.3819     4.1439    25.6907 </r>
       <r>     0.4562     2.6610    25.8885 </r>
       <r>     0.5305     4.8206    26.2466 </r>
       <r>     0.6048     2.8211    26.4562 </r>
       <r>     0.6791     3.5272    26.7183 </r>
       <r>     0.7534     4.4969    27.0524 </r>
       <r>     0.8277     2.3990    27.2307 </r>
       <r>     0.9020     0.9899    27.3042 </r>
       <r>     0.9763     2.3525    27.4790 </r>
       <r>     1.0506     2.7571    27.6839 </r>
       <r>     1.1249     3.1583    27.9186 </r>
       <r>     1.1992     1.8186    28.0537 </r>
       <r>     1.2735     2.7106    28.2551 </r>
       <r>     1.3478     3.5793    28.5210 </r>
       <r>     1.4221     2.0196    28.6711 </r>
       <r>     1.4964     1.0102    28.7461 </r>
       <r>     1.5707     1.6112    28.8659 </r>
       <r>     1.6450     2.9705    29.0866 </r>
       <r>     1.7193     1.7313    29.2152 </r>
       <r>     1.7936     1.4887    29.3258 </r>
       <r>     1.8679     1.5859    29.4437 </r>
       <r>     1.9422     1.8955    29.5845 </r>
       <r>     2.0165     2.3651    29.7602 </r>
       <r>     2.0908     2.0548    29.9129 </r>
       <r>     2.1651     2.1342    30.0715 </r>
       <r>     2.2394     3.9920    30.3681 </r>
       <r>     2.3137     2.1247    30.5260 </r>
       <r>     2.3880     3.2942    30.7707 </r>
       <r>     2.4623     2.5781    30.9623 </r>
       <r>     2.5366     3.8955    31.2517 </r>
       <r>     2.6109     1.4775    31.3615 </r>
       <r>     2.6852     0.7017    31.4136 </r>
       <r>     2.7595     0.7711    31.4709 </r>
       <r>     2.8338     1.1772    31.5584 </r>
       <r>     2.9081     0.9737    31.6307 </r>
       <r>     2.9824     1.2596    31.7243 </r>
       <r>     3.0567     0.7618    31.7809 </r>
       <r>     3.1310     1.1641    31.8674 </r>
       <r>     3.2053     0.4379    31.8999 </r>
       <r>     3.2796     0.4303    31.9319 </r>
       <r>     3.3539     0.9162    32.0000 </r>
       <r>     3.4282     0.0002    32.0000 </r>
       <r>     3.5025     0.0000    32.0000 </r>
       <r>     3.5768     0.0000    32.0000 </r>
       <r>     3.6511     0.0000    32.0000 </r>
       <r>     3.7254     0.0000    32.0000 </r>
       <r>     3.7997     0.0000    32.0000 </r>
       <r>     3.8740     0.0000    32.0000 </r>
       <r>     3.9483     0.0000    32.0000 </r>
       <r>     4.0226     0.0000    32.0000 </r>
       <r>     4.0969     0.0000    32.0000 </r>
       <r>     4.1712     0.0000    32.0000 </r>
       <r>     4.2455     0.0000    32.0000 </r>
       <r>     4.3198     0.0000    32.0000 </r>
      </set>
     </set>
    </array>
   </total>
  </dos>
 </calculation>
 <structure name="finalpos" >
  <crystal>
   <varray name="basis" >
    <v>       3.55119700       0.00000000       0.00000000 </v>
    <v>       0.00000000       4.62335100      -0.00005300 </v>
    <v>       0.00000000       0.00000000      20.02439000 </v>
   </varray>
   <i name="volume">    328.76904954 </i>
   <varray name="rec_basis" >
    <v>       0.28159519       0.00000000       0.00000000 </v>
    <v>       0.00000000       0.21629333       0.00000000 </v>
    <v>       0.00000000       0.00000057       0.04993910 </v>
   </varray>
  </crystal>
  <varray name="positions" >
   <v>       0.50000000       0.90803510       0.55200918 </v>
   <v>       0.50000000       0.09196490       0.44799082 </v>
   <v>      -0.00000000       0.40803046       0.44799082 </v>
   <v>       0.00000000       0.59196954       0.55200918 </v>
  </varray>
 </structure>
</modeling>
