<?xml version="1.0" encoding="ISO-8859-1"?>
<modeling>
 <generator>
  <i name="program" type="string">vasp </i>
  <i name="version" type="string">5.4.1  </i>
  <i name="subversion" type="string">24Jun15 (build Nov 20 2020 10:29:34) complex                          parallel </i>
  <i name="platform" type="string">IFC91_ompi </i>
  <i name="date" type="string">2021 09 09 </i>
  <i name="time" type="string">15:20:31 </i>
 </generator>
 <incar>
  <i type="string" name="PREC">a</i>
  <i type="string" name="ALGO"> Normal</i>
  <i type="int" name="ISPIN">     1</i>
  <i type="int" name="ICHARG">     2</i>
  <i type="int" name="NELM">   250</i>
  <i type="int" name="NELMDL">    -5</i>
  <i type="int" name="NELMIN">     6</i>
  <i type="int" name="IBRION">     2</i>
  <i name="EDIFF">      0.00001000</i>
  <i name="EDIFFG">     -0.01000000</i>
  <i type="int" name="NSW">   200</i>
  <i type="int" name="ISIF">     2</i>
  <i name="ENCUT">    520.00000000</i>
  <i name="POTIM">      0.30000000</i>
  <i type="logical" name="LREAL"> F  </i>
  <i type="int" name="ISMEAR">     0</i>
  <i name="SIGMA">      0.02000000</i>
  <i type="logical" name="LWAVE"> F  </i>
  <i type="logical" name="LCHARG"> F  </i>
  <i type="logical" name="LAECHG"> F  </i>
  <v type="int" name="KPOINT_BSE">    -1     0     0     0</v>
  <i type="int" name="NELM">   250</i>
 </incar>
 <kpoints>
  <generation param="Gamma">
   <v type="int" name="divisions">      21       15        1 </v>
   <v name="usershift">      0.00000000       0.00000000       0.00000000 </v>
   <v name="genvec1">      0.04761905       0.00000000       0.00000000 </v>
   <v name="genvec2">      0.00000000       0.06666667       0.00000000 </v>
   <v name="genvec3">      0.00000000       0.00000000       1.00000000 </v>
   <v name="shift">      0.00000000       0.00000000       0.00000000 </v>
  </generation>
  <varray name="kpointlist" >
   <v>       0.00000000       0.00000000       0.00000000 </v>
   <v>       0.04761905      -0.00000000       0.00000000 </v>
   <v>       0.09523810      -0.00000000       0.00000000 </v>
   <v>       0.14285714      -0.00000000       0.00000000 </v>
   <v>       0.19047619       0.00000000       0.00000000 </v>
   <v>       0.23809524       0.00000000       0.00000000 </v>
   <v>       0.28571429      -0.00000000       0.00000000 </v>
   <v>       0.33333333       0.00000000       0.00000000 </v>
   <v>       0.38095238       0.00000000       0.00000000 </v>
   <v>       0.42857143       0.00000000       0.00000000 </v>
   <v>       0.47619048       0.00000000       0.00000000 </v>
   <v>      -0.00000000       0.06666667       0.00000000 </v>
   <v>       0.04761905       0.06666667       0.00000000 </v>
   <v>       0.09523810       0.06666667       0.00000000 </v>
   <v>       0.14285714       0.06666667       0.00000000 </v>
   <v>       0.19047619       0.06666667       0.00000000 </v>
   <v>       0.23809524       0.06666667       0.00000000 </v>
   <v>       0.28571429       0.06666667       0.00000000 </v>
   <v>       0.33333333       0.06666667       0.00000000 </v>
   <v>       0.38095238       0.06666667       0.00000000 </v>
   <v>       0.42857143       0.06666667       0.00000000 </v>
   <v>       0.47619048       0.06666667       0.00000000 </v>
   <v>      -0.47619048       0.06666667       0.00000000 </v>
   <v>      -0.42857143       0.06666667       0.00000000 </v>
   <v>      -0.38095238       0.06666667       0.00000000 </v>
   <v>      -0.33333333       0.06666667       0.00000000 </v>
   <v>      -0.28571429       0.06666667       0.00000000 </v>
   <v>      -0.23809524       0.06666667       0.00000000 </v>
   <v>      -0.19047619       0.06666667       0.00000000 </v>
   <v>      -0.14285714       0.06666667       0.00000000 </v>
   <v>      -0.09523810       0.06666667       0.00000000 </v>
   <v>      -0.04761905       0.06666667       0.00000000 </v>
   <v>       0.00000000       0.13333333       0.00000000 </v>
   <v>       0.04761905       0.13333333       0.00000000 </v>
   <v>       0.09523810       0.13333333       0.00000000 </v>
   <v>       0.14285714       0.13333333       0.00000000 </v>
   <v>       0.19047619       0.13333333       0.00000000 </v>
   <v>       0.23809524       0.13333333       0.00000000 </v>
   <v>       0.28571429       0.13333333       0.00000000 </v>
   <v>       0.33333333       0.13333333       0.00000000 </v>
   <v>       0.38095238       0.13333333       0.00000000 </v>
   <v>       0.42857143       0.13333333       0.00000000 </v>
   <v>       0.47619048       0.13333333       0.00000000 </v>
   <v>      -0.47619048       0.13333333       0.00000000 </v>
   <v>      -0.42857143       0.13333333       0.00000000 </v>
   <v>      -0.38095238       0.13333333       0.00000000 </v>
   <v>      -0.33333333       0.13333333       0.00000000 </v>
   <v>      -0.28571429       0.13333333       0.00000000 </v>
   <v>      -0.23809524       0.13333333       0.00000000 </v>
   <v>      -0.19047619       0.13333333       0.00000000 </v>
   <v>      -0.14285714       0.13333333       0.00000000 </v>
   <v>      -0.09523810       0.13333333       0.00000000 </v>
   <v>      -0.04761905       0.13333333       0.00000000 </v>
   <v>       0.00000000       0.20000000       0.00000000 </v>
   <v>       0.04761905       0.20000000       0.00000000 </v>
   <v>       0.09523810       0.20000000       0.00000000 </v>
   <v>       0.14285714       0.20000000       0.00000000 </v>
   <v>       0.19047619       0.20000000       0.00000000 </v>
   <v>       0.23809524       0.20000000       0.00000000 </v>
   <v>       0.28571429       0.20000000       0.00000000 </v>
   <v>       0.33333333       0.20000000       0.00000000 </v>
   <v>       0.38095238       0.20000000       0.00000000 </v>
   <v>       0.42857143       0.20000000       0.00000000 </v>
   <v>       0.47619048       0.20000000       0.00000000 </v>
   <v>      -0.47619048       0.20000000       0.00000000 </v>
   <v>      -0.42857143       0.20000000       0.00000000 </v>
   <v>      -0.38095238       0.20000000       0.00000000 </v>
   <v>      -0.33333333       0.20000000       0.00000000 </v>
   <v>      -0.28571429       0.20000000       0.00000000 </v>
   <v>      -0.23809524       0.20000000       0.00000000 </v>
   <v>      -0.19047619       0.20000000       0.00000000 </v>
   <v>      -0.14285714       0.20000000       0.00000000 </v>
   <v>      -0.09523810       0.20000000       0.00000000 </v>
   <v>      -0.04761905       0.20000000       0.00000000 </v>
   <v>       0.00000000       0.26666667       0.00000000 </v>
   <v>       0.04761905       0.26666667       0.00000000 </v>
   <v>       0.09523810       0.26666667       0.00000000 </v>
   <v>       0.14285714       0.26666667       0.00000000 </v>
   <v>       0.19047619       0.26666667       0.00000000 </v>
   <v>       0.23809524       0.26666667       0.00000000 </v>
   <v>       0.28571429       0.26666667       0.00000000 </v>
   <v>       0.33333333       0.26666667       0.00000000 </v>
   <v>       0.38095238       0.26666667       0.00000000 </v>
   <v>       0.42857143       0.26666667       0.00000000 </v>
   <v>       0.47619048       0.26666667       0.00000000 </v>
   <v>      -0.47619048       0.26666667       0.00000000 </v>
   <v>      -0.42857143       0.26666667       0.00000000 </v>
   <v>      -0.38095238       0.26666667       0.00000000 </v>
   <v>      -0.33333333       0.26666667       0.00000000 </v>
   <v>      -0.28571429       0.26666667       0.00000000 </v>
   <v>      -0.23809524       0.26666667       0.00000000 </v>
   <v>      -0.19047619       0.26666667       0.00000000 </v>
   <v>      -0.14285714       0.26666667       0.00000000 </v>
   <v>      -0.09523810       0.26666667       0.00000000 </v>
   <v>      -0.04761905       0.26666667       0.00000000 </v>
   <v>       0.00000000       0.33333333       0.00000000 </v>
   <v>       0.04761905       0.33333333       0.00000000 </v>
   <v>       0.09523810       0.33333333       0.00000000 </v>
   <v>       0.14285714       0.33333333       0.00000000 </v>
   <v>       0.19047619       0.33333333       0.00000000 </v>
   <v>       0.23809524       0.33333333       0.00000000 </v>
   <v>       0.28571429       0.33333333       0.00000000 </v>
   <v>       0.33333333       0.33333333       0.00000000 </v>
   <v>       0.38095238       0.33333333       0.00000000 </v>
   <v>       0.42857143       0.33333333       0.00000000 </v>
   <v>       0.47619048       0.33333333       0.00000000 </v>
   <v>      -0.47619048       0.33333333       0.00000000 </v>
   <v>      -0.42857143       0.33333333       0.00000000 </v>
   <v>      -0.38095238       0.33333333       0.00000000 </v>
   <v>      -0.33333333       0.33333333       0.00000000 </v>
   <v>      -0.28571429       0.33333333       0.00000000 </v>
   <v>      -0.23809524       0.33333333       0.00000000 </v>
   <v>      -0.19047619       0.33333333       0.00000000 </v>
   <v>      -0.14285714       0.33333333       0.00000000 </v>
   <v>      -0.09523810       0.33333333       0.00000000 </v>
   <v>      -0.04761905       0.33333333       0.00000000 </v>
   <v>       0.00000000       0.40000000       0.00000000 </v>
   <v>       0.04761905       0.40000000       0.00000000 </v>
   <v>       0.09523810       0.40000000       0.00000000 </v>
   <v>       0.14285714       0.40000000       0.00000000 </v>
   <v>       0.19047619       0.40000000       0.00000000 </v>
   <v>       0.23809524       0.40000000       0.00000000 </v>
   <v>       0.28571429       0.40000000       0.00000000 </v>
   <v>       0.33333333       0.40000000       0.00000000 </v>
   <v>       0.38095238       0.40000000       0.00000000 </v>
   <v>       0.42857143       0.40000000       0.00000000 </v>
   <v>       0.47619048       0.40000000       0.00000000 </v>
   <v>      -0.47619048       0.40000000       0.00000000 </v>
   <v>      -0.42857143       0.40000000       0.00000000 </v>
   <v>      -0.38095238       0.40000000       0.00000000 </v>
   <v>      -0.33333333       0.40000000       0.00000000 </v>
   <v>      -0.28571429       0.40000000       0.00000000 </v>
   <v>      -0.23809524       0.40000000       0.00000000 </v>
   <v>      -0.19047619       0.40000000       0.00000000 </v>
   <v>      -0.14285714       0.40000000       0.00000000 </v>
   <v>      -0.09523810       0.40000000       0.00000000 </v>
   <v>      -0.04761905       0.40000000       0.00000000 </v>
   <v>       0.00000000       0.46666667       0.00000000 </v>
   <v>       0.04761905       0.46666667       0.00000000 </v>
   <v>       0.09523810       0.46666667       0.00000000 </v>
   <v>       0.14285714       0.46666667       0.00000000 </v>
   <v>       0.19047619       0.46666667       0.00000000 </v>
   <v>       0.23809524       0.46666667       0.00000000 </v>
   <v>       0.28571429       0.46666667       0.00000000 </v>
   <v>       0.33333333       0.46666667       0.00000000 </v>
   <v>       0.38095238       0.46666667       0.00000000 </v>
   <v>       0.42857143       0.46666667       0.00000000 </v>
   <v>       0.47619048       0.46666667       0.00000000 </v>
   <v>      -0.47619048       0.46666667       0.00000000 </v>
   <v>      -0.42857143       0.46666667       0.00000000 </v>
   <v>      -0.38095238       0.46666667       0.00000000 </v>
   <v>      -0.33333333       0.46666667       0.00000000 </v>
   <v>      -0.28571429       0.46666667       0.00000000 </v>
   <v>      -0.23809524       0.46666667       0.00000000 </v>
   <v>      -0.19047619       0.46666667       0.00000000 </v>
   <v>      -0.14285714       0.46666667       0.00000000 </v>
   <v>      -0.09523810       0.46666667       0.00000000 </v>
   <v>      -0.04761905       0.46666667       0.00000000 </v>
  </varray>
  <varray name="weights" >
   <v>       0.00317460 </v>
   <v>       0.00634921 </v>
   <v>       0.00634921 </v>
   <v>       0.00634921 </v>
   <v>       0.00634921 </v>
   <v>       0.00634921 </v>
   <v>       0.00634921 </v>
   <v>       0.00634921 </v>
   <v>       0.00634921 </v>
   <v>       0.00634921 </v>
   <v>       0.00634921 </v>
   <v>       0.00634921 </v>
   <v>       0.00634921 </v>
   <v>       0.00634921 </v>
   <v>       0.00634921 </v>
   <v>       0.00634921 </v>
   <v>       0.00634921 </v>
   <v>       0.00634921 </v>
   <v>       0.00634921 </v>
   <v>       0.00634921 </v>
   <v>       0.00634921 </v>
   <v>       0.00634921 </v>
   <v>       0.00634921 </v>
   <v>       0.00634921 </v>
   <v>       0.00634921 </v>
   <v>       0.00634921 </v>
   <v>       0.00634921 </v>
   <v>       0.00634921 </v>
   <v>       0.00634921 </v>
   <v>       0.00634921 </v>
   <v>       0.00634921 </v>
   <v>       0.00634921 </v>
   <v>       0.00634921 </v>
   <v>       0.00634921 </v>
   <v>       0.00634921 </v>
   <v>       0.00634921 </v>
   <v>       0.00634921 </v>
   <v>       0.00634921 </v>
   <v>       0.00634921 </v>
   <v>       0.00634921 </v>
   <v>       0.00634921 </v>
   <v>       0.00634921 </v>
   <v>       0.00634921 </v>
   <v>       0.00634921 </v>
   <v>       0.00634921 </v>
   <v>       0.00634921 </v>
   <v>       0.00634921 </v>
   <v>       0.00634921 </v>
   <v>       0.00634921 </v>
   <v>       0.00634921 </v>
   <v>       0.00634921 </v>
   <v>       0.00634921 </v>
   <v>       0.00634921 </v>
   <v>       0.00634921 </v>
   <v>       0.00634921 </v>
   <v>       0.00634921 </v>
   <v>       0.00634921 </v>
   <v>       0.00634921 </v>
   <v>       0.00634921 </v>
   <v>       0.00634921 </v>
   <v>       0.00634921 </v>
   <v>       0.00634921 </v>
   <v>       0.00634921 </v>
   <v>       0.00634921 </v>
   <v>       0.00634921 </v>
   <v>       0.00634921 </v>
   <v>       0.00634921 </v>
   <v>       0.00634921 </v>
   <v>       0.00634921 </v>
   <v>       0.00634921 </v>
   <v>       0.00634921 </v>
   <v>       0.00634921 </v>
   <v>       0.00634921 </v>
   <v>       0.00634921 </v>
   <v>       0.00634921 </v>
   <v>       0.00634921 </v>
   <v>       0.00634921 </v>
   <v>       0.00634921 </v>
   <v>       0.00634921 </v>
   <v>       0.00634921 </v>
   <v>       0.00634921 </v>
   <v>       0.00634921 </v>
   <v>       0.00634921 </v>
   <v>       0.00634921 </v>
   <v>       0.00634921 </v>
   <v>       0.00634921 </v>
   <v>       0.00634921 </v>
   <v>       0.00634921 </v>
   <v>       0.00634921 </v>
   <v>       0.00634921 </v>
   <v>       0.00634921 </v>
   <v>       0.00634921 </v>
   <v>       0.00634921 </v>
   <v>       0.00634921 </v>
   <v>       0.00634921 </v>
   <v>       0.00634921 </v>
   <v>       0.00634921 </v>
   <v>       0.00634921 </v>
   <v>       0.00634921 </v>
   <v>       0.00634921 </v>
   <v>       0.00634921 </v>
   <v>       0.00634921 </v>
   <v>       0.00634921 </v>
   <v>       0.00634921 </v>
   <v>       0.00634921 </v>
   <v>       0.00634921 </v>
   <v>       0.00634921 </v>
   <v>       0.00634921 </v>
   <v>       0.00634921 </v>
   <v>       0.00634921 </v>
   <v>       0.00634921 </v>
   <v>       0.00634921 </v>
   <v>       0.00634921 </v>
   <v>       0.00634921 </v>
   <v>       0.00634921 </v>
   <v>       0.00634921 </v>
   <v>       0.00634921 </v>
   <v>       0.00634921 </v>
   <v>       0.00634921 </v>
   <v>       0.00634921 </v>
   <v>       0.00634921 </v>
   <v>       0.00634921 </v>
   <v>       0.00634921 </v>
   <v>       0.00634921 </v>
   <v>       0.00634921 </v>
   <v>       0.00634921 </v>
   <v>       0.00634921 </v>
   <v>       0.00634921 </v>
   <v>       0.00634921 </v>
   <v>       0.00634921 </v>
   <v>       0.00634921 </v>
   <v>       0.00634921 </v>
   <v>       0.00634921 </v>
   <v>       0.00634921 </v>
   <v>       0.00634921 </v>
   <v>       0.00634921 </v>
   <v>       0.00634921 </v>
   <v>       0.00634921 </v>
   <v>       0.00634921 </v>
   <v>       0.00634921 </v>
   <v>       0.00634921 </v>
   <v>       0.00634921 </v>
   <v>       0.00634921 </v>
   <v>       0.00634921 </v>
   <v>       0.00634921 </v>
   <v>       0.00634921 </v>
   <v>       0.00634921 </v>
   <v>       0.00634921 </v>
   <v>       0.00634921 </v>
   <v>       0.00634921 </v>
   <v>       0.00634921 </v>
   <v>       0.00634921 </v>
   <v>       0.00634921 </v>
   <v>       0.00634921 </v>
   <v>       0.00634921 </v>
   <v>       0.00634921 </v>
   <v>       0.00634921 </v>
   <v>       0.00634921 </v>
  </varray>
 </kpoints>
 <parameters>
  <separator name="general" >
   <i type="string" name="SYSTEM">unknown system</i>
   <i type="logical" name="LCOMPAT"> F  </i>
  </separator>
  <separator name="electronic" >
   <i type="string" name="PREC">a</i>
   <i name="ENMAX">    520.00000000</i>
   <i name="ENAUG">    342.92400000</i>
   <i name="EDIFF">      0.00001000</i>
   <i type="int" name="IALGO">    38</i>
   <i type="int" name="IWAVPR">    11</i>
   <i type="int" name="NBANDS">    16</i>
   <i name="NELECT">     20.00000000</i>
   <i type="int" name="TURBO">     0</i>
   <i type="int" name="IRESTART">     0</i>
   <i type="int" name="NREBOOT">     0</i>
   <i type="int" name="NMIN">     0</i>
   <i name="EREF">      0.00000000</i>
   <separator name="electronic smearing" >
    <i type="int" name="ISMEAR">     0</i>
    <i name="SIGMA">      0.02000000</i>
    <i name="KSPACING">      0.50000000</i>
    <i type="logical" name="KGAMMA"> T  </i>
   </separator>
   <separator name="electronic projectors" >
    <i type="logical" name="LREAL"> F  </i>
    <v name="ROPT">      0.00000000</v>
    <i type="int" name="LMAXPAW">  -100</i>
    <i type="int" name="LMAXMIX">     2</i>
    <i type="logical" name="NLSPLINE"> F  </i>
   </separator>
   <separator name="electronic startup" >
    <i type="int" name="ISTART">     0</i>
    <i type="int" name="ICHARG">     2</i>
    <i type="int" name="INIWAV">     1</i>
   </separator>
   <separator name="electronic spin" >
    <i type="int" name="ISPIN">     1</i>
    <i type="logical" name="LNONCOLLINEAR"> F  </i>
    <v name="MAGMOM">      1.00000000      1.00000000      1.00000000      1.00000000</v>
    <i name="NUPDOWN">     -1.00000000</i>
    <i type="logical" name="LSORBIT"> F  </i>
    <v name="SAXIS">      0.00000000      0.00000000      1.00000000</v>
    <i type="logical" name="LSPIRAL"> F  </i>
    <v name="QSPIRAL">      0.00000000      0.00000000      0.00000000</v>
    <i type="logical" name="LZEROZ"> F  </i>
   </separator>
   <separator name="electronic exchange-correlation" >
    <i type="logical" name="LASPH"> F  </i>
    <i type="logical" name="LMETAGGA"> F  </i>
   </separator>
   <separator name="electronic convergence" >
    <i type="int" name="NELM">   250</i>
    <i type="int" name="NELMDL">    -5</i>
    <i type="int" name="NELMIN">     6</i>
    <i name="ENINI">    520.00000000</i>
    <separator name="electronic convergence detail" >
     <i type="logical" name="LDIAG"> T  </i>
     <i type="logical" name="LSUBROT"> F  </i>
     <i name="WEIMIN">      0.00100000</i>
     <i name="EBREAK">      0.00000016</i>
     <i name="DEPER">      0.30000000</i>
     <i type="int" name="NRMM">     4</i>
     <i name="TIME">      0.40000000</i>
    </separator>
   </separator>
   <separator name="electronic mixer" >
    <i name="AMIX">      0.40000000</i>
    <i name="BMIX">      1.00000000</i>
    <i name="AMIN">      0.10000000</i>
    <i name="AMIX_MAG">      1.60000000</i>
    <i name="BMIX_MAG">      1.00000000</i>
    <separator name="electronic mixer details" >
     <i type="int" name="IMIX">     4</i>
     <i type="logical" name="MIXFIRST"> F  </i>
     <i type="int" name="MAXMIX">   -45</i>
     <i name="WC">    100.00000000</i>
     <i type="int" name="INIMIX">     1</i>
     <i type="int" name="MIXPRE">     1</i>
     <i type="int" name="MREMOVE">     5</i>
    </separator>
   </separator>
   <separator name="electronic dipolcorrection" >
    <i type="logical" name="LDIPOL"> F  </i>
    <i type="logical" name="LMONO"> F  </i>
    <i type="int" name="IDIPOL">     0</i>
    <i name="EPSILON">      1.00000000</i>
    <v name="DIPOL">   -100.00000000   -100.00000000   -100.00000000</v>
    <i name="EFIELD">      0.00000000</i>
   </separator>
  </separator>
  <separator name="grids" >
   <i type="int" name="NGX">    28</i>
   <i type="int" name="NGY">    36</i>
   <i type="int" name="NGZ">   150</i>
   <i type="int" name="NGXF">    56</i>
   <i type="int" name="NGYF">    72</i>
   <i type="int" name="NGZF">   300</i>
   <i type="logical" name="ADDGRID"> F  </i>
  </separator>
  <separator name="ionic" >
   <i type="int" name="NSW">   200</i>
   <i type="int" name="IBRION">     2</i>
   <i type="int" name="ISIF">     2</i>
   <i name="PSTRESS">      0.00000000</i>
   <i name="EDIFFG">     -0.01000000</i>
   <i type="int" name="NFREE">     1</i>
   <i name="POTIM">      0.30000000</i>
   <i name="SMASS">     -3.00000000</i>
   <i name="SCALEE">      1.00000000</i>
  </separator>
  <separator name="ionic md" >
   <i name="TEBEG">      0.00010000</i>
   <i name="TEEND">      0.00010000</i>
   <i type="int" name="NBLOCK">     1</i>
   <i type="int" name="KBLOCK">   200</i>
   <i type="int" name="NPACO">   256</i>
   <i name="APACO">     16.00000000</i>
  </separator>
  <separator name="symmetry" >
   <i type="int" name="ISYM">     2</i>
   <i name="SYMPREC">      0.00001000</i>
  </separator>
  <separator name="dos" >
   <i type="logical" name="LORBIT"> F  </i>
   <v name="RWIGS">     -1.00000000</v>
   <i type="int" name="NEDOS">   301</i>
   <i name="EMIN">     10.00000000</i>
   <i name="EMAX">    -10.00000000</i>
   <i name="EFERMI">      0.00000000</i>
  </separator>
  <separator name="writing" >
   <i type="int" name="NWRITE">     2</i>
   <i type="logical" name="LWAVE"> F  </i>
   <i type="logical" name="LCHARG"> F  </i>
   <i type="logical" name="LPARD"> F  </i>
   <i type="logical" name="LVTOT"> F  </i>
   <i type="logical" name="LVHAR"> F  </i>
   <i type="logical" name="LELF"> F  </i>
   <i type="logical" name="LOPTICS"> F  </i>
   <v name="STM">      0.00000000      0.00000000      0.00000000      0.00000000      0.00000000      0.00000000      0.00000000</v>
  </separator>
  <separator name="performance" >
   <i type="int" name="NPAR">     4</i>
   <i type="int" name="NSIM">     4</i>
   <i type="int" name="NBLK">    -1</i>
   <i type="logical" name="LPLANE"> T  </i>
   <i type="logical" name="LSCALAPACK"> T  </i>
   <i type="logical" name="LSCAAWARE"> F  </i>
   <i type="logical" name="LSCALU"> F  </i>
   <i type="logical" name="LASYNC"> F  </i>
   <i type="logical" name="LORBITALREAL"> F  </i>
  </separator>
  <separator name="miscellaneous" >
   <i type="int" name="IDIOT">     3</i>
   <i type="logical" name="LMUSIC"> F  </i>
   <v name="POMASS">     30.97400000</v>
   <v name="DARWINR">      0.00000000</v>
   <v name="DARWINV">      1.00000000</v>
   <i type="logical" name="LCORR"> T  </i>
  </separator>
  <i type="logical" name="GGA_COMPAT"> T  </i>
  <i type="logical" name="LBERRY"> F  </i>
  <i type="int" name="ICORELEVEL">     0</i>
  <i type="logical" name="LDAU"> F  </i>
  <i type="int" name="I_CONSTRAINED_M">     0</i>
  <separator name="electronic exchange-correlation" >
   <i type="string" name="GGA">--</i>
   <i type="int" name="VOSKOWN">     0</i>
   <i type="logical" name="LHFCALC"> F  </i>
   <i type="string" name="PRECFOCK"></i>
   <i type="logical" name="LSYMGRAD"> F  </i>
   <i type="logical" name="LHFONE"> F  </i>
   <i type="logical" name="LRHFCALC"> F  </i>
   <i type="logical" name="LTHOMAS"> F  </i>
   <i type="logical" name="LMODELHF"> F  </i>
   <i name="ENCUT4O">     -1.00000000</i>
   <i type="int" name="EXXOEP">     0</i>
   <i type="int" name="FOURORBIT">     0</i>
   <i name="AEXX">      0.00000000</i>
   <i name="HFALPHA">      0.00000000</i>
   <i name="MCALPHA">      0.00000000</i>
   <i name="ALDAX">      1.00000000</i>
   <i name="AGGAX">      1.00000000</i>
   <i name="ALDAC">      1.00000000</i>
   <i name="AGGAC">      1.00000000</i>
   <i type="int" name="NKREDX">     1</i>
   <i type="int" name="NKREDY">     1</i>
   <i type="int" name="NKREDZ">     1</i>
   <i type="logical" name="SHIFTRED"> F  </i>
   <i type="logical" name="ODDONLY"> F  </i>
   <i type="logical" name="EVENONLY"> F  </i>
   <i type="int" name="LMAXFOCK">     0</i>
   <i type="int" name="NMAXFOCKAE">     0</i>
   <i type="logical" name="LFOCKAEDFT"> F  </i>
   <i name="HFSCREEN">      0.00000000</i>
   <i name="HFSCREENC">      0.00000000</i>
   <i type="int" name="NBANDSGWLOW">     0</i>
  </separator>
  <separator name="vdW DFT" >
   <i type="logical" name="LUSE_VDW"> F  </i>
   <i name="Zab_VDW">     -0.84910000</i>
   <i name="PARAM1">      0.12340000</i>
   <i name="PARAM2">      1.00000000</i>
   <i name="PARAM3">      0.00000000</i>
  </separator>
  <separator name="model GW" >
   <i type="int" name="MODEL_GW">     0</i>
   <i name="MODEL_EPS0">     45.33722530</i>
   <i name="MODEL_ALPHA">      1.00000000</i>
  </separator>
  <separator name="linear response parameters" >
   <i type="logical" name="LEPSILON"> F  </i>
   <i type="logical" name="LRPA"> F  </i>
   <i type="logical" name="LNABLA"> F  </i>
   <i type="logical" name="LVEL"> F  </i>
   <i type="int" name="KINTER">     0</i>
   <i name="CSHIFT">      0.10000000</i>
   <i name="OMEGAMAX">     -1.00000000</i>
   <i name="DEG_THRESHOLD">      0.00200000</i>
  </separator>
  <separator name="orbital magnetization" >
   <i type="logical" name="NUCIND"> F  </i>
   <v name="MAGPOS">      0.00000000      0.00000000      0.00000000</v>
   <i type="logical" name="LNICSALL"> T  </i>
   <i type="logical" name="ORBITALMAG"> F  </i>
   <i type="logical" name="LMAGBLOCH"> F  </i>
   <i type="logical" name="LCHIMAG"> F  </i>
   <i type="logical" name="LGAUGE"> T  </i>
   <i type="int" name="MAGATOM">     0</i>
   <v name="MAGDIPOL">      0.00000000      0.00000000      0.00000000</v>
   <v name="AVECCONST">      0.00000000      0.00000000      0.00000000</v>
  </separator>
  <separator name="response functions" >
   <i type="logical" name="LADDER"> F  </i>
   <i type="logical" name="LFXC"> F  </i>
   <i type="logical" name="LHARTREE"> T  </i>
   <i type="int" name="IBSE">     0</i>
   <v type="int" name="KPOINT">    -1     0     0     0</v>
   <i type="logical" name="LTCTE"> F  </i>
   <i type="logical" name="LTETE"> F  </i>
   <i type="logical" name="LTRIPLET"> F  </i>
   <i type="logical" name="LFXCEPS"> F  </i>
   <i type="logical" name="LFXHEG"> F  </i>
   <i type="int" name="NATURALO">     0</i>
   <i type="logical" name="L2ORDER"> F  </i>
   <i type="logical" name="LUSEW"> F  </i>
   <i name="ENCUTGW">     -2.00000000</i>
   <i name="ENCUTGWSOFT">     -2.00000000</i>
   <i name="ENCUTLF">     -1.00000000</i>
   <i type="int" name="LMAXMP2">    -1</i>
   <i name="SCISSOR">      0.00000000</i>
   <i type="int" name="NOMEGA">     0</i>
   <i type="int" name="NOMEGAR">     0</i>
   <i type="int" name="NBANDSGW">    -1</i>
   <i type="int" name="NBANDSO">    -1</i>
   <i type="int" name="NBANDSV">    -1</i>
   <i type="int" name="NELM">   250</i>
   <i type="int" name="NELMHF">     1</i>
   <i type="int" name="DIM">     3</i>
   <i type="int" name="ANTIRES">     0</i>
   <i name="OMEGAMAX">    -30.00000000</i>
   <i name="OMEGAMIN">    -30.00000000</i>
   <i name="OMEGATL">   -200.00000000</i>
   <i type="int" name="OMEGAGRID">     0</i>
   <i name="CSHIFT">     -0.10000000</i>
   <i type="logical" name="SELFENERGY"> F  </i>
   <i type="logical" name="LSPECTRAL"> F  </i>
   <i type="logical" name="LSPECTRALGW"> F  </i>
   <i type="logical" name="LSINGLES"> F  </i>
   <i type="logical" name="LFERMIGW"> F  </i>
   <i type="logical" name="ODDONLYGW"> F  </i>
   <i type="logical" name="EVENONLYGW"> F  </i>
   <i type="int" name="NKREDLFX">     1</i>
   <i type="int" name="NKREDLFY">     1</i>
   <i type="int" name="NKREDLFZ">     1</i>
   <i type="int" name="MAXMEM">  1800</i>
   <i type="int" name="TELESCOPE">     0</i>
   <i type="int" name="TAUPAR">     1</i>
   <i type="int" name="OMEGAPAR">    -1</i>
   <i name="LAMBDA">      1.00000000</i>
  </separator>
  <separator name="External order field" >
   <i name="OFIELD_KAPPA">      0.00000000</i>
   <v name="OFIELD_K">      0.00000000      0.00000000      0.00000000</v>
   <i name="OFIELD_Q6_NEAR">      0.00000000</i>
   <i name="OFIELD_Q6_FAR">      0.00000000</i>
   <i name="OFIELD_A">      0.00000000</i>
  </separator>
 </parameters>
 <atominfo>
  <atoms>       4 </atoms>
  <types>       1 </types>
  <array name="atoms" >
   <dimension dim="1">ion</dimension>
   <field type="string">element</field>
   <field type="int">atomtype</field>
   <set>
    <rc><c>P </c><c>   1</c></rc>
    <rc><c>P </c><c>   1</c></rc>
    <rc><c>P </c><c>   1</c></rc>
    <rc><c>P </c><c>   1</c></rc>
   </set>
  </array>
  <array name="atomtypes" >
   <dimension dim="1">type</dimension>
   <field type="int">atomspertype</field>
   <field type="string">element</field>
   <field>mass</field>
   <field>valence</field>
   <field type="string">pseudopotential</field>
   <set>
    <rc><c>   4</c><c>P </c><c>     30.97400000</c><c>      5.00000000</c><c>  PAW_PBE P 06Sep2000                   </c></rc>
   </set>
  </array>
 </atominfo>
 <structure name="initialpos" >
  <crystal>
   <varray name="basis" >
    <v>       3.28907600       0.23137500       0.00000000 </v>
    <v>       0.32443400       4.61195400      -0.00005300 </v>
    <v>       0.00000000       0.00000000      20.02439000 </v>
   </varray>
   <i name="volume">    302.24816865 </i>
   <varray name="rec_basis" >
    <v>       0.30554880      -0.02149423       0.00000000 </v>
    <v>      -0.01532894       0.21790617       0.00000000 </v>
    <v>      -0.00000004       0.00000058       0.04993910 </v>
   </varray>
  </crystal>
  <varray name="positions" >
   <v>       0.50000000       0.91077300       0.55252100 </v>
   <v>       0.50000000       0.08922700       0.44747900 </v>
   <v>       0.00000000       0.41076900       0.44747900 </v>
   <v>       0.00000000       0.58923100       0.55252100 </v>
  </varray>
 </structure>
 <calculation>
  <scstep>
   <time name="dav">    1.48    1.48</time>
   <time name="total">    1.51    1.51</time>
   <energy>
    <i name="alphaZ">      5.30743014 </i>
    <i name="ewald">   1889.22591030 </i>
    <i name="hartreedc">  -2481.25132796 </i>
    <i name="XCdc">     13.17560986 </i>
    <i name="pawpsdc">    559.04011960 </i>
    <i name="pawaedc">   -526.39432044 </i>
    <i name="eentropy">     -0.00041767 </i>
    <i name="bandstr">    -28.25351416 </i>
    <i name="atom">    704.16778566 </i>
    <i name="e_fr_energy">    135.01727533 </i>
    <i name="e_wo_entrp">    135.01769300 </i>
    <i name="e_0_energy">    135.01748416 </i>
   </energy>
  </scstep>
  <scstep>
   <time name="dav">    2.01    2.01</time>
   <time name="total">    2.01    2.01</time>
   <energy>
    <i name="e_fr_energy">     -5.84866848 </i>
    <i name="e_wo_entrp">     -5.84866848 </i>
    <i name="e_0_energy">     -5.84866848 </i>
   </energy>
  </scstep>
  <scstep>
   <time name="dav">    1.80    1.80</time>
   <time name="total">    1.80    1.80</time>
   <energy>
    <i name="e_fr_energy">    -20.87829604 </i>
    <i name="e_wo_entrp">    -20.87829604 </i>
    <i name="e_0_energy">    -20.87829604 </i>
   </energy>
  </scstep>
  <scstep>
   <time name="dav">    1.87    1.87</time>
   <time name="total">    1.87    1.87</time>
   <energy>
    <i name="e_fr_energy">    -21.18844777 </i>
    <i name="e_wo_entrp">    -21.18844777 </i>
    <i name="e_0_energy">    -21.18844777 </i>
   </energy>
  </scstep>
  <scstep>
   <time name="dav">    1.97    1.97</time>
   <time name="total">    2.07    2.07</time>
   <energy>
    <i name="e_fr_energy">    -21.19818185 </i>
    <i name="e_wo_entrp">    -21.19818185 </i>
    <i name="e_0_energy">    -21.19818185 </i>
   </energy>
  </scstep>
  <scstep>
   <time name="dav">    1.79    1.79</time>
   <time name="total">    1.91    1.91</time>
   <energy>
    <i name="e_fr_energy">    -20.98046727 </i>
    <i name="e_wo_entrp">    -20.98046727 </i>
    <i name="e_0_energy">    -20.98046727 </i>
   </energy>
  </scstep>
  <scstep>
   <time name="dav">    1.79    1.79</time>
   <time name="total">    1.90    1.91</time>
   <energy>
    <i name="e_fr_energy">    -20.89689692 </i>
    <i name="e_wo_entrp">    -20.89689692 </i>
    <i name="e_0_energy">    -20.89689692 </i>
   </energy>
  </scstep>
  <scstep>
   <time name="dav">    1.81    1.81</time>
   <time name="total">    1.92    1.92</time>
   <energy>
    <i name="e_fr_energy">    -20.89524930 </i>
    <i name="e_wo_entrp">    -20.89524930 </i>
    <i name="e_0_energy">    -20.89524930 </i>
   </energy>
  </scstep>
  <scstep>
   <time name="dav">    2.10    2.10</time>
   <time name="total">    2.21    2.22</time>
   <energy>
    <i name="e_fr_energy">    -20.89505672 </i>
    <i name="e_wo_entrp">    -20.89505672 </i>
    <i name="e_0_energy">    -20.89505672 </i>
   </energy>
  </scstep>
  <scstep>
   <time name="dav">    1.82    1.82</time>
   <time name="total">    1.93    1.93</time>
   <energy>
    <i name="e_fr_energy">    -20.89436869 </i>
    <i name="e_wo_entrp">    -20.89436869 </i>
    <i name="e_0_energy">    -20.89436869 </i>
   </energy>
  </scstep>
  <scstep>
   <time name="dav">    1.87    1.87</time>
   <time name="total">    1.98    1.98</time>
   <energy>
    <i name="e_fr_energy">    -20.89429170 </i>
    <i name="e_wo_entrp">    -20.89429170 </i>
    <i name="e_0_energy">    -20.89429170 </i>
   </energy>
  </scstep>
  <scstep>
   <time name="dav">    1.63    1.63</time>
   <time name="total">    1.74    1.74</time>
   <energy>
    <i name="e_fr_energy">    -20.89453828 </i>
    <i name="e_wo_entrp">    -20.89453828 </i>
    <i name="e_0_energy">    -20.89453828 </i>
   </energy>
  </scstep>
  <scstep>
   <time name="dav">    1.69    1.69</time>
   <time name="total">    1.80    1.80</time>
   <energy>
    <i name="e_fr_energy">    -20.89468785 </i>
    <i name="e_wo_entrp">    -20.89468785 </i>
    <i name="e_0_energy">    -20.89468785 </i>
   </energy>
  </scstep>
  <scstep>
   <time name="dav">    1.55    1.55</time>
   <time name="total">    1.66    1.66</time>
   <energy>
    <i name="e_fr_energy">    -20.89478877 </i>
    <i name="e_wo_entrp">    -20.89478877 </i>
    <i name="e_0_energy">    -20.89478877 </i>
   </energy>
  </scstep>
  <scstep>
   <time name="dav">    1.55    1.55</time>
   <time name="total">    1.66    1.66</time>
   <energy>
    <i name="e_fr_energy">    -20.89495194 </i>
    <i name="e_wo_entrp">    -20.89495194 </i>
    <i name="e_0_energy">    -20.89495194 </i>
   </energy>
  </scstep>
  <scstep>
   <time name="dav">    1.56    1.56</time>
   <time name="total">    1.68    1.68</time>
   <energy>
    <i name="e_fr_energy">    -20.89498634 </i>
    <i name="e_wo_entrp">    -20.89498634 </i>
    <i name="e_0_energy">    -20.89498634 </i>
   </energy>
  </scstep>
  <scstep>
   <time name="dav">    1.45    1.45</time>
   <time name="total">    1.56    1.56</time>
   <energy>
    <i name="e_fr_energy">    -20.89501670 </i>
    <i name="e_wo_entrp">    -20.89501670 </i>
    <i name="e_0_energy">    -20.89501670 </i>
   </energy>
  </scstep>
  <scstep>
   <time name="dav">    1.55    1.55</time>
   <time name="total">    1.57    1.57</time>
   <energy>
    <i name="alphaZ">      5.30743014 </i>
    <i name="ewald">   1889.22591030 </i>
    <i name="hartreedc">  -2498.22231319 </i>
    <i name="XCdc">     14.29798007 </i>
    <i name="pawpsdc">   2242.49260658 </i>
    <i name="pawaedc">  -2210.24410345 </i>
    <i name="eentropy">     -0.00000000 </i>
    <i name="bandstr">   -167.92031792 </i>
    <i name="atom">    704.16778566 </i>
    <i name="e_fr_energy">    -20.89502182 </i>
    <i name="e_wo_entrp">    -20.89502182 </i>
    <i name="e_0_energy">    -20.89502182 </i>
   </energy>
  </scstep>
  <structure>
   <crystal>
    <varray name="basis" >
     <v>       3.28907600       0.23137500       0.00000000 </v>
     <v>       0.32443400       4.61195400      -0.00005300 </v>
     <v>       0.00000000       0.00000000      20.02439000 </v>
    </varray>
    <i name="volume">    302.24816865 </i>
    <varray name="rec_basis" >
     <v>       0.30554880      -0.02149423       0.00000000 </v>
     <v>      -0.01532894       0.21790617       0.00000000 </v>
     <v>      -0.00000004       0.00000058       0.04993910 </v>
    </varray>
   </crystal>
   <varray name="positions" >
    <v>       0.50000000       0.91077300       0.55252100 </v>
    <v>       0.50000000       0.08922700       0.44747900 </v>
    <v>       0.00000000       0.41076900       0.44747900 </v>
    <v>       0.00000000       0.58923100       0.55252100 </v>
   </varray>
  </structure>
  <varray name="forces" >
   <v>      -1.97047738       0.77726213       0.00825299 </v>
   <v>       1.97047738      -0.77726213      -0.00825299 </v>
   <v>      -1.97046100       0.77722667      -0.00826828 </v>
   <v>       1.97046100      -0.77722667       0.00826828 </v>
  </varray>
  <varray name="stress" >
   <v>      14.97079282     -41.94319386       0.00031328 </v>
   <v>     -41.94319385      14.59738570       0.00020123 </v>
   <v>       0.00031331       0.00020120       0.11085399 </v>
  </varray>
  <energy>
   <i name="e_fr_energy">    -20.89502182 </i>
   <i name="e_wo_entrp">    -20.89502182 </i>
   <i name="e_0_energy">     -0.00000000 </i>
  </energy>
  <time name="totalsc">   33.54   33.58</time>
 </calculation>
 <calculation>
  <scstep>
   <time name="dav">    1.53    1.53</time>
   <time name="total">    1.64    1.65</time>
   <energy>
    <i name="alphaZ">      5.30743014 </i>
    <i name="ewald">   1882.89915776 </i>
    <i name="hartreedc">  -2494.44446831 </i>
    <i name="XCdc">     14.12993565 </i>
    <i name="pawpsdc">   2241.98162889 </i>
    <i name="pawaedc">  -2209.73314823 </i>
    <i name="eentropy">     -0.00000000 </i>
    <i name="bandstr">   -165.45147466 </i>
    <i name="atom">    704.16778566 </i>
    <i name="e_fr_energy">    -21.14315309 </i>
    <i name="e_wo_entrp">    -21.14315309 </i>
    <i name="e_0_energy">    -21.14315309 </i>
   </energy>
  </scstep>
  <scstep>
   <time name="dav">    1.83    1.83</time>
   <time name="total">    1.95    1.95</time>
   <energy>
    <i name="e_fr_energy">    -21.19751556 </i>
    <i name="e_wo_entrp">    -21.19751556 </i>
    <i name="e_0_energy">    -21.19751556 </i>
   </energy>
  </scstep>
  <scstep>
   <time name="dav">    1.96    1.97</time>
   <time name="total">    2.07    2.08</time>
   <energy>
    <i name="e_fr_energy">    -21.19344824 </i>
    <i name="e_wo_entrp">    -21.19344824 </i>
    <i name="e_0_energy">    -21.19344824 </i>
   </energy>
  </scstep>
  <scstep>
   <time name="dav">    1.82    1.82</time>
   <time name="total">    1.93    1.93</time>
   <energy>
    <i name="e_fr_energy">    -21.19251027 </i>
    <i name="e_wo_entrp">    -21.19251027 </i>
    <i name="e_0_energy">    -21.19251027 </i>
   </energy>
  </scstep>
  <scstep>
   <time name="dav">    1.74    1.74</time>
   <time name="total">    1.86    1.86</time>
   <energy>
    <i name="e_fr_energy">    -21.19254427 </i>
    <i name="e_wo_entrp">    -21.19254427 </i>
    <i name="e_0_energy">    -21.19254427 </i>
   </energy>
  </scstep>
  <scstep>
   <time name="dav">    1.80    1.80</time>
   <time name="total">    1.82    1.82</time>
   <energy>
    <i name="alphaZ">      5.30743014 </i>
    <i name="ewald">   1882.89915776 </i>
    <i name="hartreedc">  -2494.13123109 </i>
    <i name="XCdc">     14.08026656 </i>
    <i name="pawpsdc">   2064.30718848 </i>
    <i name="pawaedc">  -2031.98536384 </i>
    <i name="eentropy">     -0.00000000 </i>
    <i name="bandstr">   -165.83778449 </i>
    <i name="atom">    704.16778566 </i>
    <i name="e_fr_energy">    -21.19255083 </i>
    <i name="e_wo_entrp">    -21.19255083 </i>
    <i name="e_0_energy">    -21.19255083 </i>
   </energy>
  </scstep>
  <structure>
   <crystal>
    <varray name="basis" >
     <v>       3.28907600       0.23137500       0.00000000 </v>
     <v>       0.32443400       4.61195400      -0.00005300 </v>
     <v>       0.00000000       0.00000000      20.02439000 </v>
    </varray>
    <i name="volume">    302.24816865 </i>
    <varray name="rec_basis" >
     <v>       0.30554880      -0.02149423       0.00000000 </v>
     <v>      -0.01532894       0.21790617       0.00000000 </v>
     <v>      -0.00000004       0.00000058       0.04993910 </v>
    </varray>
   </crystal>
   <varray name="positions" >
    <v>       0.48208894       0.91654983       0.55253295 </v>
    <v>       0.51791106       0.08345017       0.44746705 </v>
    <v>      -0.01791089       0.41654560       0.44746706 </v>
    <v>       0.01791089       0.58345440       0.55253294 </v>
   </varray>
  </structure>
  <varray name="forces" >
   <v>      -0.54603652      -0.27886464       0.00603312 </v>
   <v>       0.54603652       0.27886464      -0.00603312 </v>
   <v>      -0.54602456      -0.27889277      -0.00602672 </v>
   <v>       0.54602456       0.27889277       0.00602672 </v>
  </varray>
  <varray name="stress" >
   <v>       2.85420657     -22.92850639       0.00013429 </v>
   <v>     -22.92850632       1.71522405       0.00029475 </v>
   <v>       0.00013431       0.00029485       0.16973817 </v>
  </varray>
  <energy>
   <i name="e_fr_energy">    -21.19255083 </i>
   <i name="e_wo_entrp">    -21.19255083 </i>
   <i name="e_0_energy">     -0.00000000 </i>
  </energy>
  <time name="totalsc">   12.04   12.06</time>
 </calculation>
 <calculation>
  <scstep>
   <time name="dav">    1.52    1.53</time>
   <time name="total">    1.64    1.64</time>
   <energy>
    <i name="alphaZ">      5.30743014 </i>
    <i name="ewald">   1881.28915997 </i>
    <i name="hartreedc">  -2493.13227372 </i>
    <i name="XCdc">     14.03475539 </i>
    <i name="pawpsdc">   2066.94604170 </i>
    <i name="pawaedc">  -2034.62502898 </i>
    <i name="eentropy">     -0.00000000 </i>
    <i name="bandstr">   -165.19071191 </i>
    <i name="atom">    704.16778566 </i>
    <i name="e_fr_energy">    -21.20284174 </i>
    <i name="e_wo_entrp">    -21.20284174 </i>
    <i name="e_0_energy">    -21.20284174 </i>
   </energy>
  </scstep>
  <scstep>
   <time name="dav">    1.85    1.85</time>
   <time name="total">    1.96    1.96</time>
   <energy>
    <i name="e_fr_energy">    -21.20765917 </i>
    <i name="e_wo_entrp">    -21.20765917 </i>
    <i name="e_0_energy">    -21.20765917 </i>
   </energy>
  </scstep>
  <scstep>
   <time name="dav">    1.96    1.97</time>
   <time name="total">    2.07    2.08</time>
   <energy>
    <i name="e_fr_energy">    -21.20742591 </i>
    <i name="e_wo_entrp">    -21.20742591 </i>
    <i name="e_0_energy">    -21.20742591 </i>
   </energy>
  </scstep>
  <scstep>
   <time name="dav">    1.86    1.86</time>
   <time name="total">    1.97    1.98</time>
   <energy>
    <i name="e_fr_energy">    -21.20736866 </i>
    <i name="e_wo_entrp">    -21.20736866 </i>
    <i name="e_0_energy">    -21.20736866 </i>
   </energy>
  </scstep>
  <scstep>
   <time name="dav">    1.67    1.67</time>
   <time name="total">    1.78    1.79</time>
   <energy>
    <i name="e_fr_energy">    -21.20737190 </i>
    <i name="e_wo_entrp">    -21.20737190 </i>
    <i name="e_0_energy">    -21.20737190 </i>
   </energy>
  </scstep>
  <scstep>
   <time name="dav">    1.34    1.34</time>
   <time name="total">    1.36    1.36</time>
   <energy>
    <i name="alphaZ">      5.30743014 </i>
    <i name="ewald">   1881.28915997 </i>
    <i name="hartreedc">  -2493.14046498 </i>
    <i name="XCdc">     14.02371822 </i>
    <i name="pawpsdc">   2025.50452998 </i>
    <i name="pawaedc">  -1993.16701762 </i>
    <i name="eentropy">     -0.00000000 </i>
    <i name="bandstr">   -165.19251340 </i>
    <i name="atom">    704.16778566 </i>
    <i name="e_fr_energy">    -21.20737202 </i>
    <i name="e_wo_entrp">    -21.20737202 </i>
    <i name="e_0_energy">    -21.20737202 </i>
   </energy>
  </scstep>
  <structure>
   <crystal>
    <varray name="basis" >
     <v>       3.28907600       0.23137500       0.00000000 </v>
     <v>       0.32443400       4.61195400      -0.00005300 </v>
     <v>       0.00000000       0.00000000      20.02439000 </v>
    </varray>
    <i name="volume">    302.24816865 </i>
    <varray name="rec_basis" >
     <v>       0.30554880      -0.02149423       0.00000000 </v>
     <v>      -0.01532894       0.21790617       0.00000000 </v>
     <v>      -0.00000004       0.00000058       0.04993910 </v>
    </varray>
   </crystal>
   <varray name="positions" >
    <v>       0.47662879       0.91831089       0.55253659 </v>
    <v>       0.52337121       0.08168911       0.44746341 </v>
    <v>      -0.02337099       0.41830659       0.44746342 </v>
    <v>       0.02337099       0.58169341       0.55253658 </v>
   </varray>
  </structure>
  <varray name="forces" >
   <v>      -0.19213422      -0.49718264       0.00352450 </v>
   <v>       0.19213422       0.49718264      -0.00352450 </v>
   <v>      -0.19212381      -0.49720855      -0.00351309 </v>
   <v>       0.19212381       0.49720855       0.00351309 </v>
  </varray>
  <varray name="stress" >
   <v>       0.63458425     -18.19333485       0.00009399 </v>
   <v>     -18.19333483      -0.86498500       0.00028706 </v>
   <v>       0.00009406       0.00028705       0.04984102 </v>
  </varray>
  <energy>
   <i name="e_fr_energy">    -21.20737202 </i>
   <i name="e_wo_entrp">    -21.20737202 </i>
   <i name="e_0_energy">     -0.00000000 </i>
  </energy>
  <time name="totalsc">   11.55   11.57</time>
 </calculation>
 <calculation>
  <scstep>
   <time name="dav">    1.55    1.55</time>
   <time name="total">    1.66    1.66</time>
   <energy>
    <i name="alphaZ">      5.30743014 </i>
    <i name="ewald">   1882.76514802 </i>
    <i name="hartreedc">  -2494.14250068 </i>
    <i name="XCdc">     14.07473478 </i>
    <i name="pawpsdc">   2025.74048291 </i>
    <i name="pawaedc">  -1993.40312603 </i>
    <i name="eentropy">     -0.00000000 </i>
    <i name="bandstr">   -165.73953131 </i>
    <i name="atom">    704.16778566 </i>
    <i name="e_fr_energy">    -21.22957651 </i>
    <i name="e_wo_entrp">    -21.22957651 </i>
    <i name="e_0_energy">    -21.22957651 </i>
   </energy>
  </scstep>
  <scstep>
   <time name="dav">    1.80    1.80</time>
   <time name="total">    1.91    1.91</time>
   <energy>
    <i name="e_fr_energy">    -21.23313386 </i>
    <i name="e_wo_entrp">    -21.23313386 </i>
    <i name="e_0_energy">    -21.23313386 </i>
   </energy>
  </scstep>
  <scstep>
   <time name="dav">    1.98    1.98</time>
   <time name="total">    2.09    2.10</time>
   <energy>
    <i name="e_fr_energy">    -21.23305185 </i>
    <i name="e_wo_entrp">    -21.23305185 </i>
    <i name="e_0_energy">    -21.23305185 </i>
   </energy>
  </scstep>
  <scstep>
   <time name="dav">    1.91    1.91</time>
   <time name="total">    2.02    2.02</time>
   <energy>
    <i name="e_fr_energy">    -21.23302948 </i>
    <i name="e_wo_entrp">    -21.23302948 </i>
    <i name="e_0_energy">    -21.23302948 </i>
   </energy>
  </scstep>
  <scstep>
   <time name="dav">    1.69    1.70</time>
   <time name="total">    1.81    1.81</time>
   <energy>
    <i name="e_fr_energy">    -21.23303197 </i>
    <i name="e_wo_entrp">    -21.23303197 </i>
    <i name="e_0_energy">    -21.23303197 </i>
   </energy>
  </scstep>
  <scstep>
   <time name="dav">    1.44    1.44</time>
   <time name="total">    1.46    1.46</time>
   <energy>
    <i name="alphaZ">      5.30743014 </i>
    <i name="ewald">   1882.76514802 </i>
    <i name="hartreedc">  -2494.10326524 </i>
    <i name="XCdc">     14.07855179 </i>
    <i name="pawpsdc">   2057.08952656 </i>
    <i name="pawaedc">  -2024.76333683 </i>
    <i name="eentropy">     -0.00000000 </i>
    <i name="bandstr">   -165.77487141 </i>
    <i name="atom">    704.16778566 </i>
    <i name="e_fr_energy">    -21.23303132 </i>
    <i name="e_wo_entrp">    -21.23303132 </i>
    <i name="e_0_energy">    -21.23303132 </i>
   </energy>
  </scstep>
  <structure>
   <crystal>
    <varray name="basis" >
     <v>       3.28907600       0.23137500       0.00000000 </v>
     <v>       0.32443400       4.61195400      -0.00005300 </v>
     <v>       0.00000000       0.00000000      20.02439000 </v>
    </varray>
    <i name="volume">    302.24816865 </i>
    <varray name="rec_basis" >
     <v>       0.30554880      -0.02149423       0.00000000 </v>
     <v>      -0.01532894       0.21790617       0.00000000 </v>
     <v>      -0.00000004       0.00000058       0.04993910 </v>
    </varray>
   </crystal>
   <varray name="positions" >
    <v>       0.47391758       0.91547301       0.55254281 </v>
    <v>       0.52608242       0.08452699       0.44745719 </v>
    <v>      -0.02608208       0.41546851       0.44745720 </v>
    <v>       0.02608208       0.58453149       0.55254280 </v>
   </varray>
  </structure>
  <varray name="forces" >
   <v>      -0.05421014      -0.25429227      -0.04107648 </v>
   <v>       0.05421014       0.25429227       0.04107648 </v>
   <v>      -0.05420149      -0.25431203       0.04108199 </v>
   <v>       0.05420149       0.25431203      -0.04108199 </v>
  </varray>
  <varray name="stress" >
   <v>       0.65376879     -16.56152630       0.00009402 </v>
   <v>     -16.56152628       2.63417482       0.00017249 </v>
   <v>       0.00009398       0.00017257      -1.03814840 </v>
  </varray>
  <energy>
   <i name="e_fr_energy">    -21.23303132 </i>
   <i name="e_wo_entrp">    -21.23303132 </i>
   <i name="e_0_energy">     -0.00000000 </i>
  </energy>
  <time name="totalsc">   11.71   11.73</time>
 </calculation>
 <calculation>
  <scstep>
   <time name="dav">    1.55    1.55</time>
   <time name="total">    1.67    1.67</time>
   <energy>
    <i name="alphaZ">      5.30743014 </i>
    <i name="ewald">   1883.96289359 </i>
    <i name="hartreedc">  -2494.88110366 </i>
    <i name="XCdc">     14.11842187 </i>
    <i name="pawpsdc">   2057.04031298 </i>
    <i name="pawaedc">  -2024.71402298 </i>
    <i name="eentropy">     -0.00000000 </i>
    <i name="bandstr">   -166.23902037 </i>
    <i name="atom">    704.16778566 </i>
    <i name="e_fr_energy">    -21.23730277 </i>
    <i name="e_wo_entrp">    -21.23730277 </i>
    <i name="e_0_energy">    -21.23730277 </i>
   </energy>
  </scstep>
  <scstep>
   <time name="dav">    1.81    1.81</time>
   <time name="total">    1.92    1.92</time>
   <energy>
    <i name="e_fr_energy">    -21.23944881 </i>
    <i name="e_wo_entrp">    -21.23944881 </i>
    <i name="e_0_energy">    -21.23944881 </i>
   </energy>
  </scstep>
  <scstep>
   <time name="dav">    1.99    1.99</time>
   <time name="total">    2.11    2.11</time>
   <energy>
    <i name="e_fr_energy">    -21.23938539 </i>
    <i name="e_wo_entrp">    -21.23938539 </i>
    <i name="e_0_energy">    -21.23938539 </i>
   </energy>
  </scstep>
  <scstep>
   <time name="dav">    1.94    1.94</time>
   <time name="total">    2.05    2.05</time>
   <energy>
    <i name="e_fr_energy">    -21.23937065 </i>
    <i name="e_wo_entrp">    -21.23937065 </i>
    <i name="e_0_energy">    -21.23937065 </i>
   </energy>
  </scstep>
  <scstep>
   <time name="dav">    1.58    1.58</time>
   <time name="total">    1.69    1.69</time>
   <energy>
    <i name="e_fr_energy">    -21.23937328 </i>
    <i name="e_wo_entrp">    -21.23937328 </i>
    <i name="e_0_energy">    -21.23937328 </i>
   </energy>
  </scstep>
  <scstep>
   <time name="dav">    1.34    1.34</time>
   <time name="total">    1.36    1.36</time>
   <energy>
    <i name="alphaZ">      5.30743014 </i>
    <i name="ewald">   1883.96289359 </i>
    <i name="hartreedc">  -2494.83754731 </i>
    <i name="XCdc">     14.12156748 </i>
    <i name="pawpsdc">   2083.39181126 </i>
    <i name="pawaedc">  -2051.07506373 </i>
    <i name="eentropy">     -0.00000000 </i>
    <i name="bandstr">   -166.27825142 </i>
    <i name="atom">    704.16778566 </i>
    <i name="e_fr_energy">    -21.23937432 </i>
    <i name="e_wo_entrp">    -21.23937432 </i>
    <i name="e_0_energy">    -21.23937432 </i>
   </energy>
  </scstep>
  <structure>
   <crystal>
    <varray name="basis" >
     <v>       3.28907600       0.23137500       0.00000000 </v>
     <v>       0.32443400       4.61195400      -0.00005300 </v>
     <v>       0.00000000       0.00000000      20.02439000 </v>
    </varray>
    <i name="volume">    302.24816865 </i>
    <varray name="rec_basis" >
     <v>       0.30554880      -0.02149423       0.00000000 </v>
     <v>      -0.01532894       0.21790617       0.00000000 </v>
     <v>      -0.00000004       0.00000058       0.04993910 </v>
    </varray>
   </crystal>
   <varray name="positions" >
    <v>       0.47184036       0.91329874       0.55254757 </v>
    <v>       0.52815964       0.08670126       0.44745243 </v>
    <v>      -0.02815920       0.41329410       0.44745244 </v>
    <v>       0.02815920       0.58670590       0.55254756 </v>
   </varray>
  </structure>
  <varray name="forces" >
   <v>       0.06743196      -0.05276905      -0.07376119 </v>
   <v>      -0.06743196       0.05276905       0.07376119 </v>
   <v>       0.06743947      -0.05278388       0.07376179 </v>
   <v>      -0.06743947       0.05278388      -0.07376179 </v>
  </varray>
  <varray name="stress" >
   <v>       0.85085093     -15.07029808       0.00009116 </v>
   <v>     -15.07029809       5.50343095       0.00008879 </v>
   <v>       0.00009123       0.00008880      -1.76375277 </v>
  </varray>
  <energy>
   <i name="e_fr_energy">    -21.23937432 </i>
   <i name="e_wo_entrp">    -21.23937432 </i>
   <i name="e_0_energy">     -0.00000000 </i>
  </energy>
  <time name="totalsc">   11.55   11.57</time>
 </calculation>
 <calculation>
  <scstep>
   <time name="dav">    1.47    1.47</time>
   <time name="total">    1.58    1.58</time>
   <energy>
    <i name="alphaZ">      5.30743014 </i>
    <i name="ewald">   1886.72733803 </i>
    <i name="hartreedc">  -2497.34380671 </i>
    <i name="XCdc">     14.14773840 </i>
    <i name="pawpsdc">   2083.33068004 </i>
    <i name="pawaedc">  -2051.01384706 </i>
    <i name="eentropy">     -0.00000000 </i>
    <i name="bandstr">   -166.56366789 </i>
    <i name="atom">    704.16778566 </i>
    <i name="e_fr_energy">    -21.24034939 </i>
    <i name="e_wo_entrp">    -21.24034939 </i>
    <i name="e_0_energy">    -21.24034939 </i>
   </energy>
  </scstep>
  <scstep>
   <time name="dav">    1.87    1.87</time>
   <time name="total">    1.98    1.98</time>
   <energy>
    <i name="e_fr_energy">    -21.24060624 </i>
    <i name="e_wo_entrp">    -21.24060624 </i>
    <i name="e_0_energy">    -21.24060624 </i>
   </energy>
  </scstep>
  <scstep>
   <time name="dav">    1.98    1.98</time>
   <time name="total">    2.09    2.09</time>
   <energy>
    <i name="e_fr_energy">    -21.24060052 </i>
    <i name="e_wo_entrp">    -21.24060052 </i>
    <i name="e_0_energy">    -21.24060052 </i>
   </energy>
  </scstep>
  <scstep>
   <time name="dav">    1.41    1.41</time>
   <time name="total">    1.52    1.52</time>
   <energy>
    <i name="e_fr_energy">    -21.24059997 </i>
    <i name="e_wo_entrp">    -21.24059997 </i>
    <i name="e_0_energy">    -21.24059997 </i>
   </energy>
  </scstep>
  <scstep>
   <time name="dav">    1.24    1.24</time>
   <time name="total">    1.35    1.36</time>
   <energy>
    <i name="e_fr_energy">    -21.24060079 </i>
    <i name="e_wo_entrp">    -21.24060079 </i>
    <i name="e_0_energy">    -21.24060079 </i>
   </energy>
  </scstep>
  <scstep>
   <time name="dav">    1.22    1.22</time>
   <time name="total">    1.24    1.24</time>
   <energy>
    <i name="alphaZ">      5.30743014 </i>
    <i name="ewald">   1886.72733803 </i>
    <i name="hartreedc">  -2497.33446203 </i>
    <i name="XCdc">     14.15037166 </i>
    <i name="pawpsdc">   2098.83589189 </i>
    <i name="pawaedc">  -2066.52479705 </i>
    <i name="eentropy">     -0.00000000 </i>
    <i name="bandstr">   -166.57015959 </i>
    <i name="atom">    704.16778566 </i>
    <i name="e_fr_energy">    -21.24060130 </i>
    <i name="e_wo_entrp">    -21.24060130 </i>
    <i name="e_0_energy">    -21.24060130 </i>
   </energy>
  </scstep>
  <structure>
   <crystal>
    <varray name="basis" >
     <v>       3.28907600       0.23137500       0.00000000 </v>
     <v>       0.32443400       4.61195400      -0.00005300 </v>
     <v>       0.00000000       0.00000000      20.02439000 </v>
    </varray>
    <i name="volume">    302.24816865 </i>
    <varray name="rec_basis" >
     <v>       0.30554880      -0.02149423       0.00000000 </v>
     <v>      -0.01532894       0.21790617       0.00000000 </v>
     <v>      -0.00000004       0.00000058       0.04993910 </v>
    </varray>
   </crystal>
   <varray name="positions" >
    <v>       0.47261300       0.91285778       0.55241711 </v>
    <v>       0.52738700       0.08714222       0.44758289 </v>
    <v>      -0.02738647       0.41285302       0.44758290 </v>
    <v>       0.02738647       0.58714698       0.55241710 </v>
   </varray>
  </structure>
  <varray name="forces" >
   <v>       0.01137222      -0.01344692      -0.03987854 </v>
   <v>      -0.01137222       0.01344692       0.03987854 </v>
   <v>       0.01137843      -0.01345938       0.03987750 </v>
   <v>      -0.01137843       0.01345938      -0.03987750 </v>
  </varray>
  <varray name="stress" >
   <v>       1.27289217     -15.78721195       0.00011207 </v>
   <v>     -15.78721199       6.17661459       0.00005821 </v>
   <v>       0.00011213       0.00005824      -0.98756451 </v>
  </varray>
  <energy>
   <i name="e_fr_energy">    -21.24060130 </i>
   <i name="e_wo_entrp">    -21.24060130 </i>
   <i name="e_0_energy">     -0.00000000 </i>
  </energy>
  <time name="totalsc">   10.53   10.54</time>
 </calculation>
 <calculation>
  <scstep>
   <time name="dav">    1.47    1.47</time>
   <time name="total">    1.58    1.58</time>
   <energy>
    <i name="alphaZ">      5.30743014 </i>
    <i name="ewald">   1888.19001718 </i>
    <i name="hartreedc">  -2498.65139708 </i>
    <i name="XCdc">     14.16414455 </i>
    <i name="pawpsdc">   2098.99148401 </i>
    <i name="pawaedc">  -2066.68030336 </i>
    <i name="eentropy">     -0.00000000 </i>
    <i name="bandstr">   -166.72985841 </i>
    <i name="atom">    704.16778566 </i>
    <i name="e_fr_energy">    -21.24069730 </i>
    <i name="e_wo_entrp">    -21.24069730 </i>
    <i name="e_0_energy">    -21.24069730 </i>
   </energy>
  </scstep>
  <scstep>
   <time name="dav">    1.87    1.87</time>
   <time name="total">    1.98    1.98</time>
   <energy>
    <i name="e_fr_energy">    -21.24077162 </i>
    <i name="e_wo_entrp">    -21.24077162 </i>
    <i name="e_0_energy">    -21.24077162 </i>
   </energy>
  </scstep>
  <scstep>
   <time name="dav">    1.69    1.69</time>
   <time name="total">    1.80    1.80</time>
   <energy>
    <i name="e_fr_energy">    -21.24077030 </i>
    <i name="e_wo_entrp">    -21.24077030 </i>
    <i name="e_0_energy">    -21.24077030 </i>
   </energy>
  </scstep>
  <scstep>
   <time name="dav">    1.29    1.29</time>
   <time name="total">    1.40    1.40</time>
   <energy>
    <i name="e_fr_energy">    -21.24077080 </i>
    <i name="e_wo_entrp">    -21.24077080 </i>
    <i name="e_0_energy">    -21.24077080 </i>
   </energy>
  </scstep>
  <scstep>
   <time name="dav">    1.22    1.22</time>
   <time name="total">    1.33    1.33</time>
   <energy>
    <i name="e_fr_energy">    -21.24077115 </i>
    <i name="e_wo_entrp">    -21.24077115 </i>
    <i name="e_0_energy">    -21.24077115 </i>
   </energy>
  </scstep>
  <scstep>
   <time name="dav">    1.19    1.19</time>
   <time name="total">    1.21    1.21</time>
   <energy>
    <i name="alphaZ">      5.30743014 </i>
    <i name="ewald">   1888.19001718 </i>
    <i name="hartreedc">  -2498.64646494 </i>
    <i name="XCdc">     14.16556052 </i>
    <i name="pawpsdc">   2107.23637883 </i>
    <i name="pawaedc">  -2074.92828991 </i>
    <i name="eentropy">     -0.00000000 </i>
    <i name="bandstr">   -166.73318886 </i>
    <i name="atom">    704.16778566 </i>
    <i name="e_fr_energy">    -21.24077138 </i>
    <i name="e_wo_entrp">    -21.24077138 </i>
    <i name="e_0_energy">    -21.24077138 </i>
   </energy>
  </scstep>
  <structure>
   <crystal>
    <varray name="basis" >
     <v>       3.28907600       0.23137500       0.00000000 </v>
     <v>       0.32443400       4.61195400      -0.00005300 </v>
     <v>       0.00000000       0.00000000      20.02439000 </v>
    </varray>
    <i name="volume">    302.24816865 </i>
    <varray name="rec_basis" >
     <v>       0.30554880      -0.02149423       0.00000000 </v>
     <v>      -0.01532894       0.21790617       0.00000000 </v>
     <v>      -0.00000004       0.00000058       0.04993910 </v>
    </varray>
   </crystal>
   <varray name="positions" >
    <v>       0.47302140       0.91262470       0.55234815 </v>
    <v>       0.52697860       0.08737530       0.44765185 </v>
    <v>      -0.02697802       0.41261987       0.44765186 </v>
    <v>       0.02697802       0.58738013       0.55234814 </v>
   </varray>
  </structure>
  <varray name="forces" >
   <v>      -0.01857269       0.00774943      -0.02189588 </v>
   <v>       0.01857269      -0.00774943       0.02189588 </v>
   <v>      -0.01856698       0.00773811       0.02189424 </v>
   <v>       0.01856698      -0.00773811      -0.02189424 </v>
  </varray>
  <varray name="stress" >
   <v>       1.51186040     -16.15594328       0.00012372 </v>
   <v>     -16.15594331       6.54074683       0.00003941 </v>
   <v>       0.00012370       0.00003935      -0.57546297 </v>
  </varray>
  <energy>
   <i name="e_fr_energy">    -21.24077138 </i>
   <i name="e_wo_entrp">    -21.24077138 </i>
   <i name="e_0_energy">     -0.00000000 </i>
  </energy>
  <time name="totalsc">   10.07   10.08</time>
 </calculation>
 <calculation>
  <scstep>
   <time name="dav">    1.45    1.45</time>
   <time name="total">    1.56    1.56</time>
   <energy>
    <i name="alphaZ">      5.30743014 </i>
    <i name="ewald">   1889.14748645 </i>
    <i name="hartreedc">  -2499.55706463 </i>
    <i name="XCdc">     14.17097876 </i>
    <i name="pawpsdc">   2107.36715940 </i>
    <i name="pawaedc">  -2075.05902874 </i>
    <i name="eentropy">     -0.00000000 </i>
    <i name="bandstr">   -166.78558762 </i>
    <i name="atom">    704.16778566 </i>
    <i name="e_fr_energy">    -21.24084058 </i>
    <i name="e_wo_entrp">    -21.24084058 </i>
    <i name="e_0_energy">    -21.24084058 </i>
   </energy>
  </scstep>
  <scstep>
   <time name="dav">    1.86    1.86</time>
   <time name="total">    1.97    1.97</time>
   <energy>
    <i name="e_fr_energy">    -21.24086680 </i>
    <i name="e_wo_entrp">    -21.24086680 </i>
    <i name="e_0_energy">    -21.24086680 </i>
   </energy>
  </scstep>
  <scstep>
   <time name="dav">    1.32    1.32</time>
   <time name="total">    1.43    1.43</time>
   <energy>
    <i name="e_fr_energy">    -21.24086610 </i>
    <i name="e_wo_entrp">    -21.24086610 </i>
    <i name="e_0_energy">    -21.24086610 </i>
   </energy>
  </scstep>
  <scstep>
   <time name="dav">    1.20    1.20</time>
   <time name="total">    1.32    1.32</time>
   <energy>
    <i name="e_fr_energy">    -21.24086643 </i>
    <i name="e_wo_entrp">    -21.24086643 </i>
    <i name="e_0_energy">    -21.24086643 </i>
   </energy>
  </scstep>
  <scstep>
   <time name="dav">    1.21    1.21</time>
   <time name="total">    1.32    1.32</time>
   <energy>
    <i name="e_fr_energy">    -21.24086655 </i>
    <i name="e_wo_entrp">    -21.24086655 </i>
    <i name="e_0_energy">    -21.24086655 </i>
   </energy>
  </scstep>
  <scstep>
   <time name="dav">    1.16    1.16</time>
   <time name="total">    1.18    1.18</time>
   <energy>
    <i name="alphaZ">      5.30743014 </i>
    <i name="ewald">   1889.14748645 </i>
    <i name="hartreedc">  -2499.55373835 </i>
    <i name="XCdc">     14.17104748 </i>
    <i name="pawpsdc">   2109.58292327 </i>
    <i name="pawaedc">  -2077.27547537 </i>
    <i name="eentropy">     -0.00000000 </i>
    <i name="bandstr">   -166.78832591 </i>
    <i name="atom">    704.16778566 </i>
    <i name="e_fr_energy">    -21.24086663 </i>
    <i name="e_wo_entrp">    -21.24086663 </i>
    <i name="e_0_energy">    -21.24086663 </i>
   </energy>
  </scstep>
  <structure>
   <crystal>
    <varray name="basis" >
     <v>       3.28907600       0.23137500       0.00000000 </v>
     <v>       0.32443400       4.61195400      -0.00005300 </v>
     <v>       0.00000000       0.00000000      20.02439000 </v>
    </varray>
    <i name="volume">    302.24816865 </i>
    <varray name="rec_basis" >
     <v>       0.30554880      -0.02149423       0.00000000 </v>
     <v>      -0.01532894       0.21790617       0.00000000 </v>
     <v>      -0.00000004       0.00000058       0.04993910 </v>
    </varray>
   </crystal>
   <varray name="positions" >
    <v>       0.47285486       0.91266647       0.55229482 </v>
    <v>       0.52714514       0.08733353       0.44770518 </v>
    <v>      -0.02714448       0.41266154       0.44770519 </v>
    <v>       0.02714448       0.58733846       0.55229481 </v>
   </varray>
  </structure>
  <varray name="forces" >
   <v>      -0.00812113       0.00030900      -0.00701684 </v>
   <v>       0.00812113      -0.00030900       0.00701684 </v>
   <v>      -0.00811658       0.00030025       0.00701589 </v>
   <v>       0.00811658      -0.00030025      -0.00701589 </v>
  </varray>
  <varray name="stress" >
   <v>       1.48285656     -15.97794716       0.00013285 </v>
   <v>     -15.97794713       6.56179400       0.00001105 </v>
   <v>       0.00013287       0.00001103      -0.23594096 </v>
  </varray>
  <energy>
   <i name="e_fr_energy">    -21.24086663 </i>
   <i name="e_wo_entrp">    -21.24086663 </i>
   <i name="e_0_energy">     -0.00000000 </i>
  </energy>
  <time name="totalsc">    9.53    9.54</time>
 </calculation>
 <calculation>
  <scstep>
   <time name="dav">    1.46    1.46</time>
   <time name="total">    1.57    1.57</time>
   <energy>
    <i name="alphaZ">      5.30743014 </i>
    <i name="ewald">   1889.65044118 </i>
    <i name="hartreedc">  -2500.03485345 </i>
    <i name="XCdc">     14.17392877 </i>
    <i name="pawpsdc">   2109.60792356 </i>
    <i name="pawaedc">  -2077.30047314 </i>
    <i name="eentropy">     -0.00000000 </i>
    <i name="bandstr">   -166.81305528 </i>
    <i name="atom">    704.16778566 </i>
    <i name="e_fr_energy">    -21.24087256 </i>
    <i name="e_wo_entrp">    -21.24087256 </i>
    <i name="e_0_energy">    -21.24087256 </i>
   </energy>
  </scstep>
  <scstep>
   <time name="dav">    1.85    1.85</time>
   <time name="total">    1.96    1.96</time>
   <energy>
    <i name="e_fr_energy">    -21.24088002 </i>
    <i name="e_wo_entrp">    -21.24088002 </i>
    <i name="e_0_energy">    -21.24088002 </i>
   </energy>
  </scstep>
  <scstep>
   <time name="dav">    1.23    1.23</time>
   <time name="total">    1.34    1.34</time>
   <energy>
    <i name="e_fr_energy">    -21.24087991 </i>
    <i name="e_wo_entrp">    -21.24087991 </i>
    <i name="e_0_energy">    -21.24087991 </i>
   </energy>
  </scstep>
  <scstep>
   <time name="dav">    1.15    1.15</time>
   <time name="total">    1.26    1.26</time>
   <energy>
    <i name="e_fr_energy">    -21.24088009 </i>
    <i name="e_wo_entrp">    -21.24088009 </i>
    <i name="e_0_energy">    -21.24088009 </i>
   </energy>
  </scstep>
  <scstep>
   <time name="dav">    1.21    1.21</time>
   <time name="total">    1.32    1.32</time>
   <energy>
    <i name="e_fr_energy">    -21.24088014 </i>
    <i name="e_wo_entrp">    -21.24088014 </i>
    <i name="e_0_energy">    -21.24088014 </i>
   </energy>
  </scstep>
  <scstep>
   <time name="dav">    1.12    1.12</time>
   <time name="total">    1.14    1.14</time>
   <energy>
    <i name="alphaZ">      5.30743014 </i>
    <i name="ewald">   1889.65044118 </i>
    <i name="hartreedc">  -2500.03203249 </i>
    <i name="XCdc">     14.17394545 </i>
    <i name="pawpsdc">   2110.79602048 </i>
    <i name="pawaedc">  -2078.48892001 </i>
    <i name="eentropy">     -0.00000000 </i>
    <i name="bandstr">   -166.81555057 </i>
    <i name="atom">    704.16778566 </i>
    <i name="e_fr_energy">    -21.24088017 </i>
    <i name="e_wo_entrp">    -21.24088017 </i>
    <i name="e_0_energy">    -21.24088017 </i>
   </energy>
  </scstep>
  <structure>
   <crystal>
    <varray name="basis" >
     <v>       3.28907600       0.23137500       0.00000000 </v>
     <v>       0.32443400       4.61195400      -0.00005300 </v>
     <v>       0.00000000       0.00000000      20.02439000 </v>
    </varray>
    <i name="volume">    302.24816865 </i>
    <varray name="rec_basis" >
     <v>       0.30554880      -0.02149423       0.00000000 </v>
     <v>      -0.01532894       0.21790617       0.00000000 </v>
     <v>      -0.00000004       0.00000058       0.04993910 </v>
    </varray>
   </crystal>
   <varray name="positions" >
    <v>       0.47276740       0.91268841       0.55226682 </v>
    <v>       0.52723260       0.08731159       0.44773318 </v>
    <v>      -0.02723189       0.41268341       0.44773319 </v>
    <v>       0.02723189       0.58731659       0.55226681 </v>
   </varray>
  </structure>
  <varray name="forces" >
   <v>      -0.00269394      -0.00363130       0.00079076 </v>
   <v>       0.00269394       0.00363130      -0.00079076 </v>
   <v>      -0.00268985      -0.00363869      -0.00079130 </v>
   <v>       0.00268985       0.00363869       0.00079130 </v>
  </varray>
  <varray name="stress" >
   <v>       1.46858279     -15.88717190       0.00013824 </v>
   <v>     -15.88717183       6.57258550      -0.00000371 </v>
   <v>       0.00013820      -0.00000366      -0.05975060 </v>
  </varray>
  <energy>
   <i name="e_fr_energy">    -21.24088017 </i>
   <i name="e_wo_entrp">    -21.24088017 </i>
   <i name="e_0_energy">     -0.00000000 </i>
  </energy>
  <time name="totalsc">    9.29    9.30</time>
  <eigenvalues>
   <array>
    <dimension dim="1">band</dimension>
    <dimension dim="2">kpoint</dimension>
    <dimension dim="3">spin</dimension>
    <field>eigene</field>
    <field>occ</field>
    <set>
     <set comment="spin 1">
      <set comment="kpoint 1">
       <r>  -17.2285    1.0000 </r>
       <r>  -14.6883    1.0000 </r>
       <r>  -11.2892    1.0000 </r>
       <r>   -7.8825    1.0000 </r>
       <r>   -6.8827    1.0000 </r>
       <r>   -6.8326    1.0000 </r>
       <r>   -5.3809    1.0000 </r>
       <r>   -4.0155    1.0000 </r>
       <r>   -3.9620    1.0000 </r>
       <r>   -2.1575    1.0000 </r>
       <r>   -1.3319    0.0000 </r>
       <r>   -0.5354    0.0000 </r>
       <r>   -0.1368    0.0000 </r>
       <r>    1.4655    0.0000 </r>
       <r>    2.1792    0.0000 </r>
       <r>    2.3158    0.0000 </r>
      </set>
      <set comment="kpoint 2">
       <r>  -17.2010    1.0000 </r>
       <r>  -14.6606    1.0000 </r>
       <r>  -11.2995    1.0000 </r>
       <r>   -7.8635    1.0000 </r>
       <r>   -6.8576    1.0000 </r>
       <r>   -6.8559    1.0000 </r>
       <r>   -5.5629    1.0000 </r>
       <r>   -4.1761    1.0000 </r>
       <r>   -3.9683    1.0000 </r>
       <r>   -2.1622    1.0000 </r>
       <r>   -1.3101    0.0000 </r>
       <r>   -0.2811    0.0000 </r>
       <r>   -0.0178    0.0000 </r>
       <r>    1.4255    0.0000 </r>
       <r>    2.2044    0.0000 </r>
       <r>    2.3464    0.0000 </r>
      </set>
      <set comment="kpoint 3">
       <r>  -17.1187    1.0000 </r>
       <r>  -14.5774    1.0000 </r>
       <r>  -11.3358    1.0000 </r>
       <r>   -7.8074    1.0000 </r>
       <r>   -6.9477    1.0000 </r>
       <r>   -6.7869    1.0000 </r>
       <r>   -5.9991    1.0000 </r>
       <r>   -4.5827    1.0000 </r>
       <r>   -3.9314    1.0000 </r>
       <r>   -2.1931    1.0000 </r>
       <r>   -1.2425    0.0000 </r>
       <r>    0.0257    0.0000 </r>
       <r>    0.3883    0.0000 </r>
       <r>    1.5808    0.0000 </r>
       <r>    2.2552    0.0000 </r>
       <r>    2.4386    0.0000 </r>
      </set>
      <set comment="kpoint 4">
       <r>  -16.9819    1.0000 </r>
       <r>  -14.4390    1.0000 </r>
       <r>  -11.4140    1.0000 </r>
       <r>   -7.7165    1.0000 </r>
       <r>   -7.1714    1.0000 </r>
       <r>   -6.7382    1.0000 </r>
       <r>   -6.4446    1.0000 </r>
       <r>   -4.9818    1.0000 </r>
       <r>   -3.8810    1.0000 </r>
       <r>   -2.2681    1.0000 </r>
       <r>   -1.1322    0.0000 </r>
       <r>   -0.2761    0.0000 </r>
       <r>    1.2892    0.0000 </r>
       <r>    2.0752    0.0000 </r>
       <r>    2.0928    0.0000 </r>
       <r>    2.5808    0.0000 </r>
      </set>
      <set comment="kpoint 5">
       <r>  -16.7914    1.0000 </r>
       <r>  -14.2459    1.0000 </r>
       <r>  -11.5591    1.0000 </r>
       <r>   -7.5954    1.0000 </r>
       <r>   -7.5853    1.0000 </r>
       <r>   -7.0750    1.0000 </r>
       <r>   -6.4107    1.0000 </r>
       <r>   -5.2129    1.0000 </r>
       <r>   -3.8442    1.0000 </r>
       <r>   -2.3976    1.0000 </r>
       <r>   -0.9874    0.0000 </r>
       <r>   -0.6847    0.0000 </r>
       <r>    1.4914    0.0000 </r>
       <r>    2.3090    0.0000 </r>
       <r>    2.4131    0.0000 </r>
       <r>    2.7592    0.0000 </r>
      </set>
      <set comment="kpoint 6">
       <r>  -16.5480    1.0000 </r>
       <r>  -13.9990    1.0000 </r>
       <r>  -11.7960    1.0000 </r>
       <r>   -8.1598    1.0000 </r>
       <r>   -7.4519    1.0000 </r>
       <r>   -7.4252    1.0000 </r>
       <r>   -6.1977    1.0000 </r>
       <r>   -5.2606    1.0000 </r>
       <r>   -3.8602    1.0000 </r>
       <r>   -2.5906    1.0000 </r>
       <r>   -1.0170    0.0000 </r>
       <r>   -0.8236    0.0000 </r>
       <r>    1.0250    0.0000 </r>
       <r>    1.7811    0.0000 </r>
       <r>    2.9593    0.0000 </r>
       <r>    3.0488    0.0000 </r>
      </set>
      <set comment="kpoint 7">
       <r>  -16.2532    1.0000 </r>
       <r>  -13.7004    1.0000 </r>
       <r>  -12.1339    1.0000 </r>
       <r>   -8.8139    1.0000 </r>
       <r>   -7.6309    1.0000 </r>
       <r>   -7.2999    1.0000 </r>
       <r>   -5.9365    1.0000 </r>
       <r>   -5.1886    1.0000 </r>
       <r>   -3.9621    1.0000 </r>
       <r>   -2.8486    1.0000 </r>
       <r>   -1.1807    0.0000 </r>
       <r>   -0.6804    0.0000 </r>
       <r>    0.6325    0.0000 </r>
       <r>    1.0975    0.0000 </r>
       <r>    2.7667    0.0000 </r>
       <r>    3.1794    0.0000 </r>
      </set>
      <set comment="kpoint 8">
       <r>  -15.9091    1.0000 </r>
       <r>  -13.3593    1.0000 </r>
       <r>  -12.5503    1.0000 </r>
       <r>   -9.4888    1.0000 </r>
       <r>   -7.6885    1.0000 </r>
       <r>   -7.1620    1.0000 </r>
       <r>   -5.6472    1.0000 </r>
       <r>   -5.0548    1.0000 </r>
       <r>   -4.1360    1.0000 </r>
       <r>   -3.1600    1.0000 </r>
       <r>   -1.1590    0.0000 </r>
       <r>   -0.6527    0.0000 </r>
       <r>    0.4343    0.0000 </r>
       <r>    0.4626    0.0000 </r>
       <r>    2.2915    0.0000 </r>
       <r>    2.9406    0.0000 </r>
      </set>
      <set comment="kpoint 9">
       <r>  -15.5184    1.0000 </r>
       <r>  -13.1690    1.0000 </r>
       <r>  -12.8220    1.0000 </r>
       <r>  -10.1524    1.0000 </r>
       <r>   -7.6270    1.0000 </r>
       <r>   -7.0718    1.0000 </r>
       <r>   -5.3501    1.0000 </r>
       <r>   -4.9011    1.0000 </r>
       <r>   -4.3137    1.0000 </r>
       <r>   -3.5008    1.0000 </r>
       <r>   -1.0223    0.0000 </r>
       <r>   -0.7998    0.0000 </r>
       <r>   -0.0295    0.0000 </r>
       <r>    0.4921    0.0000 </r>
       <r>    1.7935    0.0000 </r>
       <r>    2.5579    0.0000 </r>
      </set>
      <set comment="kpoint 10">
       <r>  -15.0852    1.0000 </r>
       <r>  -13.6102    1.0000 </r>
       <r>  -12.4377    1.0000 </r>
       <r>  -10.7879    1.0000 </r>
       <r>   -7.4868    1.0000 </r>
       <r>   -7.0654    1.0000 </r>
       <r>   -5.0749    1.0000 </r>
       <r>   -4.7695    1.0000 </r>
       <r>   -4.4148    1.0000 </r>
       <r>   -3.8391    1.0000 </r>
       <r>   -0.9943    0.0000 </r>
       <r>   -0.9698    0.0000 </r>
       <r>   -0.1850    0.0000 </r>
       <r>    0.6231    0.0000 </r>
       <r>    1.3903    0.0000 </r>
       <r>    2.1393    0.0000 </r>
      </set>
      <set comment="kpoint 11">
       <r>  -14.6155    1.0000 </r>
       <r>  -14.1183    1.0000 </r>
       <r>  -11.9380    1.0000 </r>
       <r>  -11.3853    1.0000 </r>
       <r>   -7.3127    1.0000 </r>
       <r>   -7.1553    1.0000 </r>
       <r>   -4.8596    1.0000 </r>
       <r>   -4.7434    1.0000 </r>
       <r>   -4.3561    1.0000 </r>
       <r>   -4.1392    1.0000 </r>
       <r>   -1.1058    0.0000 </r>
       <r>   -1.0770    0.0000 </r>
       <r>    0.0678    0.0000 </r>
       <r>    0.4447    0.0000 </r>
       <r>    1.4055    0.0000 </r>
       <r>    1.7335    0.0000 </r>
      </set>
      <set comment="kpoint 12">
       <r>  -17.2061    1.0000 </r>
       <r>  -14.7173    1.0000 </r>
       <r>  -11.3094    1.0000 </r>
       <r>   -8.0324    1.0000 </r>
       <r>   -6.7747    1.0000 </r>
       <r>   -6.7572    1.0000 </r>
       <r>   -5.3698    1.0000 </r>
       <r>   -4.0169    1.0000 </r>
       <r>   -3.8641    1.0000 </r>
       <r>   -2.3722    1.0000 </r>
       <r>   -1.1363    0.0000 </r>
       <r>   -0.5181    0.0000 </r>
       <r>   -0.1482    0.0000 </r>
       <r>    1.4542    0.0000 </r>
       <r>    2.2409    0.0000 </r>
       <r>    2.3475    0.0000 </r>
      </set>
      <set comment="kpoint 13">
       <r>  -17.1856    1.0000 </r>
       <r>  -14.6828    1.0000 </r>
       <r>  -11.2956    1.0000 </r>
       <r>   -7.9957    1.0000 </r>
       <r>   -6.8285    1.0000 </r>
       <r>   -6.7644    1.0000 </r>
       <r>   -5.4872    1.0000 </r>
       <r>   -4.2532    1.0000 </r>
       <r>   -3.8994    1.0000 </r>
       <r>   -2.3370    1.0000 </r>
       <r>   -1.1438    0.0000 </r>
       <r>   -0.3048    0.0000 </r>
       <r>   -0.0230    0.0000 </r>
       <r>    1.4611    0.0000 </r>
       <r>    2.2525    0.0000 </r>
       <r>    2.3677    0.0000 </r>
      </set>
      <set comment="kpoint 14">
       <r>  -17.1104    1.0000 </r>
       <r>  -14.5931    1.0000 </r>
       <r>  -11.3055    1.0000 </r>
       <r>   -7.9345    1.0000 </r>
       <r>   -6.8643    1.0000 </r>
       <r>   -6.8257    1.0000 </r>
       <r>   -5.8493    1.0000 </r>
       <r>   -4.6886    1.0000 </r>
       <r>   -3.9252    1.0000 </r>
       <r>   -2.3232    1.0000 </r>
       <r>   -1.1043    0.0000 </r>
       <r>    0.0021    0.0000 </r>
       <r>    0.3351    0.0000 </r>
       <r>    1.6849    0.0000 </r>
       <r>    2.2445    0.0000 </r>
       <r>    2.4434    0.0000 </r>
      </set>
      <set comment="kpoint 15">
       <r>  -16.9809    1.0000 </r>
       <r>  -14.4483    1.0000 </r>
       <r>  -11.3572    1.0000 </r>
       <r>   -7.8731    1.0000 </r>
       <r>   -6.9938    1.0000 </r>
       <r>   -6.9569    1.0000 </r>
       <r>   -6.2014    1.0000 </r>
       <r>   -5.0904    1.0000 </r>
       <r>   -3.9421    1.0000 </r>
       <r>   -2.3559    1.0000 </r>
       <r>   -1.0190    0.0000 </r>
       <r>   -0.2957    0.0000 </r>
       <r>    1.2299    0.0000 </r>
       <r>    1.7667    0.0000 </r>
       <r>    2.2646    0.0000 </r>
       <r>    2.4989    0.0000 </r>
      </set>
      <set comment="kpoint 16">
       <r>  -16.7977    1.0000 </r>
       <r>  -14.2485    1.0000 </r>
[...]
       <r>    2.6114    0.0000 </r>
       <r>    3.9281    0.0000 </r>
      </set>
      <set comment="kpoint 153">
       <r>  -15.3042    1.0000 </r>
       <r>  -15.0435    1.0000 </r>
       <r>  -10.9847    1.0000 </r>
       <r>  -10.4649    1.0000 </r>
       <r>   -7.8477    1.0000 </r>
       <r>   -7.7535    1.0000 </r>
       <r>   -5.4273    1.0000 </r>
       <r>   -4.7639    1.0000 </r>
       <r>   -3.5925    1.0000 </r>
       <r>   -3.5480    1.0000 </r>
       <r>    0.3491    0.0000 </r>
       <r>    0.7797    0.0000 </r>
       <r>    0.9572    0.0000 </r>
       <r>    1.7532    0.0000 </r>
       <r>    2.8404    0.0000 </r>
       <r>    3.7058    0.0000 </r>
      </set>
      <set comment="kpoint 154">
       <r>  -15.5216    1.0000 </r>
       <r>  -15.3618    1.0000 </r>
       <r>  -10.7854    1.0000 </r>
       <r>  -10.3904    1.0000 </r>
       <r>   -7.6328    1.0000 </r>
       <r>   -7.2793    1.0000 </r>
       <r>   -5.1668    1.0000 </r>
       <r>   -4.7963    1.0000 </r>
       <r>   -3.6292    1.0000 </r>
       <r>   -3.2733    1.0000 </r>
       <r>    0.3540    0.0000 </r>
       <r>    0.8437    0.0000 </r>
       <r>    1.0759    0.0000 </r>
       <r>    1.7406    0.0000 </r>
       <r>    2.8955    0.0000 </r>
       <r>    3.4610    0.0000 </r>
      </set>
      <set comment="kpoint 155">
       <r>  -15.7009    1.0000 </r>
       <r>  -15.6339    1.0000 </r>
       <r>  -10.7103    1.0000 </r>
       <r>  -10.4058    1.0000 </r>
       <r>   -7.2008    1.0000 </r>
       <r>   -6.6477    1.0000 </r>
       <r>   -5.0760    1.0000 </r>
       <r>   -4.8683    1.0000 </r>
       <r>   -3.5218    1.0000 </r>
       <r>   -3.0739    1.0000 </r>
       <r>    0.3821    0.0000 </r>
       <r>    0.9073    0.0000 </r>
       <r>    1.2321    0.0000 </r>
       <r>    1.6238    0.0000 </r>
       <r>    2.4562    0.0000 </r>
       <r>    2.8933    0.0000 </r>
      </set>
      <set comment="kpoint 156">
       <r>  -15.8564    1.0000 </r>
       <r>  -15.8357    1.0000 </r>
       <r>  -10.7168    1.0000 </r>
       <r>  -10.4508    1.0000 </r>
       <r>   -6.6138    1.0000 </r>
       <r>   -5.9551    1.0000 </r>
       <r>   -5.0927    1.0000 </r>
       <r>   -4.9351    1.0000 </r>
       <r>   -3.3518    1.0000 </r>
       <r>   -3.0088    1.0000 </r>
       <r>    0.3498    0.0000 </r>
       <r>    1.0193    0.0000 </r>
       <r>    1.3326    0.0000 </r>
       <r>    1.3605    0.0000 </r>
       <r>    2.0424    0.0000 </r>
       <r>    2.0892    0.0000 </r>
      </set>
      <set comment="kpoint 157">
       <r>  -16.0278    1.0000 </r>
       <r>  -15.9224    1.0000 </r>
       <r>  -10.7560    1.0000 </r>
       <r>  -10.4912    1.0000 </r>
       <r>   -5.9527    1.0000 </r>
       <r>   -5.3861    1.0000 </r>
       <r>   -5.0511    1.0000 </r>
       <r>   -4.9784    1.0000 </r>
       <r>   -3.2216    1.0000 </r>
       <r>   -3.0838    1.0000 </r>
       <r>    0.0777    0.0000 </r>
       <r>    0.8331    0.0000 </r>
       <r>    1.2090    0.0000 </r>
       <r>    1.4257    0.0000 </r>
       <r>    1.5704    0.0000 </r>
       <r>    1.8960    0.0000 </r>
      </set>
      <set comment="kpoint 158">
       <r>  -16.1469    1.0000 </r>
       <r>  -15.9587    1.0000 </r>
       <r>  -10.7952    1.0000 </r>
       <r>  -10.5106    1.0000 </r>
       <r>   -5.3163    1.0000 </r>
       <r>   -5.3127    1.0000 </r>
       <r>   -4.9876    1.0000 </r>
       <r>   -4.7070    1.0000 </r>
       <r>   -3.2837    1.0000 </r>
       <r>   -3.1487    1.0000 </r>
       <r>   -0.2158    0.0000 </r>
       <r>    0.2769    0.0000 </r>
       <r>    1.2407    0.0000 </r>
       <r>    1.2714    0.0000 </r>
       <r>    1.7765    0.0000 </r>
       <r>    1.8408    0.0000 </r>
      </set>
     </set>
    </set>
   </array>
  </eigenvalues>
  <separator name="orbital magnetization" >
   <v name="MAGDIPOLOUT">      0.00000000      0.00000000      0.00000000</v>
  </separator>
  <dos>
   <i name="efermi">     -2.06183302 </i>
   <total>
    <array>
     <dimension dim="1">gridpoints</dimension>
     <dimension dim="2">spin</dimension>
     <field>energy</field>
     <field>total</field>
     <field>integrated</field>
     <set>
      <set comment="spin 1">
       <r>   -18.2918     0.0000     0.0000 </r>
       <r>   -18.2139     0.0000     0.0000 </r>
       <r>   -18.1359     0.0000     0.0000 </r>
       <r>   -18.0579     0.0000     0.0000 </r>
       <r>   -17.9799     0.0000     0.0000 </r>
       <r>   -17.9019     0.0000     0.0000 </r>
       <r>   -17.8240     0.0000     0.0000 </r>
       <r>   -17.7460     0.0000     0.0000 </r>
       <r>   -17.6680     0.0000     0.0000 </r>
       <r>   -17.5900     0.0000     0.0000 </r>
       <r>   -17.5120     0.0000     0.0000 </r>
       <r>   -17.4340     0.0000     0.0000 </r>
       <r>   -17.3561     0.0000     0.0000 </r>
       <r>   -17.2781     0.0000     0.0000 </r>
       <r>   -17.2001     0.3016     0.0235 </r>
       <r>   -17.1221     0.7799     0.0843 </r>
       <r>   -17.0441     0.7966     0.1465 </r>
       <r>   -16.9662     0.9678     0.2219 </r>
       <r>   -16.8882     0.6080     0.2693 </r>
       <r>   -16.8102     1.0113     0.3482 </r>
       <r>   -16.7322     0.6970     0.4026 </r>
       <r>   -16.6542     1.0355     0.4833 </r>
       <r>   -16.5762     0.4497     0.5184 </r>
       <r>   -16.4983     1.2640     0.6169 </r>
       <r>   -16.4203     0.7861     0.6782 </r>
       <r>   -16.3423     0.8356     0.7434 </r>
       <r>   -16.2643     0.6983     0.7979 </r>
       <r>   -16.1863     1.2454     0.8950 </r>
       <r>   -16.1084     0.8110     0.9582 </r>
       <r>   -16.0304     0.7291     1.0151 </r>
       <r>   -15.9524     0.6205     1.0635 </r>
       <r>   -15.8744     1.4709     1.1782 </r>
       <r>   -15.7964     0.8085     1.2412 </r>
       <r>   -15.7184     0.9023     1.3116 </r>
       <r>   -15.6405     0.8170     1.3753 </r>
       <r>   -15.5625     1.0347     1.4560 </r>
       <r>   -15.4845     1.2675     1.5548 </r>
       <r>   -15.4065     0.8001     1.6172 </r>
       <r>   -15.3285     1.1139     1.7041 </r>
       <r>   -15.2505     1.1037     1.7902 </r>
       <r>   -15.1726     0.5989     1.8369 </r>
       <r>   -15.0946     1.5475     1.9576 </r>
       <r>   -15.0166     1.3413     2.0621 </r>
       <r>   -14.9386     1.3327     2.1661 </r>
       <r>   -14.8606     0.9061     2.2367 </r>
       <r>   -14.7827     1.5051     2.3541 </r>
       <r>   -14.7047     1.7241     2.4885 </r>
       <r>   -14.6267     1.8881     2.6358 </r>
       <r>   -14.5487     1.7680     2.7737 </r>
       <r>   -14.4707     1.3727     2.8807 </r>
       <r>   -14.3927     1.5365     3.0005 </r>
       <r>   -14.3148     1.0272     3.0806 </r>
       <r>   -14.2368     1.4458     3.1934 </r>
       <r>   -14.1588     0.8730     3.2615 </r>
       <r>   -14.0808     0.7927     3.3233 </r>
       <r>   -14.0028     1.0919     3.4084 </r>
       <r>   -13.9249     0.6952     3.4626 </r>
       <r>   -13.8469     1.0156     3.5418 </r>
       <r>   -13.7689     0.3731     3.5709 </r>
       <r>   -13.6909     1.2103     3.6653 </r>
       <r>   -13.6129     0.5733     3.7100 </r>
       <r>   -13.5349     0.5784     3.7551 </r>
       <r>   -13.4570     0.9212     3.8270 </r>
       <r>   -13.3790     0.7494     3.8854 </r>
       <r>   -13.3010     0.7298     3.9423 </r>
       <r>   -13.2230     0.2102     3.9587 </r>
       <r>   -13.1450     0.1966     3.9740 </r>
       <r>   -13.0671     0.1569     3.9863 </r>
       <r>   -12.9891     0.0351     3.9890 </r>
       <r>   -12.9111     0.1759     4.0027 </r>
       <r>   -12.8331     0.1633     4.0155 </r>
       <r>   -12.7551     0.1275     4.0254 </r>
       <r>   -12.6771     0.1937     4.0405 </r>
       <r>   -12.5992     0.1327     4.0508 </r>
       <r>   -12.5212     0.3670     4.0795 </r>
       <r>   -12.4432     0.4900     4.1177 </r>
       <r>   -12.3652     1.2689     4.2166 </r>
       <r>   -12.2872     0.3998     4.2478 </r>
       <r>   -12.2092     0.6516     4.2986 </r>
       <r>   -12.1313     0.8124     4.3620 </r>
       <r>   -12.0533     1.2871     4.4623 </r>
       <r>   -11.9753     1.4224     4.5733 </r>
       <r>   -11.8973     1.4718     4.6880 </r>
       <r>   -11.8193     1.1119     4.7747 </r>
       <r>   -11.7414     0.9605     4.8496 </r>
       <r>   -11.6634     0.8731     4.9177 </r>
       <r>   -11.5854     1.2228     5.0131 </r>
       <r>   -11.5074     1.3519     5.1185 </r>
       <r>   -11.4294     1.8962     5.2664 </r>
       <r>   -11.3514     2.7608     5.4817 </r>
       <r>   -11.2735     3.4086     5.7475 </r>
       <r>   -11.1955     1.9670     5.9009 </r>
       <r>   -11.1175     0.6107     5.9485 </r>
       <r>   -11.0395     1.3509     6.0539 </r>
       <r>   -10.9615     1.4745     6.1688 </r>
       <r>   -10.8836     0.8002     6.2312 </r>
       <r>   -10.8056     0.8470     6.2973 </r>
       <r>   -10.7276     1.5118     6.4152 </r>
       <r>   -10.6496     1.1591     6.5056 </r>
       <r>   -10.5716     0.1920     6.5205 </r>
       <r>   -10.4936     0.4760     6.5577 </r>
       <r>   -10.4157     1.3222     6.6608 </r>
       <r>   -10.3377     0.9268     6.7330 </r>
       <r>   -10.2597     0.3625     6.7613 </r>
       <r>   -10.1817     0.3319     6.7872 </r>
       <r>   -10.1037     1.4483     6.9001 </r>
       <r>   -10.0258     0.7831     6.9612 </r>
       <r>    -9.9478     0.5288     7.0024 </r>
       <r>    -9.8698     0.3456     7.0294 </r>
       <r>    -9.7918     0.1527     7.0413 </r>
       <r>    -9.7138     0.8516     7.1077 </r>
       <r>    -9.6358     0.9403     7.1810 </r>
       <r>    -9.5579     0.5273     7.2221 </r>
       <r>    -9.4799     0.6937     7.2762 </r>
       <r>    -9.4019     0.0815     7.2826 </r>
       <r>    -9.3239     0.3762     7.3119 </r>
       <r>    -9.2459     0.9918     7.3893 </r>
       <r>    -9.1679     0.3015     7.4128 </r>
       <r>    -9.0900     0.5610     7.4565 </r>
       <r>    -9.0120     0.0735     7.4623 </r>
       <r>    -8.9340     0.3498     7.4895 </r>
       <r>    -8.8560     0.6446     7.5398 </r>
       <r>    -8.7780     0.8101     7.6030 </r>
       <r>    -8.7001     0.3111     7.6272 </r>
       <r>    -8.6221     0.3043     7.6510 </r>
       <r>    -8.5441     0.3231     7.6762 </r>
       <r>    -8.4661     0.0007     7.6762 </r>
       <r>    -8.3881     0.6680     7.7283 </r>
       <r>    -8.3101     0.3921     7.7589 </r>
       <r>    -8.2322     0.6682     7.8110 </r>
       <r>    -8.1542     0.5456     7.8535 </r>
       <r>    -8.0762     1.3898     7.9619 </r>
       <r>    -7.9982     1.9116     8.1110 </r>
       <r>    -7.9202     2.1087     8.2754 </r>
       <r>    -7.8423     1.6928     8.4074 </r>
       <r>    -7.7643     2.5317     8.6049 </r>
       <r>    -7.6863     1.6847     8.7363 </r>
       <r>    -7.6083     2.5032     8.9315 </r>
       <r>    -7.5303     1.7526     9.0681 </r>
       <r>    -7.4523     1.9789     9.2225 </r>
       <r>    -7.3744     2.9030     9.4488 </r>
       <r>    -7.2964     2.2403     9.6235 </r>
       <r>    -7.2184     2.3207     9.8045 </r>
       <r>    -7.1404     3.0065    10.0390 </r>
       <r>    -7.0624     2.4894    10.2331 </r>
       <r>    -6.9845     2.3880    10.4193 </r>
       <r>    -6.9065     2.4828    10.6129 </r>
       <r>    -6.8285     2.4412    10.8033 </r>
       <r>    -6.7505     2.1524    10.9712 </r>
       <r>    -6.6725     1.5353    11.0909 </r>
       <r>    -6.5945     1.8046    11.2316 </r>
       <r>    -6.5166     1.4817    11.3472 </r>
       <r>    -6.4386     0.9097    11.4181 </r>
       <r>    -6.3606     1.1790    11.5100 </r>
       <r>    -6.2826     1.2603    11.6083 </r>
       <r>    -6.2046     1.6783    11.7392 </r>
       <r>    -6.1266     2.2190    11.9122 </r>
       <r>    -6.0487     1.0485    11.9940 </r>
       <r>    -5.9707     1.4856    12.1099 </r>
       <r>    -5.8927     2.6806    12.3189 </r>
       <r>    -5.8147     1.5257    12.4379 </r>
       <r>    -5.7367     1.8798    12.5845 </r>
       <r>    -5.6588     2.5118    12.7803 </r>
       <r>    -5.5808     3.0549    13.0186 </r>
       <r>    -5.5028     2.0618    13.1793 </r>
       <r>    -5.4248     3.3227    13.4385 </r>
       <r>    -5.3468     3.2551    13.6923 </r>
       <r>    -5.2688     4.0581    14.0088 </r>
       <r>    -5.1909     2.8784    14.2332 </r>
       <r>    -5.1129     2.1178    14.3984 </r>
       <r>    -5.0349     2.8097    14.6175 </r>
       <r>    -4.9569     2.6865    14.8270 </r>
       <r>    -4.8789     1.3035    14.9286 </r>
       <r>    -4.8010     2.1880    15.0992 </r>
       <r>    -4.7230     1.8034    15.2399 </r>
       <r>    -4.6450     1.4944    15.3564 </r>
       <r>    -4.5670     1.9787    15.5107 </r>
       <r>    -4.4890     1.6898    15.6425 </r>
       <r>    -4.4110     1.0665    15.7256 </r>
       <r>    -4.3331     1.2582    15.8238 </r>
       <r>    -4.2551     2.0830    15.9862 </r>
       <r>    -4.1771     2.5093    16.1819 </r>
       <r>    -4.0991     2.8958    16.4077 </r>
       <r>    -4.0211     2.0993    16.5714 </r>
       <r>    -3.9432     2.1459    16.7388 </r>
       <r>    -3.8652     2.5391    16.9368 </r>
       <r>    -3.7872     2.8377    17.1581 </r>
       <r>    -3.7092     3.1355    17.4026 </r>
       <r>    -3.6312     3.0838    17.6431 </r>
       <r>    -3.5532     3.0665    17.8822 </r>
       <r>    -3.4753     2.5789    18.0833 </r>
       <r>    -3.3973     2.8216    18.3033 </r>
       <r>    -3.3193     3.0400    18.5404 </r>
       <r>    -3.2413     1.9487    18.6924 </r>
       <r>    -3.1633     2.0879    18.8552 </r>
       <r>    -3.0853     2.2254    19.0287 </r>
       <r>    -3.0074     2.0981    19.1923 </r>
       <r>    -2.9294     1.6482    19.3209 </r>
       <r>    -2.8514     1.4522    19.4341 </r>
       <r>    -2.7734     1.7742    19.5725 </r>
       <r>    -2.6954     1.4710    19.6872 </r>
       <r>    -2.6175     0.8454    19.7531 </r>
       <r>    -2.5395     1.0034    19.8313 </r>
       <r>    -2.4615     0.3490    19.8586 </r>
       <r>    -2.3835     0.5958    19.9050 </r>
       <r>    -2.3055     0.6292    19.9541 </r>
       <r>    -2.2275     0.1825    19.9683 </r>
       <r>    -2.1496     0.3524    19.9958 </r>
       <r>    -2.0716     0.0538    20.0000 </r>
       <r>    -1.9936     0.0000    20.0000 </r>
       <r>    -1.9156     0.0000    20.0000 </r>
       <r>    -1.8376     0.0000    20.0000 </r>
       <r>    -1.7597     0.0000    20.0000 </r>
       <r>    -1.6817     0.0000    20.0000 </r>
       <r>    -1.6037     0.0000    20.0000 </r>
       <r>    -1.5257     0.0000    20.0000 </r>
       <r>    -1.4477     0.0227    20.0018 </r>
       <r>    -1.3697     0.4134    20.0340 </r>
       <r>    -1.2918     0.8734    20.1021 </r>
       <r>    -1.2138     0.4290    20.1356 </r>
       <r>    -1.1358     1.5774    20.2586 </r>
       <r>    -1.0578     1.2254    20.3541 </r>
       <r>    -0.9798     1.8613    20.4993 </r>
       <r>    -0.9018     1.3115    20.6016 </r>
       <r>    -0.8239     1.1523    20.6914 </r>
       <r>    -0.7459     2.0887    20.8543 </r>
       <r>    -0.6679     1.8738    21.0004 </r>
       <r>    -0.5899     1.6247    21.1271 </r>
       <r>    -0.5119     1.7175    21.2611 </r>
       <r>    -0.4340     2.1988    21.4325 </r>
       <r>    -0.3560     1.6665    21.5625 </r>
       <r>    -0.2780     3.4451    21.8311 </r>
       <r>    -0.2000     3.1974    22.0805 </r>
       <r>    -0.1220     3.9151    22.3858 </r>
       <r>    -0.0440     2.3065    22.5657 </r>
       <r>     0.0339     5.1017    22.9635 </r>
       <r>     0.1119     4.2957    23.2985 </r>
       <r>     0.1899     2.4499    23.4895 </r>
       <r>     0.2679     3.0772    23.7295 </r>
       <r>     0.3459     2.9488    23.9595 </r>
       <r>     0.4238     4.3100    24.2956 </r>
       <r>     0.5018     2.1898    24.4663 </r>
       <r>     0.5798     2.5907    24.6683 </r>
       <r>     0.6578     3.1797    24.9163 </r>
       <r>     0.7358     1.4962    25.0330 </r>
       <r>     0.8138     2.0607    25.1937 </r>
       <r>     0.8917     2.3435    25.3764 </r>
       <r>     0.9697     2.5147    25.5725 </r>
       <r>     1.0477     1.7430    25.7085 </r>
       <r>     1.1257     2.2425    25.8833 </r>
       <r>     1.2037     2.6867    26.0928 </r>
       <r>     1.2816     3.7579    26.3859 </r>
       <r>     1.3596     3.4165    26.6523 </r>
       <r>     1.4376     4.3538    26.9918 </r>
       <r>     1.5156     3.1894    27.2405 </r>
       <r>     1.5936     1.7862    27.3798 </r>
       <r>     1.6716     2.3729    27.5649 </r>
       <r>     1.7495     2.7385    27.7784 </r>
       <r>     1.8275     3.7005    28.0670 </r>
       <r>     1.9055     2.0753    28.2289 </r>
       <r>     1.9835     1.9594    28.3816 </r>
       <r>     2.0615     1.9421    28.5331 </r>
       <r>     2.1395     2.2069    28.7052 </r>
       <r>     2.2174     1.9284    28.8556 </r>
       <r>     2.2954     4.3396    29.1940 </r>
       <r>     2.3734     3.7691    29.4879 </r>
       <r>     2.4514     2.9461    29.7176 </r>
       <r>     2.5294     2.3258    29.8990 </r>
       <r>     2.6073     2.9238    30.1270 </r>
       <r>     2.6853     3.1857    30.3754 </r>
       <r>     2.7633     2.4472    30.5663 </r>
       <r>     2.8413     2.4902    30.7605 </r>
       <r>     2.9193     2.0619    30.9213 </r>
       <r>     2.9973     2.0493    31.0811 </r>
       <r>     3.0752     3.1117    31.3237 </r>
       <r>     3.1532     1.8879    31.4709 </r>
       <r>     3.2312     1.5463    31.5915 </r>
       <r>     3.3092     0.8802    31.6602 </r>
       <r>     3.3872     0.7697    31.7202 </r>
       <r>     3.4651     0.4877    31.7582 </r>
       <r>     3.5431     0.4933    31.7967 </r>
       <r>     3.6211     0.4189    31.8294 </r>
       <r>     3.6991     0.2859    31.8517 </r>
       <r>     3.7771     0.4542    31.8871 </r>
       <r>     3.8551     0.7773    31.9477 </r>
       <r>     3.9330     0.1608    31.9602 </r>
       <r>     4.0110     0.3507    31.9876 </r>
       <r>     4.0890     0.1592    32.0000 </r>
       <r>     4.1670     0.0000    32.0000 </r>
       <r>     4.2450     0.0000    32.0000 </r>
       <r>     4.3229     0.0000    32.0000 </r>
       <r>     4.4009     0.0000    32.0000 </r>
       <r>     4.4789     0.0000    32.0000 </r>
       <r>     4.5569     0.0000    32.0000 </r>
       <r>     4.6349     0.0000    32.0000 </r>
       <r>     4.7129     0.0000    32.0000 </r>
       <r>     4.7908     0.0000    32.0000 </r>
       <r>     4.8688     0.0000    32.0000 </r>
       <r>     4.9468     0.0000    32.0000 </r>
       <r>     5.0248     0.0000    32.0000 </r>
       <r>     5.1028     0.0000    32.0000 </r>
      </set>
     </set>
    </array>
   </total>
  </dos>
 </calculation>
 <structure name="finalpos" >
  <crystal>
   <varray name="basis" >
    <v>       3.28907600       0.23137500       0.00000000 </v>
    <v>       0.32443400       4.61195400      -0.00005300 </v>
    <v>       0.00000000       0.00000000      20.02439000 </v>
   </varray>
   <i name="volume">    302.24816865 </i>
   <varray name="rec_basis" >
    <v>       0.30554880      -0.02149423       0.00000000 </v>
    <v>      -0.01532894       0.21790617       0.00000000 </v>
    <v>      -0.00000004       0.00000058       0.04993910 </v>
   </varray>
  </crystal>
  <varray name="positions" >
   <v>       0.47276740       0.91268841       0.55226682 </v>
   <v>       0.52723260       0.08731159       0.44773318 </v>
   <v>      -0.02723189       0.41268341       0.44773319 </v>
   <v>       0.02723189       0.58731659       0.55226681 </v>
  </varray>
 </structure>
</modeling>
