<?xml version="1.0" encoding="ISO-8859-1"?>
<modeling>
 <generator>
  <i name="program" type="string">vasp </i>
  <i name="version" type="string">5.4.1  </i>
  <i name="subversion" type="string">24Jun15 (build Nov 20 2020 10:29:34) complex                          parallel </i>
  <i name="platform" type="string">IFC91_ompi </i>
  <i name="date" type="string">2021 09 09 </i>
  <i name="time" type="string">15:18:22 </i>
 </generator>
 <incar>
  <i type="string" name="PREC">a</i>
  <i type="string" name="ALGO"> Normal</i>
  <i type="int" name="ISPIN">     1</i>
  <i type="int" name="ICHARG">     2</i>
  <i type="int" name="NELM">   250</i>
  <i type="int" name="NELMDL">    -5</i>
  <i type="int" name="NELMIN">     6</i>
  <i type="int" name="IBRION">     2</i>
  <i name="EDIFF">      0.00001000</i>
  <i name="EDIFFG">     -0.01000000</i>
  <i type="int" name="NSW">   200</i>
  <i type="int" name="ISIF">     2</i>
  <i name="ENCUT">    520.00000000</i>
  <i name="POTIM">      0.30000000</i>
  <i type="logical" name="LREAL"> F  </i>
  <i type="int" name="ISMEAR">     0</i>
  <i name="SIGMA">      0.02000000</i>
  <i type="logical" name="LWAVE"> F  </i>
  <i type="logical" name="LCHARG"> F  </i>
  <i type="logical" name="LAECHG"> F  </i>
  <v type="int" name="KPOINT_BSE">    -1     0     0     0</v>
  <i type="int" name="NELM">   250</i>
 </incar>
 <kpoints>
  <generation param="Gamma">
   <v type="int" name="divisions">      21       15        1 </v>
   <v name="usershift">      0.00000000       0.00000000       0.00000000 </v>
   <v name="genvec1">      0.04761905       0.00000000       0.00000000 </v>
   <v name="genvec2">      0.00000000       0.06666667       0.00000000 </v>
   <v name="genvec3">      0.00000000      -0.00000000       1.00000000 </v>
   <v name="shift">      0.00000000       0.00000000       0.00000000 </v>
  </generation>
  <varray name="kpointlist" >
   <v>       0.00000000       0.00000000       0.00000000 </v>
   <v>       0.04761905       0.00000000       0.00000000 </v>
   <v>       0.09523810       0.00000000       0.00000000 </v>
   <v>       0.14285714       0.00000000       0.00000000 </v>
   <v>       0.19047619       0.00000000       0.00000000 </v>
   <v>       0.23809524       0.00000000       0.00000000 </v>
   <v>       0.28571429       0.00000000       0.00000000 </v>
   <v>       0.33333333       0.00000000       0.00000000 </v>
   <v>       0.38095238       0.00000000       0.00000000 </v>
   <v>       0.42857143       0.00000000       0.00000000 </v>
   <v>       0.47619048       0.00000000       0.00000000 </v>
   <v>       0.00000000       0.06666667       0.00000000 </v>
   <v>       0.04761905       0.06666667       0.00000000 </v>
   <v>       0.09523810       0.06666667       0.00000000 </v>
   <v>       0.14285714       0.06666667       0.00000000 </v>
   <v>       0.19047619       0.06666667       0.00000000 </v>
   <v>       0.23809524       0.06666667       0.00000000 </v>
   <v>       0.28571429       0.06666667       0.00000000 </v>
   <v>       0.33333333       0.06666667       0.00000000 </v>
   <v>       0.38095238       0.06666667       0.00000000 </v>
   <v>       0.42857143       0.06666667       0.00000000 </v>
   <v>       0.47619048       0.06666667       0.00000000 </v>
   <v>      -0.47619048       0.06666667       0.00000000 </v>
   <v>      -0.42857143       0.06666667       0.00000000 </v>
   <v>      -0.38095238       0.06666667       0.00000000 </v>
   <v>      -0.33333333       0.06666667       0.00000000 </v>
   <v>      -0.28571429       0.06666667       0.00000000 </v>
   <v>      -0.23809524       0.06666667       0.00000000 </v>
   <v>      -0.19047619       0.06666667       0.00000000 </v>
   <v>      -0.14285714       0.06666667       0.00000000 </v>
   <v>      -0.09523810       0.06666667       0.00000000 </v>
   <v>      -0.04761905       0.06666667       0.00000000 </v>
   <v>       0.00000000       0.13333333       0.00000000 </v>
   <v>       0.04761905       0.13333333       0.00000000 </v>
   <v>       0.09523810       0.13333333       0.00000000 </v>
   <v>       0.14285714       0.13333333       0.00000000 </v>
   <v>       0.19047619       0.13333333       0.00000000 </v>
   <v>       0.23809524       0.13333333       0.00000000 </v>
   <v>       0.28571429       0.13333333       0.00000000 </v>
   <v>       0.33333333       0.13333333       0.00000000 </v>
   <v>       0.38095238       0.13333333       0.00000000 </v>
   <v>       0.42857143       0.13333333       0.00000000 </v>
   <v>       0.47619048       0.13333333       0.00000000 </v>
   <v>      -0.47619048       0.13333333       0.00000000 </v>
   <v>      -0.42857143       0.13333333       0.00000000 </v>
   <v>      -0.38095238       0.13333333       0.00000000 </v>
   <v>      -0.33333333       0.13333333       0.00000000 </v>
   <v>      -0.28571429       0.13333333       0.00000000 </v>
   <v>      -0.23809524       0.13333333       0.00000000 </v>
   <v>      -0.19047619       0.13333333       0.00000000 </v>
   <v>      -0.14285714       0.13333333       0.00000000 </v>
   <v>      -0.09523810       0.13333333       0.00000000 </v>
   <v>      -0.04761905       0.13333333       0.00000000 </v>
   <v>       0.00000000       0.20000000       0.00000000 </v>
   <v>       0.04761905       0.20000000       0.00000000 </v>
   <v>       0.09523810       0.20000000       0.00000000 </v>
   <v>       0.14285714       0.20000000       0.00000000 </v>
   <v>       0.19047619       0.20000000       0.00000000 </v>
   <v>       0.23809524       0.20000000       0.00000000 </v>
   <v>       0.28571429       0.20000000       0.00000000 </v>
   <v>       0.33333333       0.20000000       0.00000000 </v>
   <v>       0.38095238       0.20000000       0.00000000 </v>
   <v>       0.42857143       0.20000000       0.00000000 </v>
   <v>       0.47619048       0.20000000       0.00000000 </v>
   <v>      -0.47619048       0.20000000       0.00000000 </v>
   <v>      -0.42857143       0.20000000       0.00000000 </v>
   <v>      -0.38095238       0.20000000       0.00000000 </v>
   <v>      -0.33333333       0.20000000       0.00000000 </v>
   <v>      -0.28571429       0.20000000       0.00000000 </v>
   <v>      -0.23809524       0.20000000       0.00000000 </v>
   <v>      -0.19047619       0.20000000       0.00000000 </v>
   <v>      -0.14285714       0.20000000       0.00000000 </v>
   <v>      -0.09523810       0.20000000       0.00000000 </v>
   <v>      -0.04761905       0.20000000       0.00000000 </v>
   <v>       0.00000000       0.26666667       0.00000000 </v>
   <v>       0.04761905       0.26666667       0.00000000 </v>
   <v>       0.09523810       0.26666667       0.00000000 </v>
   <v>       0.14285714       0.26666667       0.00000000 </v>
   <v>       0.19047619       0.26666667       0.00000000 </v>
   <v>       0.23809524       0.26666667       0.00000000 </v>
   <v>       0.28571429       0.26666667       0.00000000 </v>
   <v>       0.33333333       0.26666667       0.00000000 </v>
   <v>       0.38095238       0.26666667       0.00000000 </v>
   <v>       0.42857143       0.26666667       0.00000000 </v>
   <v>       0.47619048       0.26666667       0.00000000 </v>
   <v>      -0.47619048       0.26666667       0.00000000 </v>
   <v>      -0.42857143       0.26666667       0.00000000 </v>
   <v>      -0.38095238       0.26666667       0.00000000 </v>
   <v>      -0.33333333       0.26666667       0.00000000 </v>
   <v>      -0.28571429       0.26666667       0.00000000 </v>
   <v>      -0.23809524       0.26666667       0.00000000 </v>
   <v>      -0.19047619       0.26666667       0.00000000 </v>
   <v>      -0.14285714       0.26666667       0.00000000 </v>
   <v>      -0.09523810       0.26666667       0.00000000 </v>
   <v>      -0.04761905       0.26666667       0.00000000 </v>
   <v>       0.00000000       0.33333333       0.00000000 </v>
   <v>       0.04761905       0.33333333       0.00000000 </v>
   <v>       0.09523810       0.33333333       0.00000000 </v>
   <v>       0.14285714       0.33333333       0.00000000 </v>
   <v>       0.19047619       0.33333333       0.00000000 </v>
   <v>       0.23809524       0.33333333       0.00000000 </v>
   <v>       0.28571429       0.33333333       0.00000000 </v>
   <v>       0.33333333       0.33333333       0.00000000 </v>
   <v>       0.38095238       0.33333333       0.00000000 </v>
   <v>       0.42857143       0.33333333       0.00000000 </v>
   <v>       0.47619048       0.33333333       0.00000000 </v>
   <v>      -0.47619048       0.33333333       0.00000000 </v>
   <v>      -0.42857143       0.33333333       0.00000000 </v>
   <v>      -0.38095238       0.33333333       0.00000000 </v>
   <v>      -0.33333333       0.33333333       0.00000000 </v>
   <v>      -0.28571429       0.33333333       0.00000000 </v>
   <v>      -0.23809524       0.33333333       0.00000000 </v>
   <v>      -0.19047619       0.33333333       0.00000000 </v>
   <v>      -0.14285714       0.33333333       0.00000000 </v>
   <v>      -0.09523810       0.33333333       0.00000000 </v>
   <v>      -0.04761905       0.33333333       0.00000000 </v>
   <v>       0.00000000       0.40000000       0.00000000 </v>
   <v>       0.04761905       0.40000000       0.00000000 </v>
   <v>       0.09523810       0.40000000       0.00000000 </v>
   <v>       0.14285714       0.40000000       0.00000000 </v>
   <v>       0.19047619       0.40000000       0.00000000 </v>
   <v>       0.23809524       0.40000000       0.00000000 </v>
   <v>       0.28571429       0.40000000       0.00000000 </v>
   <v>       0.33333333       0.40000000       0.00000000 </v>
   <v>       0.38095238       0.40000000       0.00000000 </v>
   <v>       0.42857143       0.40000000       0.00000000 </v>
   <v>       0.47619048       0.40000000       0.00000000 </v>
   <v>      -0.47619048       0.40000000       0.00000000 </v>
   <v>      -0.42857143       0.40000000       0.00000000 </v>
   <v>      -0.38095238       0.40000000       0.00000000 </v>
   <v>      -0.33333333       0.40000000       0.00000000 </v>
   <v>      -0.28571429       0.40000000       0.00000000 </v>
   <v>      -0.23809524       0.40000000       0.00000000 </v>
   <v>      -0.19047619       0.40000000       0.00000000 </v>
   <v>      -0.14285714       0.40000000       0.00000000 </v>
   <v>      -0.09523810       0.40000000       0.00000000 </v>
   <v>      -0.04761905       0.40000000       0.00000000 </v>
   <v>       0.00000000       0.46666667       0.00000000 </v>
   <v>       0.04761905       0.46666667       0.00000000 </v>
   <v>       0.09523810       0.46666667       0.00000000 </v>
   <v>       0.14285714       0.46666667       0.00000000 </v>
   <v>       0.19047619       0.46666667       0.00000000 </v>
   <v>       0.23809524       0.46666667       0.00000000 </v>
   <v>       0.28571429       0.46666667       0.00000000 </v>
   <v>       0.33333333       0.46666667       0.00000000 </v>
   <v>       0.38095238       0.46666667       0.00000000 </v>
   <v>       0.42857143       0.46666667       0.00000000 </v>
   <v>       0.47619048       0.46666667       0.00000000 </v>
   <v>      -0.47619048       0.46666667       0.00000000 </v>
   <v>      -0.42857143       0.46666667       0.00000000 </v>
   <v>      -0.38095238       0.46666667       0.00000000 </v>
   <v>      -0.33333333       0.46666667       0.00000000 </v>
   <v>      -0.28571429       0.46666667       0.00000000 </v>
   <v>      -0.23809524       0.46666667       0.00000000 </v>
   <v>      -0.19047619       0.46666667       0.00000000 </v>
   <v>      -0.14285714       0.46666667       0.00000000 </v>
   <v>      -0.09523810       0.46666667       0.00000000 </v>
   <v>      -0.04761905       0.46666667       0.00000000 </v>
  </varray>
  <varray name="weights" >
   <v>       0.00317460 </v>
   <v>       0.00634921 </v>
   <v>       0.00634921 </v>
   <v>       0.00634921 </v>
   <v>       0.00634921 </v>
   <v>       0.00634921 </v>
   <v>       0.00634921 </v>
   <v>       0.00634921 </v>
   <v>       0.00634921 </v>
   <v>       0.00634921 </v>
   <v>       0.00634921 </v>
   <v>       0.00634921 </v>
   <v>       0.00634921 </v>
   <v>       0.00634921 </v>
   <v>       0.00634921 </v>
   <v>       0.00634921 </v>
   <v>       0.00634921 </v>
   <v>       0.00634921 </v>
   <v>       0.00634921 </v>
   <v>       0.00634921 </v>
   <v>       0.00634921 </v>
   <v>       0.00634921 </v>
   <v>       0.00634921 </v>
   <v>       0.00634921 </v>
   <v>       0.00634921 </v>
   <v>       0.00634921 </v>
   <v>       0.00634921 </v>
   <v>       0.00634921 </v>
   <v>       0.00634921 </v>
   <v>       0.00634921 </v>
   <v>       0.00634921 </v>
   <v>       0.00634921 </v>
   <v>       0.00634921 </v>
   <v>       0.00634921 </v>
   <v>       0.00634921 </v>
   <v>       0.00634921 </v>
   <v>       0.00634921 </v>
   <v>       0.00634921 </v>
   <v>       0.00634921 </v>
   <v>       0.00634921 </v>
   <v>       0.00634921 </v>
   <v>       0.00634921 </v>
   <v>       0.00634921 </v>
   <v>       0.00634921 </v>
   <v>       0.00634921 </v>
   <v>       0.00634921 </v>
   <v>       0.00634921 </v>
   <v>       0.00634921 </v>
   <v>       0.00634921 </v>
   <v>       0.00634921 </v>
   <v>       0.00634921 </v>
   <v>       0.00634921 </v>
   <v>       0.00634921 </v>
   <v>       0.00634921 </v>
   <v>       0.00634921 </v>
   <v>       0.00634921 </v>
   <v>       0.00634921 </v>
   <v>       0.00634921 </v>
   <v>       0.00634921 </v>
   <v>       0.00634921 </v>
   <v>       0.00634921 </v>
   <v>       0.00634921 </v>
   <v>       0.00634921 </v>
   <v>       0.00634921 </v>
   <v>       0.00634921 </v>
   <v>       0.00634921 </v>
   <v>       0.00634921 </v>
   <v>       0.00634921 </v>
   <v>       0.00634921 </v>
   <v>       0.00634921 </v>
   <v>       0.00634921 </v>
   <v>       0.00634921 </v>
   <v>       0.00634921 </v>
   <v>       0.00634921 </v>
   <v>       0.00634921 </v>
   <v>       0.00634921 </v>
   <v>       0.00634921 </v>
   <v>       0.00634921 </v>
   <v>       0.00634921 </v>
   <v>       0.00634921 </v>
   <v>       0.00634921 </v>
   <v>       0.00634921 </v>
   <v>       0.00634921 </v>
   <v>       0.00634921 </v>
   <v>       0.00634921 </v>
   <v>       0.00634921 </v>
   <v>       0.00634921 </v>
   <v>       0.00634921 </v>
   <v>       0.00634921 </v>
   <v>       0.00634921 </v>
   <v>       0.00634921 </v>
   <v>       0.00634921 </v>
   <v>       0.00634921 </v>
   <v>       0.00634921 </v>
   <v>       0.00634921 </v>
   <v>       0.00634921 </v>
   <v>       0.00634921 </v>
   <v>       0.00634921 </v>
   <v>       0.00634921 </v>
   <v>       0.00634921 </v>
   <v>       0.00634921 </v>
   <v>       0.00634921 </v>
   <v>       0.00634921 </v>
   <v>       0.00634921 </v>
   <v>       0.00634921 </v>
   <v>       0.00634921 </v>
   <v>       0.00634921 </v>
   <v>       0.00634921 </v>
   <v>       0.00634921 </v>
   <v>       0.00634921 </v>
   <v>       0.00634921 </v>
   <v>       0.00634921 </v>
   <v>       0.00634921 </v>
   <v>       0.00634921 </v>
   <v>       0.00634921 </v>
   <v>       0.00634921 </v>
   <v>       0.00634921 </v>
   <v>       0.00634921 </v>
   <v>       0.00634921 </v>
   <v>       0.00634921 </v>
   <v>       0.00634921 </v>
   <v>       0.00634921 </v>
   <v>       0.00634921 </v>
   <v>       0.00634921 </v>
   <v>       0.00634921 </v>
   <v>       0.00634921 </v>
   <v>       0.00634921 </v>
   <v>       0.00634921 </v>
   <v>       0.00634921 </v>
   <v>       0.00634921 </v>
   <v>       0.00634921 </v>
   <v>       0.00634921 </v>
   <v>       0.00634921 </v>
   <v>       0.00634921 </v>
   <v>       0.00634921 </v>
   <v>       0.00634921 </v>
   <v>       0.00634921 </v>
   <v>       0.00634921 </v>
   <v>       0.00634921 </v>
   <v>       0.00634921 </v>
   <v>       0.00634921 </v>
   <v>       0.00634921 </v>
   <v>       0.00634921 </v>
   <v>       0.00634921 </v>
   <v>       0.00634921 </v>
   <v>       0.00634921 </v>
   <v>       0.00634921 </v>
   <v>       0.00634921 </v>
   <v>       0.00634921 </v>
   <v>       0.00634921 </v>
   <v>       0.00634921 </v>
   <v>       0.00634921 </v>
   <v>       0.00634921 </v>
   <v>       0.00634921 </v>
   <v>       0.00634921 </v>
   <v>       0.00634921 </v>
   <v>       0.00634921 </v>
   <v>       0.00634921 </v>
  </varray>
 </kpoints>
 <parameters>
  <separator name="general" >
   <i type="string" name="SYSTEM">unknown system</i>
   <i type="logical" name="LCOMPAT"> F  </i>
  </separator>
  <separator name="electronic" >
   <i type="string" name="PREC">a</i>
   <i name="ENMAX">    520.00000000</i>
   <i name="ENAUG">    342.92400000</i>
   <i name="EDIFF">      0.00001000</i>
   <i type="int" name="IALGO">    38</i>
   <i type="int" name="IWAVPR">    11</i>
   <i type="int" name="NBANDS">    16</i>
   <i name="NELECT">     20.00000000</i>
   <i type="int" name="TURBO">     0</i>
   <i type="int" name="IRESTART">     0</i>
   <i type="int" name="NREBOOT">     0</i>
   <i type="int" name="NMIN">     0</i>
   <i name="EREF">      0.00000000</i>
   <separator name="electronic smearing" >
    <i type="int" name="ISMEAR">     0</i>
    <i name="SIGMA">      0.02000000</i>
    <i name="KSPACING">      0.50000000</i>
    <i type="logical" name="KGAMMA"> T  </i>
   </separator>
   <separator name="electronic projectors" >
    <i type="logical" name="LREAL"> F  </i>
    <v name="ROPT">      0.00000000</v>
    <i type="int" name="LMAXPAW">  -100</i>
    <i type="int" name="LMAXMIX">     2</i>
    <i type="logical" name="NLSPLINE"> F  </i>
   </separator>
   <separator name="electronic startup" >
    <i type="int" name="ISTART">     0</i>
    <i type="int" name="ICHARG">     2</i>
    <i type="int" name="INIWAV">     1</i>
   </separator>
   <separator name="electronic spin" >
    <i type="int" name="ISPIN">     1</i>
    <i type="logical" name="LNONCOLLINEAR"> F  </i>
    <v name="MAGMOM">      1.00000000      1.00000000      1.00000000      1.00000000</v>
    <i name="NUPDOWN">     -1.00000000</i>
    <i type="logical" name="LSORBIT"> F  </i>
    <v name="SAXIS">      0.00000000      0.00000000      1.00000000</v>
    <i type="logical" name="LSPIRAL"> F  </i>
    <v name="QSPIRAL">      0.00000000      0.00000000      0.00000000</v>
    <i type="logical" name="LZEROZ"> F  </i>
   </separator>
   <separator name="electronic exchange-correlation" >
    <i type="logical" name="LASPH"> F  </i>
    <i type="logical" name="LMETAGGA"> F  </i>
   </separator>
   <separator name="electronic convergence" >
    <i type="int" name="NELM">   250</i>
    <i type="int" name="NELMDL">    -5</i>
    <i type="int" name="NELMIN">     6</i>
    <i name="ENINI">    520.00000000</i>
    <separator name="electronic convergence detail" >
     <i type="logical" name="LDIAG"> T  </i>
     <i type="logical" name="LSUBROT"> F  </i>
     <i name="WEIMIN">      0.00100000</i>
     <i name="EBREAK">      0.00000016</i>
     <i name="DEPER">      0.30000000</i>
     <i type="int" name="NRMM">     4</i>
     <i name="TIME">      0.40000000</i>
    </separator>
   </separator>
   <separator name="electronic mixer" >
    <i name="AMIX">      0.40000000</i>
    <i name="BMIX">      1.00000000</i>
    <i name="AMIN">      0.10000000</i>
    <i name="AMIX_MAG">      1.60000000</i>
    <i name="BMIX_MAG">      1.00000000</i>
    <separator name="electronic mixer details" >
     <i type="int" name="IMIX">     4</i>
     <i type="logical" name="MIXFIRST"> F  </i>
     <i type="int" name="MAXMIX">   -45</i>
     <i name="WC">    100.00000000</i>
     <i type="int" name="INIMIX">     1</i>
     <i type="int" name="MIXPRE">     1</i>
     <i type="int" name="MREMOVE">     5</i>
    </separator>
   </separator>
   <separator name="electronic dipolcorrection" >
    <i type="logical" name="LDIPOL"> F  </i>
    <i type="logical" name="LMONO"> F  </i>
    <i type="int" name="IDIPOL">     0</i>
    <i name="EPSILON">      1.00000000</i>
    <v name="DIPOL">   -100.00000000   -100.00000000   -100.00000000</v>
    <i name="EFIELD">      0.00000000</i>
   </separator>
  </separator>
  <separator name="grids" >
   <i type="int" name="NGX">    28</i>
   <i type="int" name="NGY">    36</i>
   <i type="int" name="NGZ">   150</i>
   <i type="int" name="NGXF">    56</i>
   <i type="int" name="NGYF">    72</i>
   <i type="int" name="NGZF">   300</i>
   <i type="logical" name="ADDGRID"> F  </i>
  </separator>
  <separator name="ionic" >
   <i type="int" name="NSW">   200</i>
   <i type="int" name="IBRION">     2</i>
   <i type="int" name="ISIF">     2</i>
   <i name="PSTRESS">      0.00000000</i>
   <i name="EDIFFG">     -0.01000000</i>
   <i type="int" name="NFREE">     1</i>
   <i name="POTIM">      0.30000000</i>
   <i name="SMASS">     -3.00000000</i>
   <i name="SCALEE">      1.00000000</i>
  </separator>
  <separator name="ionic md" >
   <i name="TEBEG">      0.00010000</i>
   <i name="TEEND">      0.00010000</i>
   <i type="int" name="NBLOCK">     1</i>
   <i type="int" name="KBLOCK">   200</i>
   <i type="int" name="NPACO">   256</i>
   <i name="APACO">     16.00000000</i>
  </separator>
  <separator name="symmetry" >
   <i type="int" name="ISYM">     2</i>
   <i name="SYMPREC">      0.00001000</i>
  </separator>
  <separator name="dos" >
   <i type="logical" name="LORBIT"> F  </i>
   <v name="RWIGS">     -1.00000000</v>
   <i type="int" name="NEDOS">   301</i>
   <i name="EMIN">     10.00000000</i>
   <i name="EMAX">    -10.00000000</i>
   <i name="EFERMI">      0.00000000</i>
  </separator>
  <separator name="writing" >
   <i type="int" name="NWRITE">     2</i>
   <i type="logical" name="LWAVE"> F  </i>
   <i type="logical" name="LCHARG"> F  </i>
   <i type="logical" name="LPARD"> F  </i>
   <i type="logical" name="LVTOT"> F  </i>
   <i type="logical" name="LVHAR"> F  </i>
   <i type="logical" name="LELF"> F  </i>
   <i type="logical" name="LOPTICS"> F  </i>
   <v name="STM">      0.00000000      0.00000000      0.00000000      0.00000000      0.00000000      0.00000000      0.00000000</v>
  </separator>
  <separator name="performance" >
   <i type="int" name="NPAR">     4</i>
   <i type="int" name="NSIM">     4</i>
   <i type="int" name="NBLK">    -1</i>
   <i type="logical" name="LPLANE"> T  </i>
   <i type="logical" name="LSCALAPACK"> T  </i>
   <i type="logical" name="LSCAAWARE"> F  </i>
   <i type="logical" name="LSCALU"> F  </i>
   <i type="logical" name="LASYNC"> F  </i>
   <i type="logical" name="LORBITALREAL"> F  </i>
  </separator>
  <separator name="miscellaneous" >
   <i type="int" name="IDIOT">     3</i>
   <i type="logical" name="LMUSIC"> F  </i>
   <v name="POMASS">     30.97400000</v>
   <v name="DARWINR">      0.00000000</v>
   <v name="DARWINV">      1.00000000</v>
   <i type="logical" name="LCORR"> T  </i>
  </separator>
  <i type="logical" name="GGA_COMPAT"> T  </i>
  <i type="logical" name="LBERRY"> F  </i>
  <i type="int" name="ICORELEVEL">     0</i>
  <i type="logical" name="LDAU"> F  </i>
  <i type="int" name="I_CONSTRAINED_M">     0</i>
  <separator name="electronic exchange-correlation" >
   <i type="string" name="GGA">--</i>
   <i type="int" name="VOSKOWN">     0</i>
   <i type="logical" name="LHFCALC"> F  </i>
   <i type="string" name="PRECFOCK"></i>
   <i type="logical" name="LSYMGRAD"> F  </i>
   <i type="logical" name="LHFONE"> F  </i>
   <i type="logical" name="LRHFCALC"> F  </i>
   <i type="logical" name="LTHOMAS"> F  </i>
   <i type="logical" name="LMODELHF"> F  </i>
   <i name="ENCUT4O">     -1.00000000</i>
   <i type="int" name="EXXOEP">     0</i>
   <i type="int" name="FOURORBIT">     0</i>
   <i name="AEXX">      0.00000000</i>
   <i name="HFALPHA">      0.00000000</i>
   <i name="MCALPHA">      0.00000000</i>
   <i name="ALDAX">      1.00000000</i>
   <i name="AGGAX">      1.00000000</i>
   <i name="ALDAC">      1.00000000</i>
   <i name="AGGAC">      1.00000000</i>
   <i type="int" name="NKREDX">     1</i>
   <i type="int" name="NKREDY">     1</i>
   <i type="int" name="NKREDZ">     1</i>
   <i type="logical" name="SHIFTRED"> F  </i>
   <i type="logical" name="ODDONLY"> F  </i>
   <i type="logical" name="EVENONLY"> F  </i>
   <i type="int" name="LMAXFOCK">     0</i>
   <i type="int" name="NMAXFOCKAE">     0</i>
   <i type="logical" name="LFOCKAEDFT"> F  </i>
   <i name="HFSCREEN">      0.00000000</i>
   <i name="HFSCREENC">      0.00000000</i>
   <i type="int" name="NBANDSGWLOW">     0</i>
  </separator>
  <separator name="vdW DFT" >
   <i type="logical" name="LUSE_VDW"> F  </i>
   <i name="Zab_VDW">     -0.84910000</i>
   <i name="PARAM1">      0.12340000</i>
   <i name="PARAM2">      1.00000000</i>
   <i name="PARAM3">      0.00000000</i>
  </separator>
  <separator name="model GW" >
   <i type="int" name="MODEL_GW">     0</i>
   <i name="MODEL_EPS0">     47.58445802</i>
   <i name="MODEL_ALPHA">      1.00000000</i>
  </separator>
  <separator name="linear response parameters" >
   <i type="logical" name="LEPSILON"> F  </i>
   <i type="logical" name="LRPA"> F  </i>
   <i type="logical" name="LNABLA"> F  </i>
   <i type="logical" name="LVEL"> F  </i>
   <i type="int" name="KINTER">     0</i>
   <i name="CSHIFT">      0.10000000</i>
   <i name="OMEGAMAX">     -1.00000000</i>
   <i name="DEG_THRESHOLD">      0.00200000</i>
  </separator>
  <separator name="orbital magnetization" >
   <i type="logical" name="NUCIND"> F  </i>
   <v name="MAGPOS">      0.00000000      0.00000000      0.00000000</v>
   <i type="logical" name="LNICSALL"> T  </i>
   <i type="logical" name="ORBITALMAG"> F  </i>
   <i type="logical" name="LMAGBLOCH"> F  </i>
   <i type="logical" name="LCHIMAG"> F  </i>
   <i type="logical" name="LGAUGE"> T  </i>
   <i type="int" name="MAGATOM">     0</i>
   <v name="MAGDIPOL">      0.00000000      0.00000000      0.00000000</v>
   <v name="AVECCONST">      0.00000000      0.00000000      0.00000000</v>
  </separator>
  <separator name="response functions" >
   <i type="logical" name="LADDER"> F  </i>
   <i type="logical" name="LFXC"> F  </i>
   <i type="logical" name="LHARTREE"> T  </i>
   <i type="int" name="IBSE">     0</i>
   <v type="int" name="KPOINT">    -1     0     0     0</v>
   <i type="logical" name="LTCTE"> F  </i>
   <i type="logical" name="LTETE"> F  </i>
   <i type="logical" name="LTRIPLET"> F  </i>
   <i type="logical" name="LFXCEPS"> F  </i>
   <i type="logical" name="LFXHEG"> F  </i>
   <i type="int" name="NATURALO">     0</i>
   <i type="logical" name="L2ORDER"> F  </i>
   <i type="logical" name="LUSEW"> F  </i>
   <i name="ENCUTGW">     -2.00000000</i>
   <i name="ENCUTGWSOFT">     -2.00000000</i>
   <i name="ENCUTLF">     -1.00000000</i>
   <i type="int" name="LMAXMP2">    -1</i>
   <i name="SCISSOR">      0.00000000</i>
   <i type="int" name="NOMEGA">     0</i>
   <i type="int" name="NOMEGAR">     0</i>
   <i type="int" name="NBANDSGW">    -1</i>
   <i type="int" name="NBANDSO">    -1</i>
   <i type="int" name="NBANDSV">    -1</i>
   <i type="int" name="NELM">   250</i>
   <i type="int" name="NELMHF">     1</i>
   <i type="int" name="DIM">     3</i>
   <i type="int" name="ANTIRES">     0</i>
   <i name="OMEGAMAX">    -30.00000000</i>
   <i name="OMEGAMIN">    -30.00000000</i>
   <i name="OMEGATL">   -200.00000000</i>
   <i type="int" name="OMEGAGRID">     0</i>
   <i name="CSHIFT">     -0.10000000</i>
   <i type="logical" name="SELFENERGY"> F  </i>
   <i type="logical" name="LSPECTRAL"> F  </i>
   <i type="logical" name="LSPECTRALGW"> F  </i>
   <i type="logical" name="LSINGLES"> F  </i>
   <i type="logical" name="LFERMIGW"> F  </i>
   <i type="logical" name="ODDONLYGW"> F  </i>
   <i type="logical" name="EVENONLYGW"> F  </i>
   <i type="int" name="NKREDLFX">     1</i>
   <i type="int" name="NKREDLFY">     1</i>
   <i type="int" name="NKREDLFZ">     1</i>
   <i type="int" name="MAXMEM">  1800</i>
   <i type="int" name="TELESCOPE">     0</i>
   <i type="int" name="TAUPAR">     1</i>
   <i type="int" name="OMEGAPAR">    -1</i>
   <i name="LAMBDA">      1.00000000</i>
  </separator>
  <separator name="External order field" >
   <i name="OFIELD_KAPPA">      0.00000000</i>
   <v name="OFIELD_K">      0.00000000      0.00000000      0.00000000</v>
   <i name="OFIELD_Q6_NEAR">      0.00000000</i>
   <i name="OFIELD_Q6_FAR">      0.00000000</i>
   <i name="OFIELD_A">      0.00000000</i>
  </separator>
 </parameters>
 <atominfo>
  <atoms>       4 </atoms>
  <types>       1 </types>
  <array name="atoms" >
   <dimension dim="1">ion</dimension>
   <field type="string">element</field>
   <field type="int">atomtype</field>
   <set>
    <rc><c>P </c><c>   1</c></rc>
    <rc><c>P </c><c>   1</c></rc>
    <rc><c>P </c><c>   1</c></rc>
    <rc><c>P </c><c>   1</c></rc>
   </set>
  </array>
  <array name="atomtypes" >
   <dimension dim="1">type</dimension>
   <field type="int">atomspertype</field>
   <field type="string">element</field>
   <field>mass</field>
   <field>valence</field>
   <field type="string">pseudopotential</field>
   <set>
    <rc><c>   4</c><c>P </c><c>     30.97400000</c><c>      5.00000000</c><c>  PAW_PBE P 06Sep2000                   </c></rc>
   </set>
  </array>
 </atominfo>
 <structure name="initialpos" >
  <crystal>
   <varray name="basis" >
    <v>       3.42655500       0.00000000       0.00000000 </v>
    <v>       0.00000000       4.62335100      -0.00005300 </v>
    <v>       0.00000000       0.00000000      20.02439000 </v>
   </varray>
   <i name="volume">    317.22972016 </i>
   <varray name="rec_basis" >
    <v>       0.29183830       0.00000000       0.00000000 </v>
    <v>       0.00000000       0.21629333       0.00000000 </v>
    <v>       0.00000000       0.00000057       0.04993910 </v>
   </varray>
  </crystal>
  <varray name="positions" >
   <v>       0.50000000       0.91077300       0.55252100 </v>
   <v>       0.50000000       0.08922700       0.44747900 </v>
   <v>       0.00000000       0.41076900       0.44747900 </v>
   <v>       0.00000000       0.58923100       0.55252100 </v>
  </varray>
 </structure>
 <calculation>
  <scstep>
   <time name="dav">    1.51    1.51</time>
   <time name="total">    1.54    1.54</time>
   <energy>
    <i name="alphaZ">      5.05678043 </i>
    <i name="ewald">   1772.74804294 </i>
    <i name="hartreedc">  -2367.28300872 </i>
    <i name="XCdc">     12.66061320 </i>
    <i name="pawpsdc">    559.04011960 </i>
    <i name="pawaedc">   -526.39432044 </i>
    <i name="eentropy">     -0.00038646 </i>
    <i name="bandstr">    -28.32364857 </i>
    <i name="atom">    704.16778566 </i>
    <i name="e_fr_energy">    131.67197764 </i>
    <i name="e_wo_entrp">    131.67236410 </i>
    <i name="e_0_energy">    131.67217087 </i>
   </energy>
  </scstep>
  <scstep>
   <time name="dav">    2.02    2.02</time>
   <time name="total">    2.02    2.02</time>
   <energy>
    <i name="e_fr_energy">     -5.94168919 </i>
    <i name="e_wo_entrp">     -5.94168919 </i>
    <i name="e_0_energy">     -5.94168919 </i>
   </energy>
  </scstep>
  <scstep>
   <time name="dav">    1.86    1.86</time>
   <time name="total">    1.86    1.86</time>
   <energy>
    <i name="e_fr_energy">    -21.23409422 </i>
    <i name="e_wo_entrp">    -21.23409422 </i>
    <i name="e_0_energy">    -21.23409422 </i>
   </energy>
  </scstep>
  <scstep>
   <time name="dav">    1.88    1.88</time>
   <time name="total">    1.88    1.89</time>
   <energy>
    <i name="e_fr_energy">    -21.55529440 </i>
    <i name="e_wo_entrp">    -21.55529440 </i>
    <i name="e_0_energy">    -21.55529440 </i>
   </energy>
  </scstep>
  <scstep>
   <time name="dav">    2.01    2.01</time>
   <time name="total">    2.10    2.11</time>
   <energy>
    <i name="e_fr_energy">    -21.56524427 </i>
    <i name="e_wo_entrp">    -21.56524427 </i>
    <i name="e_0_energy">    -21.56524427 </i>
   </energy>
  </scstep>
  <scstep>
   <time name="dav">    1.81    1.81</time>
   <time name="total">    1.93    1.93</time>
   <energy>
    <i name="e_fr_energy">    -21.44726993 </i>
    <i name="e_wo_entrp">    -21.44726993 </i>
    <i name="e_0_energy">    -21.44726993 </i>
   </energy>
  </scstep>
  <scstep>
   <time name="dav">    1.76    1.76</time>
   <time name="total">    1.87    1.88</time>
   <energy>
    <i name="e_fr_energy">    -21.38719276 </i>
    <i name="e_wo_entrp">    -21.38719276 </i>
    <i name="e_0_energy">    -21.38719276 </i>
   </energy>
  </scstep>
  <scstep>
   <time name="dav">    1.84    1.84</time>
   <time name="total">    1.95    1.95</time>
   <energy>
    <i name="e_fr_energy">    -21.38716455 </i>
    <i name="e_wo_entrp">    -21.38716455 </i>
    <i name="e_0_energy">    -21.38716455 </i>
   </energy>
  </scstep>
  <scstep>
   <time name="dav">    2.14    2.14</time>
   <time name="total">    2.26    2.26</time>
   <energy>
    <i name="e_fr_energy">    -21.38706206 </i>
    <i name="e_wo_entrp">    -21.38706206 </i>
    <i name="e_0_energy">    -21.38706206 </i>
   </energy>
  </scstep>
  <scstep>
   <time name="dav">    1.87    1.87</time>
   <time name="total">    1.98    1.98</time>
   <energy>
    <i name="e_fr_energy">    -21.38698175 </i>
    <i name="e_wo_entrp">    -21.38698175 </i>
    <i name="e_0_energy">    -21.38698175 </i>
   </energy>
  </scstep>
  <scstep>
   <time name="dav">    1.76    1.76</time>
   <time name="total">    1.87    1.87</time>
   <energy>
    <i name="e_fr_energy">    -21.38693481 </i>
    <i name="e_wo_entrp">    -21.38693481 </i>
    <i name="e_0_energy">    -21.38693481 </i>
   </energy>
  </scstep>
  <scstep>
   <time name="dav">    1.62    1.62</time>
   <time name="total">    1.73    1.73</time>
   <energy>
    <i name="e_fr_energy">    -21.38726077 </i>
    <i name="e_wo_entrp">    -21.38726077 </i>
    <i name="e_0_energy">    -21.38726077 </i>
   </energy>
  </scstep>
  <scstep>
   <time name="dav">    1.62    1.62</time>
   <time name="total">    1.73    1.73</time>
   <energy>
    <i name="e_fr_energy">    -21.38740818 </i>
    <i name="e_wo_entrp">    -21.38740818 </i>
    <i name="e_0_energy">    -21.38740818 </i>
   </energy>
  </scstep>
  <scstep>
   <time name="dav">    1.56    1.56</time>
   <time name="total">    1.68    1.68</time>
   <energy>
    <i name="e_fr_energy">    -21.38748374 </i>
    <i name="e_wo_entrp">    -21.38748374 </i>
    <i name="e_0_energy">    -21.38748374 </i>
   </energy>
  </scstep>
  <scstep>
   <time name="dav">    1.50    1.50</time>
   <time name="total">    1.61    1.62</time>
   <energy>
    <i name="e_fr_energy">    -21.38752649 </i>
    <i name="e_wo_entrp">    -21.38752649 </i>
    <i name="e_0_energy">    -21.38752649 </i>
   </energy>
  </scstep>
  <scstep>
   <time name="dav">    1.52    1.52</time>
   <time name="total">    1.64    1.64</time>
   <energy>
    <i name="e_fr_energy">    -21.38754064 </i>
    <i name="e_wo_entrp">    -21.38754064 </i>
    <i name="e_0_energy">    -21.38754064 </i>
   </energy>
  </scstep>
  <scstep>
   <time name="dav">    1.48    1.48</time>
   <time name="total">    1.50    1.50</time>
   <energy>
    <i name="alphaZ">      5.05678043 </i>
    <i name="ewald">   1772.74804294 </i>
    <i name="hartreedc">  -2380.83404334 </i>
    <i name="XCdc">     13.66420060 </i>
    <i name="pawpsdc">   1937.25051354 </i>
    <i name="pawaedc">  -1904.88441560 </i>
    <i name="eentropy">     -0.00000000 </i>
    <i name="bandstr">   -168.55641109 </i>
    <i name="atom">    704.16778566 </i>
    <i name="e_fr_energy">    -21.38754686 </i>
    <i name="e_wo_entrp">    -21.38754686 </i>
    <i name="e_0_energy">    -21.38754686 </i>
   </energy>
  </scstep>
  <structure>
   <crystal>
    <varray name="basis" >
     <v>       3.42655500       0.00000000       0.00000000 </v>
     <v>       0.00000000       4.62335100      -0.00005300 </v>
     <v>       0.00000000       0.00000000      20.02439000 </v>
    </varray>
    <i name="volume">    317.22972016 </i>
    <varray name="rec_basis" >
     <v>       0.29183830       0.00000000       0.00000000 </v>
     <v>       0.00000000       0.21629333       0.00000000 </v>
     <v>       0.00000000       0.00000057       0.04993910 </v>
    </varray>
   </crystal>
   <varray name="positions" >
    <v>       0.50000000       0.91077300       0.55252100 </v>
    <v>       0.50000000       0.08922700       0.44747900 </v>
    <v>       0.00000000       0.41076900       0.44747900 </v>
    <v>       0.00000000       0.58923100       0.55252100 </v>
   </varray>
  </structure>
  <varray name="forces" >
   <v>       0.00000008      -0.12487942      -0.05468837 </v>
   <v>      -0.00000008       0.12487942       0.05468837 </v>
   <v>       0.00000017      -0.12490906       0.05469257 </v>
   <v>      -0.00000017       0.12490906      -0.05469257 </v>
  </varray>
  <varray name="stress" >
   <v>     -17.94993501      -0.00000202       0.00000037 </v>
   <v>      -0.00000202      -5.27148831       0.00036905 </v>
   <v>       0.00000038       0.00036904      -1.22235634 </v>
  </varray>
  <energy>
   <i name="e_fr_energy">    -21.38754686 </i>
   <i name="e_wo_entrp">    -21.38754686 </i>
   <i name="e_0_energy">     -0.00000000 </i>
  </energy>
  <time name="totalsc">   31.97   32.01</time>
 </calculation>
 <calculation>
  <scstep>
   <time name="dav">    1.60    1.60</time>
   <time name="total">    1.71    1.72</time>
   <energy>
    <i name="alphaZ">      5.05678043 </i>
    <i name="ewald">   1774.63506238 </i>
    <i name="hartreedc">  -2382.49487775 </i>
    <i name="XCdc">     13.68933644 </i>
    <i name="pawpsdc">   1937.24334937 </i>
    <i name="pawaedc">  -1904.87726869 </i>
    <i name="eentropy">     -0.00000000 </i>
    <i name="bandstr">   -168.80918169 </i>
    <i name="atom">    704.16778566 </i>
    <i name="e_fr_energy">    -21.38901385 </i>
    <i name="e_wo_entrp">    -21.38901385 </i>
    <i name="e_0_energy">    -21.38901385 </i>
   </energy>
  </scstep>
  <scstep>
   <time name="dav">    1.90    1.90</time>
   <time name="total">    2.02    2.02</time>
   <energy>
    <i name="e_fr_energy">    -21.38920633 </i>
    <i name="e_wo_entrp">    -21.38920633 </i>
    <i name="e_0_energy">    -21.38920633 </i>
   </energy>
  </scstep>
  <scstep>
   <time name="dav">    1.99    1.99</time>
   <time name="total">    2.10    2.10</time>
   <energy>
    <i name="e_fr_energy">    -21.38920836 </i>
    <i name="e_wo_entrp">    -21.38920836 </i>
    <i name="e_0_energy">    -21.38920836 </i>
   </energy>
  </scstep>
  <scstep>
   <time name="dav">    1.40    1.41</time>
   <time name="total">    1.52    1.52</time>
   <energy>
    <i name="e_fr_energy">    -21.38920920 </i>
    <i name="e_wo_entrp">    -21.38920920 </i>
    <i name="e_0_energy">    -21.38920920 </i>
   </energy>
  </scstep>
  <scstep>
   <time name="dav">    1.26    1.26</time>
   <time name="total">    1.37    1.38</time>
   <energy>
    <i name="e_fr_energy">    -21.38921022 </i>
    <i name="e_wo_entrp">    -21.38921022 </i>
    <i name="e_0_energy">    -21.38921022 </i>
   </energy>
  </scstep>
  <scstep>
   <time name="dav">    1.25    1.25</time>
   <time name="total">    1.27    1.27</time>
   <energy>
    <i name="alphaZ">      5.05678043 </i>
    <i name="ewald">   1774.63506238 </i>
    <i name="hartreedc">  -2382.49784775 </i>
    <i name="XCdc">     13.69150730 </i>
    <i name="pawpsdc">   1951.09686732 </i>
    <i name="pawaedc">  -1918.73594285 </i>
    <i name="eentropy">     -0.00000000 </i>
    <i name="bandstr">   -168.80342307 </i>
    <i name="atom">    704.16778566 </i>
    <i name="e_fr_energy">    -21.38921057 </i>
    <i name="e_wo_entrp">    -21.38921057 </i>
    <i name="e_0_energy">    -21.38921057 </i>
   </energy>
  </scstep>
  <structure>
   <crystal>
    <varray name="basis" >
     <v>       3.42655500       0.00000000       0.00000000 </v>
     <v>       0.00000000       4.62335100      -0.00005300 </v>
     <v>       0.00000000       0.00000000      20.02439000 </v>
    </varray>
    <i name="volume">    317.22972016 </i>
    <varray name="rec_basis" >
     <v>       0.29183830       0.00000000       0.00000000 </v>
     <v>       0.00000000       0.21629333       0.00000000 </v>
     <v>       0.00000000       0.00000057       0.04993910 </v>
    </varray>
   </crystal>
   <varray name="positions" >
    <v>       0.50000000       0.90999116       0.55244194 </v>
    <v>       0.50000000       0.09000884       0.44755806 </v>
    <v>       0.00000000       0.40998698       0.44755806 </v>
    <v>      -0.00000000       0.59001302       0.55244194 </v>
   </varray>
  </structure>
  <varray name="forces" >
   <v>       0.00000001      -0.06001733      -0.04345898 </v>
   <v>      -0.00000001       0.06001733       0.04345898 </v>
   <v>       0.00000004      -0.06004217       0.04346071 </v>
   <v>      -0.00000004       0.06004217      -0.04346071 </v>
  </varray>
  <varray name="stress" >
   <v>     -17.72105662      -0.00000262       0.00000045 </v>
   <v>      -0.00000260      -4.28070389       0.00031111 </v>
   <v>       0.00000035       0.00031111      -1.00769972 </v>
  </varray>
  <energy>
   <i name="e_fr_energy">    -21.38921057 </i>
   <i name="e_wo_entrp">    -21.38921057 </i>
   <i name="e_0_energy">     -0.00000000 </i>
  </energy>
  <time name="totalsc">   10.78   10.81</time>
 </calculation>
 <calculation>
  <scstep>
   <time name="dav">    1.58    1.58</time>
   <time name="total">    1.69    1.69</time>
   <energy>
    <i name="alphaZ">      5.05678043 </i>
    <i name="ewald">   1776.77562126 </i>
    <i name="hartreedc">  -2384.36729865 </i>
    <i name="XCdc">     13.71990994 </i>
    <i name="pawpsdc">   1951.13309700 </i>
    <i name="pawaedc">  -1918.77211977 </i>
    <i name="eentropy">     -0.00000000 </i>
    <i name="bandstr">   -169.10338254 </i>
    <i name="atom">    704.16778566 </i>
    <i name="e_fr_energy">    -21.38960667 </i>
    <i name="e_wo_entrp">    -21.38960667 </i>
    <i name="e_0_energy">    -21.38960667 </i>
   </energy>
  </scstep>
  <scstep>
   <time name="dav">    1.90    1.90</time>
   <time name="total">    2.01    2.01</time>
   <energy>
    <i name="e_fr_energy">    -21.38985727 </i>
    <i name="e_wo_entrp">    -21.38985727 </i>
    <i name="e_0_energy">    -21.38985727 </i>
   </energy>
  </scstep>
  <scstep>
   <time name="dav">    2.00    2.00</time>
   <time name="total">    2.11    2.12</time>
   <energy>
    <i name="e_fr_energy">    -21.38985892 </i>
    <i name="e_wo_entrp">    -21.38985892 </i>
    <i name="e_0_energy">    -21.38985892 </i>
   </energy>
  </scstep>
  <scstep>
   <time name="dav">    1.40    1.40</time>
   <time name="total">    1.51    1.51</time>
   <energy>
    <i name="e_fr_energy">    -21.38985884 </i>
    <i name="e_wo_entrp">    -21.38985884 </i>
    <i name="e_0_energy">    -21.38985884 </i>
   </energy>
  </scstep>
  <scstep>
   <time name="dav">    1.26    1.26</time>
   <time name="total">    1.37    1.38</time>
   <energy>
    <i name="e_fr_energy">    -21.38985958 </i>
    <i name="e_wo_entrp">    -21.38985958 </i>
    <i name="e_0_energy">    -21.38985958 </i>
   </energy>
  </scstep>
  <scstep>
   <time name="dav">    1.21    1.21</time>
   <time name="total">    1.23    1.23</time>
   <energy>
    <i name="alphaZ">      5.05678043 </i>
    <i name="ewald">   1776.77562126 </i>
    <i name="hartreedc">  -2384.36049320 </i>
    <i name="XCdc">     13.72233871 </i>
    <i name="pawpsdc">   1967.22880307 </i>
    <i name="pawaedc">  -1934.87372488 </i>
    <i name="eentropy">     -0.00000000 </i>
    <i name="bandstr">   -169.10697087 </i>
    <i name="atom">    704.16778566 </i>
    <i name="e_fr_energy">    -21.38985982 </i>
    <i name="e_wo_entrp">    -21.38985982 </i>
    <i name="e_0_energy">    -21.38985982 </i>
   </energy>
  </scstep>
  <structure>
   <crystal>
    <varray name="basis" >
     <v>       3.42655500       0.00000000       0.00000000 </v>
     <v>       0.00000000       4.62335100      -0.00005300 </v>
     <v>       0.00000000       0.00000000      20.02439000 </v>
    </varray>
    <i name="volume">    317.22972016 </i>
    <varray name="rec_basis" >
     <v>       0.29183830       0.00000000       0.00000000 </v>
     <v>       0.00000000       0.21629333       0.00000000 </v>
     <v>       0.00000000       0.00000057       0.04993910 </v>
    </varray>
   </crystal>
   <varray name="positions" >
    <v>       0.50000000       0.90910537       0.55235238 </v>
    <v>       0.50000000       0.09089463       0.44764762 </v>
    <v>       0.00000000       0.40910098       0.44764763 </v>
    <v>      -0.00000000       0.59089902       0.55235237 </v>
   </varray>
  </structure>
  <varray name="forces" >
   <v>      -0.00000003       0.01450691      -0.03119873 </v>
   <v>       0.00000003      -0.01450691       0.03119873 </v>
   <v>      -0.00000004       0.01448710       0.03119711 </v>
   <v>       0.00000004      -0.01448710      -0.03119711 </v>
  </varray>
  <varray name="stress" >
   <v>     -17.44245277      -0.00000271       0.00000066 </v>
   <v>      -0.00000266      -3.14956257       0.00024278 </v>
   <v>       0.00000064       0.00024277      -0.75111126 </v>
  </varray>
  <energy>
   <i name="e_fr_energy">    -21.38985982 </i>
   <i name="e_wo_entrp">    -21.38985982 </i>
   <i name="e_0_energy">     -0.00000000 </i>
  </energy>
  <time name="totalsc">   10.73   10.75</time>
 </calculation>
 <calculation>
  <scstep>
   <time name="dav">    1.47    1.47</time>
   <time name="total">    1.58    1.59</time>
   <energy>
    <i name="alphaZ">      5.05678043 </i>
    <i name="ewald">   1777.85254311 </i>
    <i name="hartreedc">  -2385.37850784 </i>
    <i name="XCdc">     13.72903008 </i>
    <i name="pawpsdc">   1967.23024543 </i>
    <i name="pawaedc">  -1934.87512371 </i>
    <i name="eentropy">     -0.00000000 </i>
    <i name="bandstr">   -169.17270279 </i>
    <i name="atom">    704.16778566 </i>
    <i name="e_fr_energy">    -21.38994964 </i>
    <i name="e_wo_entrp">    -21.38994964 </i>
    <i name="e_0_energy">    -21.38994964 </i>
   </energy>
  </scstep>
  <scstep>
   <time name="dav">    1.83    1.83</time>
   <time name="total">    1.94    1.94</time>
   <energy>
    <i name="e_fr_energy">    -21.38997882 </i>
    <i name="e_wo_entrp">    -21.38997882 </i>
    <i name="e_0_energy">    -21.38997882 </i>
   </energy>
  </scstep>
  <scstep>
   <time name="dav">    1.26    1.26</time>
   <time name="total">    1.37    1.38</time>
   <energy>
    <i name="e_fr_energy">    -21.38997848 </i>
    <i name="e_wo_entrp">    -21.38997848 </i>
    <i name="e_0_energy">    -21.38997848 </i>
   </energy>
  </scstep>
  <scstep>
   <time name="dav">    1.20    1.20</time>
   <time name="total">    1.31    1.32</time>
   <energy>
    <i name="e_fr_energy">    -21.38997922 </i>
    <i name="e_wo_entrp">    -21.38997922 </i>
    <i name="e_0_energy">    -21.38997922 </i>
   </energy>
  </scstep>
  <scstep>
   <time name="dav">    1.19    1.19</time>
   <time name="total">    1.30    1.31</time>
   <energy>
    <i name="e_fr_energy">    -21.38997946 </i>
    <i name="e_wo_entrp">    -21.38997946 </i>
    <i name="e_0_energy">    -21.38997946 </i>
   </energy>
  </scstep>
  <scstep>
   <time name="dav">    1.17    1.17</time>
   <time name="total">    1.19    1.19</time>
   <energy>
    <i name="alphaZ">      5.05678043 </i>
    <i name="ewald">   1777.85254311 </i>
    <i name="hartreedc">  -2385.37074984 </i>
    <i name="XCdc">     13.72941582 </i>
    <i name="pawpsdc">   1970.48223500 </i>
    <i name="pawaedc">  -1938.12820134 </i>
    <i name="eentropy">     -0.00000000 </i>
    <i name="bandstr">   -169.17978854 </i>
    <i name="atom">    704.16778566 </i>
    <i name="e_fr_energy">    -21.38997970 </i>
    <i name="e_wo_entrp">    -21.38997970 </i>
    <i name="e_0_energy">    -21.38997970 </i>
   </energy>
  </scstep>
  <structure>
   <crystal>
    <varray name="basis" >
     <v>       3.42655500       0.00000000       0.00000000 </v>
     <v>       0.00000000       4.62335100      -0.00005300 </v>
     <v>       0.00000000       0.00000000      20.02439000 </v>
    </varray>
    <i name="volume">    317.22972016 </i>
    <varray name="rec_basis" >
     <v>       0.29183830       0.00000000       0.00000000 </v>
     <v>       0.00000000       0.21629333       0.00000000 </v>
     <v>       0.00000000       0.00000057       0.04993910 </v>
    </varray>
   </crystal>
   <varray name="positions" >
    <v>       0.50000000       0.90915034       0.55229034 </v>
    <v>       0.50000000       0.09084966       0.44770966 </v>
    <v>       0.00000000       0.40914578       0.44770966 </v>
    <v>      -0.00000000       0.59085422       0.55229034 </v>
   </varray>
  </structure>
  <varray name="forces" >
   <v>      -0.00000010       0.00594231      -0.01208388 </v>
   <v>       0.00000010      -0.00594231       0.01208388 </v>
   <v>      -0.00000014       0.00592652       0.01208304 </v>
   <v>       0.00000014      -0.00592652      -0.01208304 </v>
  </varray>
  <varray name="stress" >
   <v>     -17.42374006      -0.00000238       0.00000032 </v>
   <v>      -0.00000236      -3.13616091       0.00020262 </v>
   <v>       0.00000028       0.00020264      -0.33007668 </v>
  </varray>
  <energy>
   <i name="e_fr_energy">    -21.38997970 </i>
   <i name="e_wo_entrp">    -21.38997970 </i>
   <i name="e_0_energy">     -0.00000000 </i>
  </energy>
  <time name="totalsc">    9.51    9.53</time>
 </calculation>
 <calculation>
  <scstep>
   <time name="dav">    1.47    1.47</time>
   <time name="total">    1.59    1.59</time>
   <energy>
    <i name="alphaZ">      5.05678043 </i>
    <i name="ewald">   1778.53815606 </i>
    <i name="hartreedc">  -2386.01506187 </i>
    <i name="XCdc">     13.73363012 </i>
    <i name="pawpsdc">   1970.58886150 </i>
    <i name="pawaedc">  -1938.23480778 </i>
    <i name="eentropy">     -0.00000000 </i>
    <i name="bandstr">   -169.22533405 </i>
    <i name="atom">    704.16778566 </i>
    <i name="e_fr_energy">    -21.38998993 </i>
    <i name="e_wo_entrp">    -21.38998993 </i>
    <i name="e_0_energy">    -21.38998993 </i>
   </energy>
  </scstep>
  <scstep>
   <time name="dav">    1.84    1.84</time>
   <time name="total">    1.95    1.95</time>
   <energy>
    <i name="e_fr_energy">    -21.39000209 </i>
    <i name="e_wo_entrp">    -21.39000209 </i>
    <i name="e_0_energy">    -21.39000209 </i>
   </energy>
  </scstep>
  <scstep>
   <time name="dav">    1.24    1.24</time>
   <time name="total">    1.35    1.35</time>
   <energy>
    <i name="e_fr_energy">    -21.39000199 </i>
    <i name="e_wo_entrp">    -21.39000199 </i>
    <i name="e_0_energy">    -21.39000199 </i>
   </energy>
  </scstep>
  <scstep>
   <time name="dav">    1.17    1.17</time>
   <time name="total">    1.28    1.28</time>
   <energy>
    <i name="e_fr_energy">    -21.39000232 </i>
    <i name="e_wo_entrp">    -21.39000232 </i>
    <i name="e_0_energy">    -21.39000232 </i>
   </energy>
  </scstep>
  <scstep>
   <time name="dav">    1.17    1.17</time>
   <time name="total">    1.28    1.29</time>
   <energy>
    <i name="e_fr_energy">    -21.39000235 </i>
    <i name="e_wo_entrp">    -21.39000235 </i>
    <i name="e_0_energy">    -21.39000235 </i>
   </energy>
  </scstep>
  <scstep>
   <time name="dav">    1.14    1.14</time>
   <time name="total">    1.16    1.16</time>
   <energy>
    <i name="alphaZ">      5.05678043 </i>
    <i name="ewald">   1778.53815606 </i>
    <i name="hartreedc">  -2386.01433796 </i>
    <i name="XCdc">     13.73394161 </i>
    <i name="pawpsdc">   1972.49791853 </i>
    <i name="pawaedc">  -1940.14456887 </i>
    <i name="eentropy">     -0.00000000 </i>
    <i name="bandstr">   -169.22567787 </i>
    <i name="atom">    704.16778566 </i>
    <i name="e_fr_energy">    -21.39000241 </i>
    <i name="e_wo_entrp">    -21.39000241 </i>
    <i name="e_0_energy">    -21.39000241 </i>
   </energy>
  </scstep>
  <structure>
   <crystal>
    <varray name="basis" >
     <v>       3.42655500       0.00000000       0.00000000 </v>
     <v>       0.00000000       4.62335100      -0.00005300 </v>
     <v>       0.00000000       0.00000000      20.02439000 </v>
    </varray>
    <i name="volume">    317.22972016 </i>
    <varray name="rec_basis" >
     <v>       0.29183830       0.00000000       0.00000000 </v>
     <v>       0.00000000       0.21629333       0.00000000 </v>
     <v>       0.00000000       0.00000057       0.04993910 </v>
    </varray>
   </crystal>
   <varray name="positions" >
    <v>       0.50000000       0.90917896       0.55225087 </v>
    <v>       0.50000000       0.09082104       0.44774913 </v>
    <v>       0.00000000       0.40917429       0.44774914 </v>
    <v>      -0.00000000       0.59082571       0.55225086 </v>
   </varray>
  </structure>
  <varray name="forces" >
   <v>      -0.00000010       0.00045393       0.00017938 </v>
   <v>       0.00000010      -0.00045393      -0.00017938 </v>
   <v>      -0.00000014       0.00044064      -0.00017966 </v>
   <v>       0.00000014      -0.00044064       0.00017966 </v>
  </varray>
  <varray name="stress" >
   <v>     -17.40789326      -0.00000168       0.00000028 </v>
   <v>      -0.00000175      -3.12929180       0.00017596 </v>
   <v>       0.00000024       0.00017594      -0.06587748 </v>
  </varray>
  <energy>
   <i name="e_fr_energy">    -21.39000241 </i>
   <i name="e_wo_entrp">    -21.39000241 </i>
   <i name="e_0_energy">     -0.00000000 </i>
  </energy>
  <time name="totalsc">    9.34    9.36</time>
  <eigenvalues>
   <array>
    <dimension dim="1">band</dimension>
    <dimension dim="2">kpoint</dimension>
    <dimension dim="3">spin</dimension>
    <field>eigene</field>
    <field>occ</field>
    <set>
     <set comment="spin 1">
      <set comment="kpoint 1">
       <r>  -17.0945    1.0000 </r>
       <r>  -14.5718    1.0000 </r>
       <r>  -11.5809    1.0000 </r>
       <r>   -7.8376    1.0000 </r>
       <r>   -7.0459    1.0000 </r>
       <r>   -6.6514    1.0000 </r>
       <r>   -6.0870    1.0000 </r>
       <r>   -4.4579    1.0000 </r>
       <r>   -3.7990    1.0000 </r>
       <r>   -2.3786    1.0000 </r>
       <r>   -1.2537    0.0000 </r>
       <r>   -1.2102    0.0000 </r>
       <r>   -0.3112    0.0000 </r>
       <r>    0.5260    0.0000 </r>
       <r>    2.1229    0.0000 </r>
       <r>    2.2409    0.0000 </r>
      </set>
      <set comment="kpoint 2">
       <r>  -17.0699    1.0000 </r>
       <r>  -14.5458    1.0000 </r>
       <r>  -11.5979    1.0000 </r>
       <r>   -7.8195    1.0000 </r>
       <r>   -7.0848    1.0000 </r>
       <r>   -6.6300    1.0000 </r>
       <r>   -6.2204    1.0000 </r>
       <r>   -4.5937    1.0000 </r>
       <r>   -3.7933    1.0000 </r>
       <r>   -2.3869    1.0000 </r>
       <r>   -1.2310    0.0000 </r>
       <r>   -1.0026    0.0000 </r>
       <r>   -0.1021    0.0000 </r>
       <r>    0.3920    0.0000 </r>
       <r>    2.1484    0.0000 </r>
       <r>    2.2686    0.0000 </r>
      </set>
      <set comment="kpoint 3">
       <r>  -16.9961    1.0000 </r>
       <r>  -14.4679    1.0000 </r>
       <r>  -11.6538    1.0000 </r>
       <r>   -7.7658    1.0000 </r>
       <r>   -7.2216    1.0000 </r>
       <r>   -6.5662    1.0000 </r>
       <r>   -6.5495    1.0000 </r>
       <r>   -4.8950    1.0000 </r>
       <r>   -3.7803    1.0000 </r>
       <r>   -2.4257    1.0000 </r>
       <r>   -1.1634    0.0000 </r>
       <r>   -0.4370    0.0000 </r>
       <r>    0.0557    0.0000 </r>
       <r>    0.4186    0.0000 </r>
       <r>    2.2175    0.0000 </r>
       <r>    2.3516    0.0000 </r>
      </set>
      <set comment="kpoint 4">
       <r>  -16.8736    1.0000 </r>
       <r>  -14.3382    1.0000 </r>
       <r>  -11.7615    1.0000 </r>
       <r>   -7.6789    1.0000 </r>
       <r>   -7.5017    1.0000 </r>
       <r>   -6.9420    1.0000 </r>
       <r>   -6.4613    1.0000 </r>
       <r>   -5.1746    1.0000 </r>
       <r>   -3.7731    1.0000 </r>
       <r>   -2.5093    1.0000 </r>
       <r>   -1.0525    0.0000 </r>
       <r>   -0.3586    0.0000 </r>
       <r>    0.3672    0.0000 </r>
       <r>    1.0066    0.0000 </r>
       <r>    2.1899    0.0000 </r>
       <r>    2.4894    0.0000 </r>
      </set>
      <set comment="kpoint 5">
       <r>  -16.7028    1.0000 </r>
       <r>  -14.1571    1.0000 </r>
       <r>  -11.9380    1.0000 </r>
       <r>   -7.9423    1.0000 </r>
       <r>   -7.5635    1.0000 </r>
       <r>   -7.2947    1.0000 </r>
       <r>   -6.3178    1.0000 </r>
       <r>   -5.3251    1.0000 </r>
       <r>   -3.7947    1.0000 </r>
       <r>   -2.6443    1.0000 </r>
       <r>   -0.9023    0.0000 </r>
       <r>   -0.7450    0.0000 </r>
       <r>    1.2298    0.0000 </r>
       <r>    1.2891    0.0000 </r>
       <r>    1.7286    0.0000 </r>
       <r>    2.6171    0.0000 </r>
      </set>
      <set comment="kpoint 6">
       <r>  -16.4849    1.0000 </r>
       <r>  -13.9249    1.0000 </r>
       <r>  -12.1963    1.0000 </r>
       <r>   -8.5003    1.0000 </r>
       <r>   -7.5474    1.0000 </r>
       <r>   -7.4275    1.0000 </r>
       <r>   -6.1396    1.0000 </r>
       <r>   -5.3471    1.0000 </r>
       <r>   -3.8731    1.0000 </r>
       <r>   -2.8340    1.0000 </r>
       <r>   -1.0235    0.0000 </r>
       <r>   -0.7222    0.0000 </r>
       <r>    0.8803    0.0000 </r>
       <r>    1.2065    0.0000 </r>
       <r>    2.0317    0.0000 </r>
       <r>    2.8602    0.0000 </r>
      </set>
      <set comment="kpoint 7">
       <r>  -16.2212    1.0000 </r>
       <r>  -13.6422    1.0000 </r>
       <r>  -12.5359    1.0000 </r>
       <r>   -9.1148    1.0000 </r>
       <r>   -7.6773    1.0000 </r>
       <r>   -7.2841    1.0000 </r>
       <r>   -5.9332    1.0000 </r>
       <r>   -5.2857    1.0000 </r>
       <r>   -4.0204    1.0000 </r>
       <r>   -3.0759    1.0000 </r>
       <r>   -1.1449    0.0000 </r>
       <r>   -0.5417    0.0000 </r>
       <r>    0.3546    0.0000 </r>
       <r>    0.7402    0.0000 </r>
       <r>    1.9116    0.0000 </r>
       <r>    2.9968    0.0000 </r>
      </set>
      <set comment="kpoint 8">
       <r>  -15.9134    1.0000 </r>
       <r>  -13.3097    1.0000 </r>
       <r>  -12.9406    1.0000 </r>
       <r>   -9.7430    1.0000 </r>
       <r>   -7.6901    1.0000 </r>
       <r>   -7.1550    1.0000 </r>
       <r>   -5.7083    1.0000 </r>
       <r>   -5.1849    1.0000 </r>
       <r>   -4.2080    1.0000 </r>
       <r>   -3.3584    1.0000 </r>
       <r>   -1.1036    0.0000 </r>
       <r>   -0.4626    0.0000 </r>
       <r>   -0.1555    0.0000 </r>
       <r>    0.4605    0.0000 </r>
       <r>    1.4875    0.0000 </r>
       <r>    2.7616    0.0000 </r>
      </set>
      <set comment="kpoint 9">
       <r>  -15.5643    1.0000 </r>
       <r>  -13.3866    1.0000 </r>
       <r>  -12.9285    1.0000 </r>
       <r>  -10.3599    1.0000 </r>
       <r>   -7.6094    1.0000 </r>
       <r>   -7.0715    1.0000 </r>
       <r>   -5.4802    1.0000 </r>
       <r>   -5.0830    1.0000 </r>
       <r>   -4.3713    1.0000 </r>
       <r>   -3.6613    1.0000 </r>
       <r>   -0.9267    0.0000 </r>
       <r>   -0.6176    0.0000 </r>
       <r>   -0.5837    0.0000 </r>
       <r>    0.5237    0.0000 </r>
       <r>    1.0245    0.0000 </r>
       <r>    2.4035    0.0000 </r>
      </set>
      <set comment="kpoint 10">
       <r>  -15.1773    1.0000 </r>
       <r>  -13.8500    1.0000 </r>
       <r>  -12.4998    1.0000 </r>
       <r>  -10.9511    1.0000 </r>
       <r>   -7.4665    1.0000 </r>
       <r>   -7.0663    1.0000 </r>
       <r>   -5.2710    1.0000 </r>
       <r>   -5.0176    1.0000 </r>
       <r>   -4.4425    1.0000 </r>
       <r>   -3.9568    1.0000 </r>
       <r>   -0.8876    0.0000 </r>
       <r>   -0.8560    0.0000 </r>
       <r>   -0.6477    0.0000 </r>
       <r>    0.5603    0.0000 </r>
       <r>    0.8046    0.0000 </r>
       <r>    1.9947    0.0000 </r>
      </set>
      <set comment="kpoint 11">
       <r>  -14.7574    1.0000 </r>
       <r>  -14.3116    1.0000 </r>
       <r>  -12.0255    1.0000 </r>
       <r>  -11.5081    1.0000 </r>
       <r>   -7.2990    1.0000 </r>
       <r>   -7.1506    1.0000 </r>
       <r>   -5.1090    1.0000 </r>
       <r>   -5.0211    1.0000 </r>
       <r>   -4.3856    1.0000 </r>
       <r>   -4.2114    1.0000 </r>
       <r>   -1.0357    0.0000 </r>
       <r>   -1.0175    0.0000 </r>
       <r>   -0.2936    0.0000 </r>
       <r>    0.1149    0.0000 </r>
       <r>    1.1700    0.0000 </r>
       <r>    1.5748    0.0000 </r>
      </set>
      <set comment="kpoint 12">
       <r>  -17.0732    1.0000 </r>
       <r>  -14.6054    1.0000 </r>
       <r>  -11.5787    1.0000 </r>
       <r>   -8.0136    1.0000 </r>
       <r>   -6.9222    1.0000 </r>
       <r>   -6.5705    1.0000 </r>
       <r>   -6.0701    1.0000 </r>
       <r>   -4.4739    1.0000 </r>
       <r>   -3.7164    1.0000 </r>
       <r>   -2.5441    1.0000 </r>
       <r>   -1.1925    0.0000 </r>
       <r>   -1.0985    0.0000 </r>
       <r>   -0.3631    0.0000 </r>
       <r>    0.5122    0.0000 </r>
       <r>    2.1753    0.0000 </r>
       <r>    2.2708    0.0000 </r>
      </set>
      <set comment="kpoint 13">
       <r>  -17.0486    1.0000 </r>
       <r>  -14.5797    1.0000 </r>
       <r>  -11.5944    1.0000 </r>
       <r>   -8.0027    1.0000 </r>
       <r>   -6.9515    1.0000 </r>
       <r>   -6.5723    1.0000 </r>
       <r>   -6.1808    1.0000 </r>
       <r>   -4.6159    1.0000 </r>
       <r>   -3.7117    1.0000 </r>
       <r>   -2.5487    1.0000 </r>
       <r>   -1.0814    0.0000 </r>
       <r>   -0.9840    0.0000 </r>
       <r>   -0.1573    0.0000 </r>
       <r>    0.3887    0.0000 </r>
       <r>    2.1994    0.0000 </r>
       <r>    2.2985    0.0000 </r>
      </set>
      <set comment="kpoint 14">
       <r>  -16.9748    1.0000 </r>
       <r>  -14.5025    1.0000 </r>
       <r>  -11.6459    1.0000 </r>
       <r>   -7.9777    1.0000 </r>
       <r>   -7.0535    1.0000 </r>
       <r>   -6.6840    1.0000 </r>
       <r>   -6.3370    1.0000 </r>
       <r>   -4.9291    1.0000 </r>
       <r>   -3.7059    1.0000 </r>
       <r>   -2.5738    1.0000 </r>
       <r>   -1.0282    0.0000 </r>
       <r>   -0.4195    0.0000 </r>
       <r>    0.0270    0.0000 </r>
       <r>    0.4104    0.0000 </r>
       <r>    2.2639    0.0000 </r>
       <r>    2.3812    0.0000 </r>
      </set>
      <set comment="kpoint 15">
       <r>  -16.8524    1.0000 </r>
       <r>  -14.3744    1.0000 </r>
       <r>  -11.7465    1.0000 </r>
       <r>   -7.9793    1.0000 </r>
       <r>   -7.2395    1.0000 </r>
       <r>   -7.0177    1.0000 </r>
       <r>   -6.2968    1.0000 </r>
       <r>   -5.2181    1.0000 </r>
       <r>   -3.7154    1.0000 </r>
       <r>   -2.6348    1.0000 </r>
       <r>   -0.9386    0.0000 </r>
       <r>   -0.3473    0.0000 </r>
       <r>    0.3787    0.0000 </r>
       <r>    1.0022    0.0000 </r>
       <r>    2.1117    0.0000 </r>
       <r>    2.4415    0.0000 </r>
      </set>
      <set comment="kpoint 16">
       <r>  -16.6819    1.0000 </r>
       <r>  -14.1959    1.0000 </r>
       <r>  -11.9137    1.0000 </r>
       <r>   -8.1493    1.0000 </r>
       <r>   -7.3938    1.0000 </r>
       <r>   -7.3593    1.0000 </r>
       <r>   -6.1736    1.0000 </r>
       <r>   -5.3718    1.0000 </r>
       <r>   -3.7628    1.0000 </r>
       <r>   -2.7428    1.0000 </r>
       <r>   -0.8127    0.0000 </r>
       <r>   -0.6991    0.0000 </r>
       <r>    1.2275    0.0000 </r>
       <r>    1.2802    0.0000 </r>
       <r>    1.6692    0.0000 </r>
       <r>    2.5834    0.0000 </r>
      </set>
      <set comment="kpoint 17">
       <r>  -16.4643    1.0000 </r>
       <r>  -13.9689    1.0000 </r>
       <r>  -12.1604    1.0000 </r>
       <r>   -8.5899    1.0000 </r>
       <r>   -7.6096    1.0000 </r>
       <r>   -7.3761    1.0000 </r>
       <r>   -6.0103    1.0000 </r>
       <r>   -5.3957    1.0000 </r>
       <r>   -3.8700    1.0000 </r>
       <r>   -2.9052    1.0000 </r>
       <r>   -0.9396    0.0000 </r>
       <r>   -0.6569    0.0000 </r>
       <r>    0.9701    0.0000 </r>
       <r>    1.0027    0.0000 </r>
       <r>    2.1654    0.0000 </r>
       <r>    2.7969    0.0000 </r>
      </set>
      <set comment="kpoint 18">
       <r>  -16.2010    1.0000 </r>
       <r>  -13.6981    1.0000 </r>
       <r>  -12.4829    1.0000 </r>
       <r>   -9.1648    1.0000 </r>
       <r>   -7.7377    1.0000 </r>
       <r>   -7.2713    1.0000 </r>
       <r>   -5.8210    1.0000 </r>
       <r>   -5.3437    1.0000 </r>
       <r>   -4.0343    1.0000 </r>
       <r>   -3.1209    1.0000 </r>
       <r>   -1.0289    0.0000 </r>
       <r>   -0.5010    0.0000 </r>
       <r>    0.4529    0.0000 </r>
       <r>    0.5526    0.0000 </r>
       <r>    2.1065    0.0000 </r>
       <r>    2.9464    0.0000 </r>
      </set>
      <set comment="kpoint 19">
       <r>  -15.8940    1.0000 </r>
       <r>  -13.4129    1.0000 </r>
       <r>  -12.8372    1.0000 </r>
       <r>   -9.7766    1.0000 </r>
       <r>   -7.7472    1.0000 </r>
       <r>   -7.1544    1.0000 </r>
       <r>   -5.6207    1.0000 </r>
       <r>   -5.2700    1.0000 </r>
       <r>   -4.2087    1.0000 </r>
       <r>   -3.3772    1.0000 </r>
       <r>   -0.9736    0.0000 </r>
       <r>   -0.4681    0.0000 </r>
       <r>   -0.0557    0.0000 </r>
       <r>    0.3041    0.0000 </r>
       <r>    1.7232    0.0000 </r>
       <r>    2.7159    0.0000 </r>
      </set>
      <set comment="kpoint 20">
       <r>  -15.5458    1.0000 </r>
       <r>  -13.4429    1.0000 </r>
       <r>  -12.8704    1.0000 </r>
       <r>  -10.3849    1.0000 </r>
       <r>   -7.6603    1.0000 </r>
       <r>   -7.0743    1.0000 </r>
       <r>   -5.4305    1.0000 </r>
       <r>   -5.2190    1.0000 </r>
       <r>   -4.3185    1.0000 </r>
       <r>   -3.6494    1.0000 </r>
       <r>   -0.8367    0.0000 </r>
       <r>   -0.6763    0.0000 </r>
       <r>   -0.4500    0.0000 </r>
       <r>    0.3924    0.0000 </r>
       <r>    1.3035    0.0000 </r>
       <r>    2.3646    0.0000 </r>
      </set>
      <set comment="kpoint 21">
       <r>  -15.1604    1.0000 </r>
       <r>  -13.8540    1.0000 </r>
       <r>  -12.4938    1.0000 </r>
       <r>  -10.9703    1.0000 </r>
       <r>   -7.5085    1.0000 </r>
       <r>   -7.0735    1.0000 </r>
       <r>   -5.2802    1.0000 </r>
       <r>   -5.1984    1.0000 </r>
       <r>   -4.3238    1.0000 </r>
       <r>   -3.9044    1.0000 </r>
       <r>   -0.9239    0.0000 </r>
       <r>   -0.9180    0.0000 </r>
       <r>   -0.4178    0.0000 </r>
       <r>    0.5299    0.0000 </r>
       <r>    1.0058    0.0000 </r>
       <r>    1.9648    0.0000 </r>
      </set>
      <set comment="kpoint 22">
       <r>  -14.7434    1.0000 </r>
       <r>  -14.3030    1.0000 </r>
       <r>  -12.0328    1.0000 </r>
       <r>  -11.5221    1.0000 </r>
       <r>   -7.3291    1.0000 </r>
       <r>   -7.1677    1.0000 </r>
       <r>   -5.1988    1.0000 </r>
       <r>   -5.1852    1.0000 </r>
       <r>   -4.2476    1.0000 </r>
       <r>   -4.1088    1.0000 </r>
       <r>   -1.0719    0.0000 </r>
       <r>   -1.0689    0.0000 </r>
       <r>   -0.0994    0.0000 </r>
       <r>    0.2719    0.0000 </r>
       <r>    1.1890    0.0000 </r>
       <r>    1.5595    0.0000 </r>
      </set>
      <set comment="kpoint 23">
       <r>  -14.7434    1.0000 </r>
       <r>  -14.3030    1.0000 </r>
       <r>  -12.0328    1.0000 </r>
       <r>  -11.5221    1.0000 </r>
       <r>   -7.3291    1.0000 </r>
       <r>   -7.1677    1.0000 </r>
       <r>   -5.1988    1.0000 </r>
       <r>   -5.1852    1.0000 </r>
       <r>   -4.2476    1.0000 </r>
       <r>   -4.1088    1.0000 </r>
       <r>   -1.0719    0.0000 </r>
       <r>   -1.0689    0.0000 </r>
       <r>   -0.0994    0.0000 </r>
       <r>    0.2719    0.0000 </r>
       <r>    1.1890    0.0000 </r>
       <r>    1.5595    0.0000 </r>
      </set>
      <set comment="kpoint 24">
       <r>  -15.1604    1.0000 </r>
       <r>  -13.8540    1.0000 </r>
       <r>  -12.4938    1.0000 </r>
       <r>  -10.9703    1.0000 </r>
       <r>   -7.5085    1.0000 </r>
       <r>   -7.0735    1.0000 </r>
       <r>   -5.2802    1.0000 </r>
       <r>   -5.1984    1.0000 </r>
       <r>   -4.3238    1.0000 </r>
       <r>   -3.9044    1.0000 </r>
       <r>   -0.9239    0.0000 </r>
       <r>   -0.9180    0.0000 </r>
       <r>   -0.4178    0.0000 </r>
       <r>    0.5299    0.0000 </r>
       <r>    1.0058    0.0000 </r>
       <r>    1.9648    0.0000 </r>
      </set>
      <set comment="kpoint 25">
       <r>  -15.5458    1.0000 </r>
       <r>  -13.4429    1.0000 </r>
       <r>  -12.8704    1.0000 </r>
       <r>  -10.3849    1.0000 </r>
       <r>   -7.6603    1.0000 </r>
       <r>   -7.0743    1.0000 </r>
       <r>   -5.4305    1.0000 </r>
       <r>   -5.2190    1.0000 </r>
       <r>   -4.3185    1.0000 </r>
       <r>   -3.6494    1.0000 </r>
       <r>   -0.8367    0.0000 </r>
       <r>   -0.6763    0.0000 </r>
       <r>   -0.4500    0.0000 </r>
       <r>    0.3924    0.0000 </r>
       <r>    1.3035    0.0000 </r>
       <r>    2.3646    0.0000 </r>
      </set>
      <set comment="kpoint 26">
       <r>  -15.8940    1.0000 </r>
       <r>  -13.4129    1.0000 </r>
       <r>  -12.8372    1.0000 </r>
       <r>   -9.7766    1.0000 </r>
       <r>   -7.7472    1.0000 </r>
       <r>   -7.1544    1.0000 </r>
       <r>   -5.6207    1.0000 </r>
       <r>   -5.2700    1.0000 </r>
       <r>   -4.2087    1.0000 </r>
       <r>   -3.3772    1.0000 </r>
       <r>   -0.9736    0.0000 </r>
       <r>   -0.4681    0.0000 </r>
       <r>   -0.0557    0.0000 </r>
       <r>    0.3041    0.0000 </r>
       <r>    1.7232    0.0000 </r>
       <r>    2.7159    0.0000 </r>
      </set>
      <set comment="kpoint 27">
       <r>  -16.2010    1.0000 </r>
       <r>  -13.6981    1.0000 </r>
       <r>  -12.4829    1.0000 </r>
       <r>   -9.1648    1.0000 </r>
       <r>   -7.7377    1.0000 </r>
       <r>   -7.2713    1.0000 </r>
       <r>   -5.8210    1.0000 </r>
       <r>   -5.3437    1.0000 </r>
       <r>   -4.0343    1.0000 </r>
       <r>   -3.1209    1.0000 </r>
       <r>   -1.0289    0.0000 </r>
       <r>   -0.5010    0.0000 </r>
       <r>    0.4529    0.0000 </r>
       <r>    0.5526    0.0000 </r>
       <r>    2.1065    0.0000 </r>
       <r>    2.9464    0.0000 </r>
      </set>
      <set comment="kpoint 28">
       <r>  -16.4643    1.0000 </r>
       <r>  -13.9689    1.0000 </r>
       <r>  -12.1604    1.0000 </r>
       <r>   -8.5899    1.0000 </r>
       <r>   -7.6096    1.0000 </r>
       <r>   -7.3761    1.0000 </r>
       <r>   -6.0103    1.0000 </r>
       <r>   -5.3957    1.0000 </r>
       <r>   -3.8700    1.0000 </r>
       <r>   -2.9052    1.0000 </r>
       <r>   -0.9396    0.0000 </r>
       <r>   -0.6569    0.0000 </r>
       <r>    0.9701    0.0000 </r>
       <r>    1.0027    0.0000 </r>
       <r>    2.1654    0.0000 </r>
       <r>    2.7969    0.0000 </r>
      </set>
      <set comment="kpoint 29">
       <r>  -16.6819    1.0000 </r>
       <r>  -14.1959    1.0000 </r>
       <r>  -11.9137    1.0000 </r>
       <r>   -8.1493    1.0000 </r>
       <r>   -7.3938    1.0000 </r>
       <r>   -7.3593    1.0000 </r>
       <r>   -6.1736    1.0000 </r>
       <r>   -5.3718    1.0000 </r>
       <r>   -3.7628    1.0000 </r>
       <r>   -2.7428    1.0000 </r>
       <r>   -0.8127    0.0000 </r>
       <r>   -0.6991    0.0000 </r>
       <r>    1.2275    0.0000 </r>
       <r>    1.2802    0.0000 </r>
       <r>    1.6692    0.0000 </r>
       <r>    2.5834    0.0000 </r>
      </set>
      <set comment="kpoint 30">
       <r>  -16.8524    1.0000 </r>
       <r>  -14.3744    1.0000 </r>
       <r>  -11.7465    1.0000 </r>
       <r>   -7.9793    1.0000 </r>
       <r>   -7.2395    1.0000 </r>
       <r>   -7.0177    1.0000 </r>
       <r>   -6.2968    1.0000 </r>
       <r>   -5.2181    1.0000 </r>
       <r>   -3.7154    1.0000 </r>
       <r>   -2.6348    1.0000 </r>
       <r>   -0.9386    0.0000 </r>
       <r>   -0.3473    0.0000 </r>
       <r>    0.3787    0.0000 </r>
       <r>    1.0022    0.0000 </r>
       <r>    2.1117    0.0000 </r>
       <r>    2.4415    0.0000 </r>
      </set>
      <set comment="kpoint 31">
       <r>  -16.9748    1.0000 </r>
       <r>  -14.5025    1.0000 </r>
       <r>  -11.6459    1.0000 </r>
       <r>   -7.9777    1.0000 </r>
       <r>   -7.0535    1.0000 </r>
       <r>   -6.6840    1.0000 </r>
       <r>   -6.3370    1.0000 </r>
       <r>   -4.9291    1.0000 </r>
       <r>   -3.7059    1.0000 </r>
       <r>   -2.5738    1.0000 </r>
       <r>   -1.0282    0.0000 </r>
       <r>   -0.4195    0.0000 </r>
       <r>    0.0270    0.0000 </r>
       <r>    0.4104    0.0000 </r>
       <r>    2.2639    0.0000 </r>
       <r>    2.3812    0.0000 </r>
      </set>
      <set comment="kpoint 32">
       <r>  -17.0486    1.0000 </r>
       <r>  -14.5797    1.0000 </r>
       <r>  -11.5944    1.0000 </r>
       <r>   -8.0027    1.0000 </r>
       <r>   -6.9515    1.0000 </r>
       <r>   -6.5723    1.0000 </r>
       <r>   -6.1808    1.0000 </r>
       <r>   -4.6159    1.0000 </r>
       <r>   -3.7117    1.0000 </r>
       <r>   -2.5487    1.0000 </r>
       <r>   -1.0814    0.0000 </r>
       <r>   -0.9840    0.0000 </r>
       <r>   -0.1573    0.0000 </r>
       <r>    0.3887    0.0000 </r>
       <r>    2.1994    0.0000 </r>
       <r>    2.2985    0.0000 </r>
      </set>
      <set comment="kpoint 33">
       <r>  -17.0094    1.0000 </r>
       <r>  -14.7051    1.0000 </r>
       <r>  -11.5638    1.0000 </r>
       <r>   -8.3834    1.0000 </r>
       <r>   -6.6924    1.0000 </r>
       <r>   -6.3389    1.0000 </r>
       <r>   -6.0200    1.0000 </r>
       <r>   -4.5220    1.0000 </r>
       <r>   -3.4943    1.0000 </r>
       <r>   -2.9019    1.0000 </r>
       <r>   -1.1335    0.0000 </r>
       <r>   -0.7749    0.0000 </r>
       <r>   -0.5110    0.0000 </r>
       <r>    0.4798    0.0000 </r>
       <r>    2.3268    0.0000 </r>
       <r>    2.3598    0.0000 </r>
      </set>
      <set comment="kpoint 34">
       <r>  -16.9849    1.0000 </r>
       <r>  -14.6800    1.0000 </r>
       <r>  -11.5757    1.0000 </r>
       <r>   -8.3773    1.0000 </r>
       <r>   -6.7109    1.0000 </r>
       <r>   -6.4323    1.0000 </r>
       <r>   -6.0400    1.0000 </r>
       <r>   -4.6769    1.0000 </r>
       <r>   -3.4973    1.0000 </r>
       <r>   -2.9016    1.0000 </r>
       <r>   -0.9322    0.0000 </r>
       <r>   -0.7583    0.0000 </r>
       <r>   -0.3055    0.0000 </r>
       <r>    0.3799    0.0000 </r>
       <r>    2.3473    0.0000 </r>
       <r>    2.3874    0.0000 </r>
      </set>
      <set comment="kpoint 35">
       <r>  -16.9114    1.0000 </r>
       <r>  -14.6048    1.0000 </r>
       <r>  -11.6161    1.0000 </r>
       <r>   -8.3671    1.0000 </r>
       <r>   -6.7830    1.0000 </r>
       <r>   -6.7254    1.0000 </r>
       <r>   -6.0214    1.0000 </r>
       <r>   -5.0175    1.0000 </r>
       <r>   -3.5186    1.0000 </r>
       <r>   -2.9077    1.0000 </r>
       <r>   -0.7352    0.0000 </r>
       <r>   -0.3632    0.0000 </r>
       <r>   -0.0290    0.0000 </r>
       <r>    0.3742    0.0000 </r>
       <r>    2.3047    0.0000 </r>
       <r>    2.4111    0.0000 </r>
      </set>
      <set comment="kpoint 36">
       <r>  -16.7894    1.0000 </r>
       <r>  -14.4805    1.0000 </r>
       <r>  -11.6983    1.0000 </r>
       <r>   -8.3835    1.0000 </r>
       <r>   -7.1119    1.0000 </r>
       <r>   -6.9423    1.0000 </r>
       <r>   -5.9450    1.0000 </r>
       <r>   -5.3278    1.0000 </r>
       <r>   -3.5784    1.0000 </r>
       <r>   -2.9334    1.0000 </r>
       <r>   -0.6725    0.0000 </r>
       <r>   -0.2871    0.0000 </r>
       <r>    0.4084    0.0000 </r>
       <r>    0.9679    0.0000 </r>
       <r>    1.8180    0.0000 </r>
       <r>    2.5005    0.0000 </r>
      </set>
      <set comment="kpoint 37">
       <r>  -16.6195    1.0000 </r>
       <r>  -14.3086    1.0000 </r>
       <r>  -11.8409    1.0000 </r>
       <r>   -8.5023    1.0000 </r>
       <r>   -7.4722    1.0000 </r>
       <r>   -7.1508    1.0000 </r>
       <r>   -5.8308    1.0000 </r>
       <r>   -5.4856    1.0000 </r>
       <r>   -3.6945    1.0000 </r>
       <r>   -2.9918    1.0000 </r>
       <r>   -0.5872    0.0000 </r>
       <r>   -0.5447    0.0000 </r>
       <r>    0.9905    0.0000 </r>
       <r>    1.3847    0.0000 </r>
       <r>    1.6322    0.0000 </r>
       <r>    2.6046    0.0000 </r>
      </set>
      <set comment="kpoint 38">
       <r>  -16.4029    1.0000 </r>
       <r>  -14.0931    1.0000 </r>
       <r>  -12.0581    1.0000 </r>
       <r>   -8.8176    1.0000 </r>
       <r>   -7.7350    1.0000 </r>
       <r>   -7.2659    1.0000 </r>
       <r>   -5.6927    1.0000 </r>
       <r>   -5.5123    1.0000 </r>
       <r>   -3.8691    1.0000 </r>
       <r>   -3.0940    1.0000 </r>
       <r>   -0.6913    0.0000 </r>
       <r>   -0.4808    0.0000 </r>
       <r>    0.6230    0.0000 </r>
       <r>    1.2062    0.0000 </r>
       <r>    2.3761    0.0000 </r>
       <r>    2.7500    0.0000 </r>
      </set>
      <set comment="kpoint 39">
       <r>  -16.1409    1.0000 </r>
       <r>  -13.8451    1.0000 </r>
       <r>  -12.3437    1.0000 </r>
       <r>   -9.3075    1.0000 </r>
       <r>   -7.8694    1.0000 </r>
       <r>   -7.2445    1.0000 </r>
       <r>   -5.5467    1.0000 </r>
       <r>   -5.4858    1.0000 </r>
       <r>   -4.0663    1.0000 </r>
       <r>   -3.2421    1.0000 </r>
       <r>   -0.7072    0.0000 </r>
       <r>   -0.3902    0.0000 </r>
       <r>    0.2121    0.0000 </r>
       <r>    0.7243    0.0000 </r>
       <r>    2.4393    0.0000 </r>
       <r>    2.8146    0.0000 </r>
      </set>
      <set comment="kpoint 40">
       <r>  -15.8359    1.0000 </r>
       <r>  -13.6081    1.0000 </r>
       <r>  -12.6411    1.0000 </r>
       <r>   -9.8758    1.0000 </r>
       <r>   -7.8772    1.0000 </r>
       <r>   -7.1579    1.0000 </r>
       <r>   -5.4775    1.0000 </r>
       <r>   -5.4164    1.0000 </r>
       <r>   -4.2101    1.0000 </r>
       <r>   -3.4220    1.0000 </r>
       <r>   -0.6195    0.0000 </r>
       <r>   -0.5095    0.0000 </r>
       <r>    0.0976    0.0000 </r>
       <r>    0.2242    0.0000 </r>
       <r>    2.1772    0.0000 </r>
       <r>    2.5893    0.0000 </r>
      </set>
      <set comment="kpoint 41">
       <r>  -15.4909    1.0000 </r>
       <r>  -13.5718    1.0000 </r>
       <r>  -12.7367    1.0000 </r>
       <r>  -10.4597    1.0000 </r>
       <r>   -7.7803    1.0000 </r>
       <r>   -7.0832    1.0000 </r>
       <r>   -5.5158    1.0000 </r>
       <r>   -5.3345    1.0000 </r>
       <r>   -4.2348    1.0000 </r>
       <r>   -3.6042    1.0000 </r>
       <r>   -0.7996    0.0000 </r>
       <r>   -0.5645    0.0000 </r>
       <r>   -0.0983    0.0000 </r>
       <r>    0.2680    0.0000 </r>
       <r>    1.8208    0.0000 </r>
       <r>    2.2564    0.0000 </r>
      </set>
      <set comment="kpoint 42">
       <r>  -15.1106    1.0000 </r>
       <r>  -13.8689    1.0000 </r>
       <r>  -12.4736    1.0000 </r>
       <r>  -11.0282    1.0000 </r>
       <r>   -7.6098    1.0000 </r>
       <r>   -7.0903    1.0000 </r>
       <r>   -5.5428    1.0000 </r>
       <r>   -5.3308    1.0000 </r>
       <r>   -4.1532    1.0000 </r>
       <r>   -3.7615    1.0000 </r>
       <r>   -1.0251    0.0000 </r>
       <r>   -0.7952    0.0000 </r>
       <r>    0.0272    0.0000 </r>
       <r>    0.4854    0.0000 </r>
       <r>    1.4689    0.0000 </r>
       <r>    1.8858    0.0000 </r>
[...]
       <r>    3.1553    0.0000 </r>
       <r>    3.2741    0.0000 </r>
      </set>
      <set comment="kpoint 153">
       <r>  -15.3080    1.0000 </r>
       <r>  -15.0617    1.0000 </r>
       <r>  -11.0681    1.0000 </r>
       <r>  -10.7491    1.0000 </r>
       <r>   -7.9217    1.0000 </r>
       <r>   -7.7632    1.0000 </r>
       <r>   -5.4034    1.0000 </r>
       <r>   -5.1953    1.0000 </r>
       <r>   -3.8770    1.0000 </r>
       <r>   -3.7759    1.0000 </r>
       <r>    0.1488    0.0000 </r>
       <r>    0.5385    0.0000 </r>
       <r>    0.9853    0.0000 </r>
       <r>    1.2761    0.0000 </r>
       <r>    2.9717    0.0000 </r>
       <r>    3.1522    0.0000 </r>
      </set>
      <set comment="kpoint 154">
       <r>  -15.5486    1.0000 </r>
       <r>  -15.2956    1.0000 </r>
       <r>  -10.8764    1.0000 </r>
       <r>  -10.5443    1.0000 </r>
       <r>   -7.6833    1.0000 </r>
       <r>   -7.5241    1.0000 </r>
       <r>   -5.2304    1.0000 </r>
       <r>   -4.9784    1.0000 </r>
       <r>   -3.7900    1.0000 </r>
       <r>   -3.7858    1.0000 </r>
       <r>    0.0919    0.0000 </r>
       <r>    0.4007    0.0000 </r>
       <r>    1.0892    0.0000 </r>
       <r>    1.4219    0.0000 </r>
       <r>    2.4712    0.0000 </r>
       <r>    2.7276    0.0000 </r>
      </set>
      <set comment="kpoint 155">
       <r>  -15.7517    1.0000 </r>
       <r>  -15.4951    1.0000 </r>
       <r>  -10.7839    1.0000 </r>
       <r>  -10.4501    1.0000 </r>
       <r>   -7.2685    1.0000 </r>
       <r>   -7.1008    1.0000 </r>
       <r>   -5.1891    1.0000 </r>
       <r>   -4.8941    1.0000 </r>
       <r>   -3.7306    1.0000 </r>
       <r>   -3.6104    1.0000 </r>
       <r>    0.0696    0.0000 </r>
       <r>    0.2633    0.0000 </r>
       <r>    1.0985    0.0000 </r>
       <r>    1.4384    0.0000 </r>
       <r>    1.8417    0.0000 </r>
       <r>    2.0237    0.0000 </r>
      </set>
      <set comment="kpoint 156">
       <r>  -15.9129    1.0000 </r>
       <r>  -15.6542    1.0000 </r>
       <r>  -10.7590    1.0000 </r>
       <r>  -10.4287    1.0000 </r>
       <r>   -6.7301    1.0000 </r>
       <r>   -6.5519    1.0000 </r>
       <r>   -5.2156    1.0000 </r>
       <r>   -4.8957    1.0000 </r>
       <r>   -3.6846    1.0000 </r>
       <r>   -3.4382    1.0000 </r>
       <r>    0.0032    0.0000 </r>
       <r>    0.0635    0.0000 </r>
       <r>    0.9720    0.0000 </r>
       <r>    1.0796    0.0000 </r>
       <r>    1.5072    0.0000 </r>
       <r>    1.6071    0.0000 </r>
      </set>
      <set comment="kpoint 157">
       <r>  -16.0296    1.0000 </r>
       <r>  -15.7697    1.0000 </r>
       <r>  -10.7655    1.0000 </r>
       <r>  -10.4391    1.0000 </r>
       <r>   -6.1417    1.0000 </r>
       <r>   -5.9584    1.0000 </r>
       <r>   -5.2576    1.0000 </r>
       <r>   -4.9267    1.0000 </r>
       <r>   -3.7263    1.0000 </r>
       <r>   -3.3661    1.0000 </r>
       <r>   -0.3096    0.0000 </r>
       <r>   -0.2751    0.0000 </r>
       <r>    0.8257    0.0000 </r>
       <r>    0.8855    0.0000 </r>
       <r>    1.3121    0.0000 </r>
       <r>    1.5596    0.0000 </r>
      </set>
      <set comment="kpoint 158">
       <r>  -16.1001    1.0000 </r>
       <r>  -15.8396    1.0000 </r>
       <r>  -10.7781    1.0000 </r>
       <r>  -10.4544    1.0000 </r>
       <r>   -5.6116    1.0000 </r>
       <r>   -5.4433    1.0000 </r>
       <r>   -5.2830    1.0000 </r>
       <r>   -4.9548    1.0000 </r>
       <r>   -3.8731    1.0000 </r>
       <r>   -3.4262    1.0000 </r>
       <r>   -0.6778    0.0000 </r>
       <r>   -0.6093    0.0000 </r>
       <r>    0.7861    0.0000 </r>
       <r>    0.9639    0.0000 </r>
       <r>    1.2224    0.0000 </r>
       <r>    1.5258    0.0000 </r>
      </set>
     </set>
    </set>
   </array>
  </eigenvalues>
  <separator name="orbital magnetization" >
   <v name="MAGDIPOLOUT">      0.00000000      0.00000000      0.00000000</v>
  </separator>
  <dos>
   <i name="efermi">     -2.24064383 </i>
   <total>
    <array>
     <dimension dim="1">gridpoints</dimension>
     <dimension dim="2">spin</dimension>
     <field>energy</field>
     <field>total</field>
     <field>integrated</field>
     <set>
      <set comment="spin 1">
       <r>   -18.1254     0.0000     0.0000 </r>
       <r>   -18.0498     0.0000     0.0000 </r>
       <r>   -17.9742     0.0000     0.0000 </r>
       <r>   -17.8986     0.0000     0.0000 </r>
       <r>   -17.8230     0.0000     0.0000 </r>
       <r>   -17.7474     0.0000     0.0000 </r>
       <r>   -17.6718     0.0000     0.0000 </r>
       <r>   -17.5962     0.0000     0.0000 </r>
       <r>   -17.5206     0.0000     0.0000 </r>
       <r>   -17.4450     0.0000     0.0000 </r>
       <r>   -17.3694     0.0000     0.0000 </r>
       <r>   -17.2938     0.0000     0.0000 </r>
       <r>   -17.2182     0.0000     0.0000 </r>
       <r>   -17.1426     0.0000     0.0000 </r>
       <r>   -17.0670     0.3237     0.0245 </r>
       <r>   -16.9914     0.8379     0.0878 </r>
       <r>   -16.9158     0.7666     0.1458 </r>
       <r>   -16.8402     1.1149     0.2301 </r>
       <r>   -16.7646     0.7913     0.2899 </r>
       <r>   -16.6890     0.8390     0.3533 </r>
       <r>   -16.6134     1.0110     0.4297 </r>
       <r>   -16.5378     0.8099     0.4910 </r>
       <r>   -16.4622     1.1342     0.5767 </r>
       <r>   -16.3866     0.5735     0.6201 </r>
       <r>   -16.3110     1.1998     0.7108 </r>
       <r>   -16.2354     0.6202     0.7576 </r>
       <r>   -16.1599     1.1272     0.8428 </r>
       <r>   -16.0843     1.1531     0.9300 </r>
       <r>   -16.0087     0.7372     0.9857 </r>
       <r>   -15.9331     0.7004     1.0387 </r>
       <r>   -15.8575     1.2900     1.1362 </r>
       <r>   -15.7819     0.9107     1.2051 </r>
       <r>   -15.7063     1.4356     1.3136 </r>
       <r>   -15.6307     0.3520     1.3402 </r>
       <r>   -15.5551     1.1245     1.4252 </r>
       <r>   -15.4795     1.7540     1.5578 </r>
       <r>   -15.4039     0.6437     1.6065 </r>
       <r>   -15.3283     0.6156     1.6530 </r>
       <r>   -15.2527     1.6012     1.7740 </r>
       <r>   -15.1771     0.9302     1.8444 </r>
       <r>   -15.1015     1.2507     1.9389 </r>
       <r>   -15.0259     1.6504     2.0637 </r>
       <r>   -14.9503     1.0735     2.1448 </r>
       <r>   -14.8747     0.7475     2.2013 </r>
       <r>   -14.7991     1.1909     2.2914 </r>
       <r>   -14.7235     2.0663     2.4476 </r>
       <r>   -14.6479     1.4573     2.5577 </r>
       <r>   -14.5723     1.5600     2.6757 </r>
       <r>   -14.4967     2.1956     2.8417 </r>
       <r>   -14.4211     1.5465     2.9586 </r>
       <r>   -14.3455     0.7181     3.0128 </r>
       <r>   -14.2699     2.9585     3.2365 </r>
       <r>   -14.1943     1.5950     3.3571 </r>
       <r>   -14.1187     1.4626     3.4676 </r>
       <r>   -14.0432     1.2859     3.5649 </r>
       <r>   -13.9676     0.5077     3.6032 </r>
       <r>   -13.8920     1.1441     3.6897 </r>
       <r>   -13.8164     1.5162     3.8043 </r>
       <r>   -13.7408     0.1797     3.8179 </r>
       <r>   -13.6652     0.5661     3.8607 </r>
       <r>   -13.5896     0.5020     3.8987 </r>
       <r>   -13.5140     0.3325     3.9238 </r>
       <r>   -13.4384     0.2224     3.9406 </r>
       <r>   -13.3628     0.6097     3.9867 </r>
       <r>   -13.2872     0.1664     3.9993 </r>
       <r>   -13.2116     0.0094     4.0000 </r>
       <r>   -13.1360     0.0000     4.0000 </r>
       <r>   -13.0604     0.0000     4.0000 </r>
       <r>   -12.9848     0.0002     4.0000 </r>
       <r>   -12.9092     0.3201     4.0242 </r>
       <r>   -12.8336     0.5517     4.0659 </r>
       <r>   -12.7580     0.1581     4.0779 </r>
       <r>   -12.6824     0.3144     4.1016 </r>
       <r>   -12.6068     0.3335     4.1268 </r>
       <r>   -12.5312     0.4450     4.1605 </r>
       <r>   -12.4556     1.2123     4.2521 </r>
       <r>   -12.3800     0.8428     4.3158 </r>
       <r>   -12.3044     0.8613     4.3810 </r>
       <r>   -12.2288     0.3361     4.4064 </r>
       <r>   -12.1532     1.2959     4.5043 </r>
       <r>   -12.0776     2.1780     4.6690 </r>
       <r>   -12.0020     1.5551     4.7865 </r>
       <r>   -11.9264     1.1783     4.8756 </r>
       <r>   -11.8509     1.4811     4.9876 </r>
       <r>   -11.7753     0.8529     5.0521 </r>
       <r>   -11.6997     1.5148     5.1666 </r>
       <r>   -11.6241     2.2242     5.3347 </r>
       <r>   -11.5485     2.9231     5.5557 </r>
       <r>   -11.4729     1.5535     5.6731 </r>
       <r>   -11.3973     1.9470     5.8203 </r>
       <r>   -11.3217     0.9911     5.8952 </r>
       <r>   -11.2461     1.4268     6.0031 </r>
       <r>   -11.1705     0.6912     6.0553 </r>
       <r>   -11.0949     0.5087     6.0938 </r>
       <r>   -11.0193     2.3348     6.2703 </r>
       <r>   -10.9437     0.8344     6.3334 </r>
       <r>   -10.8681     0.3675     6.3612 </r>
       <r>   -10.7925     0.3218     6.3855 </r>
       <r>   -10.7169     2.2846     6.5582 </r>
       <r>   -10.6413     0.0070     6.5587 </r>
       <r>   -10.5657     0.3215     6.5830 </r>
       <r>   -10.4901     0.5902     6.6277 </r>
       <r>   -10.4145     2.1262     6.7884 </r>
       <r>   -10.3389     0.6457     6.8372 </r>
       <r>   -10.2633     0.0509     6.8410 </r>
       <r>   -10.1877     0.5092     6.8795 </r>
       <r>   -10.1121     0.2329     6.8971 </r>
       <r>   -10.0365     1.8775     7.0391 </r>
       <r>    -9.9609     0.1969     7.0540 </r>
       <r>    -9.8853     0.0840     7.0603 </r>
       <r>    -9.8097     0.6193     7.1071 </r>
       <r>    -9.7341     0.7653     7.1650 </r>
       <r>    -9.6586     1.2986     7.2632 </r>
       <r>    -9.5830     0.2564     7.2825 </r>
       <r>    -9.5074     0.3002     7.3052 </r>
       <r>    -9.4318     0.3698     7.3332 </r>
       <r>    -9.3562     0.0020     7.3333 </r>
       <r>    -9.2806     0.6294     7.3809 </r>
       <r>    -9.2050     1.2139     7.4727 </r>
       <r>    -9.1294     0.4700     7.5082 </r>
       <r>    -9.0538     0.3741     7.5365 </r>
       <r>    -8.9782     0.0000     7.5365 </r>
       <r>    -8.9026     0.0786     7.5425 </r>
       <r>    -8.8270     0.4474     7.5763 </r>
       <r>    -8.7514     1.3215     7.6762 </r>
       <r>    -8.6758     0.0001     7.6762 </r>
       <r>    -8.6002     0.0783     7.6821 </r>
       <r>    -8.5246     0.2842     7.7036 </r>
       <r>    -8.4490     0.4774     7.7397 </r>
       <r>    -8.3734     0.6981     7.7925 </r>
       <r>    -8.2978     0.4778     7.8286 </r>
       <r>    -8.2222     0.0000     7.8286 </r>
       <r>    -8.1466     0.2191     7.8451 </r>
       <r>    -8.0710     1.5401     7.9616 </r>
       <r>    -7.9954     2.0731     8.1183 </r>
       <r>    -7.9198     2.1361     8.2798 </r>
       <r>    -7.8442     2.2293     8.4483 </r>
       <r>    -7.7686     2.3551     8.6263 </r>
       <r>    -7.6930     2.2795     8.7987 </r>
       <r>    -7.6174     1.8293     8.9369 </r>
       <r>    -7.5418     2.2959     9.1105 </r>
       <r>    -7.4663     2.9822     9.3359 </r>
       <r>    -7.3907     2.2584     9.5067 </r>
       <r>    -7.3151     1.8959     9.6500 </r>
       <r>    -7.2395     4.2256     9.9694 </r>
       <r>    -7.1639     3.4434    10.2297 </r>
       <r>    -7.0883     4.7734    10.5906 </r>
       <r>    -7.0127     2.4369    10.7748 </r>
       <r>    -6.9371     1.2164    10.8668 </r>
       <r>    -6.8615     1.0428    10.9456 </r>
       <r>    -6.7859     1.0753    11.0269 </r>
       <r>    -6.7103     1.5528    11.1443 </r>
       <r>    -6.6347     1.6500    11.2690 </r>
       <r>    -6.5591     1.4370    11.3776 </r>
       <r>    -6.4835     2.0780    11.5347 </r>
       <r>    -6.4079     1.8353    11.6735 </r>
       <r>    -6.3323     1.0705    11.7544 </r>
       <r>    -6.2567     1.9192    11.8995 </r>
       <r>    -6.1811     2.3379    12.0762 </r>
       <r>    -6.1055     1.9550    12.2240 </r>
       <r>    -6.0299     1.2359    12.3174 </r>
       <r>    -5.9543     1.9288    12.4632 </r>
       <r>    -5.8787     2.7691    12.6726 </r>
       <r>    -5.8031     2.6525    12.8731 </r>
       <r>    -5.7275     0.9419    12.9443 </r>
       <r>    -5.6519     3.1825    13.1849 </r>
       <r>    -5.5763     4.2861    13.5089 </r>
       <r>    -5.5007     2.8586    13.7250 </r>
       <r>    -5.4251     4.3917    14.0570 </r>
       <r>    -5.3496     3.0226    14.2855 </r>
       <r>    -5.2740     3.8635    14.5776 </r>
       <r>    -5.1984     3.8635    14.8696 </r>
       <r>    -5.1228     2.8258    15.0833 </r>
       <r>    -5.0472     0.7731    15.1417 </r>
       <r>    -4.9716     2.3279    15.3177 </r>
       <r>    -4.8960     2.7700    15.5271 </r>
       <r>    -4.8204     1.1310    15.6126 </r>
       <r>    -4.7448     0.6235    15.6597 </r>
       <r>    -4.6692     1.1053    15.7433 </r>
       <r>    -4.5936     1.7352    15.8744 </r>
       <r>    -4.5180     1.3448    15.9761 </r>
       <r>    -4.4424     0.5545    16.0180 </r>
       <r>    -4.3668     0.4083    16.0489 </r>
       <r>    -4.2912     1.0208    16.1261 </r>
       <r>    -4.2156     1.0398    16.2047 </r>
       <r>    -4.1400     2.7176    16.4101 </r>
       <r>    -4.0644     2.4289    16.5937 </r>
       <r>    -3.9888     2.6309    16.7926 </r>
       <r>    -3.9132     1.8517    16.9326 </r>
       <r>    -3.8376     4.1767    17.2483 </r>
       <r>    -3.7620     3.5005    17.5130 </r>
       <r>    -3.6864     5.4182    17.9226 </r>
       <r>    -3.6108     3.1096    18.1576 </r>
       <r>    -3.5352     4.1194    18.4690 </r>
       <r>    -3.4596     3.9536    18.7679 </r>
       <r>    -3.3840     3.8403    19.0582 </r>
       <r>    -3.3084     2.4868    19.2462 </r>
       <r>    -3.2328     1.8279    19.3844 </r>
       <r>    -3.1573     0.5113    19.4231 </r>
       <r>    -3.0817     1.6608    19.5486 </r>
       <r>    -3.0061     0.7921    19.6085 </r>
       <r>    -2.9305     1.0659    19.6891 </r>
       <r>    -2.8549     1.6883    19.8167 </r>
       <r>    -2.7793     0.1587    19.8287 </r>
       <r>    -2.7037     0.3333    19.8539 </r>
       <r>    -2.6281     0.3771    19.8824 </r>
       <r>    -2.5525     0.6214    19.9294 </r>
       <r>    -2.4769     0.5124    19.9681 </r>
       <r>    -2.4013     0.1933    19.9827 </r>
       <r>    -2.3257     0.2284    20.0000 </r>
       <r>    -2.2501     0.0000    20.0000 </r>
       <r>    -2.1745     0.0000    20.0000 </r>
       <r>    -2.0989     0.0000    20.0000 </r>
       <r>    -2.0233     0.0000    20.0000 </r>
       <r>    -1.9477     0.0000    20.0000 </r>
       <r>    -1.8721     0.0000    20.0000 </r>
       <r>    -1.7965     0.0000    20.0000 </r>
       <r>    -1.7209     0.0000    20.0000 </r>
       <r>    -1.6453     0.0000    20.0000 </r>
       <r>    -1.5697     0.0000    20.0000 </r>
       <r>    -1.4941     0.0000    20.0000 </r>
       <r>    -1.4185     0.0000    20.0000 </r>
       <r>    -1.3429     0.0000    20.0000 </r>
       <r>    -1.2673     0.0149    20.0011 </r>
       <r>    -1.1917     0.4042    20.0317 </r>
       <r>    -1.1161     0.7205    20.0861 </r>
       <r>    -1.0405     2.1094    20.2456 </r>
       <r>    -0.9650     3.2193    20.4890 </r>
       <r>    -0.8894     2.6825    20.6918 </r>
       <r>    -0.8138     2.1501    20.8543 </r>
       <r>    -0.7382     3.4787    21.1173 </r>
       <r>    -0.6626     3.4940    21.3814 </r>
       <r>    -0.5870     2.7132    21.5865 </r>
       <r>    -0.5114     2.1143    21.7464 </r>
       <r>    -0.4358     3.2069    21.9888 </r>
       <r>    -0.3602     2.9470    22.2116 </r>
       <r>    -0.2846     3.7000    22.4913 </r>
       <r>    -0.2090     3.1379    22.7285 </r>
       <r>    -0.1334     2.8509    22.9440 </r>
       <r>    -0.0578     2.9951    23.1704 </r>
       <r>     0.0178     3.2895    23.4191 </r>
       <r>     0.0934     4.5473    23.7629 </r>
       <r>     0.1690     3.3419    24.0155 </r>
       <r>     0.2446     2.3140    24.1904 </r>
       <r>     0.3202     3.3955    24.4471 </r>
       <r>     0.3958     5.6591    24.8749 </r>
       <r>     0.4714     6.6776    25.3797 </r>
       <r>     0.5470     3.4190    25.6382 </r>
       <r>     0.6226     2.9971    25.8648 </r>
       <r>     0.6982     3.7367    26.1473 </r>
       <r>     0.7738     2.9938    26.3736 </r>
       <r>     0.8494     2.2772    26.5457 </r>
       <r>     0.9250     3.1768    26.7859 </r>
       <r>     1.0006     2.9630    27.0099 </r>
       <r>     1.0762     1.8287    27.1481 </r>
       <r>     1.1518     2.0382    27.3022 </r>
       <r>     1.2273     2.7963    27.5136 </r>
       <r>     1.3029     3.4739    27.7762 </r>
       <r>     1.3785     2.7923    27.9873 </r>
       <r>     1.4541     2.3229    28.1629 </r>
       <r>     1.5297     3.0052    28.3901 </r>
       <r>     1.6053     2.2893    28.5631 </r>
       <r>     1.6809     1.5008    28.6766 </r>
       <r>     1.7565     1.8136    28.8137 </r>
       <r>     1.8321     2.4227    28.9968 </r>
       <r>     1.9077     1.9742    29.1461 </r>
       <r>     1.9833     1.3571    29.2487 </r>
       <r>     2.0589     1.8567    29.3890 </r>
       <r>     2.1345     1.7717    29.5230 </r>
       <r>     2.2101     3.2692    29.7701 </r>
       <r>     2.2857     2.3054    29.9444 </r>
       <r>     2.3613     2.4611    30.1305 </r>
       <r>     2.4369     3.7320    30.4126 </r>
       <r>     2.5125     3.1366    30.6497 </r>
       <r>     2.5881     1.5922    30.7701 </r>
       <r>     2.6637     2.5572    30.9634 </r>
       <r>     2.7393     2.7737    31.1731 </r>
       <r>     2.8149     1.9479    31.3203 </r>
       <r>     2.8905     1.9403    31.4670 </r>
       <r>     2.9661     1.0454    31.5460 </r>
       <r>     3.0417     1.2964    31.6440 </r>
       <r>     3.1173     0.4972    31.6816 </r>
       <r>     3.1929     1.8534    31.8217 </r>
       <r>     3.2685     0.7910    31.8815 </r>
       <r>     3.3440     0.7075    31.9350 </r>
       <r>     3.4196     0.5238    31.9746 </r>
       <r>     3.4952     0.0088    31.9753 </r>
       <r>     3.5708     0.3271    32.0000 </r>
       <r>     3.6464     0.0001    32.0000 </r>
       <r>     3.7220     0.0000    32.0000 </r>
       <r>     3.7976     0.0000    32.0000 </r>
       <r>     3.8732     0.0000    32.0000 </r>
       <r>     3.9488     0.0000    32.0000 </r>
       <r>     4.0244     0.0000    32.0000 </r>
       <r>     4.1000     0.0000    32.0000 </r>
       <r>     4.1756     0.0000    32.0000 </r>
       <r>     4.2512     0.0000    32.0000 </r>
       <r>     4.3268     0.0000    32.0000 </r>
       <r>     4.4024     0.0000    32.0000 </r>
       <r>     4.4780     0.0000    32.0000 </r>
       <r>     4.5536     0.0000    32.0000 </r>
      </set>
     </set>
    </array>
   </total>
  </dos>
 </calculation>
 <structure name="finalpos" >
  <crystal>
   <varray name="basis" >
    <v>       3.42655500       0.00000000       0.00000000 </v>
    <v>       0.00000000       4.62335100      -0.00005300 </v>
    <v>       0.00000000       0.00000000      20.02439000 </v>
   </varray>
   <i name="volume">    317.22972016 </i>
   <varray name="rec_basis" >
    <v>       0.29183830       0.00000000       0.00000000 </v>
    <v>       0.00000000       0.21629333       0.00000000 </v>
    <v>       0.00000000       0.00000057       0.04993910 </v>
   </varray>
  </crystal>
  <varray name="positions" >
   <v>       0.50000000       0.90917896       0.55225087 </v>
   <v>       0.50000000       0.09082104       0.44774913 </v>
   <v>       0.00000000       0.40917429       0.44774914 </v>
   <v>      -0.00000000       0.59082571       0.55225086 </v>
  </varray>
 </structure>
</modeling>
