<?xml version="1.0" encoding="ISO-8859-1"?>
<modeling>
 <generator>
  <i name="program" type="string">vasp </i>
  <i name="version" type="string">5.4.1  </i>
  <i name="subversion" type="string">24Jun15 (build Nov 20 2020 10:29:34) complex                          parallel </i>
  <i name="platform" type="string">IFC91_ompi </i>
  <i name="date" type="string">2021 09 09 </i>
  <i name="time" type="string">15:24:16 </i>
 </generator>
 <incar>
  <i type="string" name="PREC">a</i>
  <i type="string" name="ALGO"> Normal</i>
  <i type="int" name="ISPIN">     1</i>
  <i type="int" name="ICHARG">     2</i>
  <i type="int" name="NELM">   250</i>
  <i type="int" name="NELMDL">    -5</i>
  <i type="int" name="NELMIN">     6</i>
  <i type="int" name="IBRION">     2</i>
  <i name="EDIFF">      0.00001000</i>
  <i name="EDIFFG">     -0.01000000</i>
  <i type="int" name="NSW">   200</i>
  <i type="int" name="ISIF">     2</i>
  <i name="ENCUT">    520.00000000</i>
  <i name="POTIM">      0.30000000</i>
  <i type="logical" name="LREAL"> F  </i>
  <i type="int" name="ISMEAR">     0</i>
  <i name="SIGMA">      0.02000000</i>
  <i type="logical" name="LWAVE"> F  </i>
  <i type="logical" name="LCHARG"> F  </i>
  <i type="logical" name="LAECHG"> F  </i>
  <v type="int" name="KPOINT_BSE">    -1     0     0     0</v>
  <i type="int" name="NELM">   250</i>
 </incar>
 <kpoints>
  <generation param="Gamma">
   <v type="int" name="divisions">      21       15        1 </v>
   <v name="usershift">      0.00000000       0.00000000       0.00000000 </v>
   <v name="genvec1">      0.04761905       0.00000000       0.00000000 </v>
   <v name="genvec2">      0.00000000       0.06666667       0.00000000 </v>
   <v name="genvec3">      0.00000000       0.00000000       1.00000000 </v>
   <v name="shift">      0.00000000       0.00000000       0.00000000 </v>
  </generation>
  <varray name="kpointlist" >
   <v>       0.00000000       0.00000000       0.00000000 </v>
   <v>       0.04761905       0.00000000       0.00000000 </v>
   <v>       0.09523810       0.00000000       0.00000000 </v>
   <v>       0.14285714       0.00000000       0.00000000 </v>
   <v>       0.19047619       0.00000000       0.00000000 </v>
   <v>       0.23809524       0.00000000       0.00000000 </v>
   <v>       0.28571429       0.00000000       0.00000000 </v>
   <v>       0.33333333       0.00000000       0.00000000 </v>
   <v>       0.38095238       0.00000000       0.00000000 </v>
   <v>       0.42857143       0.00000000       0.00000000 </v>
   <v>       0.47619048       0.00000000       0.00000000 </v>
   <v>       0.00000000       0.06666667       0.00000000 </v>
   <v>       0.04761905       0.06666667       0.00000000 </v>
   <v>       0.09523810       0.06666667       0.00000000 </v>
   <v>       0.14285714       0.06666667       0.00000000 </v>
   <v>       0.19047619       0.06666667       0.00000000 </v>
   <v>       0.23809524       0.06666667       0.00000000 </v>
   <v>       0.28571429       0.06666667       0.00000000 </v>
   <v>       0.33333333       0.06666667       0.00000000 </v>
   <v>       0.38095238       0.06666667       0.00000000 </v>
   <v>       0.42857143       0.06666667       0.00000000 </v>
   <v>       0.47619048       0.06666667       0.00000000 </v>
   <v>      -0.47619048       0.06666667       0.00000000 </v>
   <v>      -0.42857143       0.06666667       0.00000000 </v>
   <v>      -0.38095238       0.06666667       0.00000000 </v>
   <v>      -0.33333333       0.06666667       0.00000000 </v>
   <v>      -0.28571429       0.06666667       0.00000000 </v>
   <v>      -0.23809524       0.06666667       0.00000000 </v>
   <v>      -0.19047619       0.06666667       0.00000000 </v>
   <v>      -0.14285714       0.06666667       0.00000000 </v>
   <v>      -0.09523810       0.06666667       0.00000000 </v>
   <v>      -0.04761905       0.06666667       0.00000000 </v>
   <v>       0.00000000       0.13333333       0.00000000 </v>
   <v>       0.04761905       0.13333333       0.00000000 </v>
   <v>       0.09523810       0.13333333       0.00000000 </v>
   <v>       0.14285714       0.13333333       0.00000000 </v>
   <v>       0.19047619       0.13333333       0.00000000 </v>
   <v>       0.23809524       0.13333333       0.00000000 </v>
   <v>       0.28571429       0.13333333       0.00000000 </v>
   <v>       0.33333333       0.13333333       0.00000000 </v>
   <v>       0.38095238       0.13333333       0.00000000 </v>
   <v>       0.42857143       0.13333333       0.00000000 </v>
   <v>       0.47619048       0.13333333       0.00000000 </v>
   <v>      -0.47619048       0.13333333       0.00000000 </v>
   <v>      -0.42857143       0.13333333       0.00000000 </v>
   <v>      -0.38095238       0.13333333       0.00000000 </v>
   <v>      -0.33333333       0.13333333       0.00000000 </v>
   <v>      -0.28571429       0.13333333       0.00000000 </v>
   <v>      -0.23809524       0.13333333       0.00000000 </v>
   <v>      -0.19047619       0.13333333       0.00000000 </v>
   <v>      -0.14285714       0.13333333       0.00000000 </v>
   <v>      -0.09523810       0.13333333       0.00000000 </v>
   <v>      -0.04761905       0.13333333       0.00000000 </v>
   <v>       0.00000000       0.20000000       0.00000000 </v>
   <v>       0.04761905       0.20000000       0.00000000 </v>
   <v>       0.09523810       0.20000000       0.00000000 </v>
   <v>       0.14285714       0.20000000       0.00000000 </v>
   <v>       0.19047619       0.20000000       0.00000000 </v>
   <v>       0.23809524       0.20000000       0.00000000 </v>
   <v>       0.28571429       0.20000000       0.00000000 </v>
   <v>       0.33333333       0.20000000       0.00000000 </v>
   <v>       0.38095238       0.20000000       0.00000000 </v>
   <v>       0.42857143       0.20000000       0.00000000 </v>
   <v>       0.47619048       0.20000000       0.00000000 </v>
   <v>      -0.47619048       0.20000000       0.00000000 </v>
   <v>      -0.42857143       0.20000000       0.00000000 </v>
   <v>      -0.38095238       0.20000000       0.00000000 </v>
   <v>      -0.33333333       0.20000000       0.00000000 </v>
   <v>      -0.28571429       0.20000000       0.00000000 </v>
   <v>      -0.23809524       0.20000000       0.00000000 </v>
   <v>      -0.19047619       0.20000000       0.00000000 </v>
   <v>      -0.14285714       0.20000000       0.00000000 </v>
   <v>      -0.09523810       0.20000000       0.00000000 </v>
   <v>      -0.04761905       0.20000000       0.00000000 </v>
   <v>       0.00000000       0.26666667       0.00000000 </v>
   <v>       0.04761905       0.26666667       0.00000000 </v>
   <v>       0.09523810       0.26666667       0.00000000 </v>
   <v>       0.14285714       0.26666667       0.00000000 </v>
   <v>       0.19047619       0.26666667       0.00000000 </v>
   <v>       0.23809524       0.26666667       0.00000000 </v>
   <v>       0.28571429       0.26666667       0.00000000 </v>
   <v>       0.33333333       0.26666667       0.00000000 </v>
   <v>       0.38095238       0.26666667       0.00000000 </v>
   <v>       0.42857143       0.26666667       0.00000000 </v>
   <v>       0.47619048       0.26666667       0.00000000 </v>
   <v>      -0.47619048       0.26666667       0.00000000 </v>
   <v>      -0.42857143       0.26666667       0.00000000 </v>
   <v>      -0.38095238       0.26666667       0.00000000 </v>
   <v>      -0.33333333       0.26666667       0.00000000 </v>
   <v>      -0.28571429       0.26666667       0.00000000 </v>
   <v>      -0.23809524       0.26666667       0.00000000 </v>
   <v>      -0.19047619       0.26666667       0.00000000 </v>
   <v>      -0.14285714       0.26666667       0.00000000 </v>
   <v>      -0.09523810       0.26666667       0.00000000 </v>
   <v>      -0.04761905       0.26666667       0.00000000 </v>
   <v>       0.00000000       0.33333333       0.00000000 </v>
   <v>       0.04761905       0.33333333       0.00000000 </v>
   <v>       0.09523810       0.33333333       0.00000000 </v>
   <v>       0.14285714       0.33333333       0.00000000 </v>
   <v>       0.19047619       0.33333333       0.00000000 </v>
   <v>       0.23809524       0.33333333       0.00000000 </v>
   <v>       0.28571429       0.33333333       0.00000000 </v>
   <v>       0.33333333       0.33333333       0.00000000 </v>
   <v>       0.38095238       0.33333333       0.00000000 </v>
   <v>       0.42857143       0.33333333       0.00000000 </v>
   <v>       0.47619048       0.33333333       0.00000000 </v>
   <v>      -0.47619048       0.33333333       0.00000000 </v>
   <v>      -0.42857143       0.33333333       0.00000000 </v>
   <v>      -0.38095238       0.33333333       0.00000000 </v>
   <v>      -0.33333333       0.33333333       0.00000000 </v>
   <v>      -0.28571429       0.33333333       0.00000000 </v>
   <v>      -0.23809524       0.33333333       0.00000000 </v>
   <v>      -0.19047619       0.33333333       0.00000000 </v>
   <v>      -0.14285714       0.33333333       0.00000000 </v>
   <v>      -0.09523810       0.33333333       0.00000000 </v>
   <v>      -0.04761905       0.33333333       0.00000000 </v>
   <v>       0.00000000       0.40000000       0.00000000 </v>
   <v>       0.04761905       0.40000000       0.00000000 </v>
   <v>       0.09523810       0.40000000       0.00000000 </v>
   <v>       0.14285714       0.40000000       0.00000000 </v>
   <v>       0.19047619       0.40000000       0.00000000 </v>
   <v>       0.23809524       0.40000000       0.00000000 </v>
   <v>       0.28571429       0.40000000       0.00000000 </v>
   <v>       0.33333333       0.40000000       0.00000000 </v>
   <v>       0.38095238       0.40000000       0.00000000 </v>
   <v>       0.42857143       0.40000000       0.00000000 </v>
   <v>       0.47619048       0.40000000       0.00000000 </v>
   <v>      -0.47619048       0.40000000       0.00000000 </v>
   <v>      -0.42857143       0.40000000       0.00000000 </v>
   <v>      -0.38095238       0.40000000       0.00000000 </v>
   <v>      -0.33333333       0.40000000       0.00000000 </v>
   <v>      -0.28571429       0.40000000       0.00000000 </v>
   <v>      -0.23809524       0.40000000       0.00000000 </v>
   <v>      -0.19047619       0.40000000       0.00000000 </v>
   <v>      -0.14285714       0.40000000       0.00000000 </v>
   <v>      -0.09523810       0.40000000       0.00000000 </v>
   <v>      -0.04761905       0.40000000       0.00000000 </v>
   <v>       0.00000000       0.46666667       0.00000000 </v>
   <v>       0.04761905       0.46666667       0.00000000 </v>
   <v>       0.09523810       0.46666667       0.00000000 </v>
   <v>       0.14285714       0.46666667       0.00000000 </v>
   <v>       0.19047619       0.46666667       0.00000000 </v>
   <v>       0.23809524       0.46666667       0.00000000 </v>
   <v>       0.28571429       0.46666667       0.00000000 </v>
   <v>       0.33333333       0.46666667       0.00000000 </v>
   <v>       0.38095238       0.46666667       0.00000000 </v>
   <v>       0.42857143       0.46666667       0.00000000 </v>
   <v>       0.47619048       0.46666667       0.00000000 </v>
   <v>      -0.47619048       0.46666667       0.00000000 </v>
   <v>      -0.42857143       0.46666667       0.00000000 </v>
   <v>      -0.38095238       0.46666667       0.00000000 </v>
   <v>      -0.33333333       0.46666667       0.00000000 </v>
   <v>      -0.28571429       0.46666667       0.00000000 </v>
   <v>      -0.23809524       0.46666667       0.00000000 </v>
   <v>      -0.19047619       0.46666667       0.00000000 </v>
   <v>      -0.14285714       0.46666667       0.00000000 </v>
   <v>      -0.09523810       0.46666667       0.00000000 </v>
   <v>      -0.04761905       0.46666667       0.00000000 </v>
  </varray>
  <varray name="weights" >
   <v>       0.00317460 </v>
   <v>       0.00634921 </v>
   <v>       0.00634921 </v>
   <v>       0.00634921 </v>
   <v>       0.00634921 </v>
   <v>       0.00634921 </v>
   <v>       0.00634921 </v>
   <v>       0.00634921 </v>
   <v>       0.00634921 </v>
   <v>       0.00634921 </v>
   <v>       0.00634921 </v>
   <v>       0.00634921 </v>
   <v>       0.00634921 </v>
   <v>       0.00634921 </v>
   <v>       0.00634921 </v>
   <v>       0.00634921 </v>
   <v>       0.00634921 </v>
   <v>       0.00634921 </v>
   <v>       0.00634921 </v>
   <v>       0.00634921 </v>
   <v>       0.00634921 </v>
   <v>       0.00634921 </v>
   <v>       0.00634921 </v>
   <v>       0.00634921 </v>
   <v>       0.00634921 </v>
   <v>       0.00634921 </v>
   <v>       0.00634921 </v>
   <v>       0.00634921 </v>
   <v>       0.00634921 </v>
   <v>       0.00634921 </v>
   <v>       0.00634921 </v>
   <v>       0.00634921 </v>
   <v>       0.00634921 </v>
   <v>       0.00634921 </v>
   <v>       0.00634921 </v>
   <v>       0.00634921 </v>
   <v>       0.00634921 </v>
   <v>       0.00634921 </v>
   <v>       0.00634921 </v>
   <v>       0.00634921 </v>
   <v>       0.00634921 </v>
   <v>       0.00634921 </v>
   <v>       0.00634921 </v>
   <v>       0.00634921 </v>
   <v>       0.00634921 </v>
   <v>       0.00634921 </v>
   <v>       0.00634921 </v>
   <v>       0.00634921 </v>
   <v>       0.00634921 </v>
   <v>       0.00634921 </v>
   <v>       0.00634921 </v>
   <v>       0.00634921 </v>
   <v>       0.00634921 </v>
   <v>       0.00634921 </v>
   <v>       0.00634921 </v>
   <v>       0.00634921 </v>
   <v>       0.00634921 </v>
   <v>       0.00634921 </v>
   <v>       0.00634921 </v>
   <v>       0.00634921 </v>
   <v>       0.00634921 </v>
   <v>       0.00634921 </v>
   <v>       0.00634921 </v>
   <v>       0.00634921 </v>
   <v>       0.00634921 </v>
   <v>       0.00634921 </v>
   <v>       0.00634921 </v>
   <v>       0.00634921 </v>
   <v>       0.00634921 </v>
   <v>       0.00634921 </v>
   <v>       0.00634921 </v>
   <v>       0.00634921 </v>
   <v>       0.00634921 </v>
   <v>       0.00634921 </v>
   <v>       0.00634921 </v>
   <v>       0.00634921 </v>
   <v>       0.00634921 </v>
   <v>       0.00634921 </v>
   <v>       0.00634921 </v>
   <v>       0.00634921 </v>
   <v>       0.00634921 </v>
   <v>       0.00634921 </v>
   <v>       0.00634921 </v>
   <v>       0.00634921 </v>
   <v>       0.00634921 </v>
   <v>       0.00634921 </v>
   <v>       0.00634921 </v>
   <v>       0.00634921 </v>
   <v>       0.00634921 </v>
   <v>       0.00634921 </v>
   <v>       0.00634921 </v>
   <v>       0.00634921 </v>
   <v>       0.00634921 </v>
   <v>       0.00634921 </v>
   <v>       0.00634921 </v>
   <v>       0.00634921 </v>
   <v>       0.00634921 </v>
   <v>       0.00634921 </v>
   <v>       0.00634921 </v>
   <v>       0.00634921 </v>
   <v>       0.00634921 </v>
   <v>       0.00634921 </v>
   <v>       0.00634921 </v>
   <v>       0.00634921 </v>
   <v>       0.00634921 </v>
   <v>       0.00634921 </v>
   <v>       0.00634921 </v>
   <v>       0.00634921 </v>
   <v>       0.00634921 </v>
   <v>       0.00634921 </v>
   <v>       0.00634921 </v>
   <v>       0.00634921 </v>
   <v>       0.00634921 </v>
   <v>       0.00634921 </v>
   <v>       0.00634921 </v>
   <v>       0.00634921 </v>
   <v>       0.00634921 </v>
   <v>       0.00634921 </v>
   <v>       0.00634921 </v>
   <v>       0.00634921 </v>
   <v>       0.00634921 </v>
   <v>       0.00634921 </v>
   <v>       0.00634921 </v>
   <v>       0.00634921 </v>
   <v>       0.00634921 </v>
   <v>       0.00634921 </v>
   <v>       0.00634921 </v>
   <v>       0.00634921 </v>
   <v>       0.00634921 </v>
   <v>       0.00634921 </v>
   <v>       0.00634921 </v>
   <v>       0.00634921 </v>
   <v>       0.00634921 </v>
   <v>       0.00634921 </v>
   <v>       0.00634921 </v>
   <v>       0.00634921 </v>
   <v>       0.00634921 </v>
   <v>       0.00634921 </v>
   <v>       0.00634921 </v>
   <v>       0.00634921 </v>
   <v>       0.00634921 </v>
   <v>       0.00634921 </v>
   <v>       0.00634921 </v>
   <v>       0.00634921 </v>
   <v>       0.00634921 </v>
   <v>       0.00634921 </v>
   <v>       0.00634921 </v>
   <v>       0.00634921 </v>
   <v>       0.00634921 </v>
   <v>       0.00634921 </v>
   <v>       0.00634921 </v>
   <v>       0.00634921 </v>
   <v>       0.00634921 </v>
   <v>       0.00634921 </v>
   <v>       0.00634921 </v>
   <v>       0.00634921 </v>
   <v>       0.00634921 </v>
   <v>       0.00634921 </v>
  </varray>
 </kpoints>
 <parameters>
  <separator name="general" >
   <i type="string" name="SYSTEM">unknown system</i>
   <i type="logical" name="LCOMPAT"> F  </i>
  </separator>
  <separator name="electronic" >
   <i type="string" name="PREC">a</i>
   <i name="ENMAX">    520.00000000</i>
   <i name="ENAUG">    342.92400000</i>
   <i name="EDIFF">      0.00001000</i>
   <i type="int" name="IALGO">    38</i>
   <i type="int" name="IWAVPR">    11</i>
   <i type="int" name="NBANDS">    16</i>
   <i name="NELECT">     20.00000000</i>
   <i type="int" name="TURBO">     0</i>
   <i type="int" name="IRESTART">     0</i>
   <i type="int" name="NREBOOT">     0</i>
   <i type="int" name="NMIN">     0</i>
   <i name="EREF">      0.00000000</i>
   <separator name="electronic smearing" >
    <i type="int" name="ISMEAR">     0</i>
    <i name="SIGMA">      0.02000000</i>
    <i name="KSPACING">      0.50000000</i>
    <i type="logical" name="KGAMMA"> T  </i>
   </separator>
   <separator name="electronic projectors" >
    <i type="logical" name="LREAL"> F  </i>
    <v name="ROPT">      0.00000000</v>
    <i type="int" name="LMAXPAW">  -100</i>
    <i type="int" name="LMAXMIX">     2</i>
    <i type="logical" name="NLSPLINE"> F  </i>
   </separator>
   <separator name="electronic startup" >
    <i type="int" name="ISTART">     0</i>
    <i type="int" name="ICHARG">     2</i>
    <i type="int" name="INIWAV">     1</i>
   </separator>
   <separator name="electronic spin" >
    <i type="int" name="ISPIN">     1</i>
    <i type="logical" name="LNONCOLLINEAR"> F  </i>
    <v name="MAGMOM">      1.00000000      1.00000000      1.00000000      1.00000000</v>
    <i name="NUPDOWN">     -1.00000000</i>
    <i type="logical" name="LSORBIT"> F  </i>
    <v name="SAXIS">      0.00000000      0.00000000      1.00000000</v>
    <i type="logical" name="LSPIRAL"> F  </i>
    <v name="QSPIRAL">      0.00000000      0.00000000      0.00000000</v>
    <i type="logical" name="LZEROZ"> F  </i>
   </separator>
   <separator name="electronic exchange-correlation" >
    <i type="logical" name="LASPH"> F  </i>
    <i type="logical" name="LMETAGGA"> F  </i>
   </separator>
   <separator name="electronic convergence" >
    <i type="int" name="NELM">   250</i>
    <i type="int" name="NELMDL">    -5</i>
    <i type="int" name="NELMIN">     6</i>
    <i name="ENINI">    520.00000000</i>
    <separator name="electronic convergence detail" >
     <i type="logical" name="LDIAG"> T  </i>
     <i type="logical" name="LSUBROT"> F  </i>
     <i name="WEIMIN">      0.00100000</i>
     <i name="EBREAK">      0.00000016</i>
     <i name="DEPER">      0.30000000</i>
     <i type="int" name="NRMM">     4</i>
     <i name="TIME">      0.40000000</i>
    </separator>
   </separator>
   <separator name="electronic mixer" >
    <i name="AMIX">      0.40000000</i>
    <i name="BMIX">      1.00000000</i>
    <i name="AMIN">      0.10000000</i>
    <i name="AMIX_MAG">      1.60000000</i>
    <i name="BMIX_MAG">      1.00000000</i>
    <separator name="electronic mixer details" >
     <i type="int" name="IMIX">     4</i>
     <i type="logical" name="MIXFIRST"> F  </i>
     <i type="int" name="MAXMIX">   -45</i>
     <i name="WC">    100.00000000</i>
     <i type="int" name="INIMIX">     1</i>
     <i type="int" name="MIXPRE">     1</i>
     <i type="int" name="MREMOVE">     5</i>
    </separator>
   </separator>
   <separator name="electronic dipolcorrection" >
    <i type="logical" name="LDIPOL"> F  </i>
    <i type="logical" name="LMONO"> F  </i>
    <i type="int" name="IDIPOL">     0</i>
    <i name="EPSILON">      1.00000000</i>
    <v name="DIPOL">   -100.00000000   -100.00000000   -100.00000000</v>
    <i name="EFIELD">      0.00000000</i>
   </separator>
  </separator>
  <separator name="grids" >
   <i type="int" name="NGX">    28</i>
   <i type="int" name="NGY">    36</i>
   <i type="int" name="NGZ">   150</i>
   <i type="int" name="NGXF">    56</i>
   <i type="int" name="NGYF">    72</i>
   <i type="int" name="NGZF">   300</i>
   <i type="logical" name="ADDGRID"> F  </i>
  </separator>
  <separator name="ionic" >
   <i type="int" name="NSW">   200</i>
   <i type="int" name="IBRION">     2</i>
   <i type="int" name="ISIF">     2</i>
   <i name="PSTRESS">      0.00000000</i>
   <i name="EDIFFG">     -0.01000000</i>
   <i type="int" name="NFREE">     1</i>
   <i name="POTIM">      0.30000000</i>
   <i name="SMASS">     -3.00000000</i>
   <i name="SCALEE">      1.00000000</i>
  </separator>
  <separator name="ionic md" >
   <i name="TEBEG">      0.00010000</i>
   <i name="TEEND">      0.00010000</i>
   <i type="int" name="NBLOCK">     1</i>
   <i type="int" name="KBLOCK">   200</i>
   <i type="int" name="NPACO">   256</i>
   <i name="APACO">     16.00000000</i>
  </separator>
  <separator name="symmetry" >
   <i type="int" name="ISYM">     2</i>
   <i name="SYMPREC">      0.00001000</i>
  </separator>
  <separator name="dos" >
   <i type="logical" name="LORBIT"> F  </i>
   <v name="RWIGS">     -1.00000000</v>
   <i type="int" name="NEDOS">   301</i>
   <i name="EMIN">     10.00000000</i>
   <i name="EMAX">    -10.00000000</i>
   <i name="EFERMI">      0.00000000</i>
  </separator>
  <separator name="writing" >
   <i type="int" name="NWRITE">     2</i>
   <i type="logical" name="LWAVE"> F  </i>
   <i type="logical" name="LCHARG"> F  </i>
   <i type="logical" name="LPARD"> F  </i>
   <i type="logical" name="LVTOT"> F  </i>
   <i type="logical" name="LVHAR"> F  </i>
   <i type="logical" name="LELF"> F  </i>
   <i type="logical" name="LOPTICS"> F  </i>
   <v name="STM">      0.00000000      0.00000000      0.00000000      0.00000000      0.00000000      0.00000000      0.00000000</v>
  </separator>
  <separator name="performance" >
   <i type="int" name="NPAR">     4</i>
   <i type="int" name="NSIM">     4</i>
   <i type="int" name="NBLK">    -1</i>
   <i type="logical" name="LPLANE"> T  </i>
   <i type="logical" name="LSCALAPACK"> T  </i>
   <i type="logical" name="LSCAAWARE"> F  </i>
   <i type="logical" name="LSCALU"> F  </i>
   <i type="logical" name="LASYNC"> F  </i>
   <i type="logical" name="LORBITALREAL"> F  </i>
  </separator>
  <separator name="miscellaneous" >
   <i type="int" name="IDIOT">     3</i>
   <i type="logical" name="LMUSIC"> F  </i>
   <v name="POMASS">     30.97400000</v>
   <v name="DARWINR">      0.00000000</v>
   <v name="DARWINV">      1.00000000</v>
   <i type="logical" name="LCORR"> T  </i>
  </separator>
  <i type="logical" name="GGA_COMPAT"> T  </i>
  <i type="logical" name="LBERRY"> F  </i>
  <i type="int" name="ICORELEVEL">     0</i>
  <i type="logical" name="LDAU"> F  </i>
  <i type="int" name="I_CONSTRAINED_M">     0</i>
  <separator name="electronic exchange-correlation" >
   <i type="string" name="GGA">--</i>
   <i type="int" name="VOSKOWN">     0</i>
   <i type="logical" name="LHFCALC"> F  </i>
   <i type="string" name="PRECFOCK"></i>
   <i type="logical" name="LSYMGRAD"> F  </i>
   <i type="logical" name="LHFONE"> F  </i>
   <i type="logical" name="LRHFCALC"> F  </i>
   <i type="logical" name="LTHOMAS"> F  </i>
   <i type="logical" name="LMODELHF"> F  </i>
   <i name="ENCUT4O">     -1.00000000</i>
   <i type="int" name="EXXOEP">     0</i>
   <i type="int" name="FOURORBIT">     0</i>
   <i name="AEXX">      0.00000000</i>
   <i name="HFALPHA">      0.00000000</i>
   <i name="MCALPHA">      0.00000000</i>
   <i name="ALDAX">      1.00000000</i>
   <i name="AGGAX">      1.00000000</i>
   <i name="ALDAC">      1.00000000</i>
   <i name="AGGAC">      1.00000000</i>
   <i type="int" name="NKREDX">     1</i>
   <i type="int" name="NKREDY">     1</i>
   <i type="int" name="NKREDZ">     1</i>
   <i type="logical" name="SHIFTRED"> F  </i>
   <i type="logical" name="ODDONLY"> F  </i>
   <i type="logical" name="EVENONLY"> F  </i>
   <i type="int" name="LMAXFOCK">     0</i>
   <i type="int" name="NMAXFOCKAE">     0</i>
   <i type="logical" name="LFOCKAEDFT"> F  </i>
   <i name="HFSCREEN">      0.00000000</i>
   <i name="HFSCREENC">      0.00000000</i>
   <i type="int" name="NBANDSGWLOW">     0</i>
  </separator>
  <separator name="vdW DFT" >
   <i type="logical" name="LUSE_VDW"> F  </i>
   <i name="Zab_VDW">     -0.84910000</i>
   <i name="PARAM1">      0.12340000</i>
   <i name="PARAM2">      1.00000000</i>
   <i name="PARAM3">      0.00000000</i>
  </separator>
  <separator name="model GW" >
   <i type="int" name="MODEL_GW">     0</i>
   <i name="MODEL_EPS0">     48.45764277</i>
   <i name="MODEL_ALPHA">      1.00000000</i>
  </separator>
  <separator name="linear response parameters" >
   <i type="logical" name="LEPSILON"> F  </i>
   <i type="logical" name="LRPA"> F  </i>
   <i type="logical" name="LNABLA"> F  </i>
   <i type="logical" name="LVEL"> F  </i>
   <i type="int" name="KINTER">     0</i>
   <i name="CSHIFT">      0.10000000</i>
   <i name="OMEGAMAX">     -1.00000000</i>
   <i name="DEG_THRESHOLD">      0.00200000</i>
  </separator>
  <separator name="orbital magnetization" >
   <i type="logical" name="NUCIND"> F  </i>
   <v name="MAGPOS">      0.00000000      0.00000000      0.00000000</v>
   <i type="logical" name="LNICSALL"> T  </i>
   <i type="logical" name="ORBITALMAG"> F  </i>
   <i type="logical" name="LMAGBLOCH"> F  </i>
   <i type="logical" name="LCHIMAG"> F  </i>
   <i type="logical" name="LGAUGE"> T  </i>
   <i type="int" name="MAGATOM">     0</i>
   <v name="MAGDIPOL">      0.00000000      0.00000000      0.00000000</v>
   <v name="AVECCONST">      0.00000000      0.00000000      0.00000000</v>
  </separator>
  <separator name="response functions" >
   <i type="logical" name="LADDER"> F  </i>
   <i type="logical" name="LFXC"> F  </i>
   <i type="logical" name="LHARTREE"> T  </i>
   <i type="int" name="IBSE">     0</i>
   <v type="int" name="KPOINT">    -1     0     0     0</v>
   <i type="logical" name="LTCTE"> F  </i>
   <i type="logical" name="LTETE"> F  </i>
   <i type="logical" name="LTRIPLET"> F  </i>
   <i type="logical" name="LFXCEPS"> F  </i>
   <i type="logical" name="LFXHEG"> F  </i>
   <i type="int" name="NATURALO">     0</i>
   <i type="logical" name="L2ORDER"> F  </i>
   <i type="logical" name="LUSEW"> F  </i>
   <i name="ENCUTGW">     -2.00000000</i>
   <i name="ENCUTGWSOFT">     -2.00000000</i>
   <i name="ENCUTLF">     -1.00000000</i>
   <i type="int" name="LMAXMP2">    -1</i>
   <i name="SCISSOR">      0.00000000</i>
   <i type="int" name="NOMEGA">     0</i>
   <i type="int" name="NOMEGAR">     0</i>
   <i type="int" name="NBANDSGW">    -1</i>
   <i type="int" name="NBANDSO">    -1</i>
   <i type="int" name="NBANDSV">    -1</i>
   <i type="int" name="NELM">   250</i>
   <i type="int" name="NELMHF">     1</i>
   <i type="int" name="DIM">     3</i>
   <i type="int" name="ANTIRES">     0</i>
   <i name="OMEGAMAX">    -30.00000000</i>
   <i name="OMEGAMIN">    -30.00000000</i>
   <i name="OMEGATL">   -200.00000000</i>
   <i type="int" name="OMEGAGRID">     0</i>
   <i name="CSHIFT">     -0.10000000</i>
   <i type="logical" name="SELFENERGY"> F  </i>
   <i type="logical" name="LSPECTRAL"> F  </i>
   <i type="logical" name="LSPECTRALGW"> F  </i>
   <i type="logical" name="LSINGLES"> F  </i>
   <i type="logical" name="LFERMIGW"> F  </i>
   <i type="logical" name="ODDONLYGW"> F  </i>
   <i type="logical" name="EVENONLYGW"> F  </i>
   <i type="int" name="NKREDLFX">     1</i>
   <i type="int" name="NKREDLFY">     1</i>
   <i type="int" name="NKREDLFZ">     1</i>
   <i type="int" name="MAXMEM">  1800</i>
   <i type="int" name="TELESCOPE">     0</i>
   <i type="int" name="TAUPAR">     1</i>
   <i type="int" name="OMEGAPAR">    -1</i>
   <i name="LAMBDA">      1.00000000</i>
  </separator>
  <separator name="External order field" >
   <i name="OFIELD_KAPPA">      0.00000000</i>
   <v name="OFIELD_K">      0.00000000      0.00000000      0.00000000</v>
   <i name="OFIELD_Q6_NEAR">      0.00000000</i>
   <i name="OFIELD_Q6_FAR">      0.00000000</i>
   <i name="OFIELD_A">      0.00000000</i>
  </separator>
 </parameters>
 <atominfo>
  <atoms>       4 </atoms>
  <types>       1 </types>
  <array name="atoms" >
   <dimension dim="1">ion</dimension>
   <field type="string">element</field>
   <field type="int">atomtype</field>
   <set>
    <rc><c>P </c><c>   1</c></rc>
    <rc><c>P </c><c>   1</c></rc>
    <rc><c>P </c><c>   1</c></rc>
    <rc><c>P </c><c>   1</c></rc>
   </set>
  </array>
  <array name="atomtypes" >
   <dimension dim="1">type</dimension>
   <field type="int">atomspertype</field>
   <field type="string">element</field>
   <field>mass</field>
   <field>valence</field>
   <field type="string">pseudopotential</field>
   <set>
    <rc><c>   4</c><c>P </c><c>     30.97400000</c><c>      5.00000000</c><c>  PAW_PBE P 06Sep2000                   </c></rc>
   </set>
  </array>
 </atominfo>
 <structure name="initialpos" >
  <crystal>
   <varray name="basis" >
    <v>       3.48943300       0.00000000       0.00000000 </v>
    <v>       0.00000000       4.62335100      -0.00005300 </v>
    <v>       0.00000000       0.00000000      20.02439000 </v>
   </varray>
   <i name="volume">    323.05095179 </i>
   <varray name="rec_basis" >
    <v>       0.28657951       0.00000000       0.00000000 </v>
    <v>       0.00000000       0.21629333       0.00000000 </v>
    <v>       0.00000000       0.00000057       0.04993910 </v>
   </varray>
  </crystal>
  <varray name="positions" >
   <v>       0.50000000       0.91077300       0.55252100 </v>
   <v>       0.50000000       0.08922700       0.44747900 </v>
   <v>       0.00000000       0.41076900       0.44747900 </v>
   <v>       0.00000000       0.58923100       0.55252100 </v>
  </varray>
 </structure>
 <calculation>
  <scstep>
   <time name="dav">    1.50    1.50</time>
   <time name="total">    1.53    1.53</time>
   <energy>
    <i name="alphaZ">      4.96565954 </i>
    <i name="ewald">   1731.41808162 </i>
    <i name="hartreedc">  -2326.25117416 </i>
    <i name="XCdc">     12.49181491 </i>
    <i name="pawpsdc">    559.04011960 </i>
    <i name="pawaedc">   -526.39432044 </i>
    <i name="eentropy">     -0.00046704 </i>
    <i name="bandstr">    -28.16355469 </i>
    <i name="atom">    704.16778566 </i>
    <i name="e_fr_energy">    131.27394500 </i>
    <i name="e_wo_entrp">    131.27441204 </i>
    <i name="e_0_energy">    131.27417852 </i>
   </energy>
  </scstep>
  <scstep>
   <time name="dav">    2.01    2.01</time>
   <time name="total">    2.01    2.01</time>
   <energy>
    <i name="e_fr_energy">     -5.73230657 </i>
    <i name="e_wo_entrp">     -5.73230657 </i>
    <i name="e_0_energy">     -5.73230657 </i>
   </energy>
  </scstep>
  <scstep>
   <time name="dav">    1.86    1.86</time>
   <time name="total">    1.86    1.86</time>
   <energy>
    <i name="e_fr_energy">    -21.13913468 </i>
    <i name="e_wo_entrp">    -21.13913468 </i>
    <i name="e_0_energy">    -21.13913468 </i>
   </energy>
  </scstep>
  <scstep>
   <time name="dav">    1.85    1.85</time>
   <time name="total">    1.85    1.85</time>
   <energy>
    <i name="e_fr_energy">    -21.46800915 </i>
    <i name="e_wo_entrp">    -21.46800915 </i>
    <i name="e_0_energy">    -21.46800915 </i>
   </energy>
  </scstep>
  <scstep>
   <time name="dav">    2.00    2.00</time>
   <time name="total">    2.09    2.09</time>
   <energy>
    <i name="e_fr_energy">    -21.47820830 </i>
    <i name="e_wo_entrp">    -21.47820830 </i>
    <i name="e_0_energy">    -21.47820830 </i>
   </energy>
  </scstep>
  <scstep>
   <time name="dav">    1.81    1.81</time>
   <time name="total">    1.93    1.93</time>
   <energy>
    <i name="e_fr_energy">    -21.36665632 </i>
    <i name="e_wo_entrp">    -21.36665632 </i>
    <i name="e_0_energy">    -21.36665632 </i>
   </energy>
  </scstep>
  <scstep>
   <time name="dav">    1.76    1.76</time>
   <time name="total">    1.88    1.88</time>
   <energy>
    <i name="e_fr_energy">    -21.30938329 </i>
    <i name="e_wo_entrp">    -21.30938329 </i>
    <i name="e_0_energy">    -21.30938329 </i>
   </energy>
  </scstep>
  <scstep>
   <time name="dav">    1.85    1.85</time>
   <time name="total">    1.96    1.96</time>
   <energy>
    <i name="e_fr_energy">    -21.30951460 </i>
    <i name="e_wo_entrp">    -21.30951460 </i>
    <i name="e_0_energy">    -21.30951460 </i>
   </energy>
  </scstep>
  <scstep>
   <time name="dav">    2.12    2.12</time>
   <time name="total">    2.23    2.23</time>
   <energy>
    <i name="e_fr_energy">    -21.30944850 </i>
    <i name="e_wo_entrp">    -21.30944850 </i>
    <i name="e_0_energy">    -21.30944850 </i>
   </energy>
  </scstep>
  <scstep>
   <time name="dav">    1.87    1.87</time>
   <time name="total">    1.98    1.98</time>
   <energy>
    <i name="e_fr_energy">    -21.30935942 </i>
    <i name="e_wo_entrp">    -21.30935942 </i>
    <i name="e_0_energy">    -21.30935942 </i>
   </energy>
  </scstep>
  <scstep>
   <time name="dav">    1.77    1.77</time>
   <time name="total">    1.89    1.89</time>
   <energy>
    <i name="e_fr_energy">    -21.30933628 </i>
    <i name="e_wo_entrp">    -21.30933628 </i>
    <i name="e_0_energy">    -21.30933628 </i>
   </energy>
  </scstep>
  <scstep>
   <time name="dav">    1.65    1.65</time>
   <time name="total">    1.76    1.76</time>
   <energy>
    <i name="e_fr_energy">    -21.30968190 </i>
    <i name="e_wo_entrp">    -21.30968190 </i>
    <i name="e_0_energy">    -21.30968190 </i>
   </energy>
  </scstep>
  <scstep>
   <time name="dav">    1.57    1.57</time>
   <time name="total">    1.68    1.68</time>
   <energy>
    <i name="e_fr_energy">    -21.30977610 </i>
    <i name="e_wo_entrp">    -21.30977610 </i>
    <i name="e_0_energy">    -21.30977610 </i>
   </energy>
  </scstep>
  <scstep>
   <time name="dav">    1.52    1.52</time>
   <time name="total">    1.63    1.63</time>
   <energy>
    <i name="e_fr_energy">    -21.30986173 </i>
    <i name="e_wo_entrp">    -21.30986173 </i>
    <i name="e_0_energy">    -21.30986173 </i>
   </energy>
  </scstep>
  <scstep>
   <time name="dav">    1.52    1.52</time>
   <time name="total">    1.63    1.63</time>
   <energy>
    <i name="e_fr_energy">    -21.30988014 </i>
    <i name="e_wo_entrp">    -21.30988014 </i>
    <i name="e_0_energy">    -21.30988014 </i>
   </energy>
  </scstep>
  <scstep>
   <time name="dav">    1.51    1.51</time>
   <time name="total">    1.62    1.63</time>
   <energy>
    <i name="e_fr_energy">    -21.30989632 </i>
    <i name="e_wo_entrp">    -21.30989632 </i>
    <i name="e_0_energy">    -21.30989632 </i>
   </energy>
  </scstep>
  <scstep>
   <time name="dav">    1.41    1.41</time>
   <time name="total">    1.43    1.43</time>
   <energy>
    <i name="alphaZ">      4.96565954 </i>
    <i name="ewald">   1731.41808162 </i>
    <i name="hartreedc">  -2339.04633351 </i>
    <i name="XCdc">     13.46595122 </i>
    <i name="pawpsdc">   1866.29009656 </i>
    <i name="pawaedc">  -1833.89814881 </i>
    <i name="eentropy">     -0.00000000 </i>
    <i name="bandstr">   -168.67299057 </i>
    <i name="atom">    704.16778566 </i>
    <i name="e_fr_energy">    -21.30989829 </i>
    <i name="e_wo_entrp">    -21.30989829 </i>
    <i name="e_0_energy">    -21.30989829 </i>
   </energy>
  </scstep>
  <structure>
   <crystal>
    <varray name="basis" >
     <v>       3.48943300       0.00000000       0.00000000 </v>
     <v>       0.00000000       4.62335100      -0.00005300 </v>
     <v>       0.00000000       0.00000000      20.02439000 </v>
    </varray>
    <i name="volume">    323.05095179 </i>
    <varray name="rec_basis" >
     <v>       0.28657951       0.00000000       0.00000000 </v>
     <v>       0.00000000       0.21629333       0.00000000 </v>
     <v>       0.00000000       0.00000057       0.04993910 </v>
    </varray>
   </crystal>
   <varray name="positions" >
    <v>       0.50000000       0.91077300       0.55252100 </v>
    <v>       0.50000000       0.08922700       0.44747900 </v>
    <v>       0.00000000       0.41076900       0.44747900 </v>
    <v>       0.00000000       0.58923100       0.55252100 </v>
   </varray>
  </structure>
  <varray name="forces" >
   <v>      -0.00000009      -0.16106627      -0.08064516 </v>
   <v>       0.00000009       0.16106627       0.08064516 </v>
   <v>       0.00000010      -0.16109420       0.08065255 </v>
   <v>      -0.00000010       0.16109420      -0.08065255 </v>
  </varray>
  <varray name="stress" >
   <v>     -24.69942147      -0.00000106      -0.00000255 </v>
   <v>      -0.00000103      -7.29132281       0.00037405 </v>
   <v>      -0.00000261       0.00037405      -1.74217562 </v>
  </varray>
  <energy>
   <i name="e_fr_energy">    -21.30989829 </i>
   <i name="e_wo_entrp">    -21.30989829 </i>
   <i name="e_0_energy">     -0.00000000 </i>
  </energy>
  <time name="totalsc">   31.77   31.80</time>
 </calculation>
 <calculation>
  <scstep>
   <time name="dav">    1.56    1.56</time>
   <time name="total">    1.67    1.67</time>
   <energy>
    <i name="alphaZ">      4.96565954 </i>
    <i name="ewald">   1734.03810249 </i>
    <i name="hartreedc">  -2341.37551549 </i>
    <i name="XCdc">     13.49916014 </i>
    <i name="pawpsdc">   1865.87322397 </i>
    <i name="pawaedc">  -1833.48129908 </i>
    <i name="eentropy">     -0.00000000 </i>
    <i name="bandstr">   -168.99963895 </i>
    <i name="atom">    704.16778566 </i>
    <i name="e_fr_energy">    -21.31252173 </i>
    <i name="e_wo_entrp">    -21.31252173 </i>
    <i name="e_0_energy">    -21.31252173 </i>
   </energy>
  </scstep>
  <scstep>
   <time name="dav">    1.85    1.85</time>
   <time name="total">    1.96    1.96</time>
   <energy>
    <i name="e_fr_energy">    -21.31285420 </i>
    <i name="e_wo_entrp">    -21.31285420 </i>
    <i name="e_0_energy">    -21.31285420 </i>
   </energy>
  </scstep>
  <scstep>
   <time name="dav">    2.01    2.01</time>
   <time name="total">    2.12    2.12</time>
   <energy>
    <i name="e_fr_energy">    -21.31285871 </i>
    <i name="e_wo_entrp">    -21.31285871 </i>
    <i name="e_0_energy">    -21.31285871 </i>
   </energy>
  </scstep>
  <scstep>
   <time name="dav">    1.42    1.42</time>
   <time name="total">    1.53    1.53</time>
   <energy>
    <i name="e_fr_energy">    -21.31285877 </i>
    <i name="e_wo_entrp">    -21.31285877 </i>
    <i name="e_0_energy">    -21.31285877 </i>
   </energy>
  </scstep>
  <scstep>
   <time name="dav">    1.29    1.29</time>
   <time name="total">    1.40    1.40</time>
   <energy>
    <i name="e_fr_energy">    -21.31286087 </i>
    <i name="e_wo_entrp">    -21.31286087 </i>
    <i name="e_0_energy">    -21.31286087 </i>
   </energy>
  </scstep>
  <scstep>
   <time name="dav">    1.25    1.25</time>
   <time name="total">    1.27    1.27</time>
   <energy>
    <i name="alphaZ">      4.96565954 </i>
    <i name="ewald">   1734.03810249 </i>
    <i name="hartreedc">  -2341.37824105 </i>
    <i name="XCdc">     13.50181023 </i>
    <i name="pawpsdc">   1883.17764274 </i>
    <i name="pawaedc">  -1850.79214484 </i>
    <i name="eentropy">     -0.00000000 </i>
    <i name="bandstr">   -168.99347590 </i>
    <i name="atom">    704.16778566 </i>
    <i name="e_fr_energy">    -21.31286113 </i>
    <i name="e_wo_entrp">    -21.31286113 </i>
    <i name="e_0_energy">    -21.31286113 </i>
   </energy>
  </scstep>
  <structure>
   <crystal>
    <varray name="basis" >
     <v>       3.48943300       0.00000000       0.00000000 </v>
     <v>       0.00000000       4.62335100      -0.00005300 </v>
     <v>       0.00000000       0.00000000      20.02439000 </v>
    </varray>
    <i name="volume">    323.05095179 </i>
    <varray name="rec_basis" >
     <v>       0.28657951       0.00000000       0.00000000 </v>
     <v>       0.00000000       0.21629333       0.00000000 </v>
     <v>       0.00000000       0.00000057       0.04993910 </v>
    </varray>
   </crystal>
   <varray name="positions" >
    <v>       0.50000000       0.90976461       0.55240442 </v>
    <v>       0.50000000       0.09023539       0.44759558 </v>
    <v>       0.00000000       0.40976043       0.44759558 </v>
    <v>      -0.00000000       0.59023957       0.55240442 </v>
   </varray>
  </structure>
  <varray name="forces" >
   <v>       0.00000004      -0.08367445      -0.06220843 </v>
   <v>      -0.00000004       0.08367445       0.06220843 </v>
   <v>      -0.00000002      -0.08369831       0.06220863 </v>
   <v>       0.00000002       0.08369831      -0.06220863 </v>
  </varray>
  <varray name="stress" >
   <v>     -24.46791623       0.00000284       0.00000064 </v>
   <v>       0.00000289      -6.09244721       0.00031446 </v>
   <v>       0.00000060       0.00031448      -1.38655325 </v>
  </varray>
  <energy>
   <i name="e_fr_energy">    -21.31286113 </i>
   <i name="e_wo_entrp">    -21.31286113 </i>
   <i name="e_0_energy">     -0.00000000 </i>
  </energy>
  <time name="totalsc">   10.75   10.78</time>
 </calculation>
 <calculation>
  <scstep>
   <time name="dav">    1.54    1.54</time>
   <time name="total">    1.66    1.66</time>
   <energy>
    <i name="alphaZ">      4.96565954 </i>
    <i name="ewald">   1737.51555632 </i>
    <i name="hartreedc">  -2344.44707943 </i>
    <i name="XCdc">     13.54579361 </i>
    <i name="pawpsdc">   1883.36785445 </i>
    <i name="pawaedc">  -1850.98230780 </i>
    <i name="eentropy">     -0.00000000 </i>
    <i name="bandstr">   -169.44693672 </i>
    <i name="atom">    704.16778566 </i>
    <i name="e_fr_energy">    -21.31367436 </i>
    <i name="e_wo_entrp">    -21.31367436 </i>
    <i name="e_0_energy">    -21.31367436 </i>
   </energy>
  </scstep>
  <scstep>
   <time name="dav">    1.85    1.85</time>
   <time name="total">    1.96    1.96</time>
   <energy>
    <i name="e_fr_energy">    -21.31426067 </i>
    <i name="e_wo_entrp">    -21.31426067 </i>
    <i name="e_0_energy">    -21.31426067 </i>
   </energy>
  </scstep>
  <scstep>
   <time name="dav">    2.01    2.01</time>
   <time name="total">    2.12    2.12</time>
   <energy>
    <i name="e_fr_energy">    -21.31426613 </i>
    <i name="e_wo_entrp">    -21.31426613 </i>
    <i name="e_0_energy">    -21.31426613 </i>
   </energy>
  </scstep>
  <scstep>
   <time name="dav">    1.50    1.50</time>
   <time name="total">    1.61    1.61</time>
   <energy>
    <i name="e_fr_energy">    -21.31426503 </i>
    <i name="e_wo_entrp">    -21.31426503 </i>
    <i name="e_0_energy">    -21.31426503 </i>
   </energy>
  </scstep>
  <scstep>
   <time name="dav">    1.32    1.32</time>
   <time name="total">    1.43    1.43</time>
   <energy>
    <i name="e_fr_energy">    -21.31426616 </i>
    <i name="e_wo_entrp">    -21.31426616 </i>
    <i name="e_0_energy">    -21.31426616 </i>
   </energy>
  </scstep>
  <scstep>
   <time name="dav">    1.23    1.23</time>
   <time name="total">    1.25    1.25</time>
   <energy>
    <i name="alphaZ">      4.96565954 </i>
    <i name="ewald">   1737.51555632 </i>
    <i name="hartreedc">  -2344.43742446 </i>
    <i name="XCdc">     13.54921139 </i>
    <i name="pawpsdc">   1906.58540232 </i>
    <i name="pawaedc">  -1874.20847390 </i>
    <i name="eentropy">     -0.00000000 </i>
    <i name="bandstr">   -169.45198332 </i>
    <i name="atom">    704.16778566 </i>
    <i name="e_fr_energy">    -21.31426646 </i>
    <i name="e_wo_entrp">    -21.31426646 </i>
    <i name="e_0_energy">    -21.31426646 </i>
   </energy>
  </scstep>
  <structure>
   <crystal>
    <varray name="basis" >
     <v>       3.48943300       0.00000000       0.00000000 </v>
     <v>       0.00000000       4.62335100      -0.00005300 </v>
     <v>       0.00000000       0.00000000      20.02439000 </v>
    </varray>
    <i name="volume">    323.05095179 </i>
    <varray name="rec_basis" >
     <v>       0.28657951       0.00000000       0.00000000 </v>
     <v>       0.00000000       0.21629333       0.00000000 </v>
     <v>       0.00000000       0.00000057       0.04993910 </v>
    </varray>
   </crystal>
   <varray name="positions" >
    <v>       0.50000000       0.90842787       0.55224989 </v>
    <v>       0.50000000       0.09157213       0.44775011 </v>
    <v>       0.00000000       0.40842347       0.44775012 </v>
    <v>      -0.00000000       0.59157653       0.55224988 </v>
   </varray>
  </structure>
  <varray name="forces" >
   <v>       0.00000001       0.02084815      -0.03846616 </v>
   <v>      -0.00000001      -0.02084815       0.03846616 </v>
   <v>      -0.00000007       0.02082970       0.03845974 </v>
   <v>       0.00000007      -0.02082970      -0.03845974 </v>
  </varray>
  <varray name="stress" >
   <v>     -24.12319384       0.00000088       0.00000109 </v>
   <v>       0.00000090      -4.49404067       0.00023951 </v>
   <v>       0.00000103       0.00023957      -0.90326624 </v>
  </varray>
  <energy>
   <i name="e_fr_energy">    -21.31426646 </i>
   <i name="e_wo_entrp">    -21.31426646 </i>
   <i name="e_0_energy">     -0.00000000 </i>
  </energy>
  <time name="totalsc">   10.83   10.84</time>
 </calculation>
 <calculation>
  <scstep>
   <time name="dav">    1.48    1.48</time>
   <time name="total">    1.59    1.59</time>
   <energy>
    <i name="alphaZ">      4.96565954 </i>
    <i name="ewald">   1738.87371519 </i>
    <i name="hartreedc">  -2345.71396881 </i>
    <i name="XCdc">     13.55743320 </i>
    <i name="pawpsdc">   1906.85281179 </i>
    <i name="pawaedc">  -1874.47582654 </i>
    <i name="eentropy">     -0.00000000 </i>
    <i name="bandstr">   -169.54201698 </i>
    <i name="atom">    704.16778566 </i>
    <i name="e_fr_energy">    -21.31440696 </i>
    <i name="e_wo_entrp">    -21.31440696 </i>
    <i name="e_0_energy">    -21.31440696 </i>
   </energy>
  </scstep>
  <scstep>
   <time name="dav">    1.81    1.81</time>
   <time name="total">    1.92    1.92</time>
   <energy>
    <i name="e_fr_energy">    -21.31445705 </i>
    <i name="e_wo_entrp">    -21.31445705 </i>
    <i name="e_0_energy">    -21.31445705 </i>
   </energy>
  </scstep>
  <scstep>
   <time name="dav">    1.38    1.38</time>
   <time name="total">    1.49    1.50</time>
   <energy>
    <i name="e_fr_energy">    -21.31445654 </i>
    <i name="e_wo_entrp">    -21.31445654 </i>
    <i name="e_0_energy">    -21.31445654 </i>
   </energy>
  </scstep>
  <scstep>
   <time name="dav">    1.24    1.24</time>
   <time name="total">    1.35    1.35</time>
   <energy>
    <i name="e_fr_energy">    -21.31445792 </i>
    <i name="e_wo_entrp">    -21.31445792 </i>
    <i name="e_0_energy">    -21.31445792 </i>
   </energy>
  </scstep>
  <scstep>
   <time name="dav">    1.19    1.19</time>
   <time name="total">    1.30    1.30</time>
   <energy>
    <i name="e_fr_energy">    -21.31445859 </i>
    <i name="e_wo_entrp">    -21.31445859 </i>
    <i name="e_0_energy">    -21.31445859 </i>
   </energy>
  </scstep>
  <scstep>
   <time name="dav">    1.16    1.16</time>
   <time name="total">    1.18    1.18</time>
   <energy>
    <i name="alphaZ">      4.96565954 </i>
    <i name="ewald">   1738.87371519 </i>
    <i name="hartreedc">  -2345.70139241 </i>
    <i name="XCdc">     13.55793016 </i>
    <i name="pawpsdc">   1910.88973662 </i>
    <i name="pawaedc">  -1878.51412197 </i>
    <i name="eentropy">     -0.00000000 </i>
    <i name="bandstr">   -169.55377183 </i>
    <i name="atom">    704.16778566 </i>
    <i name="e_fr_energy">    -21.31445904 </i>
    <i name="e_wo_entrp">    -21.31445904 </i>
    <i name="e_0_energy">    -21.31445904 </i>
   </energy>
  </scstep>
  <structure>
   <crystal>
    <varray name="basis" >
     <v>       3.48943300       0.00000000       0.00000000 </v>
     <v>       0.00000000       4.62335100      -0.00005300 </v>
     <v>       0.00000000       0.00000000      20.02439000 </v>
    </varray>
    <i name="volume">    323.05095179 </i>
    <varray name="rec_basis" >
     <v>       0.28657951       0.00000000       0.00000000 </v>
     <v>       0.00000000       0.21629333       0.00000000 </v>
     <v>       0.00000000       0.00000057       0.04993910 </v>
    </varray>
   </crystal>
   <varray name="positions" >
    <v>       0.50000000       0.90850776       0.55216969 </v>
    <v>       0.50000000       0.09149224       0.44783031 </v>
    <v>       0.00000000       0.40850319       0.44783031 </v>
    <v>      -0.00000000       0.59149681       0.55216969 </v>
   </varray>
  </structure>
  <varray name="forces" >
   <v>      -0.00000004       0.00811760      -0.01281272 </v>
   <v>       0.00000004      -0.00811760       0.01281272 </v>
   <v>       0.00000003       0.00810270       0.01281119 </v>
   <v>      -0.00000003      -0.00810270      -0.01281119 </v>
  </varray>
  <varray name="stress" >
   <v>     -24.09854987      -0.00000001       0.00000081 </v>
   <v>      -0.00000002      -4.49343388       0.00020761 </v>
   <v>       0.00000077       0.00020755      -0.34357945 </v>
  </varray>
  <energy>
   <i name="e_fr_energy">    -21.31445904 </i>
   <i name="e_wo_entrp">    -21.31445904 </i>
   <i name="e_0_energy">     -0.00000000 </i>
  </energy>
  <time name="totalsc">    9.62    9.63</time>
 </calculation>
 <calculation>
  <scstep>
   <time name="dav">    1.47    1.47</time>
   <time name="total">    1.58    1.59</time>
   <energy>
    <i name="alphaZ">      4.96565954 </i>
    <i name="ewald">   1739.57157088 </i>
    <i name="hartreedc">  -2346.35427280 </i>
    <i name="XCdc">     13.56210602 </i>
    <i name="pawpsdc">   1911.01555882 </i>
    <i name="pawaedc">  -1878.63992055 </i>
    <i name="eentropy">     -0.00000000 </i>
    <i name="bandstr">   -169.60296005 </i>
    <i name="atom">    704.16778566 </i>
    <i name="e_fr_energy">    -21.31447247 </i>
    <i name="e_wo_entrp">    -21.31447247 </i>
    <i name="e_0_energy">    -21.31447247 </i>
   </energy>
  </scstep>
  <scstep>
   <time name="dav">    1.84    1.84</time>
   <time name="total">    1.95    1.95</time>
   <energy>
    <i name="e_fr_energy">    -21.31448615 </i>
    <i name="e_wo_entrp">    -21.31448615 </i>
    <i name="e_0_energy">    -21.31448615 </i>
   </energy>
  </scstep>
  <scstep>
   <time name="dav">    1.26    1.26</time>
   <time name="total">    1.37    1.37</time>
   <energy>
    <i name="e_fr_energy">    -21.31448611 </i>
    <i name="e_wo_entrp">    -21.31448611 </i>
    <i name="e_0_energy">    -21.31448611 </i>
   </energy>
  </scstep>
  <scstep>
   <time name="dav">    1.19    1.19</time>
   <time name="total">    1.30    1.30</time>
   <energy>
    <i name="e_fr_energy">    -21.31448653 </i>
    <i name="e_wo_entrp">    -21.31448653 </i>
    <i name="e_0_energy">    -21.31448653 </i>
   </energy>
  </scstep>
  <scstep>
   <time name="dav">    1.18    1.18</time>
   <time name="total">    1.29    1.29</time>
   <energy>
    <i name="e_fr_energy">    -21.31448663 </i>
    <i name="e_wo_entrp">    -21.31448663 </i>
    <i name="e_0_energy">    -21.31448663 </i>
   </energy>
  </scstep>
  <scstep>
   <time name="dav">    1.16    1.16</time>
   <time name="total">    1.18    1.18</time>
   <energy>
    <i name="alphaZ">      4.96565954 </i>
    <i name="ewald">   1739.57157088 </i>
    <i name="hartreedc">  -2346.35304192 </i>
    <i name="XCdc">     13.56244691 </i>
    <i name="pawpsdc">   1912.89629561 </i>
    <i name="pawaedc">  -1880.52137492 </i>
    <i name="eentropy">     -0.00000000 </i>
    <i name="bandstr">   -169.60382846 </i>
    <i name="atom">    704.16778566 </i>
    <i name="e_fr_energy">    -21.31448670 </i>
    <i name="e_wo_entrp">    -21.31448670 </i>
    <i name="e_0_energy">    -21.31448670 </i>
   </energy>
  </scstep>
  <structure>
   <crystal>
    <varray name="basis" >
     <v>       3.48943300       0.00000000       0.00000000 </v>
     <v>       0.00000000       4.62335100      -0.00005300 </v>
     <v>       0.00000000       0.00000000      20.02439000 </v>
    </varray>
    <i name="volume">    323.05095179 </i>
    <varray name="rec_basis" >
     <v>       0.28657951       0.00000000       0.00000000 </v>
     <v>       0.00000000       0.21629333       0.00000000 </v>
     <v>       0.00000000       0.00000057       0.04993910 </v>
    </varray>
   </crystal>
   <varray name="positions" >
    <v>       0.50000000       0.90854878       0.55212850 </v>
    <v>       0.50000000       0.09145122       0.44787150 </v>
    <v>       0.00000000       0.40854413       0.44787150 </v>
    <v>      -0.00000000       0.59145587       0.55212850 </v>
   </varray>
  </structure>
  <varray name="forces" >
   <v>      -0.00000001       0.00140504       0.00032507 </v>
   <v>       0.00000001      -0.00140504      -0.00032507 </v>
   <v>      -0.00000000       0.00139195      -0.00032432 </v>
   <v>       0.00000000      -0.00139195       0.00032432 </v>
  </varray>
  <varray name="stress" >
   <v>     -24.08050052       0.00000010       0.00000056 </v>
   <v>       0.00000008      -4.49501064       0.00018826 </v>
   <v>       0.00000056       0.00018826      -0.06351999 </v>
  </varray>
  <energy>
   <i name="e_fr_energy">    -21.31448670 </i>
   <i name="e_wo_entrp">    -21.31448670 </i>
   <i name="e_0_energy">     -0.00000000 </i>
  </energy>
  <time name="totalsc">    9.41    9.43</time>
  <eigenvalues>
   <array>
    <dimension dim="1">band</dimension>
    <dimension dim="2">kpoint</dimension>
    <dimension dim="3">spin</dimension>
    <field>eigene</field>
    <field>occ</field>
    <set>
     <set comment="spin 1">
      <set comment="kpoint 1">
       <r>  -17.0258    1.0000 </r>
       <r>  -14.4673    1.0000 </r>
       <r>  -11.6574    1.0000 </r>
       <r>   -7.7865    1.0000 </r>
       <r>   -7.0953    1.0000 </r>
       <r>   -6.5981    1.0000 </r>
       <r>   -6.2860    1.0000 </r>
       <r>   -4.6279    1.0000 </r>
       <r>   -3.7407    1.0000 </r>
       <r>   -2.4325    1.0000 </r>
       <r>   -1.4581    0.0000 </r>
       <r>   -1.1946    0.0000 </r>
       <r>   -0.6216    0.0000 </r>
       <r>    0.3035    0.0000 </r>
       <r>    2.1174    0.0000 </r>
       <r>    2.2108    0.0000 </r>
      </set>
      <set comment="kpoint 2">
       <r>  -17.0023    1.0000 </r>
       <r>  -14.4423    1.0000 </r>
       <r>  -11.6778    1.0000 </r>
       <r>   -7.7694    1.0000 </r>
       <r>   -7.1443    1.0000 </r>
       <r>   -6.5777    1.0000 </r>
       <r>   -6.4017    1.0000 </r>
       <r>   -4.7411    1.0000 </r>
       <r>   -3.7377    1.0000 </r>
       <r>   -2.4450    1.0000 </r>
       <r>   -1.2653    0.0000 </r>
       <r>   -1.1731    0.0000 </r>
       <r>   -0.4277    0.0000 </r>
       <r>    0.1833    0.0000 </r>
       <r>    2.1416    0.0000 </r>
       <r>    2.2375    0.0000 </r>
      </set>
      <set comment="kpoint 3">
       <r>  -16.9317    1.0000 </r>
       <r>  -14.3674    1.0000 </r>
       <r>  -11.7430    1.0000 </r>
       <r>   -7.7190    1.0000 </r>
       <r>   -7.3083    1.0000 </r>
       <r>   -6.6886    1.0000 </r>
       <r>   -6.5172    1.0000 </r>
       <r>   -4.9874    1.0000 </r>
       <r>   -3.7328    1.0000 </r>
       <r>   -2.4926    1.0000 </r>
       <r>   -1.1091    0.0000 </r>
       <r>   -0.7371    0.0000 </r>
       <r>   -0.1192    0.0000 </r>
       <r>    0.0590    0.0000 </r>
       <r>    2.2039    0.0000 </r>
       <r>    2.3173    0.0000 </r>
      </set>
      <set comment="kpoint 4">
       <r>  -16.8146    1.0000 </r>
       <r>  -14.2427    1.0000 </r>
       <r>  -11.8639    1.0000 </r>
       <r>   -7.6374    1.0000 </r>
       <r>   -7.6187    1.0000 </r>
       <r>   -7.0309    1.0000 </r>
       <r>   -6.4177    1.0000 </r>
       <r>   -5.2068    1.0000 </r>
       <r>   -3.7395    1.0000 </r>
       <r>   -2.5857    1.0000 </r>
       <r>   -1.0046    0.0000 </r>
       <r>   -0.4906    0.0000 </r>
       <r>    0.0192    0.0000 </r>
       <r>    0.6228    0.0000 </r>
       <r>    2.0966    0.0000 </r>
       <r>    2.4391    0.0000 </r>
      </set>
      <set comment="kpoint 5">
       <r>  -16.6514    1.0000 </r>
       <r>  -14.0686    1.0000 </r>
       <r>  -12.0534    1.0000 </r>
       <r>   -8.0729    1.0000 </r>
       <r>   -7.5294    1.0000 </r>
       <r>   -7.3364    1.0000 </r>
       <r>   -6.2817    1.0000 </r>
       <r>   -5.3169    1.0000 </r>
       <r>   -3.7803    1.0000 </r>
       <r>   -2.7290    1.0000 </r>
       <r>   -0.8637    0.0000 </r>
       <r>   -0.8306    0.0000 </r>
       <r>    0.8941    0.0000 </r>
       <r>    0.9107    0.0000 </r>
       <r>    1.6286    0.0000 </r>
       <r>    2.5877    0.0000 </r>
      </set>
      <set comment="kpoint 6">
       <r>  -16.4431    1.0000 </r>
       <r>  -13.8454    1.0000 </r>
       <r>  -12.3195    1.0000 </r>
       <r>   -8.6243    1.0000 </r>
       <r>   -7.5519    1.0000 </r>
       <r>   -7.4026    1.0000 </r>
       <r>   -6.1130    1.0000 </r>
       <r>   -5.3234    1.0000 </r>
       <r>   -3.8792    1.0000 </r>
       <r>   -2.9237    1.0000 </r>
       <r>   -1.0647    0.0000 </r>
       <r>   -0.6975    0.0000 </r>
       <r>    0.6765    0.0000 </r>
       <r>    1.1344    0.0000 </r>
       <r>    1.6793    0.0000 </r>
       <r>    2.7768    0.0000 </r>
      </set>
      <set comment="kpoint 7">
       <r>  -16.1911    1.0000 </r>
       <r>  -13.5736    1.0000 </r>
       <r>  -12.6580    1.0000 </r>
       <r>   -9.2208    1.0000 </r>
       <r>   -7.6583    1.0000 </r>
       <r>   -7.2698    1.0000 </r>
       <r>   -5.9179    1.0000 </r>
       <r>   -5.2630    1.0000 </r>
       <r>   -4.0409    1.0000 </r>
       <r>   -3.1654    1.0000 </r>
       <r>   -1.1519    0.0000 </r>
       <r>   -0.5381    0.0000 </r>
       <r>    0.2196    0.0000 </r>
       <r>    0.7033    0.0000 </r>
       <r>    1.7690    0.0000 </r>
       <r>    2.8259    0.0000 </r>
      </set>
      <set comment="kpoint 8">
       <r>  -15.8972    1.0000 </r>
       <r>  -13.2541    1.0000 </r>
       <r>  -13.0530    1.0000 </r>
       <r>   -9.8264    1.0000 </r>
       <r>   -7.6611    1.0000 </r>
       <r>   -7.1514    1.0000 </r>
       <r>   -5.7056    1.0000 </r>
       <r>   -5.1722    1.0000 </r>
       <r>   -4.2328    1.0000 </r>
       <r>   -3.4420    1.0000 </r>
       <r>   -1.0918    0.0000 </r>
       <r>   -0.4866    0.0000 </r>
       <r>   -0.2438    0.0000 </r>
       <r>    0.4622    0.0000 </r>
       <r>    1.4096    0.0000 </r>
       <r>    2.6336    0.0000 </r>
      </set>
      <set comment="kpoint 9">
       <r>  -15.5638    1.0000 </r>
       <r>  -13.4830    1.0000 </r>
       <r>  -12.8877    1.0000 </r>
       <r>  -10.4196    1.0000 </r>
       <r>   -7.5809    1.0000 </r>
       <r>   -7.0760    1.0000 </r>
       <r>   -5.4903    1.0000 </r>
       <r>   -5.0847    1.0000 </r>
       <r>   -4.3944    1.0000 </r>
       <r>   -3.7337    1.0000 </r>
       <r>   -0.9101    0.0000 </r>
       <r>   -0.6434    0.0000 </r>
       <r>   -0.6355    0.0000 </r>
       <r>    0.5335    0.0000 </r>
       <r>    0.9746    0.0000 </r>
       <r>    2.3068    0.0000 </r>
      </set>
      <set comment="kpoint 10">
       <r>  -15.1943    1.0000 </r>
       <r>  -13.9270    1.0000 </r>
       <r>  -12.4757    1.0000 </r>
       <r>  -10.9877    1.0000 </r>
       <r>   -7.4456    1.0000 </r>
       <r>   -7.0729    1.0000 </r>
       <r>   -5.2921    1.0000 </r>
       <r>   -5.0336    1.0000 </r>
       <r>   -4.4657    1.0000 </r>
       <r>   -4.0150    1.0000 </r>
       <r>   -0.9115    0.0000 </r>
       <r>   -0.8675    0.0000 </r>
       <r>   -0.6357    0.0000 </r>
       <r>    0.5304    0.0000 </r>
       <r>    0.7991    0.0000 </r>
       <r>    1.9240    0.0000 </r>
      </set>
      <set comment="kpoint 11">
       <r>  -14.7936    1.0000 </r>
       <r>  -14.3681    1.0000 </r>
       <r>  -12.0200    1.0000 </r>
       <r>  -11.5229    1.0000 </r>
       <r>   -7.2892    1.0000 </r>
       <r>   -7.1515    1.0000 </r>
       <r>   -5.1363    1.0000 </r>
       <r>   -5.0469    1.0000 </r>
       <r>   -4.4158    1.0000 </r>
       <r>   -4.2544    1.0000 </r>
       <r>   -1.0425    0.0000 </r>
       <r>   -1.0206    0.0000 </r>
       <r>   -0.2922    0.0000 </r>
       <r>    0.1021    0.0000 </r>
       <r>    1.1445    0.0000 </r>
       <r>    1.5276    0.0000 </r>
      </set>
      <set comment="kpoint 12">
       <r>  -17.0045    1.0000 </r>
       <r>  -14.5029    1.0000 </r>
       <r>  -11.6502    1.0000 </r>
       <r>   -7.9772    1.0000 </r>
       <r>   -6.9531    1.0000 </r>
       <r>   -6.5229    1.0000 </r>
       <r>   -6.2689    1.0000 </r>
       <r>   -4.6442    1.0000 </r>
       <r>   -3.6642    1.0000 </r>
       <r>   -2.5833    1.0000 </r>
       <r>   -1.4373    0.0000 </r>
       <r>   -1.0548    0.0000 </r>
       <r>   -0.6762    0.0000 </r>
       <r>    0.2896    0.0000 </r>
       <r>    2.1671    0.0000 </r>
       <r>    2.2405    0.0000 </r>
      </set>
      <set comment="kpoint 13">
       <r>  -16.9810    1.0000 </r>
       <r>  -14.4782    1.0000 </r>
       <r>  -11.6691    1.0000 </r>
       <r>   -7.9699    1.0000 </r>
       <r>   -6.9900    1.0000 </r>
       <r>   -6.5541    1.0000 </r>
       <r>   -6.3335    1.0000 </r>
       <r>   -4.7635    1.0000 </r>
       <r>   -3.6626    1.0000 </r>
       <r>   -2.5921    1.0000 </r>
       <r>   -1.2455    0.0000 </r>
       <r>   -1.0371    0.0000 </r>
       <r>   -0.4844    0.0000 </r>
       <r>    0.1799    0.0000 </r>
       <r>    2.1900    0.0000 </r>
       <r>    2.2672    0.0000 </r>
      </set>
      <set comment="kpoint 14">
       <r>  -16.9105    1.0000 </r>
       <r>  -14.4043    1.0000 </r>
       <r>  -11.7300    1.0000 </r>
       <r>   -7.9591    1.0000 </r>
       <r>   -7.1089    1.0000 </r>
       <r>   -6.7668    1.0000 </r>
       <r>   -6.3492    1.0000 </r>
       <r>   -5.0216    1.0000 </r>
       <r>   -3.6655    1.0000 </r>
       <r>   -2.6268    1.0000 </r>
       <r>   -0.9889    0.0000 </r>
       <r>   -0.7168    0.0000 </r>
       <r>   -0.1742    0.0000 </r>
       <r>    0.0780    0.0000 </r>
       <r>    2.2455    0.0000 </r>
       <r>    2.3469    0.0000 </r>
      </set>
      <set comment="kpoint 15">
       <r>  -16.7935    1.0000 </r>
       <r>  -14.2815    1.0000 </r>
       <r>  -11.8438    1.0000 </r>
       <r>   -8.0009    1.0000 </r>
       <r>   -7.2918    1.0000 </r>
       <r>   -7.0943    1.0000 </r>
       <r>   -6.2699    1.0000 </r>
       <r>   -5.2499    1.0000 </r>
       <r>   -3.6895    1.0000 </r>
       <r>   -2.6994    1.0000 </r>
       <r>   -0.9021    0.0000 </r>
       <r>   -0.4782    0.0000 </r>
       <r>    0.0318    0.0000 </r>
       <r>    0.6197    0.0000 </r>
       <r>    1.9913    0.0000 </r>
       <r>    2.4104    0.0000 </r>
      </set>
      <set comment="kpoint 16">
       <r>  -16.6305    1.0000 </r>
       <r>  -14.1107    1.0000 </r>
       <r>  -12.0239    1.0000 </r>
       <r>   -8.2402    1.0000 </r>
       <r>   -7.3981    1.0000 </r>
       <r>   -7.3972    1.0000 </r>
       <r>   -6.1453    1.0000 </r>
       <r>   -5.3637    1.0000 </r>
       <r>   -3.7559    1.0000 </r>
       <r>   -2.8184    1.0000 </r>
       <r>   -0.7826    0.0000 </r>
       <r>   -0.7804    0.0000 </r>
       <r>    0.8635    0.0000 </r>
       <r>    0.9533    0.0000 </r>
       <r>    1.5373    0.0000 </r>
       <r>    2.5550    0.0000 </r>
      </set>
      <set comment="kpoint 17">
       <r>  -16.4226    1.0000 </r>
       <r>  -13.8940    1.0000 </r>
       <r>  -12.2776    1.0000 </r>
       <r>   -8.7043    1.0000 </r>
       <r>   -7.6125    1.0000 </r>
       <r>   -7.3592    1.0000 </r>
       <r>   -5.9886    1.0000 </r>
       <r>   -5.3738    1.0000 </r>
       <r>   -3.8812    1.0000 </r>
       <r>   -2.9882    1.0000 </r>
       <r>   -0.9764    0.0000 </r>
       <r>   -0.6380    0.0000 </r>
       <r>    0.7609    0.0000 </r>
       <r>    0.9078    0.0000 </r>
       <r>    1.8261    0.0000 </r>
       <r>    2.7268    0.0000 </r>
      </set>
      <set comment="kpoint 18">
       <r>  -16.1711    1.0000 </r>
       <r>  -13.6383    1.0000 </r>
       <r>  -12.5956    1.0000 </r>
       <r>   -9.2682    1.0000 </r>
       <r>   -7.7178    1.0000 </r>
       <r>   -7.2575    1.0000 </r>
       <r>   -5.8096    1.0000 </r>
       <r>   -5.3249    1.0000 </r>
       <r>   -4.0551    1.0000 </r>
       <r>   -3.2056    1.0000 </r>
       <r>   -1.0340    0.0000 </r>
       <r>   -0.5026    0.0000 </r>
       <r>    0.3151    0.0000 </r>
       <r>    0.5087    0.0000 </r>
       <r>    1.9735    0.0000 </r>
       <r>    2.7830    0.0000 </r>
      </set>
      <set comment="kpoint 19">
       <r>  -15.8779    1.0000 </r>
       <r>  -13.3932    1.0000 </r>
       <r>  -12.9134    1.0000 </r>
       <r>   -9.8592    1.0000 </r>
       <r>   -7.7174    1.0000 </r>
       <r>   -7.1496    1.0000 </r>
       <r>   -5.6216    1.0000 </r>
       <r>   -5.2632    1.0000 </r>
       <r>   -4.2287    1.0000 </r>
       <r>   -3.4569    1.0000 </r>
       <r>   -0.9641    0.0000 </r>
       <r>   -0.4982    0.0000 </r>
       <r>   -0.1446    0.0000 </r>
       <r>    0.3032    0.0000 </r>
       <r>    1.6528    0.0000 </r>
       <r>    2.5911    0.0000 </r>
      </set>
      <set comment="kpoint 20">
       <r>  -15.5455    1.0000 </r>
       <r>  -13.5263    1.0000 </r>
       <r>  -12.8426    1.0000 </r>
       <r>  -10.4443    1.0000 </r>
       <r>   -7.6313    1.0000 </r>
       <r>   -7.0778    1.0000 </r>
       <r>   -5.4442    1.0000 </r>
       <r>   -5.2262    1.0000 </r>
       <r>   -4.3348    1.0000 </r>
       <r>   -3.7186    1.0000 </r>
       <r>   -0.8385    0.0000 </r>
       <r>   -0.7037    0.0000 </r>
       <r>   -0.4876    0.0000 </r>
       <r>    0.3942    0.0000 </r>
       <r>    1.2623    0.0000 </r>
       <r>    2.2699    0.0000 </r>
      </set>
      <set comment="kpoint 21">
       <r>  -15.1778    1.0000 </r>
       <r>  -13.9302    1.0000 </r>
       <r>  -12.4706    1.0000 </r>
       <r>  -11.0067    1.0000 </r>
       <r>   -7.4871    1.0000 </r>
       <r>   -7.0797    1.0000 </r>
       <r>   -5.3043    1.0000 </r>
       <r>   -5.2158    1.0000 </r>
       <r>   -4.3433    1.0000 </r>
       <r>   -3.9598    1.0000 </r>
       <r>   -0.9429    0.0000 </r>
       <r>   -0.9366    0.0000 </r>
       <r>   -0.4093    0.0000 </r>
       <r>    0.5095    0.0000 </r>
       <r>    0.9912    0.0000 </r>
       <r>    1.8959    0.0000 </r>
      </set>
      <set comment="kpoint 22">
       <r>  -14.7799    1.0000 </r>
       <r>  -14.3596    1.0000 </r>
       <r>  -12.0271    1.0000 </r>
       <r>  -11.5366    1.0000 </r>
       <r>   -7.3190    1.0000 </r>
       <r>   -7.1684    1.0000 </r>
       <r>   -5.2272    1.0000 </r>
       <r>   -5.2102    1.0000 </r>
       <r>   -4.2768    1.0000 </r>
       <r>   -4.1502    1.0000 </r>
       <r>   -1.0792    0.0000 </r>
       <r>   -1.0772    0.0000 </r>
       <r>   -0.0984    0.0000 </r>
       <r>    0.2582    0.0000 </r>
       <r>    1.1654    0.0000 </r>
       <r>    1.5141    0.0000 </r>
      </set>
      <set comment="kpoint 23">
       <r>  -14.7799    1.0000 </r>
       <r>  -14.3596    1.0000 </r>
       <r>  -12.0271    1.0000 </r>
       <r>  -11.5366    1.0000 </r>
       <r>   -7.3190    1.0000 </r>
       <r>   -7.1684    1.0000 </r>
       <r>   -5.2272    1.0000 </r>
       <r>   -5.2102    1.0000 </r>
       <r>   -4.2768    1.0000 </r>
       <r>   -4.1502    1.0000 </r>
       <r>   -1.0792    0.0000 </r>
       <r>   -1.0772    0.0000 </r>
       <r>   -0.0984    0.0000 </r>
       <r>    0.2582    0.0000 </r>
       <r>    1.1654    0.0000 </r>
       <r>    1.5141    0.0000 </r>
      </set>
      <set comment="kpoint 24">
       <r>  -15.1778    1.0000 </r>
       <r>  -13.9302    1.0000 </r>
       <r>  -12.4706    1.0000 </r>
       <r>  -11.0067    1.0000 </r>
       <r>   -7.4871    1.0000 </r>
       <r>   -7.0797    1.0000 </r>
       <r>   -5.3043    1.0000 </r>
       <r>   -5.2158    1.0000 </r>
       <r>   -4.3433    1.0000 </r>
       <r>   -3.9598    1.0000 </r>
       <r>   -0.9429    0.0000 </r>
       <r>   -0.9366    0.0000 </r>
       <r>   -0.4093    0.0000 </r>
       <r>    0.5095    0.0000 </r>
       <r>    0.9912    0.0000 </r>
       <r>    1.8959    0.0000 </r>
      </set>
      <set comment="kpoint 25">
       <r>  -15.5455    1.0000 </r>
       <r>  -13.5263    1.0000 </r>
       <r>  -12.8426    1.0000 </r>
       <r>  -10.4443    1.0000 </r>
       <r>   -7.6313    1.0000 </r>
       <r>   -7.0778    1.0000 </r>
       <r>   -5.4442    1.0000 </r>
       <r>   -5.2262    1.0000 </r>
       <r>   -4.3348    1.0000 </r>
       <r>   -3.7186    1.0000 </r>
       <r>   -0.8385    0.0000 </r>
       <r>   -0.7037    0.0000 </r>
       <r>   -0.4876    0.0000 </r>
       <r>    0.3942    0.0000 </r>
       <r>    1.2623    0.0000 </r>
       <r>    2.2699    0.0000 </r>
      </set>
      <set comment="kpoint 26">
       <r>  -15.8779    1.0000 </r>
       <r>  -13.3932    1.0000 </r>
       <r>  -12.9134    1.0000 </r>
       <r>   -9.8592    1.0000 </r>
       <r>   -7.7174    1.0000 </r>
       <r>   -7.1496    1.0000 </r>
       <r>   -5.6216    1.0000 </r>
       <r>   -5.2632    1.0000 </r>
       <r>   -4.2287    1.0000 </r>
       <r>   -3.4569    1.0000 </r>
       <r>   -0.9641    0.0000 </r>
       <r>   -0.4982    0.0000 </r>
       <r>   -0.1446    0.0000 </r>
       <r>    0.3032    0.0000 </r>
       <r>    1.6528    0.0000 </r>
       <r>    2.5911    0.0000 </r>
      </set>
      <set comment="kpoint 27">
       <r>  -16.1711    1.0000 </r>
       <r>  -13.6383    1.0000 </r>
       <r>  -12.5956    1.0000 </r>
       <r>   -9.2682    1.0000 </r>
       <r>   -7.7178    1.0000 </r>
       <r>   -7.2575    1.0000 </r>
       <r>   -5.8096    1.0000 </r>
       <r>   -5.3249    1.0000 </r>
       <r>   -4.0551    1.0000 </r>
       <r>   -3.2056    1.0000 </r>
       <r>   -1.0340    0.0000 </r>
       <r>   -0.5026    0.0000 </r>
       <r>    0.3151    0.0000 </r>
       <r>    0.5087    0.0000 </r>
       <r>    1.9735    0.0000 </r>
       <r>    2.7830    0.0000 </r>
      </set>
      <set comment="kpoint 28">
       <r>  -16.4226    1.0000 </r>
       <r>  -13.8940    1.0000 </r>
       <r>  -12.2776    1.0000 </r>
       <r>   -8.7043    1.0000 </r>
       <r>   -7.6125    1.0000 </r>
       <r>   -7.3592    1.0000 </r>
       <r>   -5.9886    1.0000 </r>
       <r>   -5.3738    1.0000 </r>
       <r>   -3.8812    1.0000 </r>
       <r>   -2.9882    1.0000 </r>
       <r>   -0.9764    0.0000 </r>
       <r>   -0.6380    0.0000 </r>
       <r>    0.7609    0.0000 </r>
       <r>    0.9078    0.0000 </r>
       <r>    1.8261    0.0000 </r>
       <r>    2.7262    0.0000 </r>
      </set>
      <set comment="kpoint 29">
       <r>  -16.6305    1.0000 </r>
       <r>  -14.1107    1.0000 </r>
       <r>  -12.0239    1.0000 </r>
       <r>   -8.2402    1.0000 </r>
       <r>   -7.3981    1.0000 </r>
       <r>   -7.3972    1.0000 </r>
       <r>   -6.1453    1.0000 </r>
       <r>   -5.3637    1.0000 </r>
       <r>   -3.7559    1.0000 </r>
       <r>   -2.8184    1.0000 </r>
       <r>   -0.7826    0.0000 </r>
       <r>   -0.7804    0.0000 </r>
       <r>    0.8635    0.0000 </r>
       <r>    0.9533    0.0000 </r>
       <r>    1.5373    0.0000 </r>
       <r>    2.5550    0.0000 </r>
      </set>
      <set comment="kpoint 30">
       <r>  -16.7935    1.0000 </r>
       <r>  -14.2815    1.0000 </r>
       <r>  -11.8438    1.0000 </r>
       <r>   -8.0009    1.0000 </r>
       <r>   -7.2918    1.0000 </r>
       <r>   -7.0943    1.0000 </r>
       <r>   -6.2699    1.0000 </r>
       <r>   -5.2499    1.0000 </r>
       <r>   -3.6895    1.0000 </r>
       <r>   -2.6994    1.0000 </r>
       <r>   -0.9021    0.0000 </r>
       <r>   -0.4782    0.0000 </r>
       <r>    0.0318    0.0000 </r>
       <r>    0.6197    0.0000 </r>
       <r>    1.9913    0.0000 </r>
       <r>    2.4104    0.0000 </r>
      </set>
      <set comment="kpoint 31">
       <r>  -16.9105    1.0000 </r>
       <r>  -14.4043    1.0000 </r>
       <r>  -11.7300    1.0000 </r>
       <r>   -7.9591    1.0000 </r>
       <r>   -7.1089    1.0000 </r>
       <r>   -6.7668    1.0000 </r>
       <r>   -6.3492    1.0000 </r>
       <r>   -5.0216    1.0000 </r>
       <r>   -3.6655    1.0000 </r>
       <r>   -2.6268    1.0000 </r>
       <r>   -0.9889    0.0000 </r>
       <r>   -0.7168    0.0000 </r>
       <r>   -0.1742    0.0000 </r>
       <r>    0.0780    0.0000 </r>
       <r>    2.2455    0.0000 </r>
       <r>    2.3469    0.0000 </r>
      </set>
      <set comment="kpoint 32">
       <r>  -16.9810    1.0000 </r>
       <r>  -14.4782    1.0000 </r>
       <r>  -11.6691    1.0000 </r>
       <r>   -7.9699    1.0000 </r>
       <r>   -6.9900    1.0000 </r>
       <r>   -6.5541    1.0000 </r>
       <r>   -6.3335    1.0000 </r>
       <r>   -4.7635    1.0000 </r>
       <r>   -3.6626    1.0000 </r>
       <r>   -2.5921    1.0000 </r>
       <r>   -1.2455    0.0000 </r>
       <r>   -1.0371    0.0000 </r>
       <r>   -0.4844    0.0000 </r>
       <r>    0.1799    0.0000 </r>
       <r>    2.1900    0.0000 </r>
       <r>    2.2672    0.0000 </r>
      </set>
      <set comment="kpoint 33">
       <r>  -16.9409    1.0000 </r>
       <r>  -14.6081    1.0000 </r>
       <r>  -11.6219    1.0000 </r>
       <r>   -8.3575    1.0000 </r>
       <r>   -6.7037    1.0000 </r>
       <r>   -6.3070    1.0000 </r>
       <r>   -6.2182    1.0000 </r>
       <r>   -4.6934    1.0000 </r>
       <r>   -3.4580    1.0000 </r>
       <r>   -2.9216    1.0000 </r>
       <r>   -1.3753    0.0000 </r>
       <r>   -0.8305    0.0000 </r>
       <r>   -0.7470    0.0000 </r>
       <r>    0.2573    0.0000 </r>
       <r>    2.3113    0.0000 </r>
       <r>    2.3291    0.0000 </r>
      </set>
      <set comment="kpoint 34">
       <r>  -16.9175    1.0000 </r>
       <r>  -14.5841    1.0000 </r>
       <r>  -11.6370    1.0000 </r>
       <r>   -8.3555    1.0000 </r>
       <r>   -6.7294    1.0000 </r>
       <r>   -6.4933    1.0000 </r>
       <r>   -6.1283    1.0000 </r>
       <r>   -4.8261    1.0000 </r>
       <r>   -3.4647    1.0000 </r>
       <r>   -2.9248    1.0000 </r>
       <r>   -1.1887    0.0000 </r>
       <r>   -0.7331    0.0000 </r>
       <r>   -0.6369    0.0000 </r>
       <r>    0.1717    0.0000 </r>
       <r>    2.3306    0.0000 </r>
       <r>    2.3556    0.0000 </r>
      </set>
      <set comment="kpoint 35">
       <r>  -16.8472    1.0000 </r>
       <r>  -14.5125    1.0000 </r>
       <r>  -11.6866    1.0000 </r>
       <r>   -8.3590    1.0000 </r>
       <r>   -6.8206    1.0000 </r>
       <r>   -6.8197    1.0000 </r>
       <r>   -6.0362    1.0000 </r>
       <r>   -5.1116    1.0000 </r>
       <r>   -3.4964    1.0000 </r>
       <r>   -2.9399    1.0000 </r>
       <r>   -0.7550    0.0000 </r>
       <r>   -0.6176    0.0000 </r>
       <r>   -0.2736    0.0000 </r>
       <r>    0.0884    0.0000 </r>
       <r>    2.1469    0.0000 </r>
       <r>    2.3883    0.0000 </r>
      </set>
      <set comment="kpoint 36">
       <r>  -16.7306    1.0000 </r>
       <r>  -14.3941    1.0000 </r>
       <r>  -11.7819    1.0000 </r>
       <r>   -8.4037    1.0000 </r>
       <r>   -7.1842    1.0000 </r>
       <r>   -6.9924    1.0000 </r>
       <r>   -5.9354    1.0000 </r>
       <r>   -5.3593    1.0000 </r>
       <r>   -3.5721    1.0000 </r>
       <r>   -2.9775    1.0000 </r>
       <r>   -0.6574    0.0000 </r>
       <r>   -0.4142    0.0000 </r>
       <r>    0.0662    0.0000 </r>
       <r>    0.5888    0.0000 </r>
       <r>    1.6891    0.0000 </r>
       <r>    2.4744    0.0000 </r>
      </set>
      <set comment="kpoint 37">
       <r>  -16.5684    1.0000 </r>
       <r>  -14.2311    1.0000 </r>
       <r>  -11.9376    1.0000 </r>
       <r>   -8.5665    1.0000 </r>
       <r>   -7.5076    1.0000 </r>
       <r>   -7.1793    1.0000 </r>
       <r>   -5.8164    1.0000 </r>
       <r>   -5.4786    1.0000 </r>
       <r>   -3.7056    1.0000 </r>
       <r>   -3.0486    1.0000 </r>
       <r>   -0.6154    0.0000 </r>
       <r>   -0.5741    0.0000 </r>
       <r>    0.7203    0.0000 </r>
       <r>    1.0370    0.0000 </r>
       <r>    1.4097    0.0000 </r>
       <r>    2.5732    0.0000 </r>
      </set>
      <set comment="kpoint 38">
       <r>  -16.3614    1.0000 </r>
       <r>  -14.0284    1.0000 </r>
       <r>  -12.1614    1.0000 </r>
       <r>   -8.9138    1.0000 </r>
       <r>   -7.7365    1.0000 </r>
       <r>   -7.2623    1.0000 </r>
       <r>   -5.6826    1.0000 </r>
       <r>   -5.4965    1.0000 </r>
       <r>   -3.8910    1.0000 </r>
       <r>   -3.1610    1.0000 </r>
       <r>   -0.7193    0.0000 </r>
       <r>   -0.4756    0.0000 </r>
       <r>    0.5198    0.0000 </r>
       <r>    0.9802    0.0000 </r>
       <r>    2.0261    0.0000 </r>
       <r>    2.6686    0.0000 </r>
      </set>
      <set comment="kpoint 39">
       <r>  -16.1114    1.0000 </r>
       <r>  -13.8005    1.0000 </r>
       <r>  -12.4393    1.0000 </r>
       <r>   -9.4042    1.0000 </r>
       <r>   -7.8482    1.0000 </r>
       <r>   -7.2309    1.0000 </r>
       <r>   -5.5460    1.0000 </r>
       <r>   -5.4783    1.0000 </r>
       <r>   -4.0869    1.0000 </r>
       <r>   -3.3135    1.0000 </r>
       <r>   -0.7092    0.0000 </r>
       <r>   -0.4087    0.0000 </r>
       <r>    0.1695    0.0000 </r>
       <r>    0.5786    0.0000 </r>
       <r>    2.3286    0.0000 </r>
       <r>    2.6639    0.0000 </r>
      </set>
      <set comment="kpoint 40">
       <r>  -15.8203    1.0000 </r>
       <r>  -13.6044    1.0000 </r>
       <r>  -12.7006    1.0000 </r>
       <r>   -9.9560    1.0000 </r>
       <r>   -7.8461    1.0000 </r>
       <r>   -7.1491    1.0000 </r>
       <r>   -5.4840    1.0000 </r>
       <r>   -5.4280    1.0000 </r>
       <r>   -4.2216    1.0000 </r>
       <r>   -3.4906    1.0000 </r>
       <r>   -0.6160    0.0000 </r>
       <r>   -0.5538    0.0000 </r>
       <r>    0.1011    0.0000 </r>
       <r>    0.1334    0.0000 </r>
       <r>    2.1159    0.0000 </r>
       <r>    2.4722    0.0000 </r>
      </set>
      <set comment="kpoint 41">
       <r>  -15.4913    1.0000 </r>
       <r>  -13.6354    1.0000 </r>
       <r>  -12.7285    1.0000 </r>
       <r>  -10.5180    1.0000 </r>
       <r>   -7.7500    1.0000 </r>
       <r>   -7.0834    1.0000 </r>
       <r>   -5.5305    1.0000 </r>
       <r>   -5.3580    1.0000 </r>
       <r>   -4.2425    1.0000 </r>
       <r>   -3.6643    1.0000 </r>
       <r>   -0.8292    0.0000 </r>
       <r>   -0.5948    0.0000 </r>
       <r>   -0.1181    0.0000 </r>
       <r>    0.2675    0.0000 </r>
       <r>    1.7816    0.0000 </r>
       <r>    2.1674    0.0000 </r>
      </set>
      <set comment="kpoint 42">
       <r>  -15.1288    1.0000 </r>
       <r>  -13.9425    1.0000 </r>
       <r>  -12.4530    1.0000 </r>
       <r>  -11.0638    1.0000 </r>
       <r>   -7.5874    1.0000 </r>
       <r>   -7.0952    1.0000 </r>
       <r>   -5.5600    1.0000 </r>
       <r>   -5.3610    1.0000 </r>
       <r>   -4.1680    1.0000 </r>
       <r>   -3.8113    1.0000 </r>
       <r>   -1.0402    0.0000 </r>
       <r>   -0.8310    0.0000 </r>
       <r>    0.0345    0.0000 </r>
       <r>    0.4712    0.0000 </r>
       <r>    1.4479    0.0000 </r>
       <r>    1.8222    0.0000 </r>
[...]
       <r>    3.0244    0.0000 </r>
       <r>    3.1944    0.0000 </r>
      </set>
      <set comment="kpoint 153">
       <r>  -15.2833    1.0000 </r>
       <r>  -15.0379    1.0000 </r>
       <r>  -11.1303    1.0000 </r>
       <r>  -10.8128    1.0000 </r>
       <r>   -7.9019    1.0000 </r>
       <r>   -7.7425    1.0000 </r>
       <r>   -5.4651    1.0000 </r>
       <r>   -5.2619    1.0000 </r>
       <r>   -3.8818    1.0000 </r>
       <r>   -3.7775    1.0000 </r>
       <r>    0.0663    0.0000 </r>
       <r>    0.4493    0.0000 </r>
       <r>    0.9248    0.0000 </r>
       <r>    1.2123    0.0000 </r>
       <r>    2.7441    0.0000 </r>
       <r>    2.9800    0.0000 </r>
      </set>
      <set comment="kpoint 154">
       <r>  -15.5099    1.0000 </r>
       <r>  -15.2570    1.0000 </r>
       <r>  -10.9283    1.0000 </r>
       <r>  -10.5954    1.0000 </r>
       <r>   -7.6959    1.0000 </r>
       <r>   -7.5368    1.0000 </r>
       <r>   -5.2743    1.0000 </r>
       <r>   -5.0330    1.0000 </r>
       <r>   -3.8117    1.0000 </r>
       <r>   -3.7952    1.0000 </r>
       <r>   -0.0295    0.0000 </r>
       <r>    0.2745    0.0000 </r>
       <r>    1.0248    0.0000 </r>
       <r>    1.3542    0.0000 </r>
       <r>    2.1840    0.0000 </r>
       <r>    2.4242    0.0000 </r>
      </set>
      <set comment="kpoint 155">
       <r>  -15.7019    1.0000 </r>
       <r>  -15.4446    1.0000 </r>
       <r>  -10.8164    1.0000 </r>
       <r>  -10.4794    1.0000 </r>
       <r>   -7.3240    1.0000 </r>
       <r>   -7.1579    1.0000 </r>
       <r>   -5.2079    1.0000 </r>
       <r>   -4.9246    1.0000 </r>
       <r>   -3.7583    1.0000 </r>
       <r>   -3.6535    1.0000 </r>
       <r>   -0.1205    0.0000 </r>
       <r>    0.0661    0.0000 </r>
       <r>    1.0227    0.0000 </r>
       <r>    1.3076    0.0000 </r>
       <r>    1.6545    0.0000 </r>
       <r>    1.7724    0.0000 </r>
      </set>
      <set comment="kpoint 156">
       <r>  -15.8545    1.0000 </r>
       <r>  -15.5948    1.0000 </r>
       <r>  -10.7723    1.0000 </r>
       <r>  -10.4373    1.0000 </r>
       <r>   -6.8300    1.0000 </r>
       <r>   -6.6539    1.0000 </r>
       <r>   -5.2150    1.0000 </r>
       <r>   -4.9040    1.0000 </r>
       <r>   -3.7318    1.0000 </r>
       <r>   -3.4975    1.0000 </r>
       <r>   -0.2804    0.0000 </r>
       <r>   -0.2314    0.0000 </r>
       <r>    0.8610    0.0000 </r>
       <r>    0.8994    0.0000 </r>
       <r>    1.3920    0.0000 </r>
       <r>    1.5623    0.0000 </r>
      </set>
      <set comment="kpoint 157">
       <r>  -15.9651    1.0000 </r>
       <r>  -15.7040    1.0000 </r>
       <r>  -10.7642    1.0000 </r>
       <r>  -10.4327    1.0000 </r>
       <r>   -6.2815    1.0000 </r>
       <r>   -6.0992    1.0000 </r>
       <r>   -5.2460    1.0000 </r>
       <r>   -4.9202    1.0000 </r>
       <r>   -3.7944    1.0000 </r>
       <r>   -3.4414    1.0000 </r>
       <r>   -0.6316    0.0000 </r>
       <r>   -0.5842    0.0000 </r>
       <r>    0.6604    0.0000 </r>
       <r>    0.7524    0.0000 </r>
       <r>    1.2610    0.0000 </r>
       <r>    1.5362    0.0000 </r>
      </set>
      <set comment="kpoint 158">
       <r>  -16.0321    1.0000 </r>
       <r>  -15.7702    1.0000 </r>
       <r>  -10.7682    1.0000 </r>
       <r>  -10.4392    1.0000 </r>
       <r>   -5.7838    1.0000 </r>
       <r>   -5.6053    1.0000 </r>
       <r>   -5.2752    1.0000 </r>
       <r>   -4.9406    1.0000 </r>
       <r>   -3.9596    1.0000 </r>
       <r>   -3.5202    1.0000 </r>
       <r>   -0.9581    0.0000 </r>
       <r>   -0.8761    0.0000 </r>
       <r>    0.5886    0.0000 </r>
       <r>    0.7853    0.0000 </r>
       <r>    1.1928    0.0000 </r>
       <r>    1.5122    0.0000 </r>
      </set>
     </set>
    </set>
   </array>
  </eigenvalues>
  <separator name="orbital magnetization" >
   <v name="MAGDIPOLOUT">      0.00000000      0.00000000      0.00000000</v>
  </separator>
  <dos>
   <i name="efermi">     -2.33731276 </i>
   <total>
    <array>
     <dimension dim="1">gridpoints</dimension>
     <dimension dim="2">spin</dimension>
     <field>energy</field>
     <field>total</field>
     <field>integrated</field>
     <set>
      <set comment="spin 1">
       <r>   -18.0504     0.0000     0.0000 </r>
       <r>   -17.9753     0.0000     0.0000 </r>
       <r>   -17.9002     0.0000     0.0000 </r>
       <r>   -17.8250     0.0000     0.0000 </r>
       <r>   -17.7499     0.0000     0.0000 </r>
       <r>   -17.6747     0.0000     0.0000 </r>
       <r>   -17.5996     0.0000     0.0000 </r>
       <r>   -17.5245     0.0000     0.0000 </r>
       <r>   -17.4493     0.0000     0.0000 </r>
       <r>   -17.3742     0.0000     0.0000 </r>
       <r>   -17.2991     0.0000     0.0000 </r>
       <r>   -17.2239     0.0000     0.0000 </r>
       <r>   -17.1488     0.0000     0.0000 </r>
       <r>   -17.0736     0.0000     0.0000 </r>
       <r>   -16.9985     0.3333     0.0250 </r>
       <r>   -16.9234     0.8759     0.0909 </r>
       <r>   -16.8482     0.7611     0.1480 </r>
       <r>   -16.7731     1.1359     0.2334 </r>
       <r>   -16.6980     0.7542     0.2901 </r>
       <r>   -16.6228     1.0779     0.3710 </r>
       <r>   -16.5477     0.8687     0.4363 </r>
       <r>   -16.4725     0.8611     0.5010 </r>
       <r>   -16.3974     1.1580     0.5880 </r>
       <r>   -16.3223     0.6066     0.6336 </r>
       <r>   -16.2471     1.2174     0.7251 </r>
       <r>   -16.1720     0.7317     0.7801 </r>
       <r>   -16.0969     1.2692     0.8754 </r>
       <r>   -16.0217     0.7815     0.9342 </r>
       <r>   -15.9466     0.9101     1.0025 </r>
       <r>   -15.8714     1.0895     1.0844 </r>
       <r>   -15.7963     0.9244     1.1539 </r>
       <r>   -15.7212     1.1013     1.2366 </r>
       <r>   -15.6460     1.0340     1.3143 </r>
       <r>   -15.5709     0.7118     1.3678 </r>
       <r>   -15.4958     1.5074     1.4810 </r>
       <r>   -15.4206     1.3854     1.5851 </r>
       <r>   -15.3455     0.4717     1.6206 </r>
       <r>   -15.2703     0.9364     1.6909 </r>
       <r>   -15.1952     1.3821     1.7948 </r>
       <r>   -15.1201     1.5516     1.9114 </r>
       <r>   -15.0449     0.7633     1.9687 </r>
       <r>   -14.9698     1.4977     2.0813 </r>
       <r>   -14.8947     1.2984     2.1788 </r>
       <r>   -14.8195     0.3031     2.2016 </r>
       <r>   -14.7444     2.5761     2.3951 </r>
       <r>   -14.6692     1.3304     2.4951 </r>
       <r>   -14.5941     1.0847     2.5766 </r>
       <r>   -14.5190     1.8696     2.7171 </r>
       <r>   -14.4438     1.9131     2.8608 </r>
       <r>   -14.3687     1.8391     2.9990 </r>
       <r>   -14.2936     2.2834     3.1706 </r>
       <r>   -14.2184     2.9083     3.3891 </r>
       <r>   -14.1433     0.5720     3.4321 </r>
       <r>   -14.0681     1.0367     3.5100 </r>
       <r>   -13.9930     1.2784     3.6060 </r>
       <r>   -13.9179     1.4171     3.7125 </r>
       <r>   -13.8427     0.6063     3.7581 </r>
       <r>   -13.7676     0.9724     3.8311 </r>
       <r>   -13.6925     0.0504     3.8349 </r>
       <r>   -13.6173     0.6794     3.8860 </r>
       <r>   -13.5422     0.5455     3.9270 </r>
       <r>   -13.4670     0.4431     3.9603 </r>
       <r>   -13.3919     0.2032     3.9755 </r>
       <r>   -13.3168     0.1567     3.9873 </r>
       <r>   -13.2416     0.1369     3.9976 </r>
       <r>   -13.1665     0.0321     4.0000 </r>
       <r>   -13.0914     0.0006     4.0000 </r>
       <r>   -13.0162     0.1677     4.0126 </r>
       <r>   -12.9411     0.0093     4.0133 </r>
       <r>   -12.8659     0.5045     4.0512 </r>
       <r>   -12.7908     0.3319     4.0762 </r>
       <r>   -12.7157     0.3248     4.1006 </r>
       <r>   -12.6405     0.5022     4.1383 </r>
       <r>   -12.5654     0.5892     4.1826 </r>
       <r>   -12.4903     0.1889     4.1968 </r>
       <r>   -12.4151     1.6228     4.3187 </r>
       <r>   -12.3400     0.7983     4.3787 </r>
       <r>   -12.2648     0.6342     4.4264 </r>
       <r>   -12.1897     1.0267     4.5035 </r>
       <r>   -12.1146     1.8318     4.6411 </r>
       <r>   -12.0394     1.4959     4.7535 </r>
       <r>   -11.9643     2.2837     4.9251 </r>
       <r>   -11.8892     1.0453     5.0037 </r>
       <r>   -11.8140     0.9932     5.0783 </r>
       <r>   -11.7389     1.6111     5.1993 </r>
       <r>   -11.6637     2.4892     5.3864 </r>
       <r>   -11.5886     2.2898     5.5584 </r>
       <r>   -11.5135     1.7236     5.6879 </r>
       <r>   -11.4383     1.7253     5.8176 </r>
       <r>   -11.3632     1.0622     5.8974 </r>
       <r>   -11.2881     0.7907     5.9568 </r>
       <r>   -11.2129     1.3847     6.0608 </r>
       <r>   -11.1378     0.5339     6.1009 </r>
       <r>   -11.0626     1.3970     6.2059 </r>
       <r>   -10.9875     1.6799     6.3321 </r>
       <r>   -10.9124     0.4367     6.3649 </r>
       <r>   -10.8372     0.2489     6.3837 </r>
       <r>   -10.7621     1.9432     6.5297 </r>
       <r>   -10.6870     0.3870     6.5587 </r>
       <r>   -10.6118     0.3710     6.5866 </r>
       <r>   -10.5367     0.6666     6.6367 </r>
       <r>   -10.4615     1.0427     6.7151 </r>
       <r>   -10.3864     1.6357     6.8380 </r>
       <r>   -10.3113     0.2399     6.8560 </r>
       <r>   -10.2361     0.3546     6.8826 </r>
       <r>   -10.1610     0.3599     6.9097 </r>
       <r>   -10.0859     0.8282     6.9719 </r>
       <r>   -10.0107     1.0923     7.0540 </r>
       <r>    -9.9356     0.3130     7.0775 </r>
       <r>    -9.8604     0.8046     7.1379 </r>
       <r>    -9.7853     0.4031     7.1682 </r>
       <r>    -9.7102     0.3128     7.1917 </r>
       <r>    -9.6350     1.1957     7.2816 </r>
       <r>    -9.5599     0.3645     7.3090 </r>
       <r>    -9.4848     0.3242     7.3333 </r>
       <r>    -9.4096     0.1188     7.3423 </r>
       <r>    -9.3345     0.3919     7.3717 </r>
       <r>    -9.2594     0.5313     7.4116 </r>
       <r>    -9.1842     1.6285     7.5340 </r>
       <r>    -9.1091     0.0337     7.5365 </r>
       <r>    -9.0339     0.0000     7.5365 </r>
       <r>    -8.9588     0.0370     7.5393 </r>
       <r>    -8.8837     0.6334     7.5869 </r>
       <r>    -8.8085     0.3894     7.6161 </r>
       <r>    -8.7334     0.8058     7.6767 </r>
       <r>    -8.6583     0.3325     7.7017 </r>
       <r>    -8.5831     0.2079     7.7173 </r>
       <r>    -8.5080     0.2979     7.7397 </r>
       <r>    -8.4328     0.0067     7.7402 </r>
       <r>    -8.3577     0.7444     7.7961 </r>
       <r>    -8.2826     0.4324     7.8286 </r>
       <r>    -8.2074     0.3341     7.8537 </r>
       <r>    -8.1323     0.0044     7.8540 </r>
       <r>    -8.0572     1.2186     7.9456 </r>
       <r>    -7.9820     1.9349     8.0910 </r>
       <r>    -7.9069     2.5148     8.2799 </r>
       <r>    -7.8317     2.1364     8.4405 </r>
       <r>    -7.7566     1.9836     8.5895 </r>
       <r>    -7.6815     2.7270     8.7944 </r>
       <r>    -7.6063     2.0568     8.9490 </r>
       <r>    -7.5312     2.8953     9.1665 </r>
       <r>    -7.4561     2.2414     9.3349 </r>
       <r>    -7.3809     2.4366     9.5180 </r>
       <r>    -7.3058     2.3397     9.6938 </r>
       <r>    -7.2306     4.0155     9.9955 </r>
       <r>    -7.1555     4.7758    10.3543 </r>
       <r>    -7.0804     4.8519    10.7189 </r>
       <r>    -7.0052     1.3519    10.8205 </r>
       <r>    -6.9301     1.5778    10.9390 </r>
       <r>    -6.8550     0.9702    11.0119 </r>
       <r>    -6.7798     1.5639    11.1294 </r>
       <r>    -6.7047     1.9251    11.2741 </r>
       <r>    -6.6295     0.8466    11.3377 </r>
       <r>    -6.5544     1.0967    11.4201 </r>
       <r>    -6.4793     2.9476    11.6416 </r>
       <r>    -6.4041     1.5698    11.7595 </r>
       <r>    -6.3290     1.1956    11.8494 </r>
       <r>    -6.2539     2.9752    12.0729 </r>
       <r>    -6.1787     1.3630    12.1753 </r>
       <r>    -6.1036     2.5435    12.3664 </r>
       <r>    -6.0284     0.8777    12.4324 </r>
       <r>    -5.9533     2.1559    12.5944 </r>
       <r>    -5.8782     2.8147    12.8059 </r>
       <r>    -5.8030     1.4235    12.9128 </r>
       <r>    -5.7279     2.2320    13.0805 </r>
       <r>    -5.6528     2.5832    13.2746 </r>
       <r>    -5.5776     4.0842    13.5815 </r>
       <r>    -5.5025     3.0907    13.8137 </r>
       <r>    -5.4273     4.1968    14.1291 </r>
       <r>    -5.3522     3.7430    14.4103 </r>
       <r>    -5.2771     2.8780    14.6265 </r>
       <r>    -5.2019     5.3511    15.0286 </r>
       <r>    -5.1268     1.5265    15.1433 </r>
       <r>    -5.0517     1.5354    15.2587 </r>
       <r>    -4.9765     2.1252    15.4184 </r>
       <r>    -4.9014     2.7441    15.6245 </r>
       <r>    -4.8262     0.6744    15.6752 </r>
       <r>    -4.7511     1.2297    15.7676 </r>
       <r>    -4.6760     0.7496    15.8239 </r>
       <r>    -4.6008     1.7334    15.9542 </r>
       <r>    -4.5257     0.6307    16.0016 </r>
       <r>    -4.4506     0.2943    16.0237 </r>
       <r>    -4.3754     0.6773    16.0746 </r>
       <r>    -4.3003     0.7110    16.1280 </r>
       <r>    -4.2251     1.2842    16.2245 </r>
       <r>    -4.1500     2.4445    16.4082 </r>
       <r>    -4.0749     2.5809    16.6021 </r>
       <r>    -3.9997     2.6609    16.8020 </r>
       <r>    -3.9246     2.4419    16.9855 </r>
       <r>    -3.8495     3.6470    17.2595 </r>
       <r>    -3.7743     3.0078    17.4855 </r>
       <r>    -3.6992     5.3557    17.8879 </r>
       <r>    -3.6240     4.8770    18.2544 </r>
       <r>    -3.5489     3.4351    18.5125 </r>
       <r>    -3.4738     4.8889    18.8798 </r>
       <r>    -3.3986     3.3081    19.1284 </r>
       <r>    -3.3235     2.1987    19.2936 </r>
       <r>    -3.2484     1.2078    19.3843 </r>
       <r>    -3.1732     1.5221    19.4987 </r>
       <r>    -3.0981     1.2088    19.5895 </r>
       <r>    -3.0229     0.5363    19.6298 </r>
       <r>    -2.9478     1.6499    19.7538 </r>
       <r>    -2.8727     0.9950    19.8286 </r>
       <r>    -2.7975     0.3144    19.8522 </r>
       <r>    -2.7224     0.1561    19.8639 </r>
       <r>    -2.6473     0.3996    19.8939 </r>
       <r>    -2.5721     0.8976    19.9614 </r>
       <r>    -2.4970     0.1552    19.9731 </r>
       <r>    -2.4218     0.3310    19.9979 </r>
       <r>    -2.3467     0.0277    20.0000 </r>
       <r>    -2.2716     0.0000    20.0000 </r>
       <r>    -2.1964     0.0000    20.0000 </r>
       <r>    -2.1213     0.0000    20.0000 </r>
       <r>    -2.0462     0.0000    20.0000 </r>
       <r>    -1.9710     0.0000    20.0000 </r>
       <r>    -1.8959     0.0000    20.0000 </r>
       <r>    -1.8207     0.0000    20.0000 </r>
       <r>    -1.7456     0.0000    20.0000 </r>
       <r>    -1.6705     0.0000    20.0000 </r>
       <r>    -1.5953     0.0000    20.0000 </r>
       <r>    -1.5202     0.0000    20.0000 </r>
       <r>    -1.4451     0.1187    20.0089 </r>
       <r>    -1.3699     0.2446    20.0273 </r>
       <r>    -1.2948     0.2545    20.0464 </r>
       <r>    -1.2196     0.9078    20.1146 </r>
       <r>    -1.1445     0.9660    20.1872 </r>
       <r>    -1.0694     2.3023    20.3602 </r>
       <r>    -0.9942     4.2449    20.6792 </r>
       <r>    -0.9191     2.5230    20.8687 </r>
       <r>    -0.8440     2.8387    21.0820 </r>
       <r>    -0.7688     2.6132    21.2784 </r>
       <r>    -0.6937     2.8149    21.4899 </r>
       <r>    -0.6185     3.7667    21.7729 </r>
       <r>    -0.5434     3.6628    22.0481 </r>
       <r>    -0.4683     3.7735    22.3316 </r>
       <r>    -0.3931     2.4835    22.5182 </r>
       <r>    -0.3180     2.4516    22.7024 </r>
       <r>    -0.2429     3.5137    22.9665 </r>
       <r>    -0.1677     2.8444    23.1802 </r>
       <r>    -0.0926     3.9323    23.4756 </r>
       <r>    -0.0174     1.5384    23.5912 </r>
       <r>     0.0577     4.1104    23.9001 </r>
       <r>     0.1328     4.9744    24.2739 </r>
       <r>     0.2080     4.3535    24.6010 </r>
       <r>     0.2831     3.8310    24.8888 </r>
       <r>     0.3582     4.2786    25.2103 </r>
       <r>     0.4334     4.4097    25.5416 </r>
       <r>     0.5085     2.9675    25.7646 </r>
       <r>     0.5837     4.1468    26.0762 </r>
       <r>     0.6588     3.3550    26.3283 </r>
       <r>     0.7339     3.6136    26.5998 </r>
       <r>     0.8091     2.2786    26.7710 </r>
       <r>     0.8842     2.8006    26.9814 </r>
       <r>     0.9593     2.8910    27.1986 </r>
       <r>     1.0345     2.5264    27.3885 </r>
       <r>     1.1096     2.2598    27.5583 </r>
       <r>     1.1848     3.0313    27.7860 </r>
       <r>     1.2599     2.9199    28.0054 </r>
       <r>     1.3350     2.4443    28.1891 </r>
       <r>     1.4102     2.3158    28.3631 </r>
       <r>     1.4853     1.9183    28.5072 </r>
       <r>     1.5604     2.9935    28.7321 </r>
       <r>     1.6356     1.1459    28.8182 </r>
       <r>     1.7107     1.5447    28.9343 </r>
       <r>     1.7859     2.5295    29.1244 </r>
       <r>     1.8610     2.5120    29.3131 </r>
       <r>     1.9361     0.9301    29.3830 </r>
       <r>     2.0113     1.5170    29.4970 </r>
       <r>     2.0864     1.4775    29.6080 </r>
       <r>     2.1615     3.1846    29.8473 </r>
       <r>     2.2367     2.9634    30.0699 </r>
       <r>     2.3118     3.0071    30.2959 </r>
       <r>     2.3870     2.9562    30.5180 </r>
       <r>     2.4621     2.8011    30.7285 </r>
       <r>     2.5372     2.7666    30.9363 </r>
       <r>     2.6124     2.5833    31.1304 </r>
       <r>     2.6875     2.3977    31.3106 </r>
       <r>     2.7626     0.7647    31.3681 </r>
       <r>     2.8378     1.4863    31.4797 </r>
       <r>     2.9129     1.0018    31.5550 </r>
       <r>     2.9881     1.2988    31.6526 </r>
       <r>     3.0632     1.1741    31.7408 </r>
       <r>     3.1383     0.9270    31.8105 </r>
       <r>     3.2135     1.0172    31.8869 </r>
       <r>     3.2886     0.6183    31.9334 </r>
       <r>     3.3637     0.5490    31.9746 </r>
       <r>     3.4389     0.0090    31.9753 </r>
       <r>     3.5140     0.3289    32.0000 </r>
       <r>     3.5892     0.0001    32.0000 </r>
       <r>     3.6643     0.0000    32.0000 </r>
       <r>     3.7394     0.0000    32.0000 </r>
       <r>     3.8146     0.0000    32.0000 </r>
       <r>     3.8897     0.0000    32.0000 </r>
       <r>     3.9648     0.0000    32.0000 </r>
       <r>     4.0400     0.0000    32.0000 </r>
       <r>     4.1151     0.0000    32.0000 </r>
       <r>     4.1903     0.0000    32.0000 </r>
       <r>     4.2654     0.0000    32.0000 </r>
       <r>     4.3405     0.0000    32.0000 </r>
       <r>     4.4157     0.0000    32.0000 </r>
       <r>     4.4908     0.0000    32.0000 </r>
      </set>
     </set>
    </array>
   </total>
  </dos>
 </calculation>
 <structure name="finalpos" >
  <crystal>
   <varray name="basis" >
    <v>       3.48943300       0.00000000       0.00000000 </v>
    <v>       0.00000000       4.62335100      -0.00005300 </v>
    <v>       0.00000000       0.00000000      20.02439000 </v>
   </varray>
   <i name="volume">    323.05095179 </i>
   <varray name="rec_basis" >
    <v>       0.28657951       0.00000000       0.00000000 </v>
    <v>       0.00000000       0.21629333       0.00000000 </v>
    <v>       0.00000000       0.00000057       0.04993910 </v>
   </varray>
  </crystal>
  <varray name="positions" >
   <v>       0.50000000       0.90854878       0.55212850 </v>
   <v>       0.50000000       0.09145122       0.44787150 </v>
   <v>       0.00000000       0.40854413       0.44787150 </v>
   <v>      -0.00000000       0.59145587       0.55212850 </v>
  </varray>
 </structure>
</modeling>
