<?xml version="1.0" encoding="ISO-8859-1"?>
<modeling>
 <generator>
  <i name="program" type="string">vasp </i>
  <i name="version" type="string">5.4.1  </i>
  <i name="subversion" type="string">24Jun15 (build Nov 20 2020 10:29:34) complex                          parallel </i>
  <i name="platform" type="string">IFC91_ompi </i>
  <i name="date" type="string">2021 09 09 </i>
  <i name="time" type="string">15:17:08 </i>
 </generator>
 <incar>
  <i type="string" name="PREC">a</i>
  <i type="string" name="ALGO"> Normal</i>
  <i type="int" name="ISPIN">     1</i>
  <i type="int" name="ICHARG">     2</i>
  <i type="int" name="NELM">   250</i>
  <i type="int" name="NELMDL">    -5</i>
  <i type="int" name="NELMIN">     6</i>
  <i type="int" name="IBRION">     2</i>
  <i name="EDIFF">      0.00001000</i>
  <i name="EDIFFG">     -0.01000000</i>
  <i type="int" name="NSW">   200</i>
  <i type="int" name="ISIF">     2</i>
  <i name="ENCUT">    520.00000000</i>
  <i name="POTIM">      0.30000000</i>
  <i type="logical" name="LREAL"> F  </i>
  <i type="int" name="ISMEAR">     0</i>
  <i name="SIGMA">      0.02000000</i>
  <i type="logical" name="LWAVE"> F  </i>
  <i type="logical" name="LCHARG"> F  </i>
  <i type="logical" name="LAECHG"> F  </i>
  <v type="int" name="KPOINT_BSE">    -1     0     0     0</v>
  <i type="int" name="NELM">   250</i>
 </incar>
 <kpoints>
  <generation param="Gamma">
   <v type="int" name="divisions">      21       15        1 </v>
   <v name="usershift">      0.00000000       0.00000000       0.00000000 </v>
   <v name="genvec1">      0.04761905       0.00000000       0.00000000 </v>
   <v name="genvec2">      0.00000000       0.06666667       0.00000000 </v>
   <v name="genvec3">      0.00000000      -0.00000000       1.00000000 </v>
   <v name="shift">      0.00000000       0.00000000       0.00000000 </v>
  </generation>
  <varray name="kpointlist" >
   <v>       0.00000000       0.00000000       0.00000000 </v>
   <v>       0.04761905       0.00000000       0.00000000 </v>
   <v>       0.09523810       0.00000000       0.00000000 </v>
   <v>       0.14285714       0.00000000       0.00000000 </v>
   <v>       0.19047619       0.00000000       0.00000000 </v>
   <v>       0.23809524       0.00000000       0.00000000 </v>
   <v>       0.28571429       0.00000000       0.00000000 </v>
   <v>       0.33333333       0.00000000       0.00000000 </v>
   <v>       0.38095238       0.00000000       0.00000000 </v>
   <v>       0.42857143       0.00000000       0.00000000 </v>
   <v>       0.47619048       0.00000000       0.00000000 </v>
   <v>       0.00000000       0.06666667       0.00000000 </v>
   <v>       0.04761905       0.06666667       0.00000000 </v>
   <v>       0.09523810       0.06666667       0.00000000 </v>
   <v>       0.14285714       0.06666667       0.00000000 </v>
   <v>       0.19047619       0.06666667       0.00000000 </v>
   <v>       0.23809524       0.06666667       0.00000000 </v>
   <v>       0.28571429       0.06666667       0.00000000 </v>
   <v>       0.33333333       0.06666667       0.00000000 </v>
   <v>       0.38095238       0.06666667       0.00000000 </v>
   <v>       0.42857143       0.06666667       0.00000000 </v>
   <v>       0.47619048       0.06666667       0.00000000 </v>
   <v>      -0.47619048       0.06666667       0.00000000 </v>
   <v>      -0.42857143       0.06666667       0.00000000 </v>
   <v>      -0.38095238       0.06666667       0.00000000 </v>
   <v>      -0.33333333       0.06666667       0.00000000 </v>
   <v>      -0.28571429       0.06666667       0.00000000 </v>
   <v>      -0.23809524       0.06666667       0.00000000 </v>
   <v>      -0.19047619       0.06666667       0.00000000 </v>
   <v>      -0.14285714       0.06666667       0.00000000 </v>
   <v>      -0.09523810       0.06666667       0.00000000 </v>
   <v>      -0.04761905       0.06666667       0.00000000 </v>
   <v>       0.00000000       0.13333333       0.00000000 </v>
   <v>       0.04761905       0.13333333       0.00000000 </v>
   <v>       0.09523810       0.13333333       0.00000000 </v>
   <v>       0.14285714       0.13333333       0.00000000 </v>
   <v>       0.19047619       0.13333333       0.00000000 </v>
   <v>       0.23809524       0.13333333       0.00000000 </v>
   <v>       0.28571429       0.13333333       0.00000000 </v>
   <v>       0.33333333       0.13333333       0.00000000 </v>
   <v>       0.38095238       0.13333333       0.00000000 </v>
   <v>       0.42857143       0.13333333       0.00000000 </v>
   <v>       0.47619048       0.13333333       0.00000000 </v>
   <v>      -0.47619048       0.13333333       0.00000000 </v>
   <v>      -0.42857143       0.13333333       0.00000000 </v>
   <v>      -0.38095238       0.13333333       0.00000000 </v>
   <v>      -0.33333333       0.13333333       0.00000000 </v>
   <v>      -0.28571429       0.13333333       0.00000000 </v>
   <v>      -0.23809524       0.13333333       0.00000000 </v>
   <v>      -0.19047619       0.13333333       0.00000000 </v>
   <v>      -0.14285714       0.13333333       0.00000000 </v>
   <v>      -0.09523810       0.13333333       0.00000000 </v>
   <v>      -0.04761905       0.13333333       0.00000000 </v>
   <v>       0.00000000       0.20000000       0.00000000 </v>
   <v>       0.04761905       0.20000000       0.00000000 </v>
   <v>       0.09523810       0.20000000       0.00000000 </v>
   <v>       0.14285714       0.20000000       0.00000000 </v>
   <v>       0.19047619       0.20000000       0.00000000 </v>
   <v>       0.23809524       0.20000000       0.00000000 </v>
   <v>       0.28571429       0.20000000       0.00000000 </v>
   <v>       0.33333333       0.20000000       0.00000000 </v>
   <v>       0.38095238       0.20000000       0.00000000 </v>
   <v>       0.42857143       0.20000000       0.00000000 </v>
   <v>       0.47619048       0.20000000       0.00000000 </v>
   <v>      -0.47619048       0.20000000       0.00000000 </v>
   <v>      -0.42857143       0.20000000       0.00000000 </v>
   <v>      -0.38095238       0.20000000       0.00000000 </v>
   <v>      -0.33333333       0.20000000       0.00000000 </v>
   <v>      -0.28571429       0.20000000       0.00000000 </v>
   <v>      -0.23809524       0.20000000       0.00000000 </v>
   <v>      -0.19047619       0.20000000       0.00000000 </v>
   <v>      -0.14285714       0.20000000       0.00000000 </v>
   <v>      -0.09523810       0.20000000       0.00000000 </v>
   <v>      -0.04761905       0.20000000       0.00000000 </v>
   <v>       0.00000000       0.26666667       0.00000000 </v>
   <v>       0.04761905       0.26666667       0.00000000 </v>
   <v>       0.09523810       0.26666667       0.00000000 </v>
   <v>       0.14285714       0.26666667       0.00000000 </v>
   <v>       0.19047619       0.26666667       0.00000000 </v>
   <v>       0.23809524       0.26666667       0.00000000 </v>
   <v>       0.28571429       0.26666667       0.00000000 </v>
   <v>       0.33333333       0.26666667       0.00000000 </v>
   <v>       0.38095238       0.26666667       0.00000000 </v>
   <v>       0.42857143       0.26666667       0.00000000 </v>
   <v>       0.47619048       0.26666667       0.00000000 </v>
   <v>      -0.47619048       0.26666667       0.00000000 </v>
   <v>      -0.42857143       0.26666667       0.00000000 </v>
   <v>      -0.38095238       0.26666667       0.00000000 </v>
   <v>      -0.33333333       0.26666667       0.00000000 </v>
   <v>      -0.28571429       0.26666667       0.00000000 </v>
   <v>      -0.23809524       0.26666667       0.00000000 </v>
   <v>      -0.19047619       0.26666667       0.00000000 </v>
   <v>      -0.14285714       0.26666667       0.00000000 </v>
   <v>      -0.09523810       0.26666667       0.00000000 </v>
   <v>      -0.04761905       0.26666667       0.00000000 </v>
   <v>       0.00000000       0.33333333       0.00000000 </v>
   <v>       0.04761905       0.33333333       0.00000000 </v>
   <v>       0.09523810       0.33333333       0.00000000 </v>
   <v>       0.14285714       0.33333333       0.00000000 </v>
   <v>       0.19047619       0.33333333       0.00000000 </v>
   <v>       0.23809524       0.33333333       0.00000000 </v>
   <v>       0.28571429       0.33333333       0.00000000 </v>
   <v>       0.33333333       0.33333333       0.00000000 </v>
   <v>       0.38095238       0.33333333       0.00000000 </v>
   <v>       0.42857143       0.33333333       0.00000000 </v>
   <v>       0.47619048       0.33333333       0.00000000 </v>
   <v>      -0.47619048       0.33333333       0.00000000 </v>
   <v>      -0.42857143       0.33333333       0.00000000 </v>
   <v>      -0.38095238       0.33333333       0.00000000 </v>
   <v>      -0.33333333       0.33333333       0.00000000 </v>
   <v>      -0.28571429       0.33333333       0.00000000 </v>
   <v>      -0.23809524       0.33333333       0.00000000 </v>
   <v>      -0.19047619       0.33333333       0.00000000 </v>
   <v>      -0.14285714       0.33333333       0.00000000 </v>
   <v>      -0.09523810       0.33333333       0.00000000 </v>
   <v>      -0.04761905       0.33333333       0.00000000 </v>
   <v>       0.00000000       0.40000000       0.00000000 </v>
   <v>       0.04761905       0.40000000       0.00000000 </v>
   <v>       0.09523810       0.40000000       0.00000000 </v>
   <v>       0.14285714       0.40000000       0.00000000 </v>
   <v>       0.19047619       0.40000000       0.00000000 </v>
   <v>       0.23809524       0.40000000       0.00000000 </v>
   <v>       0.28571429       0.40000000       0.00000000 </v>
   <v>       0.33333333       0.40000000       0.00000000 </v>
   <v>       0.38095238       0.40000000       0.00000000 </v>
   <v>       0.42857143       0.40000000       0.00000000 </v>
   <v>       0.47619048       0.40000000       0.00000000 </v>
   <v>      -0.47619048       0.40000000       0.00000000 </v>
   <v>      -0.42857143       0.40000000       0.00000000 </v>
   <v>      -0.38095238       0.40000000       0.00000000 </v>
   <v>      -0.33333333       0.40000000       0.00000000 </v>
   <v>      -0.28571429       0.40000000       0.00000000 </v>
   <v>      -0.23809524       0.40000000       0.00000000 </v>
   <v>      -0.19047619       0.40000000       0.00000000 </v>
   <v>      -0.14285714       0.40000000       0.00000000 </v>
   <v>      -0.09523810       0.40000000       0.00000000 </v>
   <v>      -0.04761905       0.40000000       0.00000000 </v>
   <v>       0.00000000       0.46666667       0.00000000 </v>
   <v>       0.04761905       0.46666667       0.00000000 </v>
   <v>       0.09523810       0.46666667       0.00000000 </v>
   <v>       0.14285714       0.46666667       0.00000000 </v>
   <v>       0.19047619       0.46666667       0.00000000 </v>
   <v>       0.23809524       0.46666667       0.00000000 </v>
   <v>       0.28571429       0.46666667       0.00000000 </v>
   <v>       0.33333333       0.46666667       0.00000000 </v>
   <v>       0.38095238       0.46666667       0.00000000 </v>
   <v>       0.42857143       0.46666667       0.00000000 </v>
   <v>       0.47619048       0.46666667       0.00000000 </v>
   <v>      -0.47619048       0.46666667       0.00000000 </v>
   <v>      -0.42857143       0.46666667       0.00000000 </v>
   <v>      -0.38095238       0.46666667       0.00000000 </v>
   <v>      -0.33333333       0.46666667       0.00000000 </v>
   <v>      -0.28571429       0.46666667       0.00000000 </v>
   <v>      -0.23809524       0.46666667       0.00000000 </v>
   <v>      -0.19047619       0.46666667       0.00000000 </v>
   <v>      -0.14285714       0.46666667       0.00000000 </v>
   <v>      -0.09523810       0.46666667       0.00000000 </v>
   <v>      -0.04761905       0.46666667       0.00000000 </v>
  </varray>
  <varray name="weights" >
   <v>       0.00317460 </v>
   <v>       0.00634921 </v>
   <v>       0.00634921 </v>
   <v>       0.00634921 </v>
   <v>       0.00634921 </v>
   <v>       0.00634921 </v>
   <v>       0.00634921 </v>
   <v>       0.00634921 </v>
   <v>       0.00634921 </v>
   <v>       0.00634921 </v>
   <v>       0.00634921 </v>
   <v>       0.00634921 </v>
   <v>       0.00634921 </v>
   <v>       0.00634921 </v>
   <v>       0.00634921 </v>
   <v>       0.00634921 </v>
   <v>       0.00634921 </v>
   <v>       0.00634921 </v>
   <v>       0.00634921 </v>
   <v>       0.00634921 </v>
   <v>       0.00634921 </v>
   <v>       0.00634921 </v>
   <v>       0.00634921 </v>
   <v>       0.00634921 </v>
   <v>       0.00634921 </v>
   <v>       0.00634921 </v>
   <v>       0.00634921 </v>
   <v>       0.00634921 </v>
   <v>       0.00634921 </v>
   <v>       0.00634921 </v>
   <v>       0.00634921 </v>
   <v>       0.00634921 </v>
   <v>       0.00634921 </v>
   <v>       0.00634921 </v>
   <v>       0.00634921 </v>
   <v>       0.00634921 </v>
   <v>       0.00634921 </v>
   <v>       0.00634921 </v>
   <v>       0.00634921 </v>
   <v>       0.00634921 </v>
   <v>       0.00634921 </v>
   <v>       0.00634921 </v>
   <v>       0.00634921 </v>
   <v>       0.00634921 </v>
   <v>       0.00634921 </v>
   <v>       0.00634921 </v>
   <v>       0.00634921 </v>
   <v>       0.00634921 </v>
   <v>       0.00634921 </v>
   <v>       0.00634921 </v>
   <v>       0.00634921 </v>
   <v>       0.00634921 </v>
   <v>       0.00634921 </v>
   <v>       0.00634921 </v>
   <v>       0.00634921 </v>
   <v>       0.00634921 </v>
   <v>       0.00634921 </v>
   <v>       0.00634921 </v>
   <v>       0.00634921 </v>
   <v>       0.00634921 </v>
   <v>       0.00634921 </v>
   <v>       0.00634921 </v>
   <v>       0.00634921 </v>
   <v>       0.00634921 </v>
   <v>       0.00634921 </v>
   <v>       0.00634921 </v>
   <v>       0.00634921 </v>
   <v>       0.00634921 </v>
   <v>       0.00634921 </v>
   <v>       0.00634921 </v>
   <v>       0.00634921 </v>
   <v>       0.00634921 </v>
   <v>       0.00634921 </v>
   <v>       0.00634921 </v>
   <v>       0.00634921 </v>
   <v>       0.00634921 </v>
   <v>       0.00634921 </v>
   <v>       0.00634921 </v>
   <v>       0.00634921 </v>
   <v>       0.00634921 </v>
   <v>       0.00634921 </v>
   <v>       0.00634921 </v>
   <v>       0.00634921 </v>
   <v>       0.00634921 </v>
   <v>       0.00634921 </v>
   <v>       0.00634921 </v>
   <v>       0.00634921 </v>
   <v>       0.00634921 </v>
   <v>       0.00634921 </v>
   <v>       0.00634921 </v>
   <v>       0.00634921 </v>
   <v>       0.00634921 </v>
   <v>       0.00634921 </v>
   <v>       0.00634921 </v>
   <v>       0.00634921 </v>
   <v>       0.00634921 </v>
   <v>       0.00634921 </v>
   <v>       0.00634921 </v>
   <v>       0.00634921 </v>
   <v>       0.00634921 </v>
   <v>       0.00634921 </v>
   <v>       0.00634921 </v>
   <v>       0.00634921 </v>
   <v>       0.00634921 </v>
   <v>       0.00634921 </v>
   <v>       0.00634921 </v>
   <v>       0.00634921 </v>
   <v>       0.00634921 </v>
   <v>       0.00634921 </v>
   <v>       0.00634921 </v>
   <v>       0.00634921 </v>
   <v>       0.00634921 </v>
   <v>       0.00634921 </v>
   <v>       0.00634921 </v>
   <v>       0.00634921 </v>
   <v>       0.00634921 </v>
   <v>       0.00634921 </v>
   <v>       0.00634921 </v>
   <v>       0.00634921 </v>
   <v>       0.00634921 </v>
   <v>       0.00634921 </v>
   <v>       0.00634921 </v>
   <v>       0.00634921 </v>
   <v>       0.00634921 </v>
   <v>       0.00634921 </v>
   <v>       0.00634921 </v>
   <v>       0.00634921 </v>
   <v>       0.00634921 </v>
   <v>       0.00634921 </v>
   <v>       0.00634921 </v>
   <v>       0.00634921 </v>
   <v>       0.00634921 </v>
   <v>       0.00634921 </v>
   <v>       0.00634921 </v>
   <v>       0.00634921 </v>
   <v>       0.00634921 </v>
   <v>       0.00634921 </v>
   <v>       0.00634921 </v>
   <v>       0.00634921 </v>
   <v>       0.00634921 </v>
   <v>       0.00634921 </v>
   <v>       0.00634921 </v>
   <v>       0.00634921 </v>
   <v>       0.00634921 </v>
   <v>       0.00634921 </v>
   <v>       0.00634921 </v>
   <v>       0.00634921 </v>
   <v>       0.00634921 </v>
   <v>       0.00634921 </v>
   <v>       0.00634921 </v>
   <v>       0.00634921 </v>
   <v>       0.00634921 </v>
   <v>       0.00634921 </v>
   <v>       0.00634921 </v>
   <v>       0.00634921 </v>
   <v>       0.00634921 </v>
   <v>       0.00634921 </v>
   <v>       0.00634921 </v>
  </varray>
 </kpoints>
 <parameters>
  <separator name="general" >
   <i type="string" name="SYSTEM">unknown system</i>
   <i type="logical" name="LCOMPAT"> F  </i>
  </separator>
  <separator name="electronic" >
   <i type="string" name="PREC">a</i>
   <i name="ENMAX">    520.00000000</i>
   <i name="ENAUG">    342.92400000</i>
   <i name="EDIFF">      0.00001000</i>
   <i type="int" name="IALGO">    38</i>
   <i type="int" name="IWAVPR">    11</i>
   <i type="int" name="NBANDS">    16</i>
   <i name="NELECT">     20.00000000</i>
   <i type="int" name="TURBO">     0</i>
   <i type="int" name="IRESTART">     0</i>
   <i type="int" name="NREBOOT">     0</i>
   <i type="int" name="NMIN">     0</i>
   <i name="EREF">      0.00000000</i>
   <separator name="electronic smearing" >
    <i type="int" name="ISMEAR">     0</i>
    <i name="SIGMA">      0.02000000</i>
    <i name="KSPACING">      0.50000000</i>
    <i type="logical" name="KGAMMA"> T  </i>
   </separator>
   <separator name="electronic projectors" >
    <i type="logical" name="LREAL"> F  </i>
    <v name="ROPT">      0.00000000</v>
    <i type="int" name="LMAXPAW">  -100</i>
    <i type="int" name="LMAXMIX">     2</i>
    <i type="logical" name="NLSPLINE"> F  </i>
   </separator>
   <separator name="electronic startup" >
    <i type="int" name="ISTART">     0</i>
    <i type="int" name="ICHARG">     2</i>
    <i type="int" name="INIWAV">     1</i>
   </separator>
   <separator name="electronic spin" >
    <i type="int" name="ISPIN">     1</i>
    <i type="logical" name="LNONCOLLINEAR"> F  </i>
    <v name="MAGMOM">      1.00000000      1.00000000      1.00000000      1.00000000</v>
    <i name="NUPDOWN">     -1.00000000</i>
    <i type="logical" name="LSORBIT"> F  </i>
    <v name="SAXIS">      0.00000000      0.00000000      1.00000000</v>
    <i type="logical" name="LSPIRAL"> F  </i>
    <v name="QSPIRAL">      0.00000000      0.00000000      0.00000000</v>
    <i type="logical" name="LZEROZ"> F  </i>
   </separator>
   <separator name="electronic exchange-correlation" >
    <i type="logical" name="LASPH"> F  </i>
    <i type="logical" name="LMETAGGA"> F  </i>
   </separator>
   <separator name="electronic convergence" >
    <i type="int" name="NELM">   250</i>
    <i type="int" name="NELMDL">    -5</i>
    <i type="int" name="NELMIN">     6</i>
    <i name="ENINI">    520.00000000</i>
    <separator name="electronic convergence detail" >
     <i type="logical" name="LDIAG"> T  </i>
     <i type="logical" name="LSUBROT"> F  </i>
     <i name="WEIMIN">      0.00100000</i>
     <i name="EBREAK">      0.00000016</i>
     <i name="DEPER">      0.30000000</i>
     <i type="int" name="NRMM">     4</i>
     <i name="TIME">      0.40000000</i>
    </separator>
   </separator>
   <separator name="electronic mixer" >
    <i name="AMIX">      0.40000000</i>
    <i name="BMIX">      1.00000000</i>
    <i name="AMIN">      0.10000000</i>
    <i name="AMIX_MAG">      1.60000000</i>
    <i name="BMIX_MAG">      1.00000000</i>
    <separator name="electronic mixer details" >
     <i type="int" name="IMIX">     4</i>
     <i type="logical" name="MIXFIRST"> F  </i>
     <i type="int" name="MAXMIX">   -45</i>
     <i name="WC">    100.00000000</i>
     <i type="int" name="INIMIX">     1</i>
     <i type="int" name="MIXPRE">     1</i>
     <i type="int" name="MREMOVE">     5</i>
    </separator>
   </separator>
   <separator name="electronic dipolcorrection" >
    <i type="logical" name="LDIPOL"> F  </i>
    <i type="logical" name="LMONO"> F  </i>
    <i type="int" name="IDIPOL">     0</i>
    <i name="EPSILON">      1.00000000</i>
    <v name="DIPOL">   -100.00000000   -100.00000000   -100.00000000</v>
    <i name="EFIELD">      0.00000000</i>
   </separator>
  </separator>
  <separator name="grids" >
   <i type="int" name="NGX">    28</i>
   <i type="int" name="NGY">    36</i>
   <i type="int" name="NGZ">   150</i>
   <i type="int" name="NGXF">    56</i>
   <i type="int" name="NGYF">    72</i>
   <i type="int" name="NGZF">   300</i>
   <i type="logical" name="ADDGRID"> F  </i>
  </separator>
  <separator name="ionic" >
   <i type="int" name="NSW">   200</i>
   <i type="int" name="IBRION">     2</i>
   <i type="int" name="ISIF">     2</i>
   <i name="PSTRESS">      0.00000000</i>
   <i name="EDIFFG">     -0.01000000</i>
   <i type="int" name="NFREE">     1</i>
   <i name="POTIM">      0.30000000</i>
   <i name="SMASS">     -3.00000000</i>
   <i name="SCALEE">      1.00000000</i>
  </separator>
  <separator name="ionic md" >
   <i name="TEBEG">      0.00010000</i>
   <i name="TEEND">      0.00010000</i>
   <i type="int" name="NBLOCK">     1</i>
   <i type="int" name="KBLOCK">   200</i>
   <i type="int" name="NPACO">   256</i>
   <i name="APACO">     16.00000000</i>
  </separator>
  <separator name="symmetry" >
   <i type="int" name="ISYM">     2</i>
   <i name="SYMPREC">      0.00001000</i>
  </separator>
  <separator name="dos" >
   <i type="logical" name="LORBIT"> F  </i>
   <v name="RWIGS">     -1.00000000</v>
   <i type="int" name="NEDOS">   301</i>
   <i name="EMIN">     10.00000000</i>
   <i name="EMAX">    -10.00000000</i>
   <i name="EFERMI">      0.00000000</i>
  </separator>
  <separator name="writing" >
   <i type="int" name="NWRITE">     2</i>
   <i type="logical" name="LWAVE"> F  </i>
   <i type="logical" name="LCHARG"> F  </i>
   <i type="logical" name="LPARD"> F  </i>
   <i type="logical" name="LVTOT"> F  </i>
   <i type="logical" name="LVHAR"> F  </i>
   <i type="logical" name="LELF"> F  </i>
   <i type="logical" name="LOPTICS"> F  </i>
   <v name="STM">      0.00000000      0.00000000      0.00000000      0.00000000      0.00000000      0.00000000      0.00000000</v>
  </separator>
  <separator name="performance" >
   <i type="int" name="NPAR">     4</i>
   <i type="int" name="NSIM">     4</i>
   <i type="int" name="NBLK">    -1</i>
   <i type="logical" name="LPLANE"> T  </i>
   <i type="logical" name="LSCALAPACK"> T  </i>
   <i type="logical" name="LSCAAWARE"> F  </i>
   <i type="logical" name="LSCALU"> F  </i>
   <i type="logical" name="LASYNC"> F  </i>
   <i type="logical" name="LORBITALREAL"> F  </i>
  </separator>
  <separator name="miscellaneous" >
   <i type="int" name="IDIOT">     3</i>
   <i type="logical" name="LMUSIC"> F  </i>
   <v name="POMASS">     30.97400000</v>
   <v name="DARWINR">      0.00000000</v>
   <v name="DARWINV">      1.00000000</v>
   <i type="logical" name="LCORR"> T  </i>
  </separator>
  <i type="logical" name="GGA_COMPAT"> T  </i>
  <i type="logical" name="LBERRY"> F  </i>
  <i type="int" name="ICORELEVEL">     0</i>
  <i type="logical" name="LDAU"> F  </i>
  <i type="int" name="I_CONSTRAINED_M">     0</i>
  <separator name="electronic exchange-correlation" >
   <i type="string" name="GGA">--</i>
   <i type="int" name="VOSKOWN">     0</i>
   <i type="logical" name="LHFCALC"> F  </i>
   <i type="string" name="PRECFOCK"></i>
   <i type="logical" name="LSYMGRAD"> F  </i>
   <i type="logical" name="LHFONE"> F  </i>
   <i type="logical" name="LRHFCALC"> F  </i>
   <i type="logical" name="LTHOMAS"> F  </i>
   <i type="logical" name="LMODELHF"> F  </i>
   <i name="ENCUT4O">     -1.00000000</i>
   <i type="int" name="EXXOEP">     0</i>
   <i type="int" name="FOURORBIT">     0</i>
   <i name="AEXX">      0.00000000</i>
   <i name="HFALPHA">      0.00000000</i>
   <i name="MCALPHA">      0.00000000</i>
   <i name="ALDAX">      1.00000000</i>
   <i name="AGGAX">      1.00000000</i>
   <i name="ALDAC">      1.00000000</i>
   <i name="AGGAC">      1.00000000</i>
   <i type="int" name="NKREDX">     1</i>
   <i type="int" name="NKREDY">     1</i>
   <i type="int" name="NKREDZ">     1</i>
   <i type="logical" name="SHIFTRED"> F  </i>
   <i type="logical" name="ODDONLY"> F  </i>
   <i type="logical" name="EVENONLY"> F  </i>
   <i type="int" name="LMAXFOCK">     0</i>
   <i type="int" name="NMAXFOCKAE">     0</i>
   <i type="logical" name="LFOCKAEDFT"> F  </i>
   <i name="HFSCREEN">      0.00000000</i>
   <i name="HFSCREENC">      0.00000000</i>
   <i type="int" name="NBANDSGWLOW">     0</i>
  </separator>
  <separator name="vdW DFT" >
   <i type="logical" name="LUSE_VDW"> F  </i>
   <i name="Zab_VDW">     -0.84910000</i>
   <i name="PARAM1">      0.12340000</i>
   <i name="PARAM2">      1.00000000</i>
   <i name="PARAM3">      0.00000000</i>
  </separator>
  <separator name="model GW" >
   <i type="int" name="MODEL_GW">     0</i>
   <i name="MODEL_EPS0">     47.14179705</i>
   <i name="MODEL_ALPHA">      1.00000000</i>
  </separator>
  <separator name="linear response parameters" >
   <i type="logical" name="LEPSILON"> F  </i>
   <i type="logical" name="LRPA"> F  </i>
   <i type="logical" name="LNABLA"> F  </i>
   <i type="logical" name="LVEL"> F  </i>
   <i type="int" name="KINTER">     0</i>
   <i name="CSHIFT">      0.10000000</i>
   <i name="OMEGAMAX">     -1.00000000</i>
   <i name="DEG_THRESHOLD">      0.00200000</i>
  </separator>
  <separator name="orbital magnetization" >
   <i type="logical" name="NUCIND"> F  </i>
   <v name="MAGPOS">      0.00000000      0.00000000      0.00000000</v>
   <i type="logical" name="LNICSALL"> T  </i>
   <i type="logical" name="ORBITALMAG"> F  </i>
   <i type="logical" name="LMAGBLOCH"> F  </i>
   <i type="logical" name="LCHIMAG"> F  </i>
   <i type="logical" name="LGAUGE"> T  </i>
   <i type="int" name="MAGATOM">     0</i>
   <v name="MAGDIPOL">      0.00000000      0.00000000      0.00000000</v>
   <v name="AVECCONST">      0.00000000      0.00000000      0.00000000</v>
  </separator>
  <separator name="response functions" >
   <i type="logical" name="LADDER"> F  </i>
   <i type="logical" name="LFXC"> F  </i>
   <i type="logical" name="LHARTREE"> T  </i>
   <i type="int" name="IBSE">     0</i>
   <v type="int" name="KPOINT">    -1     0     0     0</v>
   <i type="logical" name="LTCTE"> F  </i>
   <i type="logical" name="LTETE"> F  </i>
   <i type="logical" name="LTRIPLET"> F  </i>
   <i type="logical" name="LFXCEPS"> F  </i>
   <i type="logical" name="LFXHEG"> F  </i>
   <i type="int" name="NATURALO">     0</i>
   <i type="logical" name="L2ORDER"> F  </i>
   <i type="logical" name="LUSEW"> F  </i>
   <i name="ENCUTGW">     -2.00000000</i>
   <i name="ENCUTGWSOFT">     -2.00000000</i>
   <i name="ENCUTLF">     -1.00000000</i>
   <i type="int" name="LMAXMP2">    -1</i>
   <i name="SCISSOR">      0.00000000</i>
   <i type="int" name="NOMEGA">     0</i>
   <i type="int" name="NOMEGAR">     0</i>
   <i type="int" name="NBANDSGW">    -1</i>
   <i type="int" name="NBANDSO">    -1</i>
   <i type="int" name="NBANDSV">    -1</i>
   <i type="int" name="NELM">   250</i>
   <i type="int" name="NELMHF">     1</i>
   <i type="int" name="DIM">     3</i>
   <i type="int" name="ANTIRES">     0</i>
   <i name="OMEGAMAX">    -30.00000000</i>
   <i name="OMEGAMIN">    -30.00000000</i>
   <i name="OMEGATL">   -200.00000000</i>
   <i type="int" name="OMEGAGRID">     0</i>
   <i name="CSHIFT">     -0.10000000</i>
   <i type="logical" name="SELFENERGY"> F  </i>
   <i type="logical" name="LSPECTRAL"> F  </i>
   <i type="logical" name="LSPECTRALGW"> F  </i>
   <i type="logical" name="LSINGLES"> F  </i>
   <i type="logical" name="LFERMIGW"> F  </i>
   <i type="logical" name="ODDONLYGW"> F  </i>
   <i type="logical" name="EVENONLYGW"> F  </i>
   <i type="int" name="NKREDLFX">     1</i>
   <i type="int" name="NKREDLFY">     1</i>
   <i type="int" name="NKREDLFZ">     1</i>
   <i type="int" name="MAXMEM">  1800</i>
   <i type="int" name="TELESCOPE">     0</i>
   <i type="int" name="TAUPAR">     1</i>
   <i type="int" name="OMEGAPAR">    -1</i>
   <i name="LAMBDA">      1.00000000</i>
  </separator>
  <separator name="External order field" >
   <i name="OFIELD_KAPPA">      0.00000000</i>
   <v name="OFIELD_K">      0.00000000      0.00000000      0.00000000</v>
   <i name="OFIELD_Q6_NEAR">      0.00000000</i>
   <i name="OFIELD_Q6_FAR">      0.00000000</i>
   <i name="OFIELD_A">      0.00000000</i>
  </separator>
 </parameters>
 <atominfo>
  <atoms>       4 </atoms>
  <types>       1 </types>
  <array name="atoms" >
   <dimension dim="1">ion</dimension>
   <field type="string">element</field>
   <field type="int">atomtype</field>
   <set>
    <rc><c>P </c><c>   1</c></rc>
    <rc><c>P </c><c>   1</c></rc>
    <rc><c>P </c><c>   1</c></rc>
    <rc><c>P </c><c>   1</c></rc>
   </set>
  </array>
  <array name="atomtypes" >
   <dimension dim="1">type</dimension>
   <field type="int">atomspertype</field>
   <field type="string">element</field>
   <field>mass</field>
   <field>valence</field>
   <field type="string">pseudopotential</field>
   <set>
    <rc><c>   4</c><c>P </c><c>     30.97400000</c><c>      5.00000000</c><c>  PAW_PBE P 06Sep2000                   </c></rc>
   </set>
  </array>
 </atominfo>
 <structure name="initialpos" >
  <crystal>
   <varray name="basis" >
    <v>       3.39467900       0.00000000       0.00000000 </v>
    <v>       0.00000000       4.62335100      -0.00005300 </v>
    <v>       0.00000000       0.00000000      20.02439000 </v>
   </varray>
   <i name="volume">    314.27864698 </i>
   <varray name="rec_basis" >
    <v>       0.29457866       0.00000000       0.00000000 </v>
    <v>       0.00000000       0.21629333       0.00000000 </v>
    <v>       0.00000000       0.00000057       0.04993910 </v>
   </varray>
  </crystal>
  <varray name="positions" >
   <v>       0.50000000       0.91077300       0.55252100 </v>
   <v>       0.50000000       0.08922700       0.44747900 </v>
   <v>       0.00000000       0.41076900       0.44747900 </v>
   <v>       0.00000000       0.58923100       0.55252100 </v>
  </varray>
 </structure>
 <calculation>
  <scstep>
   <time name="dav">    1.50    1.50</time>
   <time name="total">    1.53    1.53</time>
   <energy>
    <i name="alphaZ">      5.10426354 </i>
    <i name="ewald">   1794.32407539 </i>
    <i name="hartreedc">  -2388.68800007 </i>
    <i name="XCdc">     12.74872571 </i>
    <i name="pawpsdc">    559.04011960 </i>
    <i name="pawaedc">   -526.39432044 </i>
    <i name="eentropy">     -0.00041019 </i>
    <i name="bandstr">    -27.47683512 </i>
    <i name="atom">    704.16778566 </i>
    <i name="e_fr_energy">    132.82540408 </i>
    <i name="e_wo_entrp">    132.82581427 </i>
    <i name="e_0_energy">    132.82560918 </i>
   </energy>
  </scstep>
  <scstep>
   <time name="dav">    2.01    2.01</time>
   <time name="total">    2.01    2.01</time>
   <energy>
    <i name="e_fr_energy">     -6.08849993 </i>
    <i name="e_wo_entrp">     -6.08849993 </i>
    <i name="e_0_energy">     -6.08849993 </i>
   </energy>
  </scstep>
  <scstep>
   <time name="dav">    1.85    1.85</time>
   <time name="total">    1.85    1.85</time>
   <energy>
    <i name="e_fr_energy">    -21.28035153 </i>
    <i name="e_wo_entrp">    -21.28035153 </i>
    <i name="e_0_energy">    -21.28035153 </i>
   </energy>
  </scstep>
  <scstep>
   <time name="dav">    1.85    1.85</time>
   <time name="total">    1.86    1.86</time>
   <energy>
    <i name="e_fr_energy">    -21.59078478 </i>
    <i name="e_wo_entrp">    -21.59078478 </i>
    <i name="e_0_energy">    -21.59078478 </i>
   </energy>
  </scstep>
  <scstep>
   <time name="dav">    1.98    1.98</time>
   <time name="total">    2.07    2.08</time>
   <energy>
    <i name="e_fr_energy">    -21.60103816 </i>
    <i name="e_wo_entrp">    -21.60103816 </i>
    <i name="e_0_energy">    -21.60103816 </i>
   </energy>
  </scstep>
  <scstep>
   <time name="dav">    1.83    1.83</time>
   <time name="total">    1.95    1.95</time>
   <energy>
    <i name="e_fr_energy">    -21.47846410 </i>
    <i name="e_wo_entrp">    -21.47846410 </i>
    <i name="e_0_energy">    -21.47846410 </i>
   </energy>
  </scstep>
  <scstep>
   <time name="dav">    1.74    1.74</time>
   <time name="total">    1.85    1.85</time>
   <energy>
    <i name="e_fr_energy">    -21.41671883 </i>
    <i name="e_wo_entrp">    -21.41671883 </i>
    <i name="e_0_energy">    -21.41671883 </i>
   </energy>
  </scstep>
  <scstep>
   <time name="dav">    1.81    1.81</time>
   <time name="total">    1.92    1.92</time>
   <energy>
    <i name="e_fr_energy">    -21.41657940 </i>
    <i name="e_wo_entrp">    -21.41657940 </i>
    <i name="e_0_energy">    -21.41657940 </i>
   </energy>
  </scstep>
  <scstep>
   <time name="dav">    2.12    2.12</time>
   <time name="total">    2.23    2.23</time>
   <energy>
    <i name="e_fr_energy">    -21.41646154 </i>
    <i name="e_wo_entrp">    -21.41646154 </i>
    <i name="e_0_energy">    -21.41646154 </i>
   </energy>
  </scstep>
  <scstep>
   <time name="dav">    1.85    1.85</time>
   <time name="total">    1.96    1.96</time>
   <energy>
    <i name="e_fr_energy">    -21.41638490 </i>
    <i name="e_wo_entrp">    -21.41638490 </i>
    <i name="e_0_energy">    -21.41638490 </i>
   </energy>
  </scstep>
  <scstep>
   <time name="dav">    1.78    1.79</time>
   <time name="total">    1.90    1.90</time>
   <energy>
    <i name="e_fr_energy">    -21.41632115 </i>
    <i name="e_wo_entrp">    -21.41632115 </i>
    <i name="e_0_energy">    -21.41632115 </i>
   </energy>
  </scstep>
  <scstep>
   <time name="dav">    1.63    1.63</time>
   <time name="total">    1.74    1.74</time>
   <energy>
    <i name="e_fr_energy">    -21.41665856 </i>
    <i name="e_wo_entrp">    -21.41665856 </i>
    <i name="e_0_energy">    -21.41665856 </i>
   </energy>
  </scstep>
  <scstep>
   <time name="dav">    1.61    1.61</time>
   <time name="total">    1.72    1.72</time>
   <energy>
    <i name="e_fr_energy">    -21.41679562 </i>
    <i name="e_wo_entrp">    -21.41679562 </i>
    <i name="e_0_energy">    -21.41679562 </i>
   </energy>
  </scstep>
  <scstep>
   <time name="dav">    1.54    1.54</time>
   <time name="total">    1.65    1.65</time>
   <energy>
    <i name="e_fr_energy">    -21.41688606 </i>
    <i name="e_wo_entrp">    -21.41688606 </i>
    <i name="e_0_energy">    -21.41688606 </i>
   </energy>
  </scstep>
  <scstep>
   <time name="dav">    1.51    1.51</time>
   <time name="total">    1.62    1.63</time>
   <energy>
    <i name="e_fr_energy">    -21.41692280 </i>
    <i name="e_wo_entrp">    -21.41692280 </i>
    <i name="e_0_energy">    -21.41692280 </i>
   </energy>
  </scstep>
  <scstep>
   <time name="dav">    1.51    1.51</time>
   <time name="total">    1.62    1.62</time>
   <energy>
    <i name="e_fr_energy">    -21.41694327 </i>
    <i name="e_wo_entrp">    -21.41694327 </i>
    <i name="e_0_energy">    -21.41694327 </i>
   </energy>
  </scstep>
  <scstep>
   <time name="dav">    1.47    1.47</time>
   <time name="total">    1.49    1.50</time>
   <energy>
    <i name="alphaZ">      5.10426354 </i>
    <i name="ewald">   1794.32407539 </i>
    <i name="hartreedc">  -2402.65194029 </i>
    <i name="XCdc">     13.76763036 </i>
    <i name="pawpsdc">   1975.56154625 </i>
    <i name="pawaedc">  -1943.20925673 </i>
    <i name="eentropy">     -0.00000000 </i>
    <i name="bandstr">   -168.48105211 </i>
    <i name="atom">    704.16778566 </i>
    <i name="e_fr_energy">    -21.41694793 </i>
    <i name="e_wo_entrp">    -21.41694793 </i>
    <i name="e_0_energy">    -21.41694793 </i>
   </energy>
  </scstep>
  <structure>
   <crystal>
    <varray name="basis" >
     <v>       3.39467900       0.00000000       0.00000000 </v>
     <v>       0.00000000       4.62335100      -0.00005300 </v>
     <v>       0.00000000       0.00000000      20.02439000 </v>
    </varray>
    <i name="volume">    314.27864698 </i>
    <varray name="rec_basis" >
     <v>       0.29457866       0.00000000       0.00000000 </v>
     <v>       0.00000000       0.21629333       0.00000000 </v>
     <v>       0.00000000       0.00000057       0.04993910 </v>
    </varray>
   </crystal>
   <varray name="positions" >
    <v>       0.50000000       0.91077300       0.55252100 </v>
    <v>       0.50000000       0.08922700       0.44747900 </v>
    <v>       0.00000000       0.41076900       0.44747900 </v>
    <v>       0.00000000       0.58923100       0.55252100 </v>
   </varray>
  </structure>
  <varray name="forces" >
   <v>      -0.00000001      -0.10048739      -0.04190127 </v>
   <v>       0.00000001       0.10048739       0.04190127 </v>
   <v>      -0.00000000      -0.10051780       0.04190542 </v>
   <v>       0.00000000       0.10051780      -0.04190542 </v>
  </varray>
  <varray name="stress" >
   <v>     -14.03918388       0.00000619      -0.00000055 </v>
   <v>       0.00000620      -4.11672153       0.00036646 </v>
   <v>      -0.00000060       0.00036646      -0.96042811 </v>
  </varray>
  <energy>
   <i name="e_fr_energy">    -21.41694793 </i>
   <i name="e_wo_entrp">    -21.41694793 </i>
   <i name="e_0_energy">     -0.00000000 </i>
  </energy>
  <time name="totalsc">   31.77   31.81</time>
 </calculation>
 <calculation>
  <scstep>
   <time name="dav">    1.59    1.59</time>
   <time name="total">    1.70    1.71</time>
   <energy>
    <i name="alphaZ">      5.10426354 </i>
    <i name="ewald">   1795.81056705 </i>
    <i name="hartreedc">  -2403.95851756 </i>
    <i name="XCdc">     13.78781966 </i>
    <i name="pawpsdc">   1975.60609474 </i>
    <i name="pawaedc">  -1943.25380997 </i>
    <i name="eentropy">     -0.00000000 </i>
    <i name="bandstr">   -168.68207529 </i>
    <i name="atom">    704.16778566 </i>
    <i name="e_fr_energy">    -21.41787216 </i>
    <i name="e_wo_entrp">    -21.41787216 </i>
    <i name="e_0_energy">    -21.41787216 </i>
   </energy>
  </scstep>
  <scstep>
   <time name="dav">    1.90    1.90</time>
   <time name="total">    2.01    2.02</time>
   <energy>
    <i name="e_fr_energy">    -21.41799773 </i>
    <i name="e_wo_entrp">    -21.41799773 </i>
    <i name="e_0_energy">    -21.41799773 </i>
   </energy>
  </scstep>
  <scstep>
   <time name="dav">    1.84    1.84</time>
   <time name="total">    1.95    1.95</time>
   <energy>
    <i name="e_fr_energy">    -21.41799938 </i>
    <i name="e_wo_entrp">    -21.41799938 </i>
    <i name="e_0_energy">    -21.41799938 </i>
   </energy>
  </scstep>
  <scstep>
   <time name="dav">    1.35    1.35</time>
   <time name="total">    1.46    1.46</time>
   <energy>
    <i name="e_fr_energy">    -21.41800103 </i>
    <i name="e_wo_entrp">    -21.41800103 </i>
    <i name="e_0_energy">    -21.41800103 </i>
   </energy>
  </scstep>
  <scstep>
   <time name="dav">    1.24    1.24</time>
   <time name="total">    1.35    1.35</time>
   <energy>
    <i name="e_fr_energy">    -21.41800198 </i>
    <i name="e_wo_entrp">    -21.41800198 </i>
    <i name="e_0_energy">    -21.41800198 </i>
   </energy>
  </scstep>
  <scstep>
   <time name="dav">    1.23    1.23</time>
   <time name="total">    1.25    1.26</time>
   <energy>
    <i name="alphaZ">      5.10426354 </i>
    <i name="ewald">   1795.81056705 </i>
    <i name="hartreedc">  -2403.96409428 </i>
    <i name="XCdc">     13.78963586 </i>
    <i name="pawpsdc">   1986.85701147 </i>
    <i name="pawaedc">  -1954.50899317 </i>
    <i name="eentropy">     -0.00000000 </i>
    <i name="bandstr">   -168.67417857 </i>
    <i name="atom">    704.16778566 </i>
    <i name="e_fr_energy">    -21.41800244 </i>
    <i name="e_wo_entrp">    -21.41800244 </i>
    <i name="e_0_energy">    -21.41800244 </i>
   </energy>
  </scstep>
  <structure>
   <crystal>
    <varray name="basis" >
     <v>       3.39467900       0.00000000       0.00000000 </v>
     <v>       0.00000000       4.62335100      -0.00005300 </v>
     <v>       0.00000000       0.00000000      20.02439000 </v>
    </varray>
    <i name="volume">    314.27864698 </i>
    <varray name="rec_basis" >
     <v>       0.29457866       0.00000000       0.00000000 </v>
     <v>       0.00000000       0.21629333       0.00000000 </v>
     <v>       0.00000000       0.00000057       0.04993910 </v>
    </varray>
   </crystal>
   <varray name="positions" >
    <v>       0.50000000       0.91014387       0.55246043 </v>
    <v>       0.50000000       0.08985613       0.44753957 </v>
    <v>      -0.00000000       0.41013968       0.44753957 </v>
    <v>       0.00000000       0.58986032       0.55246043 </v>
   </varray>
  </structure>
  <varray name="forces" >
   <v>      -0.00000001      -0.04636191      -0.03368007 </v>
   <v>       0.00000001       0.04636191       0.03368007 </v>
   <v>       0.00000001      -0.04638724       0.03368145 </v>
   <v>      -0.00000001       0.04638724      -0.03368145 </v>
  </varray>
  <varray name="stress" >
   <v>     -13.82998298       0.00000041      -0.00000010 </v>
   <v>       0.00000043      -3.29081283       0.00030592 </v>
   <v>      -0.00000012       0.00030594      -0.80440973 </v>
  </varray>
  <energy>
   <i name="e_fr_energy">    -21.41800244 </i>
   <i name="e_wo_entrp">    -21.41800244 </i>
   <i name="e_0_energy">     -0.00000000 </i>
  </energy>
  <time name="totalsc">   10.52   10.54</time>
 </calculation>
 <calculation>
  <scstep>
   <time name="dav">    1.56    1.56</time>
   <time name="total">    1.67    1.67</time>
   <energy>
    <i name="alphaZ">      5.10426354 </i>
    <i name="ewald">   1797.37263110 </i>
    <i name="hartreedc">  -2405.31992046 </i>
    <i name="XCdc">     13.81070860 </i>
    <i name="pawpsdc">   1986.99016375 </i>
    <i name="pawaedc">  -1954.64209269 </i>
    <i name="eentropy">     -0.00000000 </i>
    <i name="bandstr">   -168.90177072 </i>
    <i name="atom">    704.16778566 </i>
    <i name="e_fr_energy">    -21.41823123 </i>
    <i name="e_wo_entrp">    -21.41823123 </i>
    <i name="e_0_energy">    -21.41823123 </i>
   </energy>
  </scstep>
  <scstep>
   <time name="dav">    1.89    1.89</time>
   <time name="total">    2.00    2.00</time>
   <energy>
    <i name="e_fr_energy">    -21.41837187 </i>
    <i name="e_wo_entrp">    -21.41837187 </i>
    <i name="e_0_energy">    -21.41837187 </i>
   </energy>
  </scstep>
  <scstep>
   <time name="dav">    1.88    1.88</time>
   <time name="total">    1.99    1.99</time>
   <energy>
    <i name="e_fr_energy">    -21.41837269 </i>
    <i name="e_wo_entrp">    -21.41837269 </i>
    <i name="e_0_energy">    -21.41837269 </i>
   </energy>
  </scstep>
  <scstep>
   <time name="dav">    1.35    1.35</time>
   <time name="total">    1.46    1.46</time>
   <energy>
    <i name="e_fr_energy">    -21.41837323 </i>
    <i name="e_wo_entrp">    -21.41837323 </i>
    <i name="e_0_energy">    -21.41837323 </i>
   </energy>
  </scstep>
  <scstep>
   <time name="dav">    1.20    1.20</time>
   <time name="total">    1.31    1.31</time>
   <energy>
    <i name="e_fr_energy">    -21.41837363 </i>
    <i name="e_wo_entrp">    -21.41837363 </i>
    <i name="e_0_energy">    -21.41837363 </i>
   </energy>
  </scstep>
  <scstep>
   <time name="dav">    1.19    1.19</time>
   <time name="total">    1.21    1.21</time>
   <energy>
    <i name="alphaZ">      5.10426354 </i>
    <i name="ewald">   1797.37263110 </i>
    <i name="hartreedc">  -2405.31890842 </i>
    <i name="XCdc">     13.81264209 </i>
    <i name="pawpsdc">   1999.19470149 </i>
    <i name="pawaedc">  -1966.85115151 </i>
    <i name="eentropy">     -0.00000000 </i>
    <i name="bandstr">   -168.90033776 </i>
    <i name="atom">    704.16778566 </i>
    <i name="e_fr_energy">    -21.41837381 </i>
    <i name="e_wo_entrp">    -21.41837381 </i>
    <i name="e_0_energy">    -21.41837381 </i>
   </energy>
  </scstep>
  <structure>
   <crystal>
    <varray name="basis" >
     <v>       3.39467900       0.00000000       0.00000000 </v>
     <v>       0.00000000       4.62335100      -0.00005300 </v>
     <v>       0.00000000       0.00000000      20.02439000 </v>
    </varray>
    <i name="volume">    314.27864698 </i>
    <varray name="rec_basis" >
     <v>       0.29457866       0.00000000       0.00000000 </v>
     <v>       0.00000000       0.21629333       0.00000000 </v>
     <v>       0.00000000       0.00000057       0.04993910 </v>
    </varray>
   </crystal>
   <varray name="positions" >
    <v>       0.50000000       0.90948348       0.55239685 </v>
    <v>       0.50000000       0.09051652       0.44760315 </v>
    <v>      -0.00000000       0.40947909       0.44760316 </v>
    <v>       0.00000000       0.59052091       0.55239684 </v>
   </varray>
  </structure>
  <varray name="forces" >
   <v>      -0.00000003       0.01112614      -0.02536202 </v>
   <v>       0.00000003      -0.01112614       0.02536202 </v>
   <v>       0.00000000       0.01110591       0.02536021 </v>
   <v>      -0.00000000      -0.01110591      -0.02536021 </v>
  </varray>
  <varray name="stress" >
   <v>     -13.59855794      -0.00000141       0.00000000 </v>
   <v>      -0.00000135      -2.41640104       0.00024221 </v>
   <v>       0.00000002       0.00024221      -0.62809328 </v>
  </varray>
  <energy>
   <i name="e_fr_energy">    -21.41837381 </i>
   <i name="e_wo_entrp">    -21.41837381 </i>
   <i name="e_0_energy">     -0.00000000 </i>
  </energy>
  <time name="totalsc">   10.42   10.44</time>
 </calculation>
 <calculation>
  <scstep>
   <time name="dav">    1.46    1.46</time>
   <time name="total">    1.57    1.57</time>
   <energy>
    <i name="alphaZ">      5.10426354 </i>
    <i name="ewald">   1798.24051383 </i>
    <i name="hartreedc">  -2406.13572112 </i>
    <i name="XCdc">     13.81800877 </i>
    <i name="pawpsdc">   1999.33373016 </i>
    <i name="pawaedc">  -1966.99012612 </i>
    <i name="eentropy">     -0.00000000 </i>
    <i name="bandstr">   -168.95688702 </i>
    <i name="atom">    704.16778566 </i>
    <i name="e_fr_energy">    -21.41843230 </i>
    <i name="e_wo_entrp">    -21.41843230 </i>
    <i name="e_0_energy">    -21.41843230 </i>
   </energy>
  </scstep>
  <scstep>
   <time name="dav">    1.81    1.81</time>
   <time name="total">    1.92    1.92</time>
   <energy>
    <i name="e_fr_energy">    -21.41845098 </i>
    <i name="e_wo_entrp">    -21.41845098 </i>
    <i name="e_0_energy">    -21.41845098 </i>
   </energy>
  </scstep>
  <scstep>
   <time name="dav">    1.22    1.22</time>
   <time name="total">    1.33    1.33</time>
   <energy>
    <i name="e_fr_energy">    -21.41845080 </i>
    <i name="e_wo_entrp">    -21.41845080 </i>
    <i name="e_0_energy">    -21.41845080 </i>
   </energy>
  </scstep>
  <scstep>
   <time name="dav">    1.19    1.19</time>
   <time name="total">    1.30    1.30</time>
   <energy>
    <i name="e_fr_energy">    -21.41845135 </i>
    <i name="e_wo_entrp">    -21.41845135 </i>
    <i name="e_0_energy">    -21.41845135 </i>
   </energy>
  </scstep>
  <scstep>
   <time name="dav">    1.16    1.16</time>
   <time name="total">    1.28    1.28</time>
   <energy>
    <i name="e_fr_energy">    -21.41845147 </i>
    <i name="e_wo_entrp">    -21.41845147 </i>
    <i name="e_0_energy">    -21.41845147 </i>
   </energy>
  </scstep>
  <scstep>
   <time name="dav">    1.15    1.15</time>
   <time name="total">    1.16    1.17</time>
   <energy>
    <i name="alphaZ">      5.10426354 </i>
    <i name="ewald">   1798.24051383 </i>
    <i name="hartreedc">  -2406.13217399 </i>
    <i name="XCdc">     13.81834014 </i>
    <i name="pawpsdc">   2001.92705227 </i>
    <i name="pawaedc">  -1969.58433943 </i>
    <i name="eentropy">     -0.00000000 </i>
    <i name="bandstr">   -168.95989365 </i>
    <i name="atom">    704.16778566 </i>
    <i name="e_fr_energy">    -21.41845162 </i>
    <i name="e_wo_entrp">    -21.41845162 </i>
    <i name="e_0_energy">    -21.41845162 </i>
   </energy>
  </scstep>
  <structure>
   <crystal>
    <varray name="basis" >
     <v>       3.39467900       0.00000000       0.00000000 </v>
     <v>       0.00000000       4.62335100      -0.00005300 </v>
     <v>       0.00000000       0.00000000      20.02439000 </v>
    </varray>
    <i name="volume">    314.27864698 </i>
    <varray name="rec_basis" >
     <v>       0.29457866       0.00000000       0.00000000 </v>
     <v>       0.00000000       0.21629333       0.00000000 </v>
     <v>       0.00000000       0.00000057       0.04993910 </v>
    </varray>
   </crystal>
   <varray name="positions" >
    <v>       0.50000000       0.90951504       0.55234741 </v>
    <v>       0.50000000       0.09048496       0.44765259 </v>
    <v>      -0.00000000       0.40951048       0.44765259 </v>
    <v>       0.00000000       0.59048952       0.55234741 </v>
   </varray>
  </structure>
  <varray name="forces" >
   <v>       0.00000004       0.00481560      -0.01021902 </v>
   <v>      -0.00000004      -0.00481560       0.01021902 </v>
   <v>       0.00000002       0.00479942       0.01021810 </v>
   <v>      -0.00000002      -0.00479942      -0.01021810 </v>
  </varray>
  <varray name="stress" >
   <v>     -13.58457596      -0.00000026       0.00000006 </v>
   <v>      -0.00000024      -2.40141887       0.00019963 </v>
   <v>       0.00000005       0.00019957      -0.29156788 </v>
  </varray>
  <energy>
   <i name="e_fr_energy">    -21.41845162 </i>
   <i name="e_wo_entrp">    -21.41845162 </i>
   <i name="e_0_energy">     -0.00000000 </i>
  </energy>
  <time name="totalsc">    9.35    9.37</time>
 </calculation>
 <calculation>
  <scstep>
   <time name="dav">    1.46    1.46</time>
   <time name="total">    1.57    1.57</time>
   <energy>
    <i name="alphaZ">      5.10426354 </i>
    <i name="ewald">   1798.83072376 </i>
    <i name="hartreedc">  -2406.68821995 </i>
    <i name="XCdc">     13.82199138 </i>
    <i name="pawpsdc">   2002.01181933 </i>
    <i name="pawaedc">  -1969.66908909 </i>
    <i name="eentropy">     -0.00000000 </i>
    <i name="bandstr">   -168.99773332 </i>
    <i name="atom">    704.16778566 </i>
    <i name="e_fr_energy">    -21.41845870 </i>
    <i name="e_wo_entrp">    -21.41845870 </i>
    <i name="e_0_energy">    -21.41845870 </i>
   </energy>
  </scstep>
  <scstep>
   <time name="dav">    1.80    1.80</time>
   <time name="total">    1.91    1.91</time>
   <energy>
    <i name="e_fr_energy">    -21.41846749 </i>
    <i name="e_wo_entrp">    -21.41846749 </i>
    <i name="e_0_energy">    -21.41846749 </i>
   </energy>
  </scstep>
  <scstep>
   <time name="dav">    1.20    1.20</time>
   <time name="total">    1.31    1.32</time>
   <energy>
    <i name="e_fr_energy">    -21.41846743 </i>
    <i name="e_wo_entrp">    -21.41846743 </i>
    <i name="e_0_energy">    -21.41846743 </i>
   </energy>
  </scstep>
  <scstep>
   <time name="dav">    1.16    1.16</time>
   <time name="total">    1.27    1.27</time>
   <energy>
    <i name="e_fr_energy">    -21.41846770 </i>
    <i name="e_wo_entrp">    -21.41846770 </i>
    <i name="e_0_energy">    -21.41846770 </i>
   </energy>
  </scstep>
  <scstep>
   <time name="dav">    1.18    1.18</time>
   <time name="total">    1.29    1.29</time>
   <energy>
    <i name="e_fr_energy">    -21.41846771 </i>
    <i name="e_wo_entrp">    -21.41846771 </i>
    <i name="e_0_energy">    -21.41846771 </i>
   </energy>
  </scstep>
  <scstep>
   <time name="dav">    1.12    1.12</time>
   <time name="total">    1.14    1.14</time>
   <energy>
    <i name="alphaZ">      5.10426354 </i>
    <i name="ewald">   1798.83072376 </i>
    <i name="hartreedc">  -2406.68767799 </i>
    <i name="XCdc">     13.82224824 </i>
    <i name="pawpsdc">   2003.67277057 </i>
    <i name="pawaedc">  -1971.33064229 </i>
    <i name="eentropy">     -0.00000000 </i>
    <i name="bandstr">   -168.99793924 </i>
    <i name="atom">    704.16778566 </i>
    <i name="e_fr_energy">    -21.41846775 </i>
    <i name="e_wo_entrp">    -21.41846775 </i>
    <i name="e_0_energy">    -21.41846775 </i>
   </energy>
  </scstep>
  <structure>
   <crystal>
    <varray name="basis" >
     <v>       3.39467900       0.00000000       0.00000000 </v>
     <v>       0.00000000       4.62335100      -0.00005300 </v>
     <v>       0.00000000       0.00000000      20.02439000 </v>
    </varray>
    <i name="volume">    314.27864698 </i>
    <varray name="rec_basis" >
     <v>       0.29457866       0.00000000       0.00000000 </v>
     <v>       0.00000000       0.21629333       0.00000000 </v>
     <v>       0.00000000       0.00000057       0.04993910 </v>
    </varray>
   </crystal>
   <varray name="positions" >
    <v>       0.50000000       0.90953649       0.55231381 </v>
    <v>       0.50000000       0.09046351       0.44768619 </v>
    <v>       0.00000000       0.40953182       0.44768620 </v>
    <v>      -0.00000000       0.59046818       0.55231380 </v>
   </varray>
  </structure>
  <varray name="forces" >
   <v>       0.00000004       0.00043233       0.00011106 </v>
   <v>      -0.00000004      -0.00043233      -0.00011106 </v>
   <v>       0.00000003       0.00041891      -0.00011132 </v>
   <v>      -0.00000003      -0.00041891       0.00011132 </v>
  </varray>
  <varray name="stress" >
   <v>     -13.57150306      -0.00000003       0.00000017 </v>
   <v>      -0.00000003      -2.39310792       0.00016991 </v>
   <v>       0.00000017       0.00016995      -0.06770356 </v>
  </varray>
  <energy>
   <i name="e_fr_energy">    -21.41846775 </i>
   <i name="e_wo_entrp">    -21.41846775 </i>
   <i name="e_0_energy">     -0.00000000 </i>
  </energy>
  <time name="totalsc">    9.21    9.23</time>
  <eigenvalues>
   <array>
    <dimension dim="1">band</dimension>
    <dimension dim="2">kpoint</dimension>
    <dimension dim="3">spin</dimension>
    <field>eigene</field>
    <field>occ</field>
    <set>
     <set comment="spin 1">
      <set comment="kpoint 1">
       <r>  -17.1289    1.0000 </r>
       <r>  -14.6233    1.0000 </r>
       <r>  -11.5448    1.0000 </r>
       <r>   -7.8630    1.0000 </r>
       <r>   -7.0251    1.0000 </r>
       <r>   -6.6794    1.0000 </r>
       <r>   -5.9757    1.0000 </r>
       <r>   -4.3605    1.0000 </r>
       <r>   -3.8298    1.0000 </r>
       <r>   -2.3528    1.0000 </r>
       <r>   -1.2837    0.0000 </r>
       <r>   -1.0753    0.0000 </r>
       <r>   -0.1435    0.0000 </r>
       <r>    0.6455    0.0000 </r>
       <r>    2.1255    0.0000 </r>
       <r>    2.2556    0.0000 </r>
      </set>
      <set comment="kpoint 2">
       <r>  -17.1037    1.0000 </r>
       <r>  -14.5968    1.0000 </r>
       <r>  -11.5600    1.0000 </r>
       <r>   -7.8443    1.0000 </r>
       <r>   -7.0588    1.0000 </r>
       <r>   -6.6574    1.0000 </r>
       <r>   -6.1188    1.0000 </r>
       <r>   -4.5081    1.0000 </r>
       <r>   -3.8228    1.0000 </r>
       <r>   -2.3590    1.0000 </r>
       <r>   -1.2604    0.0000 </r>
       <r>   -0.8595    0.0000 </r>
       <r>    0.0735    0.0000 </r>
       <r>    0.5039    0.0000 </r>
       <r>    2.1516    0.0000 </r>
       <r>    2.2839    0.0000 </r>
      </set>
      <set comment="kpoint 3">
       <r>  -17.0283    1.0000 </r>
       <r>  -14.5173    1.0000 </r>
       <r>  -11.6106    1.0000 </r>
       <r>   -7.7888    1.0000 </r>
       <r>   -7.1806    1.0000 </r>
       <r>   -6.5918    1.0000 </r>
       <r>   -6.4708    1.0000 </r>
       <r>   -4.8388    1.0000 </r>
       <r>   -3.8057    1.0000 </r>
       <r>   -2.3931    1.0000 </r>
       <r>   -1.1908    0.0000 </r>
       <r>   -0.2737    0.0000 </r>
       <r>    0.1497    0.0000 </r>
       <r>    0.6115    0.0000 </r>
       <r>    2.2237    0.0000 </r>
       <r>    2.3685    0.0000 </r>
      </set>
      <set comment="kpoint 4">
       <r>  -16.9029    1.0000 </r>
       <r>  -14.3849    1.0000 </r>
       <r>  -11.7105    1.0000 </r>
       <r>   -7.6991    1.0000 </r>
       <r>   -7.4420    1.0000 </r>
       <r>   -6.8905    1.0000 </r>
       <r>   -6.4841    1.0000 </r>
       <r>   -5.1526    1.0000 </r>
       <r>   -3.7913    1.0000 </r>
       <r>   -2.4712    1.0000 </r>
       <r>   -1.0766    0.0000 </r>
       <r>   -0.2872    0.0000 </r>
       <r>    0.5558    0.0000 </r>
       <r>    1.2103    0.0000 </r>
       <r>    2.2306    0.0000 </r>
       <r>    2.5091    0.0000 </r>
      </set>
      <set comment="kpoint 5">
       <r>  -16.7282    1.0000 </r>
       <r>  -14.2001    1.0000 </r>
       <r>  -11.8790    1.0000 </r>
       <r>   -7.8722    1.0000 </r>
       <r>   -7.5798    1.0000 </r>
       <r>   -7.2690    1.0000 </r>
       <r>   -6.3365    1.0000 </r>
       <r>   -5.3273    1.0000 </r>
       <r>   -3.8027    1.0000 </r>
       <r>   -2.6011    1.0000 </r>
       <r>   -0.9215    0.0000 </r>
       <r>   -0.6982    0.0000 </r>
       <r>    1.3895    0.0000 </r>
       <r>    1.5017    0.0000 </r>
       <r>    1.7824    0.0000 </r>
       <r>    2.6329    0.0000 </r>
      </set>
      <set comment="kpoint 6">
       <r>  -16.5052    1.0000 </r>
       <r>  -13.9632    1.0000 </r>
       <r>  -12.1318    1.0000 </r>
       <r>   -8.4318    1.0000 </r>
       <r>   -7.5425    1.0000 </r>
       <r>   -7.4388    1.0000 </r>
       <r>   -6.1533    1.0000 </r>
       <r>   -5.3590    1.0000 </r>
       <r>   -3.8698    1.0000 </r>
       <r>   -2.7873    1.0000 </r>
       <r>   -1.0008    0.0000 </r>
       <r>   -0.7343    0.0000 </r>
       <r>    0.9807    0.0000 </r>
       <r>    1.2462    0.0000 </r>
       <r>    2.1968    0.0000 </r>
       <r>    2.8786    0.0000 </r>
      </set>
      <set comment="kpoint 7">
       <r>  -16.2352    1.0000 </r>
       <r>  -13.6747    1.0000 </r>
       <r>  -12.4707    1.0000 </r>
       <r>   -9.0553    1.0000 </r>
       <r>   -7.6856    1.0000 </r>
       <r>   -7.2898    1.0000 </r>
       <r>   -5.9408    1.0000 </r>
       <r>   -5.2974    1.0000 </r>
       <r>   -4.0087    1.0000 </r>
       <r>   -3.0285    1.0000 </r>
       <r>   -1.1412    0.0000 </r>
       <r>   -0.5426    0.0000 </r>
       <r>    0.4223    0.0000 </r>
       <r>    0.7612    0.0000 </r>
       <r>    1.9729    0.0000 </r>
       <r>    3.0831    0.0000 </r>
      </set>
      <set comment="kpoint 8">
       <r>  -15.9202    1.0000 </r>
       <r>  -13.3354    1.0000 </r>
       <r>  -12.8799    1.0000 </r>
       <r>   -9.6953    1.0000 </r>
       <r>   -7.7042    1.0000 </r>
       <r>   -7.1549    1.0000 </r>
       <r>   -5.7092    1.0000 </r>
       <r>   -5.1912    1.0000 </r>
       <r>   -4.1935    1.0000 </r>
       <r>   -3.3136    1.0000 </r>
       <r>   -1.1105    0.0000 </r>
       <r>   -0.4483    0.0000 </r>
       <r>   -0.1107    0.0000 </r>
       <r>    0.4602    0.0000 </r>
       <r>    1.5234    0.0000 </r>
       <r>    2.8273    0.0000 </r>
      </set>
      <set comment="kpoint 9">
       <r>  -15.5627    1.0000 </r>
       <r>  -13.3340    1.0000 </r>
       <r>  -12.9463    1.0000 </r>
       <r>  -10.3246    1.0000 </r>
       <r>   -7.6232    1.0000 </r>
       <r>   -7.0669    1.0000 </r>
       <r>   -5.4741    1.0000 </r>
       <r>   -5.0815    1.0000 </r>
       <r>   -4.3577    1.0000 </r>
       <r>   -3.6218    1.0000 </r>
       <r>   -0.9366    0.0000 </r>
       <r>   -0.6021    0.0000 </r>
       <r>   -0.5573    0.0000 </r>
       <r>    0.5186    0.0000 </r>
       <r>    1.0481    0.0000 </r>
       <r>    2.4542    0.0000 </r>
      </set>
      <set comment="kpoint 10">
       <r>  -15.1664    1.0000 </r>
       <r>  -13.8075    1.0000 </r>
       <r>  -12.5088    1.0000 </r>
       <r>  -10.9280    1.0000 </r>
       <r>   -7.4761    1.0000 </r>
       <r>   -7.0606    1.0000 </r>
       <r>   -5.2587    1.0000 </r>
       <r>   -5.0081    1.0000 </r>
       <r>   -4.4288    1.0000 </r>
       <r>   -3.9248    1.0000 </r>
       <r>   -0.8757    0.0000 </r>
       <r>   -0.8491    0.0000 </r>
       <r>   -0.6553    0.0000 </r>
       <r>    0.5742    0.0000 </r>
       <r>    0.8080    0.0000 </r>
       <r>    2.0323    0.0000 </r>
      </set>
      <set comment="kpoint 11">
       <r>  -14.7364    1.0000 </r>
       <r>  -14.2799    1.0000 </r>
       <r>  -12.0247    1.0000 </r>
       <r>  -11.4965    1.0000 </r>
       <r>   -7.3024    1.0000 </r>
       <r>   -7.1480    1.0000 </r>
       <r>   -5.0933    1.0000 </r>
       <r>   -5.0063    1.0000 </r>
       <r>   -4.3684    1.0000 </r>
       <r>   -4.1874    1.0000 </r>
       <r>   -1.0324    0.0000 </r>
       <r>   -1.0158    0.0000 </r>
       <r>   -0.2957    0.0000 </r>
       <r>    0.1203    0.0000 </r>
       <r>    1.1841    0.0000 </r>
       <r>    1.6003    0.0000 </r>
      </set>
      <set comment="kpoint 12">
       <r>  -17.1076    1.0000 </r>
       <r>  -14.6560    1.0000 </r>
       <r>  -11.5451    1.0000 </r>
       <r>   -8.0330    1.0000 </r>
       <r>   -6.9092    1.0000 </r>
       <r>   -6.5956    1.0000 </r>
       <r>   -5.9589    1.0000 </r>
       <r>   -4.3763    1.0000 </r>
       <r>   -3.7442    1.0000 </r>
       <r>   -2.5264    1.0000 </r>
       <r>   -1.1248    0.0000 </r>
       <r>   -1.0545    0.0000 </r>
       <r>   -0.1940    0.0000 </r>
       <r>    0.6317    0.0000 </r>
       <r>    2.1793    0.0000 </r>
       <r>    2.2856    0.0000 </r>
      </set>
      <set comment="kpoint 13">
       <r>  -17.0824    1.0000 </r>
       <r>  -14.6297    1.0000 </r>
       <r>  -11.5589    1.0000 </r>
       <r>   -8.0205    1.0000 </r>
       <r>   -6.9343    1.0000 </r>
       <r>   -6.5909    1.0000 </r>
       <r>   -6.0852    1.0000 </r>
       <r>   -4.5302    1.0000 </r>
       <r>   -3.7378    1.0000 </r>
       <r>   -2.5289    1.0000 </r>
       <r>   -1.1032    0.0000 </r>
       <r>   -0.8415    0.0000 </r>
       <r>    0.0188    0.0000 </r>
       <r>    0.5010    0.0000 </r>
       <r>    2.2041    0.0000 </r>
       <r>    2.3138    0.0000 </r>
      </set>
      <set comment="kpoint 14">
       <r>  -17.0070    1.0000 </r>
       <r>  -14.5509    1.0000 </r>
       <r>  -11.6053    1.0000 </r>
       <r>   -7.9895    1.0000 </r>
       <r>   -7.0254    1.0000 </r>
       <r>   -6.6551    1.0000 </r>
       <r>   -6.3102    1.0000 </r>
       <r>   -4.8727    1.0000 </r>
       <r>   -3.7276    1.0000 </r>
       <r>   -2.5487    1.0000 </r>
       <r>   -1.0483    0.0000 </r>
       <r>   -0.2569    0.0000 </r>
       <r>    0.1269    0.0000 </r>
       <r>    0.5968    0.0000 </r>
       <r>    2.2719    0.0000 </r>
       <r>    2.3982    0.0000 </r>
      </set>
      <set comment="kpoint 15">
       <r>  -16.8817    1.0000 </r>
       <r>  -14.4200    1.0000 </r>
       <r>  -11.6981    1.0000 </r>
       <r>   -7.9738    1.0000 </r>
       <r>   -7.2064    1.0000 </r>
       <r>   -6.9745    1.0000 </r>
       <r>   -6.3087    1.0000 </r>
       <r>   -5.1961    1.0000 </r>
       <r>   -3.7296    1.0000 </r>
       <r>   -2.6031    1.0000 </r>
       <r>   -0.9566    0.0000 </r>
       <r>   -0.2770    0.0000 </r>
       <r>    0.5669    0.0000 </r>
       <r>    1.2057    0.0000 </r>
       <r>    2.1729    0.0000 </r>
       <r>    2.4618    0.0000 </r>
      </set>
      <set comment="kpoint 16">
       <r>  -16.7072    1.0000 </r>
       <r>  -14.2376    1.0000 </r>
       <r>  -11.8572    1.0000 </r>
       <r>   -8.1057    1.0000 </r>
       <r>   -7.3840    1.0000 </r>
       <r>   -7.3358    1.0000 </r>
       <r>   -6.1881    1.0000 </r>
       <r>   -5.3740    1.0000 </r>
       <r>   -3.7668    1.0000 </r>
       <r>   -2.7046    1.0000 </r>
       <r>   -0.8273    0.0000 </r>
       <r>   -0.6549    0.0000 </r>
       <r>    1.4032    0.0000 </r>
       <r>    1.4444    0.0000 </r>
       <r>    1.7610    0.0000 </r>
       <r>    2.5987    0.0000 </r>
      </set>
      <set comment="kpoint 17">
       <r>  -16.4845    1.0000 </r>
       <r>  -14.0052    1.0000 </r>
       <r>  -12.0986    1.0000 </r>
       <r>   -8.5277    1.0000 </r>
       <r>   -7.6054    1.0000 </r>
       <r>   -7.3820    1.0000 </r>
       <r>   -6.0214    1.0000 </r>
       <r>   -5.4068    1.0000 </r>
       <r>   -3.8638    1.0000 </r>
       <r>   -2.8621    1.0000 </r>
       <r>   -0.9194    0.0000 </r>
       <r>   -0.6657    0.0000 </r>
       <r>    1.0498    0.0000 </r>
       <r>    1.0729    0.0000 </r>
       <r>    2.3239    0.0000 </r>
       <r>    2.8477    0.0000 </r>
      </set>
      <set comment="kpoint 18">
       <r>  -16.2150    1.0000 </r>
       <r>  -13.7270    1.0000 </r>
       <r>  -12.4217    1.0000 </r>
       <r>   -9.1069    1.0000 </r>
       <r>   -7.7465    1.0000 </r>
       <r>   -7.2765    1.0000 </r>
       <r>   -5.8267    1.0000 </r>
       <r>   -5.3535    1.0000 </r>
       <r>   -4.0221    1.0000 </r>
       <r>   -3.0761    1.0000 </r>
       <r>   -1.0265    0.0000 </r>
       <r>   -0.4993    0.0000 </r>
       <r>    0.5219    0.0000 </r>
       <r>    0.5762    0.0000 </r>
       <r>    2.1624    0.0000 </r>
       <r>    3.0279    0.0000 </r>
      </set>
      <set comment="kpoint 19">
       <r>  -15.9006    1.0000 </r>
       <r>  -13.4260    1.0000 </r>
       <r>  -12.7892    1.0000 </r>
       <r>   -9.7293    1.0000 </r>
       <r>   -7.7615    1.0000 </r>
       <r>   -7.1550    1.0000 </r>
       <r>   -5.6196    1.0000 </r>
       <r>   -5.2733    1.0000 </r>
       <r>   -4.1964    1.0000 </r>
       <r>   -3.3343    1.0000 </r>
       <r>   -0.9798    0.0000 </r>
       <r>   -0.4505    0.0000 </r>
       <r>   -0.0104    0.0000 </r>
       <r>    0.3045    0.0000 </r>
       <r>    1.7555    0.0000 </r>
       <r>    2.7799    0.0000 </r>
      </set>
      <set comment="kpoint 20">
       <r>  -15.5442    1.0000 </r>
       <r>  -13.3994    1.0000 </r>
       <r>  -12.8792    1.0000 </r>
       <r>  -10.3498    1.0000 </r>
       <r>   -7.6744    1.0000 </r>
       <r>   -7.0703    1.0000 </r>
       <r>   -5.4224    1.0000 </r>
       <r>   -5.2146    1.0000 </r>
       <r>   -4.3083    1.0000 </r>
       <r>   -3.6117    1.0000 </r>
       <r>   -0.8390    0.0000 </r>
       <r>   -0.6604    0.0000 </r>
       <r>   -0.4292    0.0000 </r>
       <r>    0.3911    0.0000 </r>
       <r>    1.3231    0.0000 </r>
       <r>    2.4141    0.0000 </r>
      </set>
      <set comment="kpoint 21">
       <r>  -15.1494    1.0000 </r>
       <r>  -13.8120    1.0000 </r>
       <r>  -12.5023    1.0000 </r>
       <r>  -10.9474    1.0000 </r>
       <r>   -7.5183    1.0000 </r>
       <r>   -7.0680    1.0000 </r>
       <r>   -5.2663    1.0000 </r>
       <r>   -5.1882    1.0000 </r>
       <r>   -4.3121    1.0000 </r>
       <r>   -3.8738    1.0000 </r>
       <r>   -0.9168    0.0000 </r>
       <r>   -0.9059    0.0000 </r>
       <r>   -0.4232    0.0000 </r>
       <r>    0.5401    0.0000 </r>
       <r>    1.0129    0.0000 </r>
       <r>    2.0014    0.0000 </r>
      </set>
      <set comment="kpoint 22">
       <r>  -14.7222    1.0000 </r>
       <r>  -14.2711    1.0000 </r>
       <r>  -12.0321    1.0000 </r>
       <r>  -11.5107    1.0000 </r>
       <r>   -7.3327    1.0000 </r>
       <r>   -7.1653    1.0000 </r>
       <r>   -5.1825    1.0000 </r>
       <r>   -5.1708    1.0000 </r>
       <r>   -4.2308    1.0000 </r>
       <r>   -4.0856    1.0000 </r>
       <r>   -1.0693    0.0000 </r>
       <r>   -1.0640    0.0000 </r>
       <r>   -0.1010    0.0000 </r>
       <r>    0.2780    0.0000 </r>
       <r>    1.2018    0.0000 </r>
       <r>    1.5840    0.0000 </r>
      </set>
      <set comment="kpoint 23">
       <r>  -14.7222    1.0000 </r>
       <r>  -14.2711    1.0000 </r>
       <r>  -12.0321    1.0000 </r>
       <r>  -11.5107    1.0000 </r>
       <r>   -7.3327    1.0000 </r>
       <r>   -7.1653    1.0000 </r>
       <r>   -5.1825    1.0000 </r>
       <r>   -5.1708    1.0000 </r>
       <r>   -4.2308    1.0000 </r>
       <r>   -4.0856    1.0000 </r>
       <r>   -1.0693    0.0000 </r>
       <r>   -1.0640    0.0000 </r>
       <r>   -0.1010    0.0000 </r>
       <r>    0.2780    0.0000 </r>
       <r>    1.2018    0.0000 </r>
       <r>    1.5840    0.0000 </r>
      </set>
      <set comment="kpoint 24">
       <r>  -15.1494    1.0000 </r>
       <r>  -13.8120    1.0000 </r>
       <r>  -12.5023    1.0000 </r>
       <r>  -10.9474    1.0000 </r>
       <r>   -7.5183    1.0000 </r>
       <r>   -7.0680    1.0000 </r>
       <r>   -5.2663    1.0000 </r>
       <r>   -5.1882    1.0000 </r>
       <r>   -4.3121    1.0000 </r>
       <r>   -3.8738    1.0000 </r>
       <r>   -0.9168    0.0000 </r>
       <r>   -0.9059    0.0000 </r>
       <r>   -0.4232    0.0000 </r>
       <r>    0.5401    0.0000 </r>
       <r>    1.0129    0.0000 </r>
       <r>    2.0014    0.0000 </r>
      </set>
      <set comment="kpoint 25">
       <r>  -15.5442    1.0000 </r>
       <r>  -13.3994    1.0000 </r>
       <r>  -12.8792    1.0000 </r>
       <r>  -10.3498    1.0000 </r>
       <r>   -7.6744    1.0000 </r>
       <r>   -7.0703    1.0000 </r>
       <r>   -5.4224    1.0000 </r>
       <r>   -5.2146    1.0000 </r>
       <r>   -4.3083    1.0000 </r>
       <r>   -3.6117    1.0000 </r>
       <r>   -0.8390    0.0000 </r>
       <r>   -0.6604    0.0000 </r>
       <r>   -0.4292    0.0000 </r>
       <r>    0.3911    0.0000 </r>
       <r>    1.3231    0.0000 </r>
       <r>    2.4141    0.0000 </r>
      </set>
      <set comment="kpoint 26">
       <r>  -15.9006    1.0000 </r>
       <r>  -13.4260    1.0000 </r>
       <r>  -12.7892    1.0000 </r>
       <r>   -9.7293    1.0000 </r>
       <r>   -7.7615    1.0000 </r>
       <r>   -7.1550    1.0000 </r>
       <r>   -5.6196    1.0000 </r>
       <r>   -5.2733    1.0000 </r>
       <r>   -4.1964    1.0000 </r>
       <r>   -3.3343    1.0000 </r>
       <r>   -0.9798    0.0000 </r>
       <r>   -0.4505    0.0000 </r>
       <r>   -0.0104    0.0000 </r>
       <r>    0.3045    0.0000 </r>
       <r>    1.7555    0.0000 </r>
       <r>    2.7799    0.0000 </r>
      </set>
      <set comment="kpoint 27">
       <r>  -16.2150    1.0000 </r>
       <r>  -13.7270    1.0000 </r>
       <r>  -12.4217    1.0000 </r>
       <r>   -9.1069    1.0000 </r>
       <r>   -7.7465    1.0000 </r>
       <r>   -7.2765    1.0000 </r>
       <r>   -5.8267    1.0000 </r>
       <r>   -5.3535    1.0000 </r>
       <r>   -4.0221    1.0000 </r>
       <r>   -3.0761    1.0000 </r>
       <r>   -1.0265    0.0000 </r>
       <r>   -0.4993    0.0000 </r>
       <r>    0.5219    0.0000 </r>
       <r>    0.5762    0.0000 </r>
       <r>    2.1624    0.0000 </r>
       <r>    3.0279    0.0000 </r>
      </set>
      <set comment="kpoint 28">
       <r>  -16.4845    1.0000 </r>
       <r>  -14.0052    1.0000 </r>
       <r>  -12.0986    1.0000 </r>
       <r>   -8.5277    1.0000 </r>
       <r>   -7.6054    1.0000 </r>
       <r>   -7.3820    1.0000 </r>
       <r>   -6.0214    1.0000 </r>
       <r>   -5.4068    1.0000 </r>
       <r>   -3.8638    1.0000 </r>
       <r>   -2.8621    1.0000 </r>
       <r>   -0.9194    0.0000 </r>
       <r>   -0.6657    0.0000 </r>
       <r>    1.0498    0.0000 </r>
       <r>    1.0729    0.0000 </r>
       <r>    2.3239    0.0000 </r>
       <r>    2.8477    0.0000 </r>
      </set>
      <set comment="kpoint 29">
       <r>  -16.7072    1.0000 </r>
       <r>  -14.2376    1.0000 </r>
       <r>  -11.8572    1.0000 </r>
       <r>   -8.1057    1.0000 </r>
       <r>   -7.3840    1.0000 </r>
       <r>   -7.3358    1.0000 </r>
       <r>   -6.1881    1.0000 </r>
       <r>   -5.3740    1.0000 </r>
       <r>   -3.7668    1.0000 </r>
       <r>   -2.7046    1.0000 </r>
       <r>   -0.8273    0.0000 </r>
       <r>   -0.6549    0.0000 </r>
       <r>    1.4032    0.0000 </r>
       <r>    1.4444    0.0000 </r>
       <r>    1.7610    0.0000 </r>
       <r>    2.5987    0.0000 </r>
      </set>
      <set comment="kpoint 30">
       <r>  -16.8817    1.0000 </r>
       <r>  -14.4200    1.0000 </r>
       <r>  -11.6981    1.0000 </r>
       <r>   -7.9738    1.0000 </r>
       <r>   -7.2064    1.0000 </r>
       <r>   -6.9745    1.0000 </r>
       <r>   -6.3087    1.0000 </r>
       <r>   -5.1961    1.0000 </r>
       <r>   -3.7296    1.0000 </r>
       <r>   -2.6031    1.0000 </r>
       <r>   -0.9566    0.0000 </r>
       <r>   -0.2770    0.0000 </r>
       <r>    0.5669    0.0000 </r>
       <r>    1.2057    0.0000 </r>
       <r>    2.1729    0.0000 </r>
       <r>    2.4618    0.0000 </r>
      </set>
      <set comment="kpoint 31">
       <r>  -17.0070    1.0000 </r>
       <r>  -14.5509    1.0000 </r>
       <r>  -11.6053    1.0000 </r>
       <r>   -7.9895    1.0000 </r>
       <r>   -7.0254    1.0000 </r>
       <r>   -6.6551    1.0000 </r>
       <r>   -6.3102    1.0000 </r>
       <r>   -4.8727    1.0000 </r>
       <r>   -3.7276    1.0000 </r>
       <r>   -2.5487    1.0000 </r>
       <r>   -1.0483    0.0000 </r>
       <r>   -0.2569    0.0000 </r>
       <r>    0.1269    0.0000 </r>
       <r>    0.5968    0.0000 </r>
       <r>    2.2719    0.0000 </r>
       <r>    2.3982    0.0000 </r>
      </set>
      <set comment="kpoint 32">
       <r>  -17.0824    1.0000 </r>
       <r>  -14.6297    1.0000 </r>
       <r>  -11.5589    1.0000 </r>
       <r>   -8.0205    1.0000 </r>
       <r>   -6.9343    1.0000 </r>
       <r>   -6.5909    1.0000 </r>
       <r>   -6.0852    1.0000 </r>
       <r>   -4.5302    1.0000 </r>
       <r>   -3.7378    1.0000 </r>
       <r>   -2.5289    1.0000 </r>
       <r>   -1.1032    0.0000 </r>
       <r>   -0.8415    0.0000 </r>
       <r>    0.0188    0.0000 </r>
       <r>    0.5010    0.0000 </r>
       <r>    2.2041    0.0000 </r>
       <r>    2.3138    0.0000 </r>
      </set>
      <set comment="kpoint 33">
       <r>  -17.0438    1.0000 </r>
       <r>  -14.7532    1.0000 </r>
       <r>  -11.5369    1.0000 </r>
       <r>   -8.3980    1.0000 </r>
       <r>   -6.6888    1.0000 </r>
       <r>   -6.3560    1.0000 </r>
       <r>   -5.9092    1.0000 </r>
       <r>   -4.4239    1.0000 </r>
       <r>   -3.5140    1.0000 </r>
       <r>   -2.8941    1.0000 </r>
       <r>   -1.0013    0.0000 </r>
       <r>   -0.7887    0.0000 </r>
       <r>   -0.3386    0.0000 </r>
       <r>    0.5993    0.0000 </r>
       <r>    2.3346    0.0000 </r>
       <r>    2.3749    0.0000 </r>
      </set>
      <set comment="kpoint 34">
       <r>  -17.0187    1.0000 </r>
       <r>  -14.7275    1.0000 </r>
       <r>  -11.5470    1.0000 </r>
       <r>   -8.3901    1.0000 </r>
       <r>   -6.7035    1.0000 </r>
       <r>   -6.4198    1.0000 </r>
       <r>   -5.9681    1.0000 </r>
       <r>   -4.5902    1.0000 </r>
       <r>   -3.5150    1.0000 </r>
       <r>   -2.8919    1.0000 </r>
       <r>   -0.8042    0.0000 </r>
       <r>   -0.7585    0.0000 </r>
       <r>   -0.1274    0.0000 </r>
       <r>    0.4919    0.0000 </r>
       <r>    2.3558    0.0000 </r>
       <r>    2.4029    0.0000 </r>
      </set>
      <set comment="kpoint 35">
       <r>  -16.9435    1.0000 </r>
       <r>  -14.6505    1.0000 </r>
       <r>  -11.5823    1.0000 </r>
       <r>   -8.3734    1.0000 </r>
       <r>   -6.7647    1.0000 </r>
       <r>   -6.6784    1.0000 </r>
       <r>   -6.0055    1.0000 </r>
       <r>   -4.9599    1.0000 </r>
       <r>   -3.5310    1.0000 </r>
       <r>   -2.8933    1.0000 </r>
       <r>   -0.7429    0.0000 </r>
       <r>   -0.2048    0.0000 </r>
       <r>    0.0850    0.0000 </r>
       <r>    0.5447    0.0000 </r>
       <r>    2.3826    0.0000 </r>
       <r>    2.4303    0.0000 </r>
      </set>
      <set comment="kpoint 36">
       <r>  -16.8186    1.0000 </r>
       <r>  -14.5230    1.0000 </r>
       <r>  -11.6567    1.0000 </r>
       <r>   -8.3761    1.0000 </r>
       <r>   -7.0704    1.0000 </r>
       <r>   -6.9132    1.0000 </r>
       <r>   -5.9486    1.0000 </r>
       <r>   -5.3058    1.0000 </r>
       <r>   -3.5823    1.0000 </r>
       <r>   -2.9123    1.0000 </r>
       <r>   -0.6806    0.0000 </r>
       <r>   -0.2202    0.0000 </r>
       <r>    0.5949    0.0000 </r>
       <r>    1.1708    0.0000 </r>
       <r>    1.8882    0.0000 </r>
       <r>    2.5143    0.0000 </r>
      </set>
      <set comment="kpoint 37">
       <r>  -16.6447    1.0000 </r>
       <r>  -14.3466    1.0000 </r>
       <r>  -11.7911    1.0000 </r>
       <r>   -8.4715    1.0000 </r>
       <r>   -7.4497    1.0000 </r>
       <r>   -7.1296    1.0000 </r>
       <r>   -5.8382    1.0000 </r>
       <r>   -5.4876    1.0000 </r>
       <r>   -3.6888    1.0000 </r>
       <r>   -2.9634    1.0000 </r>
       <r>   -0.5932    0.0000 </r>
       <r>   -0.5068    0.0000 </r>
       <r>    1.1083    0.0000 </r>
       <r>    1.5613    0.0000 </r>
       <r>    1.7810    0.0000 </r>
       <r>    2.6214    0.0000 </r>
      </set>
      <set comment="kpoint 38">
       <r>  -16.4229    1.0000 </r>
       <r>  -14.1248    1.0000 </r>
       <r>  -12.0030    1.0000 </r>
       <r>   -8.7661    1.0000 </r>
       <r>   -7.7313    1.0000 </r>
       <r>   -7.2634    1.0000 </r>
       <r>   -5.6980    1.0000 </r>
       <r>   -5.5206    1.0000 </r>
       <r>   -3.8566    1.0000 </r>
       <r>   -3.0594    1.0000 </r>
       <r>   -0.6766    0.0000 </r>
       <r>   -0.4826    0.0000 </r>
       <r>    0.6740    0.0000 </r>
       <r>    1.3165    0.0000 </r>
       <r>    2.5266    0.0000 </r>
       <r>    2.8268    0.0000 </r>
      </set>
      <set comment="kpoint 39">
       <r>  -16.1547    1.0000 </r>
       <r>  -13.8673    1.0000 </r>
       <r>  -12.2903    1.0000 </r>
       <r>   -9.2534    1.0000 </r>
       <r>   -7.8787    1.0000 </r>
       <r>   -7.2493    1.0000 </r>
       <r>   -5.5468    1.0000 </r>
       <r>   -5.4899    1.0000 </r>
       <r>   -4.0535    1.0000 </r>
       <r>   -3.2043    1.0000 </r>
       <r>   -0.7071    0.0000 </r>
       <r>   -0.3804    0.0000 </r>
       <r>    0.2349    0.0000 </r>
       <r>    0.7970    0.0000 </r>
       <r>    2.4817    0.0000 </r>
       <r>    2.8896    0.0000 </r>
      </set>
      <set comment="kpoint 40">
       <r>  -15.8423    1.0000 </r>
       <r>  -13.6119    1.0000 </r>
       <r>  -12.6029    1.0000 </r>
       <r>   -9.8298    1.0000 </r>
       <r>   -7.8922    1.0000 </r>
       <r>   -7.1605    1.0000 </r>
       <r>   -5.4739    1.0000 </r>
       <r>   -5.4098    1.0000 </r>
       <r>   -4.2020    1.0000 </r>
       <r>   -3.3850    1.0000 </r>
       <r>   -0.6236    0.0000 </r>
       <r>   -0.4848    0.0000 </r>
       <r>    0.0953    0.0000 </r>
       <r>    0.2709    0.0000 </r>
       <r>    2.2046    0.0000 </r>
       <r>    2.6491    0.0000 </r>
      </set>
      <set comment="kpoint 41">
       <r>  -15.4889    1.0000 </r>
       <r>  -13.5395    1.0000 </r>
       <r>  -12.7344    1.0000 </r>
       <r>  -10.4252    1.0000 </r>
       <r>   -7.7950    1.0000 </r>
       <r>   -7.0811    1.0000 </r>
       <r>   -5.5072    1.0000 </r>
       <r>   -5.3211    1.0000 </r>
       <r>   -4.2291    1.0000 </r>
       <r>   -3.5713    1.0000 </r>
       <r>   -0.7834    0.0000 </r>
       <r>   -0.5528    0.0000 </r>
       <r>   -0.0860    0.0000 </r>
       <r>    0.2684    0.0000 </r>
       <r>    1.8389    0.0000 </r>
       <r>    2.3027    0.0000 </r>
      </set>
      <set comment="kpoint 42">
       <r>  -15.0992    1.0000 </r>
       <r>  -13.8284    1.0000 </r>
       <r>  -12.4806    1.0000 </r>
       <r>  -11.0057    1.0000 </r>
       <r>   -7.6202    1.0000 </r>
       <r>   -7.0856    1.0000 </r>
       <r>   -5.5327    1.0000 </r>
       <r>   -5.3135    1.0000 </r>
       <r>   -4.1440    1.0000 </r>
       <r>   -3.7339    1.0000 </r>
       <r>   -1.0173    0.0000 </r>
       <r>   -0.7775    0.0000 </r>
       <r>    0.0226    0.0000 </r>
       <r>    0.4934    0.0000 </r>
       <r>    1.4784    0.0000 </r>
       <r>    1.9193    0.0000 </r>
[...]
       <r>    3.2138    0.0000 </r>
       <r>    3.3082    0.0000 </r>
      </set>
      <set comment="kpoint 153">
       <r>  -15.3195    1.0000 </r>
       <r>  -15.0728    1.0000 </r>
       <r>  -11.0331    1.0000 </r>
       <r>  -10.7135    1.0000 </r>
       <r>   -7.9290    1.0000 </r>
       <r>   -7.7708    1.0000 </r>
       <r>   -5.3707    1.0000 </r>
       <r>   -5.1596    1.0000 </r>
       <r>   -3.8724    1.0000 </r>
       <r>   -3.7736    1.0000 </r>
       <r>    0.1862    0.0000 </r>
       <r>    0.5782    0.0000 </r>
       <r>    1.0164    0.0000 </r>
       <r>    1.3090    0.0000 </r>
       <r>    3.0760    0.0000 </r>
       <r>    3.2178    0.0000 </r>
      </set>
      <set comment="kpoint 154">
       <r>  -15.5673    1.0000 </r>
       <r>  -15.3145    1.0000 </r>
       <r>  -10.8486    1.0000 </r>
       <r>  -10.5172    1.0000 </r>
       <r>   -7.6720    1.0000 </r>
       <r>   -7.5124    1.0000 </r>
       <r>   -5.2086    1.0000 </r>
       <r>   -4.9506    1.0000 </r>
       <r>   -3.7786    1.0000 </r>
       <r>   -3.7757    1.0000 </r>
       <r>    0.1474    0.0000 </r>
       <r>    0.4569    0.0000 </r>
       <r>    1.1211    0.0000 </r>
       <r>    1.4551    0.0000 </r>
       <r>    2.6219    0.0000 </r>
       <r>    2.8837    0.0000 </r>
      </set>
      <set comment="kpoint 155">
       <r>  -15.7763    1.0000 </r>
       <r>  -15.5200    1.0000 </r>
       <r>  -10.7676    1.0000 </r>
       <r>  -10.4357    1.0000 </r>
       <r>   -7.2332    1.0000 </r>
       <r>   -7.0644    1.0000 </r>
       <r>   -5.1809    1.0000 </r>
       <r>   -4.8801    1.0000 </r>
       <r>   -3.7140    1.0000 </r>
       <r>   -3.5854    1.0000 </r>
       <r>    0.1585    0.0000 </r>
       <r>    0.3533    0.0000 </r>
       <r>    1.1325    0.0000 </r>
       <r>    1.4858    0.0000 </r>
       <r>    1.9716    0.0000 </r>
       <r>    2.1728    0.0000 </r>
      </set>
      <set comment="kpoint 156">
       <r>  -15.9420    1.0000 </r>
       <r>  -15.6838    1.0000 </r>
       <r>  -10.7535    1.0000 </r>
       <r>  -10.4256    1.0000 </r>
       <r>   -6.6711    1.0000 </r>
       <r>   -6.4914    1.0000 </r>
       <r>   -5.2174    1.0000 </r>
       <r>   -4.8934    1.0000 </r>
       <r>   -3.6593    1.0000 </r>
       <r>   -3.4066    1.0000 </r>
       <r>    0.1449    0.0000 </r>
       <r>    0.2092    0.0000 </r>
       <r>    1.0223    0.0000 </r>
       <r>    1.1803    0.0000 </r>
       <r>    1.5867    0.0000 </r>
       <r>    1.6356    0.0000 </r>
      </set>
      <set comment="kpoint 157">
       <r>  -16.0618    1.0000 </r>
       <r>  -15.8025    1.0000 </r>
       <r>  -10.7677    1.0000 </r>
       <r>  -10.4440    1.0000 </r>
       <r>   -6.0617    1.0000 </r>
       <r>   -5.8776    1.0000 </r>
       <r>   -5.2649    1.0000 </r>
       <r>   -4.9317    1.0000 </r>
       <r>   -3.6921    1.0000 </r>
       <r>   -3.3283    1.0000 </r>
       <r>   -0.1363    0.0000 </r>
       <r>   -0.1084    0.0000 </r>
       <r>    0.9140    0.0000 </r>
       <r>    0.9490    0.0000 </r>
       <r>    1.3475    0.0000 </r>
       <r>    1.5717    0.0000 </r>
      </set>
      <set comment="kpoint 158">
       <r>  -16.1342    1.0000 </r>
       <r>  -15.8744    1.0000 </r>
       <r>  -10.7848    1.0000 </r>
       <r>  -10.4639    1.0000 </r>
       <r>   -5.5143    1.0000 </r>
       <r>   -5.3703    1.0000 </r>
       <r>   -5.2691    1.0000 </r>
       <r>   -4.9637    1.0000 </r>
       <r>   -3.8307    1.0000 </r>
       <r>   -3.3807    1.0000 </r>
       <r>   -0.5237    0.0000 </r>
       <r>   -0.4629    0.0000 </r>
       <r>    0.8920    0.0000 </r>
       <r>    1.0481    0.0000 </r>
       <r>    1.2493    0.0000 </r>
       <r>    1.5320    0.0000 </r>
      </set>
     </set>
    </set>
   </array>
  </eigenvalues>
  <separator name="orbital magnetization" >
   <v name="MAGDIPOLOUT">      0.00000000      0.00000000      0.00000000</v>
  </separator>
  <dos>
   <i name="efermi">     -2.23089149 </i>
   <total>
    <array>
     <dimension dim="1">gridpoints</dimension>
     <dimension dim="2">spin</dimension>
     <field>energy</field>
     <field>total</field>
     <field>integrated</field>
     <set>
      <set comment="spin 1">
       <r>   -18.1629     0.0000     0.0000 </r>
       <r>   -18.0870     0.0000     0.0000 </r>
       <r>   -18.0112     0.0000     0.0000 </r>
       <r>   -17.9354     0.0000     0.0000 </r>
       <r>   -17.8596     0.0000     0.0000 </r>
       <r>   -17.7837     0.0000     0.0000 </r>
       <r>   -17.7079     0.0000     0.0000 </r>
       <r>   -17.6321     0.0000     0.0000 </r>
       <r>   -17.5563     0.0000     0.0000 </r>
       <r>   -17.4805     0.0000     0.0000 </r>
       <r>   -17.4046     0.0000     0.0000 </r>
       <r>   -17.3288     0.0000     0.0000 </r>
       <r>   -17.2530     0.0000     0.0000 </r>
       <r>   -17.1772     0.0000     0.0000 </r>
       <r>   -17.1014     0.3188     0.0242 </r>
       <r>   -17.0255     0.8194     0.0863 </r>
       <r>   -16.9497     0.7694     0.1446 </r>
       <r>   -16.8739     1.0916     0.2274 </r>
       <r>   -16.7981     0.8164     0.2893 </r>
       <r>   -16.7222     0.7221     0.3441 </r>
       <r>   -16.6464     1.0584     0.4243 </r>
       <r>   -16.5706     0.8322     0.4874 </r>
       <r>   -16.4948     1.0369     0.5660 </r>
       <r>   -16.4190     0.5809     0.6101 </r>
       <r>   -16.3431     1.2659     0.7061 </r>
       <r>   -16.2673     0.6526     0.7555 </r>
       <r>   -16.1915     0.9760     0.8295 </r>
       <r>   -16.1157     1.3361     0.9308 </r>
       <r>   -16.0399     0.6498     0.9801 </r>
       <r>   -15.9640     0.7427     1.0364 </r>
       <r>   -15.8882     1.2657     1.1324 </r>
       <r>   -15.8124     0.8676     1.1982 </r>
       <r>   -15.7366     1.3801     1.3028 </r>
       <r>   -15.6608     0.4715     1.3386 </r>
       <r>   -15.5849     0.8692     1.4045 </r>
       <r>   -15.5091     1.7602     1.5379 </r>
       <r>   -15.4333     0.7358     1.5937 </r>
       <r>   -15.3575     0.8245     1.6562 </r>
       <r>   -15.2816     1.1969     1.7470 </r>
       <r>   -15.2058     1.1602     1.8349 </r>
       <r>   -15.1300     0.9159     1.9044 </r>
       <r>   -15.0542     1.5873     2.0247 </r>
       <r>   -14.9784     1.4288     2.1331 </r>
       <r>   -14.9025     0.9511     2.2052 </r>
       <r>   -14.8267     0.7744     2.2639 </r>
       <r>   -14.7509     1.8236     2.4022 </r>
       <r>   -14.6751     1.9139     2.5473 </r>
       <r>   -14.5993     1.7365     2.6790 </r>
       <r>   -14.5234     2.2096     2.8465 </r>
       <r>   -14.4476     1.1242     2.9317 </r>
       <r>   -14.3718     0.8421     2.9956 </r>
       <r>   -14.2960     1.9638     3.1445 </r>
       <r>   -14.2201     1.9443     3.2919 </r>
       <r>   -14.1443     1.7814     3.4270 </r>
       <r>   -14.0685     1.2991     3.5255 </r>
       <r>   -13.9927     1.0016     3.6014 </r>
       <r>   -13.9169     0.5253     3.6412 </r>
       <r>   -13.8410     1.1612     3.7293 </r>
       <r>   -13.7652     1.0590     3.8096 </r>
       <r>   -13.6894     0.6669     3.8602 </r>
       <r>   -13.6136     0.3210     3.8845 </r>
       <r>   -13.5378     0.3671     3.9123 </r>
       <r>   -13.4619     0.1533     3.9240 </r>
       <r>   -13.3861     0.6092     3.9701 </r>
       <r>   -13.3103     0.3796     3.9989 </r>
       <r>   -13.2345     0.0143     4.0000 </r>
       <r>   -13.1586     0.0000     4.0000 </r>
       <r>   -13.0828     0.0000     4.0000 </r>
       <r>   -13.0070     0.0000     4.0000 </r>
       <r>   -12.9312     0.1437     4.0109 </r>
       <r>   -12.8554     0.5038     4.0491 </r>
       <r>   -12.7795     0.2745     4.0699 </r>
       <r>   -12.7037     0.4128     4.1012 </r>
       <r>   -12.6279     0.0179     4.1026 </r>
       <r>   -12.5521     0.5346     4.1431 </r>
       <r>   -12.4763     0.8789     4.2097 </r>
       <r>   -12.4004     0.9331     4.2805 </r>
       <r>   -12.3246     0.9886     4.3554 </r>
       <r>   -12.2488     0.6111     4.4018 </r>
       <r>   -12.1730     0.0907     4.4086 </r>
       <r>   -12.0971     2.8816     4.6271 </r>
       <r>   -12.0213     1.6411     4.7516 </r>
       <r>   -11.9455     0.8804     4.8183 </r>
       <r>   -11.8697     1.3262     4.9189 </r>
       <r>   -11.7939     1.2773     5.0157 </r>
       <r>   -11.7180     0.7471     5.0724 </r>
       <r>   -11.6422     1.8484     5.2125 </r>
       <r>   -11.5664     2.6985     5.4171 </r>
       <r>   -11.4906     2.9758     5.6428 </r>
       <r>   -11.4148     1.3621     5.7460 </r>
       <r>   -11.3389     1.1964     5.8367 </r>
       <r>   -11.2631     1.4535     5.9470 </r>
       <r>   -11.1873     0.8760     6.0134 </r>
       <r>   -11.1115     0.7519     6.0704 </r>
       <r>   -11.0356     1.6566     6.1960 </r>
       <r>   -10.9598     1.1673     6.2845 </r>
       <r>   -10.8840     0.7711     6.3430 </r>
       <r>   -10.8082     0.3716     6.3711 </r>
       <r>   -10.7324     1.7301     6.5023 </r>
       <r>   -10.6565     0.7441     6.5587 </r>
       <r>   -10.5807     0.0047     6.5591 </r>
       <r>   -10.5049     0.6028     6.6048 </r>
       <r>   -10.4291     1.6705     6.7314 </r>
       <r>   -10.3533     1.0390     6.8102 </r>
       <r>   -10.2774     0.3675     6.8381 </r>
       <r>   -10.2016     0.1984     6.8531 </r>
       <r>   -10.1258     0.4904     6.8903 </r>
       <r>   -10.0500     1.6211     7.0132 </r>
       <r>    -9.9741     0.5000     7.0511 </r>
       <r>    -9.8983     0.0372     7.0540 </r>
       <r>    -9.8225     0.2490     7.0728 </r>
       <r>    -9.7467     0.6688     7.1236 </r>
       <r>    -9.6709     1.5833     7.2436 </r>
       <r>    -9.5950     0.5136     7.2825 </r>
       <r>    -9.5192     0.0003     7.2826 </r>
       <r>    -9.4434     0.4009     7.3130 </r>
       <r>    -9.3676     0.2687     7.3333 </r>
       <r>    -9.2918     0.0665     7.3384 </r>
       <r>    -9.2159     1.7435     7.4706 </r>
       <r>    -9.1401     0.0354     7.4733 </r>
       <r>    -9.0643     0.6669     7.5238 </r>
       <r>    -8.9885     0.1674     7.5365 </r>
       <r>    -8.9126     0.0003     7.5365 </r>
       <r>    -8.8368     0.4164     7.5681 </r>
       <r>    -8.7610     1.3046     7.6670 </r>
       <r>    -8.6852     0.1210     7.6762 </r>
       <r>    -8.6094     0.0000     7.6762 </r>
       <r>    -8.5335     0.1135     7.6848 </r>
       <r>    -8.4577     0.5070     7.7232 </r>
       <r>    -8.3819     0.8102     7.7847 </r>
       <r>    -8.3061     0.5791     7.8286 </r>
       <r>    -8.2303     0.0000     7.8286 </r>
       <r>    -8.1544     0.0679     7.8337 </r>
       <r>    -8.0786     1.7406     7.9657 </r>
       <r>    -8.0028     2.2944     8.1397 </r>
       <r>    -7.9270     1.7471     8.2721 </r>
       <r>    -7.8512     2.3317     8.4489 </r>
       <r>    -7.7753     2.5224     8.6402 </r>
       <r>    -7.6995     2.2174     8.8083 </r>
       <r>    -7.6237     1.8115     8.9457 </r>
       <r>    -7.5479     1.6147     9.0681 </r>
       <r>    -7.4720     3.2051     9.3111 </r>
       <r>    -7.3962     2.1879     9.4770 </r>
       <r>    -7.3204     2.2150     9.6449 </r>
       <r>    -7.2446     3.7141     9.9265 </r>
       <r>    -7.1688     3.6147    10.2006 </r>
       <r>    -7.0929     3.7989    10.4887 </r>
       <r>    -7.0171     3.1520    10.7276 </r>
       <r>    -6.9413     0.9129    10.7969 </r>
       <r>    -6.8655     1.5579    10.9150 </r>
       <r>    -6.7897     1.0000    10.9908 </r>
       <r>    -6.7138     1.1300    11.0765 </r>
       <r>    -6.6380     2.3107    11.2517 </r>
       <r>    -6.5622     1.3021    11.3504 </r>
       <r>    -6.4864     1.6068    11.4722 </r>
       <r>    -6.4105     2.2445    11.6424 </r>
       <r>    -6.3347     0.8143    11.7042 </r>
       <r>    -6.2589     1.7252    11.8350 </r>
       <r>    -6.1831     2.7853    12.0462 </r>
       <r>    -6.1073     0.9319    12.1168 </r>
       <r>    -6.0314     2.0169    12.2697 </r>
       <r>    -5.9556     1.7703    12.4040 </r>
       <r>    -5.8798     2.6406    12.6042 </r>
       <r>    -5.8040     2.9509    12.8279 </r>
       <r>    -5.7282     0.5835    12.8722 </r>
       <r>    -5.6523     3.8002    13.1603 </r>
       <r>    -5.5765     3.8633    13.4532 </r>
       <r>    -5.5007     2.7573    13.6623 </r>
       <r>    -5.4249     4.2406    13.9838 </r>
       <r>    -5.3490     3.4353    14.2443 </r>
       <r>    -5.2732     3.6426    14.5205 </r>
       <r>    -5.1974     3.4591    14.7828 </r>
       <r>    -5.1216     3.1426    15.0210 </r>
       <r>    -5.0458     1.3015    15.1197 </r>
       <r>    -4.9699     1.4665    15.2309 </r>
       <r>    -4.8941     2.9162    15.4520 </r>
       <r>    -4.8183     1.6606    15.5779 </r>
       <r>    -4.7425     0.4611    15.6129 </r>
       <r>    -4.6667     1.0480    15.6924 </r>
       <r>    -4.5908     1.2460    15.7868 </r>
       <r>    -4.5150     2.0969    15.9458 </r>
       <r>    -4.4392     0.5130    15.9847 </r>
       <r>    -4.3634     0.6232    16.0320 </r>
       <r>    -4.2875     1.2137    16.1240 </r>
       <r>    -4.2117     0.8461    16.1881 </r>
       <r>    -4.1359     2.8301    16.4027 </r>
       <r>    -4.0601     2.4520    16.5886 </r>
       <r>    -3.9843     2.6086    16.7864 </r>
       <r>    -3.9084     1.7896    16.9221 </r>
       <r>    -3.8326     3.9541    17.2219 </r>
       <r>    -3.7568     3.9642    17.5225 </r>
       <r>    -3.6810     4.9937    17.9011 </r>
       <r>    -3.6052     2.7771    18.1117 </r>
       <r>    -3.5293     4.4999    18.4529 </r>
       <r>    -3.4535     3.3285    18.7052 </r>
       <r>    -3.3777     3.9358    19.0037 </r>
       <r>    -3.3019     2.7965    19.2157 </r>
       <r>    -3.2260     2.1057    19.3753 </r>
       <r>    -3.1502     0.6183    19.4222 </r>
       <r>    -3.0744     0.8938    19.4900 </r>
       <r>    -2.9986     1.4883    19.6028 </r>
       <r>    -2.9228     0.9019    19.6712 </r>
       <r>    -2.8469     1.8507    19.8115 </r>
       <r>    -2.7711     0.2035    19.8270 </r>
       <r>    -2.6953     0.2707    19.8475 </r>
       <r>    -2.6195     0.1430    19.8583 </r>
       <r>    -2.5437     0.7274    19.9135 </r>
       <r>    -2.4678     0.6542    19.9631 </r>
       <r>    -2.3920     0.1586    19.9751 </r>
       <r>    -2.3162     0.3275    20.0000 </r>
       <r>    -2.2404     0.0006    20.0000 </r>
       <r>    -2.1645     0.0000    20.0000 </r>
       <r>    -2.0887     0.0000    20.0000 </r>
       <r>    -2.0129     0.0000    20.0000 </r>
       <r>    -1.9371     0.0000    20.0000 </r>
       <r>    -1.8613     0.0000    20.0000 </r>
       <r>    -1.7854     0.0000    20.0000 </r>
       <r>    -1.7096     0.0000    20.0000 </r>
       <r>    -1.6338     0.0000    20.0000 </r>
       <r>    -1.5580     0.0000    20.0000 </r>
       <r>    -1.4822     0.0000    20.0000 </r>
       <r>    -1.4063     0.0000    20.0000 </r>
       <r>    -1.3305     0.0000    20.0000 </r>
       <r>    -1.2547     0.1919    20.0145 </r>
       <r>    -1.1789     0.1941    20.0293 </r>
       <r>    -1.1030     0.8290    20.0921 </r>
       <r>    -1.0272     2.2542    20.2630 </r>
       <r>    -0.9514     2.4616    20.4497 </r>
       <r>    -0.8756     1.7633    20.5834 </r>
       <r>    -0.7998     2.7169    20.7894 </r>
       <r>    -0.7239     2.7306    20.9964 </r>
       <r>    -0.6481     3.0417    21.2270 </r>
       <r>    -0.5723     2.9773    21.4528 </r>
       <r>    -0.4965     2.9175    21.6740 </r>
       <r>    -0.4207     3.4697    21.9371 </r>
       <r>    -0.3448     2.0677    22.0938 </r>
       <r>    -0.2690     2.7581    22.3030 </r>
       <r>    -0.1932     2.6378    22.5030 </r>
       <r>    -0.1174     3.1441    22.7414 </r>
       <r>    -0.0415     3.9221    23.0387 </r>
       <r>     0.0343     3.4439    23.2999 </r>
       <r>     0.1101     3.9787    23.6015 </r>
       <r>     0.1859     4.0492    23.9086 </r>
       <r>     0.2617     3.2613    24.1558 </r>
       <r>     0.3376     2.7749    24.3662 </r>
       <r>     0.4134     3.9951    24.6691 </r>
       <r>     0.4892     4.3755    25.0009 </r>
       <r>     0.5650     5.4931    25.4174 </r>
       <r>     0.6408     4.7244    25.7756 </r>
       <r>     0.7167     3.2262    26.0202 </r>
       <r>     0.7925     4.0548    26.3277 </r>
       <r>     0.8683     1.8222    26.4658 </r>
       <r>     0.9441     3.1605    26.7055 </r>
       <r>     1.0199     1.9022    26.8497 </r>
       <r>     1.0958     2.2222    27.0182 </r>
       <r>     1.1716     2.6730    27.2208 </r>
       <r>     1.2474     2.8713    27.4386 </r>
       <r>     1.3232     2.2638    27.6102 </r>
       <r>     1.3991     3.2967    27.8602 </r>
       <r>     1.4749     1.9915    28.0112 </r>
       <r>     1.5507     2.7743    28.2215 </r>
       <r>     1.6265     2.9853    28.4479 </r>
       <r>     1.7023     2.1709    28.6125 </r>
       <r>     1.7782     1.4718    28.7241 </r>
       <r>     1.8540     2.7062    28.9292 </r>
       <r>     1.9298     1.8986    29.0732 </r>
       <r>     2.0056     1.5435    29.1902 </r>
       <r>     2.0814     1.5435    29.3073 </r>
       <r>     2.1573     1.6288    29.4308 </r>
       <r>     2.2331     3.5702    29.7015 </r>
       <r>     2.3089     2.2969    29.8756 </r>
       <r>     2.3847     2.6665    30.0778 </r>
       <r>     2.4606     3.1262    30.3148 </r>
       <r>     2.5364     4.0458    30.6216 </r>
       <r>     2.6122     1.4405    30.7308 </r>
       <r>     2.6880     2.4044    30.9131 </r>
       <r>     2.7638     2.3197    31.0890 </r>
       <r>     2.8397     1.5792    31.2087 </r>
       <r>     2.9155     2.8680    31.4262 </r>
       <r>     2.9913     1.2973    31.5246 </r>
       <r>     3.0671     1.1877    31.6146 </r>
       <r>     3.1429     0.9541    31.6869 </r>
       <r>     3.2188     1.5431    31.8039 </r>
       <r>     3.2946     0.9672    31.8773 </r>
       <r>     3.3704     0.7471    31.9339 </r>
       <r>     3.4462     0.5362    31.9746 </r>
       <r>     3.5221     0.0088    31.9753 </r>
       <r>     3.5979     0.3263    32.0000 </r>
       <r>     3.6737     0.0001    32.0000 </r>
       <r>     3.7495     0.0000    32.0000 </r>
       <r>     3.8253     0.0000    32.0000 </r>
       <r>     3.9012     0.0000    32.0000 </r>
       <r>     3.9770     0.0000    32.0000 </r>
       <r>     4.0528     0.0000    32.0000 </r>
       <r>     4.1286     0.0000    32.0000 </r>
       <r>     4.2044     0.0000    32.0000 </r>
       <r>     4.2803     0.0000    32.0000 </r>
       <r>     4.3561     0.0000    32.0000 </r>
       <r>     4.4319     0.0000    32.0000 </r>
       <r>     4.5077     0.0000    32.0000 </r>
       <r>     4.5836     0.0000    32.0000 </r>
      </set>
     </set>
    </array>
   </total>
  </dos>
 </calculation>
 <structure name="finalpos" >
  <crystal>
   <varray name="basis" >
    <v>       3.39467900       0.00000000       0.00000000 </v>
    <v>       0.00000000       4.62335100      -0.00005300 </v>
    <v>       0.00000000       0.00000000      20.02439000 </v>
   </varray>
   <i name="volume">    314.27864698 </i>
   <varray name="rec_basis" >
    <v>       0.29457866       0.00000000       0.00000000 </v>
    <v>       0.00000000       0.21629333       0.00000000 </v>
    <v>       0.00000000       0.00000057       0.04993910 </v>
   </varray>
  </crystal>
  <varray name="positions" >
   <v>       0.50000000       0.90953649       0.55231381 </v>
   <v>       0.50000000       0.09046351       0.44768619 </v>
   <v>       0.00000000       0.40953182       0.44768620 </v>
   <v>      -0.00000000       0.59046818       0.55231380 </v>
  </varray>
 </structure>
</modeling>
