<?xml version="1.0" encoding="ISO-8859-1"?>
<modeling>
 <generator>
  <i name="program" type="string">vasp </i>
  <i name="version" type="string">5.4.1  </i>
  <i name="subversion" type="string">24Jun15 (build Nov 20 2020 10:29:34) complex                          parallel </i>
  <i name="platform" type="string">IFC91_ompi </i>
  <i name="date" type="string">2021 09 09 </i>
  <i name="time" type="string">15:24:54 </i>
 </generator>
 <incar>
  <i type="string" name="PREC">a</i>
  <i type="string" name="ALGO"> Normal</i>
  <i type="int" name="ISPIN">     1</i>
  <i type="int" name="ICHARG">     2</i>
  <i type="int" name="NELM">   250</i>
  <i type="int" name="NELMDL">    -5</i>
  <i type="int" name="NELMIN">     6</i>
  <i type="int" name="IBRION">     2</i>
  <i name="EDIFF">      0.00001000</i>
  <i name="EDIFFG">     -0.01000000</i>
  <i type="int" name="NSW">   200</i>
  <i type="int" name="ISIF">     2</i>
  <i name="ENCUT">    520.00000000</i>
  <i name="POTIM">      0.30000000</i>
  <i type="logical" name="LREAL"> F  </i>
  <i type="int" name="ISMEAR">     0</i>
  <i name="SIGMA">      0.02000000</i>
  <i type="logical" name="LWAVE"> F  </i>
  <i type="logical" name="LCHARG"> F  </i>
  <i type="logical" name="LAECHG"> F  </i>
  <v type="int" name="KPOINT_BSE">    -1     0     0     0</v>
  <i type="int" name="NELM">   250</i>
 </incar>
 <kpoints>
  <generation param="Gamma">
   <v type="int" name="divisions">      21       15        1 </v>
   <v name="usershift">      0.00000000       0.00000000       0.00000000 </v>
   <v name="genvec1">      0.04761905       0.00000000       0.00000000 </v>
   <v name="genvec2">      0.00000000       0.06666667       0.00000000 </v>
   <v name="genvec3">      0.00000000       0.00000000       1.00000000 </v>
   <v name="shift">      0.00000000       0.00000000       0.00000000 </v>
  </generation>
  <varray name="kpointlist" >
   <v>       0.00000000       0.00000000       0.00000000 </v>
   <v>       0.04761905       0.00000000       0.00000000 </v>
   <v>       0.09523810       0.00000000       0.00000000 </v>
   <v>       0.14285714       0.00000000       0.00000000 </v>
   <v>       0.19047619       0.00000000       0.00000000 </v>
   <v>       0.23809524       0.00000000       0.00000000 </v>
   <v>       0.28571429       0.00000000       0.00000000 </v>
   <v>       0.33333333       0.00000000       0.00000000 </v>
   <v>       0.38095238       0.00000000       0.00000000 </v>
   <v>       0.42857143       0.00000000       0.00000000 </v>
   <v>       0.47619048       0.00000000       0.00000000 </v>
   <v>       0.00000000       0.06666667       0.00000000 </v>
   <v>       0.04761905       0.06666667       0.00000000 </v>
   <v>       0.09523810       0.06666667       0.00000000 </v>
   <v>       0.14285714       0.06666667       0.00000000 </v>
   <v>       0.19047619       0.06666667       0.00000000 </v>
   <v>       0.23809524       0.06666667       0.00000000 </v>
   <v>       0.28571429       0.06666667       0.00000000 </v>
   <v>       0.33333333       0.06666667       0.00000000 </v>
   <v>       0.38095238       0.06666667       0.00000000 </v>
   <v>       0.42857143       0.06666667       0.00000000 </v>
   <v>       0.47619048       0.06666667       0.00000000 </v>
   <v>      -0.47619048       0.06666667       0.00000000 </v>
   <v>      -0.42857143       0.06666667       0.00000000 </v>
   <v>      -0.38095238       0.06666667       0.00000000 </v>
   <v>      -0.33333333       0.06666667       0.00000000 </v>
   <v>      -0.28571429       0.06666667       0.00000000 </v>
   <v>      -0.23809524       0.06666667       0.00000000 </v>
   <v>      -0.19047619       0.06666667       0.00000000 </v>
   <v>      -0.14285714       0.06666667       0.00000000 </v>
   <v>      -0.09523810       0.06666667       0.00000000 </v>
   <v>      -0.04761905       0.06666667       0.00000000 </v>
   <v>       0.00000000       0.13333333       0.00000000 </v>
   <v>       0.04761905       0.13333333       0.00000000 </v>
   <v>       0.09523810       0.13333333       0.00000000 </v>
   <v>       0.14285714       0.13333333       0.00000000 </v>
   <v>       0.19047619       0.13333333       0.00000000 </v>
   <v>       0.23809524       0.13333333       0.00000000 </v>
   <v>       0.28571429       0.13333333       0.00000000 </v>
   <v>       0.33333333       0.13333333       0.00000000 </v>
   <v>       0.38095238       0.13333333       0.00000000 </v>
   <v>       0.42857143       0.13333333       0.00000000 </v>
   <v>       0.47619048       0.13333333       0.00000000 </v>
   <v>      -0.47619048       0.13333333       0.00000000 </v>
   <v>      -0.42857143       0.13333333       0.00000000 </v>
   <v>      -0.38095238       0.13333333       0.00000000 </v>
   <v>      -0.33333333       0.13333333       0.00000000 </v>
   <v>      -0.28571429       0.13333333       0.00000000 </v>
   <v>      -0.23809524       0.13333333       0.00000000 </v>
   <v>      -0.19047619       0.13333333       0.00000000 </v>
   <v>      -0.14285714       0.13333333       0.00000000 </v>
   <v>      -0.09523810       0.13333333       0.00000000 </v>
   <v>      -0.04761905       0.13333333       0.00000000 </v>
   <v>       0.00000000       0.20000000       0.00000000 </v>
   <v>       0.04761905       0.20000000       0.00000000 </v>
   <v>       0.09523810       0.20000000       0.00000000 </v>
   <v>       0.14285714       0.20000000       0.00000000 </v>
   <v>       0.19047619       0.20000000       0.00000000 </v>
   <v>       0.23809524       0.20000000       0.00000000 </v>
   <v>       0.28571429       0.20000000       0.00000000 </v>
   <v>       0.33333333       0.20000000       0.00000000 </v>
   <v>       0.38095238       0.20000000       0.00000000 </v>
   <v>       0.42857143       0.20000000       0.00000000 </v>
   <v>       0.47619048       0.20000000       0.00000000 </v>
   <v>      -0.47619048       0.20000000       0.00000000 </v>
   <v>      -0.42857143       0.20000000       0.00000000 </v>
   <v>      -0.38095238       0.20000000       0.00000000 </v>
   <v>      -0.33333333       0.20000000       0.00000000 </v>
   <v>      -0.28571429       0.20000000       0.00000000 </v>
   <v>      -0.23809524       0.20000000       0.00000000 </v>
   <v>      -0.19047619       0.20000000       0.00000000 </v>
   <v>      -0.14285714       0.20000000       0.00000000 </v>
   <v>      -0.09523810       0.20000000       0.00000000 </v>
   <v>      -0.04761905       0.20000000       0.00000000 </v>
   <v>       0.00000000       0.26666667       0.00000000 </v>
   <v>       0.04761905       0.26666667       0.00000000 </v>
   <v>       0.09523810       0.26666667       0.00000000 </v>
   <v>       0.14285714       0.26666667       0.00000000 </v>
   <v>       0.19047619       0.26666667       0.00000000 </v>
   <v>       0.23809524       0.26666667       0.00000000 </v>
   <v>       0.28571429       0.26666667       0.00000000 </v>
   <v>       0.33333333       0.26666667       0.00000000 </v>
   <v>       0.38095238       0.26666667       0.00000000 </v>
   <v>       0.42857143       0.26666667       0.00000000 </v>
   <v>       0.47619048       0.26666667       0.00000000 </v>
   <v>      -0.47619048       0.26666667       0.00000000 </v>
   <v>      -0.42857143       0.26666667       0.00000000 </v>
   <v>      -0.38095238       0.26666667       0.00000000 </v>
   <v>      -0.33333333       0.26666667       0.00000000 </v>
   <v>      -0.28571429       0.26666667       0.00000000 </v>
   <v>      -0.23809524       0.26666667       0.00000000 </v>
   <v>      -0.19047619       0.26666667       0.00000000 </v>
   <v>      -0.14285714       0.26666667       0.00000000 </v>
   <v>      -0.09523810       0.26666667       0.00000000 </v>
   <v>      -0.04761905       0.26666667       0.00000000 </v>
   <v>       0.00000000       0.33333333       0.00000000 </v>
   <v>       0.04761905       0.33333333       0.00000000 </v>
   <v>       0.09523810       0.33333333       0.00000000 </v>
   <v>       0.14285714       0.33333333       0.00000000 </v>
   <v>       0.19047619       0.33333333       0.00000000 </v>
   <v>       0.23809524       0.33333333       0.00000000 </v>
   <v>       0.28571429       0.33333333       0.00000000 </v>
   <v>       0.33333333       0.33333333       0.00000000 </v>
   <v>       0.38095238       0.33333333       0.00000000 </v>
   <v>       0.42857143       0.33333333       0.00000000 </v>
   <v>       0.47619048       0.33333333       0.00000000 </v>
   <v>      -0.47619048       0.33333333       0.00000000 </v>
   <v>      -0.42857143       0.33333333       0.00000000 </v>
   <v>      -0.38095238       0.33333333       0.00000000 </v>
   <v>      -0.33333333       0.33333333       0.00000000 </v>
   <v>      -0.28571429       0.33333333       0.00000000 </v>
   <v>      -0.23809524       0.33333333       0.00000000 </v>
   <v>      -0.19047619       0.33333333       0.00000000 </v>
   <v>      -0.14285714       0.33333333       0.00000000 </v>
   <v>      -0.09523810       0.33333333       0.00000000 </v>
   <v>      -0.04761905       0.33333333       0.00000000 </v>
   <v>       0.00000000       0.40000000       0.00000000 </v>
   <v>       0.04761905       0.40000000       0.00000000 </v>
   <v>       0.09523810       0.40000000       0.00000000 </v>
   <v>       0.14285714       0.40000000       0.00000000 </v>
   <v>       0.19047619       0.40000000       0.00000000 </v>
   <v>       0.23809524       0.40000000       0.00000000 </v>
   <v>       0.28571429       0.40000000       0.00000000 </v>
   <v>       0.33333333       0.40000000       0.00000000 </v>
   <v>       0.38095238       0.40000000       0.00000000 </v>
   <v>       0.42857143       0.40000000       0.00000000 </v>
   <v>       0.47619048       0.40000000       0.00000000 </v>
   <v>      -0.47619048       0.40000000       0.00000000 </v>
   <v>      -0.42857143       0.40000000       0.00000000 </v>
   <v>      -0.38095238       0.40000000       0.00000000 </v>
   <v>      -0.33333333       0.40000000       0.00000000 </v>
   <v>      -0.28571429       0.40000000       0.00000000 </v>
   <v>      -0.23809524       0.40000000       0.00000000 </v>
   <v>      -0.19047619       0.40000000       0.00000000 </v>
   <v>      -0.14285714       0.40000000       0.00000000 </v>
   <v>      -0.09523810       0.40000000       0.00000000 </v>
   <v>      -0.04761905       0.40000000       0.00000000 </v>
   <v>       0.00000000       0.46666667       0.00000000 </v>
   <v>       0.04761905       0.46666667       0.00000000 </v>
   <v>       0.09523810       0.46666667       0.00000000 </v>
   <v>       0.14285714       0.46666667       0.00000000 </v>
   <v>       0.19047619       0.46666667       0.00000000 </v>
   <v>       0.23809524       0.46666667       0.00000000 </v>
   <v>       0.28571429       0.46666667       0.00000000 </v>
   <v>       0.33333333       0.46666667       0.00000000 </v>
   <v>       0.38095238       0.46666667       0.00000000 </v>
   <v>       0.42857143       0.46666667       0.00000000 </v>
   <v>       0.47619048       0.46666667       0.00000000 </v>
   <v>      -0.47619048       0.46666667       0.00000000 </v>
   <v>      -0.42857143       0.46666667       0.00000000 </v>
   <v>      -0.38095238       0.46666667       0.00000000 </v>
   <v>      -0.33333333       0.46666667       0.00000000 </v>
   <v>      -0.28571429       0.46666667       0.00000000 </v>
   <v>      -0.23809524       0.46666667       0.00000000 </v>
   <v>      -0.19047619       0.46666667       0.00000000 </v>
   <v>      -0.14285714       0.46666667       0.00000000 </v>
   <v>      -0.09523810       0.46666667       0.00000000 </v>
   <v>      -0.04761905       0.46666667       0.00000000 </v>
  </varray>
  <varray name="weights" >
   <v>       0.00317460 </v>
   <v>       0.00634921 </v>
   <v>       0.00634921 </v>
   <v>       0.00634921 </v>
   <v>       0.00634921 </v>
   <v>       0.00634921 </v>
   <v>       0.00634921 </v>
   <v>       0.00634921 </v>
   <v>       0.00634921 </v>
   <v>       0.00634921 </v>
   <v>       0.00634921 </v>
   <v>       0.00634921 </v>
   <v>       0.00634921 </v>
   <v>       0.00634921 </v>
   <v>       0.00634921 </v>
   <v>       0.00634921 </v>
   <v>       0.00634921 </v>
   <v>       0.00634921 </v>
   <v>       0.00634921 </v>
   <v>       0.00634921 </v>
   <v>       0.00634921 </v>
   <v>       0.00634921 </v>
   <v>       0.00634921 </v>
   <v>       0.00634921 </v>
   <v>       0.00634921 </v>
   <v>       0.00634921 </v>
   <v>       0.00634921 </v>
   <v>       0.00634921 </v>
   <v>       0.00634921 </v>
   <v>       0.00634921 </v>
   <v>       0.00634921 </v>
   <v>       0.00634921 </v>
   <v>       0.00634921 </v>
   <v>       0.00634921 </v>
   <v>       0.00634921 </v>
   <v>       0.00634921 </v>
   <v>       0.00634921 </v>
   <v>       0.00634921 </v>
   <v>       0.00634921 </v>
   <v>       0.00634921 </v>
   <v>       0.00634921 </v>
   <v>       0.00634921 </v>
   <v>       0.00634921 </v>
   <v>       0.00634921 </v>
   <v>       0.00634921 </v>
   <v>       0.00634921 </v>
   <v>       0.00634921 </v>
   <v>       0.00634921 </v>
   <v>       0.00634921 </v>
   <v>       0.00634921 </v>
   <v>       0.00634921 </v>
   <v>       0.00634921 </v>
   <v>       0.00634921 </v>
   <v>       0.00634921 </v>
   <v>       0.00634921 </v>
   <v>       0.00634921 </v>
   <v>       0.00634921 </v>
   <v>       0.00634921 </v>
   <v>       0.00634921 </v>
   <v>       0.00634921 </v>
   <v>       0.00634921 </v>
   <v>       0.00634921 </v>
   <v>       0.00634921 </v>
   <v>       0.00634921 </v>
   <v>       0.00634921 </v>
   <v>       0.00634921 </v>
   <v>       0.00634921 </v>
   <v>       0.00634921 </v>
   <v>       0.00634921 </v>
   <v>       0.00634921 </v>
   <v>       0.00634921 </v>
   <v>       0.00634921 </v>
   <v>       0.00634921 </v>
   <v>       0.00634921 </v>
   <v>       0.00634921 </v>
   <v>       0.00634921 </v>
   <v>       0.00634921 </v>
   <v>       0.00634921 </v>
   <v>       0.00634921 </v>
   <v>       0.00634921 </v>
   <v>       0.00634921 </v>
   <v>       0.00634921 </v>
   <v>       0.00634921 </v>
   <v>       0.00634921 </v>
   <v>       0.00634921 </v>
   <v>       0.00634921 </v>
   <v>       0.00634921 </v>
   <v>       0.00634921 </v>
   <v>       0.00634921 </v>
   <v>       0.00634921 </v>
   <v>       0.00634921 </v>
   <v>       0.00634921 </v>
   <v>       0.00634921 </v>
   <v>       0.00634921 </v>
   <v>       0.00634921 </v>
   <v>       0.00634921 </v>
   <v>       0.00634921 </v>
   <v>       0.00634921 </v>
   <v>       0.00634921 </v>
   <v>       0.00634921 </v>
   <v>       0.00634921 </v>
   <v>       0.00634921 </v>
   <v>       0.00634921 </v>
   <v>       0.00634921 </v>
   <v>       0.00634921 </v>
   <v>       0.00634921 </v>
   <v>       0.00634921 </v>
   <v>       0.00634921 </v>
   <v>       0.00634921 </v>
   <v>       0.00634921 </v>
   <v>       0.00634921 </v>
   <v>       0.00634921 </v>
   <v>       0.00634921 </v>
   <v>       0.00634921 </v>
   <v>       0.00634921 </v>
   <v>       0.00634921 </v>
   <v>       0.00634921 </v>
   <v>       0.00634921 </v>
   <v>       0.00634921 </v>
   <v>       0.00634921 </v>
   <v>       0.00634921 </v>
   <v>       0.00634921 </v>
   <v>       0.00634921 </v>
   <v>       0.00634921 </v>
   <v>       0.00634921 </v>
   <v>       0.00634921 </v>
   <v>       0.00634921 </v>
   <v>       0.00634921 </v>
   <v>       0.00634921 </v>
   <v>       0.00634921 </v>
   <v>       0.00634921 </v>
   <v>       0.00634921 </v>
   <v>       0.00634921 </v>
   <v>       0.00634921 </v>
   <v>       0.00634921 </v>
   <v>       0.00634921 </v>
   <v>       0.00634921 </v>
   <v>       0.00634921 </v>
   <v>       0.00634921 </v>
   <v>       0.00634921 </v>
   <v>       0.00634921 </v>
   <v>       0.00634921 </v>
   <v>       0.00634921 </v>
   <v>       0.00634921 </v>
   <v>       0.00634921 </v>
   <v>       0.00634921 </v>
   <v>       0.00634921 </v>
   <v>       0.00634921 </v>
   <v>       0.00634921 </v>
   <v>       0.00634921 </v>
   <v>       0.00634921 </v>
   <v>       0.00634921 </v>
   <v>       0.00634921 </v>
   <v>       0.00634921 </v>
   <v>       0.00634921 </v>
   <v>       0.00634921 </v>
   <v>       0.00634921 </v>
   <v>       0.00634921 </v>
  </varray>
 </kpoints>
 <parameters>
  <separator name="general" >
   <i type="string" name="SYSTEM">unknown system</i>
   <i type="logical" name="LCOMPAT"> F  </i>
  </separator>
  <separator name="electronic" >
   <i type="string" name="PREC">a</i>
   <i name="ENMAX">    520.00000000</i>
   <i name="ENAUG">    342.92400000</i>
   <i name="EDIFF">      0.00001000</i>
   <i type="int" name="IALGO">    38</i>
   <i type="int" name="IWAVPR">    11</i>
   <i type="int" name="NBANDS">    16</i>
   <i name="NELECT">     20.00000000</i>
   <i type="int" name="TURBO">     0</i>
   <i type="int" name="IRESTART">     0</i>
   <i type="int" name="NREBOOT">     0</i>
   <i type="int" name="NMIN">     0</i>
   <i name="EREF">      0.00000000</i>
   <separator name="electronic smearing" >
    <i type="int" name="ISMEAR">     0</i>
    <i name="SIGMA">      0.02000000</i>
    <i name="KSPACING">      0.50000000</i>
    <i type="logical" name="KGAMMA"> T  </i>
   </separator>
   <separator name="electronic projectors" >
    <i type="logical" name="LREAL"> F  </i>
    <v name="ROPT">      0.00000000</v>
    <i type="int" name="LMAXPAW">  -100</i>
    <i type="int" name="LMAXMIX">     2</i>
    <i type="logical" name="NLSPLINE"> F  </i>
   </separator>
   <separator name="electronic startup" >
    <i type="int" name="ISTART">     0</i>
    <i type="int" name="ICHARG">     2</i>
    <i type="int" name="INIWAV">     1</i>
   </separator>
   <separator name="electronic spin" >
    <i type="int" name="ISPIN">     1</i>
    <i type="logical" name="LNONCOLLINEAR"> F  </i>
    <v name="MAGMOM">      1.00000000      1.00000000      1.00000000      1.00000000</v>
    <i name="NUPDOWN">     -1.00000000</i>
    <i type="logical" name="LSORBIT"> F  </i>
    <v name="SAXIS">      0.00000000      0.00000000      1.00000000</v>
    <i type="logical" name="LSPIRAL"> F  </i>
    <v name="QSPIRAL">      0.00000000      0.00000000      0.00000000</v>
    <i type="logical" name="LZEROZ"> F  </i>
   </separator>
   <separator name="electronic exchange-correlation" >
    <i type="logical" name="LASPH"> F  </i>
    <i type="logical" name="LMETAGGA"> F  </i>
   </separator>
   <separator name="electronic convergence" >
    <i type="int" name="NELM">   250</i>
    <i type="int" name="NELMDL">    -5</i>
    <i type="int" name="NELMIN">     6</i>
    <i name="ENINI">    520.00000000</i>
    <separator name="electronic convergence detail" >
     <i type="logical" name="LDIAG"> T  </i>
     <i type="logical" name="LSUBROT"> F  </i>
     <i name="WEIMIN">      0.00100000</i>
     <i name="EBREAK">      0.00000016</i>
     <i name="DEPER">      0.30000000</i>
     <i type="int" name="NRMM">     4</i>
     <i name="TIME">      0.40000000</i>
    </separator>
   </separator>
   <separator name="electronic mixer" >
    <i name="AMIX">      0.40000000</i>
    <i name="BMIX">      1.00000000</i>
    <i name="AMIN">      0.10000000</i>
    <i name="AMIX_MAG">      1.60000000</i>
    <i name="BMIX_MAG">      1.00000000</i>
    <separator name="electronic mixer details" >
     <i type="int" name="IMIX">     4</i>
     <i type="logical" name="MIXFIRST"> F  </i>
     <i type="int" name="MAXMIX">   -45</i>
     <i name="WC">    100.00000000</i>
     <i type="int" name="INIMIX">     1</i>
     <i type="int" name="MIXPRE">     1</i>
     <i type="int" name="MREMOVE">     5</i>
    </separator>
   </separator>
   <separator name="electronic dipolcorrection" >
    <i type="logical" name="LDIPOL"> F  </i>
    <i type="logical" name="LMONO"> F  </i>
    <i type="int" name="IDIPOL">     0</i>
    <i name="EPSILON">      1.00000000</i>
    <v name="DIPOL">   -100.00000000   -100.00000000   -100.00000000</v>
    <i name="EFIELD">      0.00000000</i>
   </separator>
  </separator>
  <separator name="grids" >
   <i type="int" name="NGX">    28</i>
   <i type="int" name="NGY">    40</i>
   <i type="int" name="NGZ">   150</i>
   <i type="int" name="NGXF">    56</i>
   <i type="int" name="NGYF">    80</i>
   <i type="int" name="NGZF">   300</i>
   <i type="logical" name="ADDGRID"> F  </i>
  </separator>
  <separator name="ionic" >
   <i type="int" name="NSW">   200</i>
   <i type="int" name="IBRION">     2</i>
   <i type="int" name="ISIF">     2</i>
   <i name="PSTRESS">      0.00000000</i>
   <i name="EDIFFG">     -0.01000000</i>
   <i type="int" name="NFREE">     1</i>
   <i name="POTIM">      0.30000000</i>
   <i name="SMASS">     -3.00000000</i>
   <i name="SCALEE">      1.00000000</i>
  </separator>
  <separator name="ionic md" >
   <i name="TEBEG">      0.00010000</i>
   <i name="TEEND">      0.00010000</i>
   <i type="int" name="NBLOCK">     1</i>
   <i type="int" name="KBLOCK">   200</i>
   <i type="int" name="NPACO">   256</i>
   <i name="APACO">     16.00000000</i>
  </separator>
  <separator name="symmetry" >
   <i type="int" name="ISYM">     2</i>
   <i name="SYMPREC">      0.00001000</i>
  </separator>
  <separator name="dos" >
   <i type="logical" name="LORBIT"> F  </i>
   <v name="RWIGS">     -1.00000000</v>
   <i type="int" name="NEDOS">   301</i>
   <i name="EMIN">     10.00000000</i>
   <i name="EMAX">    -10.00000000</i>
   <i name="EFERMI">      0.00000000</i>
  </separator>
  <separator name="writing" >
   <i type="int" name="NWRITE">     2</i>
   <i type="logical" name="LWAVE"> F  </i>
   <i type="logical" name="LCHARG"> F  </i>
   <i type="logical" name="LPARD"> F  </i>
   <i type="logical" name="LVTOT"> F  </i>
   <i type="logical" name="LVHAR"> F  </i>
   <i type="logical" name="LELF"> F  </i>
   <i type="logical" name="LOPTICS"> F  </i>
   <v name="STM">      0.00000000      0.00000000      0.00000000      0.00000000      0.00000000      0.00000000      0.00000000</v>
  </separator>
  <separator name="performance" >
   <i type="int" name="NPAR">     4</i>
   <i type="int" name="NSIM">     4</i>
   <i type="int" name="NBLK">    -1</i>
   <i type="logical" name="LPLANE"> T  </i>
   <i type="logical" name="LSCALAPACK"> T  </i>
   <i type="logical" name="LSCAAWARE"> F  </i>
   <i type="logical" name="LSCALU"> F  </i>
   <i type="logical" name="LASYNC"> F  </i>
   <i type="logical" name="LORBITALREAL"> F  </i>
  </separator>
  <separator name="miscellaneous" >
   <i type="int" name="IDIOT">     3</i>
   <i type="logical" name="LMUSIC"> F  </i>
   <v name="POMASS">     30.97400000</v>
   <v name="DARWINR">      0.00000000</v>
   <v name="DARWINV">      1.00000000</v>
   <i type="logical" name="LCORR"> T  </i>
  </separator>
  <i type="logical" name="GGA_COMPAT"> T  </i>
  <i type="logical" name="LBERRY"> F  </i>
  <i type="int" name="ICORELEVEL">     0</i>
  <i type="logical" name="LDAU"> F  </i>
  <i type="int" name="I_CONSTRAINED_M">     0</i>
  <separator name="electronic exchange-correlation" >
   <i type="string" name="GGA">--</i>
   <i type="int" name="VOSKOWN">     0</i>
   <i type="logical" name="LHFCALC"> F  </i>
   <i type="string" name="PRECFOCK"></i>
   <i type="logical" name="LSYMGRAD"> F  </i>
   <i type="logical" name="LHFONE"> F  </i>
   <i type="logical" name="LRHFCALC"> F  </i>
   <i type="logical" name="LTHOMAS"> F  </i>
   <i type="logical" name="LMODELHF"> F  </i>
   <i name="ENCUT4O">     -1.00000000</i>
   <i type="int" name="EXXOEP">     0</i>
   <i type="int" name="FOURORBIT">     0</i>
   <i name="AEXX">      0.00000000</i>
   <i name="HFALPHA">      0.00000000</i>
   <i name="MCALPHA">      0.00000000</i>
   <i name="ALDAX">      1.00000000</i>
   <i name="AGGAX">      1.00000000</i>
   <i name="ALDAC">      1.00000000</i>
   <i name="AGGAC">      1.00000000</i>
   <i type="int" name="NKREDX">     1</i>
   <i type="int" name="NKREDY">     1</i>
   <i type="int" name="NKREDZ">     1</i>
   <i type="logical" name="SHIFTRED"> F  </i>
   <i type="logical" name="ODDONLY"> F  </i>
   <i type="logical" name="EVENONLY"> F  </i>
   <i type="int" name="LMAXFOCK">     0</i>
   <i type="int" name="NMAXFOCKAE">     0</i>
   <i type="logical" name="LFOCKAEDFT"> F  </i>
   <i name="HFSCREEN">      0.00000000</i>
   <i name="HFSCREENC">      0.00000000</i>
   <i type="int" name="NBANDSGWLOW">     0</i>
  </separator>
  <separator name="vdW DFT" >
   <i type="logical" name="LUSE_VDW"> F  </i>
   <i name="Zab_VDW">     -0.84910000</i>
   <i name="PARAM1">      0.12340000</i>
   <i name="PARAM2">      1.00000000</i>
   <i name="PARAM3">      0.00000000</i>
  </separator>
  <separator name="model GW" >
   <i type="int" name="MODEL_GW">     0</i>
   <i name="MODEL_EPS0">     52.19851477</i>
   <i name="MODEL_ALPHA">      1.00000000</i>
  </separator>
  <separator name="linear response parameters" >
   <i type="logical" name="LEPSILON"> F  </i>
   <i type="logical" name="LRPA"> F  </i>
   <i type="logical" name="LNABLA"> F  </i>
   <i type="logical" name="LVEL"> F  </i>
   <i type="int" name="KINTER">     0</i>
   <i name="CSHIFT">      0.10000000</i>
   <i name="OMEGAMAX">     -1.00000000</i>
   <i name="DEG_THRESHOLD">      0.00200000</i>
  </separator>
  <separator name="orbital magnetization" >
   <i type="logical" name="NUCIND"> F  </i>
   <v name="MAGPOS">      0.00000000      0.00000000      0.00000000</v>
   <i type="logical" name="LNICSALL"> T  </i>
   <i type="logical" name="ORBITALMAG"> F  </i>
   <i type="logical" name="LMAGBLOCH"> F  </i>
   <i type="logical" name="LCHIMAG"> F  </i>
   <i type="logical" name="LGAUGE"> T  </i>
   <i type="int" name="MAGATOM">     0</i>
   <v name="MAGDIPOL">      0.00000000      0.00000000      0.00000000</v>
   <v name="AVECCONST">      0.00000000      0.00000000      0.00000000</v>
  </separator>
  <separator name="response functions" >
   <i type="logical" name="LADDER"> F  </i>
   <i type="logical" name="LFXC"> F  </i>
   <i type="logical" name="LHARTREE"> T  </i>
   <i type="int" name="IBSE">     0</i>
   <v type="int" name="KPOINT">    -1     0     0     0</v>
   <i type="logical" name="LTCTE"> F  </i>
   <i type="logical" name="LTETE"> F  </i>
   <i type="logical" name="LTRIPLET"> F  </i>
   <i type="logical" name="LFXCEPS"> F  </i>
   <i type="logical" name="LFXHEG"> F  </i>
   <i type="int" name="NATURALO">     0</i>
   <i type="logical" name="L2ORDER"> F  </i>
   <i type="logical" name="LUSEW"> F  </i>
   <i name="ENCUTGW">     -2.00000000</i>
   <i name="ENCUTGWSOFT">     -2.00000000</i>
   <i name="ENCUTLF">     -1.00000000</i>
   <i type="int" name="LMAXMP2">    -1</i>
   <i name="SCISSOR">      0.00000000</i>
   <i type="int" name="NOMEGA">     0</i>
   <i type="int" name="NOMEGAR">     0</i>
   <i type="int" name="NBANDSGW">    -1</i>
   <i type="int" name="NBANDSO">    -1</i>
   <i type="int" name="NBANDSV">    -1</i>
   <i type="int" name="NELM">   250</i>
   <i type="int" name="NELMHF">     1</i>
   <i type="int" name="DIM">     3</i>
   <i type="int" name="ANTIRES">     0</i>
   <i name="OMEGAMAX">    -30.00000000</i>
   <i name="OMEGAMIN">    -30.00000000</i>
   <i name="OMEGATL">   -200.00000000</i>
   <i type="int" name="OMEGAGRID">     0</i>
   <i name="CSHIFT">     -0.10000000</i>
   <i type="logical" name="SELFENERGY"> F  </i>
   <i type="logical" name="LSPECTRAL"> F  </i>
   <i type="logical" name="LSPECTRALGW"> F  </i>
   <i type="logical" name="LSINGLES"> F  </i>
   <i type="logical" name="LFERMIGW"> F  </i>
   <i type="logical" name="ODDONLYGW"> F  </i>
   <i type="logical" name="EVENONLYGW"> F  </i>
   <i type="int" name="NKREDLFX">     1</i>
   <i type="int" name="NKREDLFY">     1</i>
   <i type="int" name="NKREDLFZ">     1</i>
   <i type="int" name="MAXMEM">  1800</i>
   <i type="int" name="TELESCOPE">     0</i>
   <i type="int" name="TAUPAR">     1</i>
   <i type="int" name="OMEGAPAR">    -1</i>
   <i name="LAMBDA">      1.00000000</i>
  </separator>
  <separator name="External order field" >
   <i name="OFIELD_KAPPA">      0.00000000</i>
   <v name="OFIELD_K">      0.00000000      0.00000000      0.00000000</v>
   <i name="OFIELD_Q6_NEAR">      0.00000000</i>
   <i name="OFIELD_Q6_FAR">      0.00000000</i>
   <i name="OFIELD_A">      0.00000000</i>
  </separator>
 </parameters>
 <atominfo>
  <atoms>       4 </atoms>
  <types>       1 </types>
  <array name="atoms" >
   <dimension dim="1">ion</dimension>
   <field type="string">element</field>
   <field type="int">atomtype</field>
   <set>
    <rc><c>P </c><c>   1</c></rc>
    <rc><c>P </c><c>   1</c></rc>
    <rc><c>P </c><c>   1</c></rc>
    <rc><c>P </c><c>   1</c></rc>
   </set>
  </array>
  <array name="atomtypes" >
   <dimension dim="1">type</dimension>
   <field type="int">atomspertype</field>
   <field type="string">element</field>
   <field>mass</field>
   <field>valence</field>
   <field type="string">pseudopotential</field>
   <set>
    <rc><c>   4</c><c>P </c><c>     30.97400000</c><c>      5.00000000</c><c>  PAW_PBE P 06Sep2000                   </c></rc>
   </set>
  </array>
 </atominfo>
 <structure name="initialpos" >
  <crystal>
   <varray name="basis" >
    <v>       3.52045100       0.00000000       0.00000000 </v>
    <v>       0.00000000       4.93638800      -0.00005300 </v>
    <v>       0.00000000       0.00000000      20.02439000 </v>
   </varray>
   <i name="volume">    347.99009845 </i>
   <varray name="rec_basis" >
    <v>       0.28405451       0.00000000       0.00000000 </v>
    <v>       0.00000000       0.20257727       0.00000000 </v>
    <v>       0.00000000       0.00000054       0.04993910 </v>
   </varray>
  </crystal>
  <varray name="positions" >
   <v>       0.50000000       0.91077300       0.55252100 </v>
   <v>       0.50000000       0.08922700       0.44747900 </v>
   <v>       0.00000000       0.41076900       0.44747900 </v>
   <v>       0.00000000       0.58923100       0.55252100 </v>
  </varray>
 </structure>
 <calculation>
  <scstep>
   <time name="dav">    1.63    1.63</time>
   <time name="total">    1.66    1.66</time>
   <energy>
    <i name="alphaZ">      4.60978932 </i>
    <i name="ewald">   1575.00304880 </i>
    <i name="hartreedc">  -2170.06695128 </i>
    <i name="XCdc">     11.90828424 </i>
    <i name="pawpsdc">    559.04011960 </i>
    <i name="pawaedc">   -526.39432044 </i>
    <i name="eentropy">     -0.00058964 </i>
    <i name="bandstr">    -30.14231557 </i>
    <i name="atom">    704.16778566 </i>
    <i name="e_fr_energy">    128.12485070 </i>
    <i name="e_wo_entrp">    128.12544034 </i>
    <i name="e_0_energy">    128.12514552 </i>
   </energy>
  </scstep>
  <scstep>
   <time name="dav">    2.17    2.18</time>
   <time name="total">    2.18    2.18</time>
   <energy>
    <i name="e_fr_energy">     -5.06265748 </i>
    <i name="e_wo_entrp">     -5.06265748 </i>
    <i name="e_0_energy">     -5.06265748 </i>
   </energy>
  </scstep>
  <scstep>
   <time name="dav">    2.01    2.01</time>
   <time name="total">    2.01    2.02</time>
   <energy>
    <i name="e_fr_energy">    -20.83755903 </i>
    <i name="e_wo_entrp">    -20.83755903 </i>
    <i name="e_0_energy">    -20.83755903 </i>
   </energy>
  </scstep>
  <scstep>
   <time name="dav">    2.01    2.01</time>
   <time name="total">    2.02    2.02</time>
   <energy>
    <i name="e_fr_energy">    -21.17166567 </i>
    <i name="e_wo_entrp">    -21.17166567 </i>
    <i name="e_0_energy">    -21.17166567 </i>
   </energy>
  </scstep>
  <scstep>
   <time name="dav">    2.17    2.17</time>
   <time name="total">    2.27    2.27</time>
   <energy>
    <i name="e_fr_energy">    -21.18194062 </i>
    <i name="e_wo_entrp">    -21.18194062 </i>
    <i name="e_0_energy">    -21.18194062 </i>
   </energy>
  </scstep>
  <scstep>
   <time name="dav">    1.97    1.97</time>
   <time name="total">    2.09    2.10</time>
   <energy>
    <i name="e_fr_energy">    -21.08934374 </i>
    <i name="e_wo_entrp">    -21.08934374 </i>
    <i name="e_0_energy">    -21.08934374 </i>
   </energy>
  </scstep>
  <scstep>
   <time name="dav">    1.90    1.90</time>
   <time name="total">    2.03    2.03</time>
   <energy>
    <i name="e_fr_energy">    -21.04097618 </i>
    <i name="e_wo_entrp">    -21.04097618 </i>
    <i name="e_0_energy">    -21.04097618 </i>
   </energy>
  </scstep>
  <scstep>
   <time name="dav">    2.01    2.01</time>
   <time name="total">    2.13    2.13</time>
   <energy>
    <i name="e_fr_energy">    -21.04131374 </i>
    <i name="e_wo_entrp">    -21.04131374 </i>
    <i name="e_0_energy">    -21.04131374 </i>
   </energy>
  </scstep>
  <scstep>
   <time name="dav">    2.24    2.24</time>
   <time name="total">    2.36    2.36</time>
   <energy>
    <i name="e_fr_energy">    -21.04131947 </i>
    <i name="e_wo_entrp">    -21.04131947 </i>
    <i name="e_0_energy">    -21.04131947 </i>
   </energy>
  </scstep>
  <scstep>
   <time name="dav">    2.03    2.03</time>
   <time name="total">    2.05    2.06</time>
   <energy>
    <i name="alphaZ">      4.60978932 </i>
    <i name="ewald">   1575.00304880 </i>
    <i name="hartreedc">  -2179.70809716 </i>
    <i name="XCdc">     12.77411577 </i>
    <i name="pawpsdc">   1632.81691690 </i>
    <i name="pawaedc">  -1600.34173825 </i>
    <i name="eentropy">     -0.00000000 </i>
    <i name="bandstr">   -170.36313160 </i>
    <i name="atom">    704.16778566 </i>
    <i name="e_fr_energy">    -21.04131056 </i>
    <i name="e_wo_entrp">    -21.04131056 </i>
    <i name="e_0_energy">    -21.04131056 </i>
   </energy>
  </scstep>
  <structure>
   <crystal>
    <varray name="basis" >
     <v>       3.52045100       0.00000000       0.00000000 </v>
     <v>       0.00000000       4.93638800      -0.00005300 </v>
     <v>       0.00000000       0.00000000      20.02439000 </v>
    </varray>
    <i name="volume">    347.99009845 </i>
    <varray name="rec_basis" >
     <v>       0.28405451       0.00000000       0.00000000 </v>
     <v>       0.00000000       0.20257727       0.00000000 </v>
     <v>       0.00000000       0.00000054       0.04993910 </v>
    </varray>
   </crystal>
   <varray name="positions" >
    <v>       0.50000000       0.91077300       0.55252100 </v>
    <v>       0.50000000       0.08922700       0.44747900 </v>
    <v>       0.00000000       0.41076900       0.44747900 </v>
    <v>       0.00000000       0.58923100       0.55252100 </v>
   </varray>
  </structure>
  <varray name="forces" >
   <v>       0.00000149      -0.86872997      -0.26313720 </v>
   <v>      -0.00000149       0.86872997       0.26313720 </v>
   <v>      -0.00000118      -0.86873985       0.26315795 </v>
   <v>       0.00000118       0.86873985      -0.26315795 </v>
  </varray>
  <varray name="stress" >
   <v>     -30.11763550       0.00003309       0.00000015 </v>
   <v>       0.00003306     -23.46451345       0.00034286 </v>
   <v>       0.00000015       0.00034288      -4.37207719 </v>
  </varray>
  <energy>
   <i name="e_fr_energy">    -21.04131056 </i>
   <i name="e_wo_entrp">    -21.04131056 </i>
   <i name="e_0_energy">     -0.00000000 </i>
  </energy>
  <time name="totalsc">   21.67   21.70</time>
 </calculation>
 <calculation>
  <scstep>
   <time name="dav">    1.73    1.73</time>
   <time name="total">    1.85    1.86</time>
   <energy>
    <i name="alphaZ">      4.60978932 </i>
    <i name="ewald">   1584.15563717 </i>
    <i name="hartreedc">  -2188.18047681 </i>
    <i name="XCdc">     12.92954358 </i>
    <i name="pawpsdc">   1634.10775204 </i>
    <i name="pawaedc">  -1601.63204836 </i>
    <i name="eentropy">     -0.00000000 </i>
    <i name="bandstr">   -171.26824809 </i>
    <i name="atom">    704.16778566 </i>
    <i name="e_fr_energy">    -21.11026550 </i>
    <i name="e_wo_entrp">    -21.11026550 </i>
    <i name="e_0_energy">    -21.11026550 </i>
   </energy>
  </scstep>
  <scstep>
   <time name="dav">    1.99    1.99</time>
   <time name="total">    2.11    2.12</time>
   <energy>
    <i name="e_fr_energy">    -21.11825193 </i>
    <i name="e_wo_entrp">    -21.11825193 </i>
    <i name="e_0_energy">    -21.11825193 </i>
   </energy>
  </scstep>
  <scstep>
   <time name="dav">    2.20    2.20</time>
   <time name="total">    2.32    2.32</time>
   <energy>
    <i name="e_fr_energy">    -21.11842847 </i>
    <i name="e_wo_entrp">    -21.11842847 </i>
    <i name="e_0_energy">    -21.11842847 </i>
   </energy>
  </scstep>
  <scstep>
   <time name="dav">    2.23    2.23</time>
   <time name="total">    2.36    2.36</time>
   <energy>
    <i name="e_fr_energy">    -21.11850886 </i>
    <i name="e_wo_entrp">    -21.11850886 </i>
    <i name="e_0_energy">    -21.11850886 </i>
   </energy>
  </scstep>
  <scstep>
   <time name="dav">    1.91    1.91</time>
   <time name="total">    2.03    2.04</time>
   <energy>
    <i name="e_fr_energy">    -21.11863039 </i>
    <i name="e_wo_entrp">    -21.11863039 </i>
    <i name="e_0_energy">    -21.11863039 </i>
   </energy>
  </scstep>
  <scstep>
   <time name="dav">    1.69    1.69</time>
   <time name="total">    1.81    1.81</time>
   <energy>
    <i name="e_fr_energy">    -21.11867177 </i>
    <i name="e_wo_entrp">    -21.11867177 </i>
    <i name="e_0_energy">    -21.11867177 </i>
   </energy>
  </scstep>
  <scstep>
   <time name="dav">    1.54    1.54</time>
   <time name="total">    1.66    1.66</time>
   <energy>
    <i name="e_fr_energy">    -21.11869746 </i>
    <i name="e_wo_entrp">    -21.11869746 </i>
    <i name="e_0_energy">    -21.11869746 </i>
   </energy>
  </scstep>
  <scstep>
   <time name="dav">    1.70    1.71</time>
   <time name="total">    1.83    1.83</time>
   <energy>
    <i name="e_fr_energy">    -21.11874130 </i>
    <i name="e_wo_entrp">    -21.11874130 </i>
    <i name="e_0_energy">    -21.11874130 </i>
   </energy>
  </scstep>
  <scstep>
   <time name="dav">    1.67    1.67</time>
   <time name="total">    1.79    1.79</time>
   <energy>
    <i name="e_fr_energy">    -21.11877307 </i>
    <i name="e_wo_entrp">    -21.11877307 </i>
    <i name="e_0_energy">    -21.11877307 </i>
   </energy>
  </scstep>
  <scstep>
   <time name="dav">    1.69    1.69</time>
   <time name="total">    1.71    1.71</time>
   <energy>
    <i name="alphaZ">      4.60978932 </i>
    <i name="ewald">   1584.15563717 </i>
    <i name="hartreedc">  -2188.82812168 </i>
    <i name="XCdc">     12.94382483 </i>
    <i name="pawpsdc">   1700.08179627 </i>
    <i name="pawaedc">  -1667.62941506 </i>
    <i name="eentropy">     -0.00000000 </i>
    <i name="bandstr">   -170.62007100 </i>
    <i name="atom">    704.16778566 </i>
    <i name="e_fr_energy">    -21.11877449 </i>
    <i name="e_wo_entrp">    -21.11877449 </i>
    <i name="e_0_energy">    -21.11877449 </i>
   </energy>
  </scstep>
  <structure>
   <crystal>
    <varray name="basis" >
     <v>       3.52045100       0.00000000       0.00000000 </v>
     <v>       0.00000000       4.93638800      -0.00005300 </v>
     <v>       0.00000000       0.00000000      20.02439000 </v>
    </varray>
    <i name="volume">    347.99009845 </i>
    <varray name="rec_basis" >
     <v>       0.28405451       0.00000000       0.00000000 </v>
     <v>       0.00000000       0.20257727       0.00000000 </v>
     <v>       0.00000000       0.00000054       0.04993910 </v>
    </varray>
   </crystal>
   <varray name="positions" >
    <v>       0.50000001       0.90567901       0.55214062 </v>
    <v>       0.49999999       0.09432099       0.44785938 </v>
    <v>      -0.00000001       0.40567495       0.44785939 </v>
    <v>       0.00000001       0.59432505       0.55214061 </v>
   </varray>
  </structure>
  <varray name="forces" >
   <v>      -0.00000012      -0.50423893      -0.23357290 </v>
   <v>       0.00000012       0.50423893       0.23357290 </v>
   <v>      -0.00000013      -0.50424629       0.23358330 </v>
   <v>       0.00000013       0.50424629      -0.23358330 </v>
  </varray>
  <varray name="stress" >
   <v>     -30.33067666       0.00000104      -0.00000304 </v>
   <v>       0.00000109     -18.22387055       0.00024110 </v>
   <v>      -0.00000297       0.00024111      -4.54325775 </v>
  </varray>
  <energy>
   <i name="e_fr_energy">    -21.11877449 </i>
   <i name="e_wo_entrp">    -21.11877449 </i>
   <i name="e_0_energy">     -0.00000000 </i>
  </energy>
  <time name="totalsc">   20.34   20.37</time>
 </calculation>
 <calculation>
  <scstep>
   <time name="dav">    1.75    1.75</time>
   <time name="total">    1.87    1.87</time>
   <energy>
    <i name="alphaZ">      4.60978932 </i>
    <i name="ewald">   1595.16556523 </i>
    <i name="hartreedc">  -2198.38758221 </i>
    <i name="XCdc">     13.11689857 </i>
    <i name="pawpsdc">   1700.00422173 </i>
    <i name="pawaedc">  -1667.55184408 </i>
    <i name="eentropy">     -0.00000000 </i>
    <i name="bandstr">   -172.27188833 </i>
    <i name="atom">    704.16778566 </i>
    <i name="e_fr_energy">    -21.14705412 </i>
    <i name="e_wo_entrp">    -21.14705412 </i>
    <i name="e_0_energy">    -21.14705412 </i>
   </energy>
  </scstep>
  <scstep>
   <time name="dav">    2.01    2.02</time>
   <time name="total">    2.14    2.14</time>
   <energy>
    <i name="e_fr_energy">    -21.15837811 </i>
    <i name="e_wo_entrp">    -21.15837811 </i>
    <i name="e_0_energy">    -21.15837811 </i>
   </energy>
  </scstep>
  <scstep>
   <time name="dav">    2.18    2.18</time>
   <time name="total">    2.30    2.31</time>
   <energy>
    <i name="e_fr_energy">    -21.15849685 </i>
    <i name="e_wo_entrp">    -21.15849685 </i>
    <i name="e_0_energy">    -21.15849685 </i>
   </energy>
  </scstep>
  <scstep>
   <time name="dav">    2.24    2.24</time>
   <time name="total">    2.36    2.37</time>
   <energy>
    <i name="e_fr_energy">    -21.15847325 </i>
    <i name="e_wo_entrp">    -21.15847325 </i>
    <i name="e_0_energy">    -21.15847325 </i>
   </energy>
  </scstep>
  <scstep>
   <time name="dav">    1.94    1.94</time>
   <time name="total">    2.06    2.06</time>
   <energy>
    <i name="e_fr_energy">    -21.15848260 </i>
    <i name="e_wo_entrp">    -21.15848260 </i>
    <i name="e_0_energy">    -21.15848260 </i>
   </energy>
  </scstep>
  <scstep>
   <time name="dav">    1.52    1.52</time>
   <time name="total">    1.54    1.54</time>
   <energy>
    <i name="alphaZ">      4.60978932 </i>
    <i name="ewald">   1595.16556523 </i>
    <i name="hartreedc">  -2198.33947125 </i>
    <i name="XCdc">     13.12828801 </i>
    <i name="pawpsdc">   1782.83912907 </i>
    <i name="pawaedc">  -1750.41745250 </i>
    <i name="eentropy">     -0.00000000 </i>
    <i name="bandstr">   -172.31211635 </i>
    <i name="atom">    704.16778566 </i>
    <i name="e_fr_energy">    -21.15848282 </i>
    <i name="e_wo_entrp">    -21.15848282 </i>
    <i name="e_0_energy">    -21.15848282 </i>
   </energy>
  </scstep>
  <structure>
   <crystal>
    <varray name="basis" >
     <v>       3.52045100       0.00000000       0.00000000 </v>
     <v>       0.00000000       4.93638800      -0.00005300 </v>
     <v>       0.00000000       0.00000000      20.02439000 </v>
    </varray>
    <i name="volume">    347.99009845 </i>
    <varray name="rec_basis" >
     <v>       0.28405451       0.00000000       0.00000000 </v>
     <v>       0.00000000       0.20257727       0.00000000 </v>
     <v>       0.00000000       0.00000054       0.04993910 </v>
    </varray>
   </crystal>
   <varray name="positions" >
    <v>       0.50000003       0.89962719       0.55168871 </v>
    <v>       0.49999997       0.10037281       0.44831129 </v>
    <v>      -0.00000002       0.39962306       0.44831130 </v>
    <v>       0.00000002       0.60037694       0.55168870 </v>
   </varray>
  </structure>
  <varray name="forces" >
   <v>      -0.00000014      -0.01585161      -0.21041172 </v>
   <v>       0.00000014       0.01585161       0.21041172 </v>
   <v>       0.00000042      -0.01585630       0.21040942 </v>
   <v>      -0.00000042       0.01585630      -0.21040942 </v>
  </varray>
  <varray name="stress" >
   <v>     -29.66841055      -0.00000164      -0.00000653 </v>
   <v>      -0.00000166     -11.58319839       0.00015859 </v>
   <v>      -0.00000651       0.00015861      -4.17695403 </v>
  </varray>
  <energy>
   <i name="e_fr_energy">    -21.15848282 </i>
   <i name="e_wo_entrp">    -21.15848282 </i>
   <i name="e_0_energy">     -0.00000000 </i>
  </energy>
  <time name="totalsc">   13.14   13.16</time>
 </calculation>
 <calculation>
  <scstep>
   <time name="dav">    1.75    1.75</time>
   <time name="total">    1.87    1.87</time>
   <energy>
    <i name="alphaZ">      4.60978932 </i>
    <i name="ewald">   1596.94749729 </i>
    <i name="hartreedc">  -2199.85883494 </i>
    <i name="XCdc">     13.15604677 </i>
    <i name="pawpsdc">   1783.44799057 </i>
    <i name="pawaedc">  -1751.02628350 </i>
    <i name="eentropy">     -0.00000000 </i>
    <i name="bandstr">   -172.60290648 </i>
    <i name="atom">    704.16778566 </i>
    <i name="e_fr_energy">    -21.15891531 </i>
    <i name="e_wo_entrp">    -21.15891531 </i>
    <i name="e_0_energy">    -21.15891531 </i>
   </energy>
  </scstep>
  <scstep>
   <time name="dav">    2.03    2.03</time>
   <time name="total">    2.15    2.15</time>
   <energy>
    <i name="e_fr_energy">    -21.15922168 </i>
    <i name="e_wo_entrp">    -21.15922168 </i>
    <i name="e_0_energy">    -21.15922168 </i>
   </energy>
  </scstep>
  <scstep>
   <time name="dav">    2.16    2.16</time>
   <time name="total">    2.28    2.29</time>
   <energy>
    <i name="e_fr_energy">    -21.15922929 </i>
    <i name="e_wo_entrp">    -21.15922929 </i>
    <i name="e_0_energy">    -21.15922929 </i>
   </energy>
  </scstep>
  <scstep>
   <time name="dav">    1.53    1.53</time>
   <time name="total">    1.65    1.65</time>
   <energy>
    <i name="e_fr_energy">    -21.15923279 </i>
    <i name="e_wo_entrp">    -21.15923279 </i>
    <i name="e_0_energy">    -21.15923279 </i>
   </energy>
  </scstep>
  <scstep>
   <time name="dav">    1.47    1.48</time>
   <time name="total">    1.59    1.60</time>
   <energy>
    <i name="e_fr_energy">    -21.15923964 </i>
    <i name="e_wo_entrp">    -21.15923964 </i>
    <i name="e_0_energy">    -21.15923964 </i>
   </energy>
  </scstep>
  <scstep>
   <time name="dav">    1.48    1.48</time>
   <time name="total">    1.50    1.50</time>
   <energy>
    <i name="alphaZ">      4.60978932 </i>
    <i name="ewald">   1596.94749729 </i>
    <i name="hartreedc">  -2199.79323450 </i>
    <i name="XCdc">     13.15712250 </i>
    <i name="pawpsdc">   1797.40198978 </i>
    <i name="pawaedc">  -1764.98540604 </i>
    <i name="eentropy">     -0.00000000 </i>
    <i name="bandstr">   -172.66478843 </i>
    <i name="atom">    704.16778566 </i>
    <i name="e_fr_energy">    -21.15924442 </i>
    <i name="e_wo_entrp">    -21.15924442 </i>
    <i name="e_0_energy">    -21.15924442 </i>
   </energy>
  </scstep>
  <structure>
   <crystal>
    <varray name="basis" >
     <v>       3.52045100       0.00000000       0.00000000 </v>
     <v>       0.00000000       4.93638800      -0.00005300 </v>
     <v>       0.00000000       0.00000000      20.02439000 </v>
    </varray>
    <i name="volume">    347.99009845 </i>
    <varray name="rec_basis" >
     <v>       0.28405451       0.00000000       0.00000000 </v>
     <v>       0.00000000       0.20257727       0.00000000 </v>
     <v>       0.00000000       0.00000054       0.04993910 </v>
    </varray>
   </crystal>
   <varray name="positions" >
    <v>       0.50000003       0.89865494       0.55161611 </v>
    <v>       0.49999997       0.10134506       0.44838389 </v>
    <v>      -0.00000002       0.39865080       0.44838390 </v>
    <v>       0.00000002       0.60134920       0.55161610 </v>
   </varray>
  </structure>
  <varray name="forces" >
   <v>      -0.00000055       0.06723723      -0.20803885 </v>
   <v>       0.00000055      -0.06723723       0.20803885 </v>
   <v>       0.00000018       0.06723306       0.20803550 </v>
   <v>      -0.00000018      -0.06723306      -0.20803550 </v>
  </varray>
  <varray name="stress" >
   <v>     -29.48840868      -0.00000226      -0.00000673 </v>
   <v>      -0.00000228     -10.47736271       0.00013665 </v>
   <v>      -0.00000669       0.00013664      -4.05124311 </v>
  </varray>
  <energy>
   <i name="e_fr_energy">    -21.15924442 </i>
   <i name="e_wo_entrp">    -21.15924442 </i>
   <i name="e_0_energy">     -0.00000000 </i>
  </energy>
  <time name="totalsc">   11.90   11.92</time>
 </calculation>
 <calculation>
  <scstep>
   <time name="dav">    1.59    1.59</time>
   <time name="total">    1.71    1.71</time>
   <energy>
    <i name="alphaZ">      4.60978932 </i>
    <i name="ewald">   1603.49965242 </i>
    <i name="hartreedc">  -2205.98359593 </i>
    <i name="XCdc">     13.20297965 </i>
    <i name="pawpsdc">   1797.47170929 </i>
    <i name="pawaedc">  -1765.05513516 </i>
    <i name="eentropy">     -0.00000000 </i>
    <i name="bandstr">   -173.07661003 </i>
    <i name="atom">    704.16778566 </i>
    <i name="e_fr_energy">    -21.16342479 </i>
    <i name="e_wo_entrp">    -21.16342479 </i>
    <i name="e_0_energy">    -21.16342479 </i>
   </energy>
  </scstep>
  <scstep>
   <time name="dav">    1.99    2.00</time>
   <time name="total">    2.12    2.12</time>
   <energy>
    <i name="e_fr_energy">    -21.16457779 </i>
    <i name="e_wo_entrp">    -21.16457779 </i>
    <i name="e_0_energy">    -21.16457779 </i>
   </energy>
  </scstep>
  <scstep>
   <time name="dav">    2.17    2.17</time>
   <time name="total">    2.29    2.30</time>
   <energy>
    <i name="e_fr_energy">    -21.16455895 </i>
    <i name="e_wo_entrp">    -21.16455895 </i>
    <i name="e_0_energy">    -21.16455895 </i>
   </energy>
  </scstep>
  <scstep>
   <time name="dav">    1.97    1.98</time>
   <time name="total">    2.10    2.11</time>
   <energy>
    <i name="e_fr_energy">    -21.16455802 </i>
    <i name="e_wo_entrp">    -21.16455802 </i>
    <i name="e_0_energy">    -21.16455802 </i>
   </energy>
  </scstep>
  <scstep>
   <time name="dav">    1.40    1.40</time>
   <time name="total">    1.52    1.52</time>
   <energy>
    <i name="e_fr_energy">    -21.16455826 </i>
    <i name="e_wo_entrp">    -21.16455826 </i>
    <i name="e_0_energy">    -21.16455826 </i>
   </energy>
  </scstep>
  <scstep>
   <time name="dav">    1.28    1.28</time>
   <time name="total">    1.30    1.30</time>
   <energy>
    <i name="alphaZ">      4.60978932 </i>
    <i name="ewald">   1603.49965242 </i>
    <i name="hartreedc">  -2205.98619450 </i>
    <i name="XCdc">     13.20599798 </i>
    <i name="pawpsdc">   1817.70205505 </i>
    <i name="pawaedc">  -1785.29267193 </i>
    <i name="eentropy">     -0.00000000 </i>
    <i name="bandstr">   -173.07097328 </i>
    <i name="atom">    704.16778566 </i>
    <i name="e_fr_energy">    -21.16455927 </i>
    <i name="e_wo_entrp">    -21.16455927 </i>
    <i name="e_0_energy">    -21.16455927 </i>
   </energy>
  </scstep>
  <structure>
   <crystal>
    <varray name="basis" >
     <v>       3.52045100       0.00000000       0.00000000 </v>
     <v>       0.00000000       4.93638800      -0.00005300 </v>
     <v>       0.00000000       0.00000000      20.02439000 </v>
    </varray>
    <i name="volume">    347.99009845 </i>
    <varray name="rec_basis" >
     <v>       0.28405451       0.00000000       0.00000000 </v>
     <v>       0.00000000       0.20257727       0.00000000 </v>
     <v>       0.00000000       0.00000054       0.04993910 </v>
    </varray>
   </crystal>
   <varray name="positions" >
    <v>       0.50000002       0.89875200       0.55120214 </v>
    <v>       0.49999998       0.10124800       0.44879786 </v>
    <v>      -0.00000002       0.39874782       0.44879786 </v>
    <v>       0.00000002       0.60125218       0.55120214 </v>
   </varray>
  </structure>
  <varray name="forces" >
   <v>      -0.00000047       0.03031259      -0.10431749 </v>
   <v>       0.00000047      -0.03031259       0.10431749 </v>
   <v>       0.00000029       0.03030736       0.10431552 </v>
   <v>      -0.00000029      -0.03030736      -0.10431552 </v>
  </varray>
  <varray name="stress" >
   <v>     -29.26726330      -0.00000012      -0.00000746 </v>
   <v>      -0.00000014     -10.19002154       0.00014132 </v>
   <v>      -0.00000750       0.00014124      -2.07925237 </v>
  </varray>
  <energy>
   <i name="e_fr_energy">    -21.16455927 </i>
   <i name="e_wo_entrp">    -21.16455927 </i>
   <i name="e_0_energy">     -0.00000000 </i>
  </energy>
  <time name="totalsc">   11.90   11.93</time>
 </calculation>
 <calculation>
  <scstep>
   <time name="dav">    1.59    1.59</time>
   <time name="total">    1.71    1.71</time>
   <energy>
    <i name="alphaZ">      4.60978932 </i>
    <i name="ewald">   1609.28002569 </i>
    <i name="hartreedc">  -2211.42262988 </i>
    <i name="XCdc">     13.24672950 </i>
    <i name="pawpsdc">   1817.79499723 </i>
    <i name="pawaedc">  -1785.38546548 </i>
    <i name="eentropy">     -0.00000000 </i>
    <i name="bandstr">   -173.45659837 </i>
    <i name="atom">    704.16778566 </i>
    <i name="e_fr_energy">    -21.16536633 </i>
    <i name="e_wo_entrp">    -21.16536633 </i>
    <i name="e_0_energy">    -21.16536633 </i>
   </energy>
  </scstep>
  <scstep>
   <time name="dav">    1.99    2.00</time>
   <time name="total">    2.12    2.12</time>
   <energy>
    <i name="e_fr_energy">    -21.16627494 </i>
    <i name="e_wo_entrp">    -21.16627494 </i>
    <i name="e_0_energy">    -21.16627494 </i>
   </energy>
  </scstep>
  <scstep>
   <time name="dav">    2.18    2.18</time>
   <time name="total">    2.30    2.30</time>
   <energy>
    <i name="e_fr_energy">    -21.16625853 </i>
    <i name="e_wo_entrp">    -21.16625853 </i>
    <i name="e_0_energy">    -21.16625853 </i>
   </energy>
  </scstep>
  <scstep>
   <time name="dav">    1.98    1.98</time>
   <time name="total">    2.10    2.10</time>
   <energy>
    <i name="e_fr_energy">    -21.16625737 </i>
    <i name="e_wo_entrp">    -21.16625737 </i>
    <i name="e_0_energy">    -21.16625737 </i>
   </energy>
  </scstep>
  <scstep>
   <time name="dav">    1.39    1.39</time>
   <time name="total">    1.51    1.51</time>
   <energy>
    <i name="e_fr_energy">    -21.16625731 </i>
    <i name="e_wo_entrp">    -21.16625731 </i>
    <i name="e_0_energy">    -21.16625731 </i>
   </energy>
  </scstep>
  <scstep>
   <time name="dav">    1.28    1.28</time>
   <time name="total">    1.30    1.30</time>
   <energy>
    <i name="alphaZ">      4.60978932 </i>
    <i name="ewald">   1609.28002569 </i>
    <i name="hartreedc">  -2211.43151337 </i>
    <i name="XCdc">     13.24960738 </i>
    <i name="pawpsdc">   1836.24830275 </i>
    <i name="pawaedc">  -1803.84542495 </i>
    <i name="eentropy">     -0.00000000 </i>
    <i name="bandstr">   -173.44483036 </i>
    <i name="atom">    704.16778566 </i>
    <i name="e_fr_energy">    -21.16625787 </i>
    <i name="e_wo_entrp">    -21.16625787 </i>
    <i name="e_0_energy">    -21.16625787 </i>
   </energy>
  </scstep>
  <structure>
   <crystal>
    <varray name="basis" >
     <v>       3.52045100       0.00000000       0.00000000 </v>
     <v>       0.00000000       4.93638800      -0.00005300 </v>
     <v>       0.00000000       0.00000000      20.02439000 </v>
    </varray>
    <i name="volume">    347.99009845 </i>
    <varray name="rec_basis" >
     <v>       0.28405451       0.00000000       0.00000000 </v>
     <v>       0.00000000       0.20257727       0.00000000 </v>
     <v>       0.00000000       0.00000054       0.04993910 </v>
    </varray>
   </crystal>
   <varray name="positions" >
    <v>       0.50000002       0.89883746       0.55083765 </v>
    <v>       0.49999998       0.10116254       0.44916235 </v>
    <v>      -0.00000002       0.39883326       0.44916235 </v>
    <v>       0.00000002       0.60116674       0.55083765 </v>
   </varray>
  </structure>
  <varray name="forces" >
   <v>      -0.00000045      -0.00492330      -0.00775988 </v>
   <v>       0.00000045       0.00492330       0.00775988 </v>
   <v>       0.00000042      -0.00492920       0.00775936 </v>
   <v>      -0.00000042       0.00492920      -0.00775936 </v>
  </varray>
  <varray name="stress" >
   <v>     -29.05342898      -0.00000105      -0.00000648 </v>
   <v>      -0.00000104      -9.89411569       0.00014126 </v>
   <v>      -0.00000646       0.00014136      -0.25129882 </v>
  </varray>
  <energy>
   <i name="e_fr_energy">    -21.16625787 </i>
   <i name="e_wo_entrp">    -21.16625787 </i>
   <i name="e_0_energy">     -0.00000000 </i>
  </energy>
  <time name="totalsc">   11.82   11.84</time>
  <eigenvalues>
   <array>
    <dimension dim="1">band</dimension>
    <dimension dim="2">kpoint</dimension>
    <dimension dim="3">spin</dimension>
    <field>eigene</field>
    <field>occ</field>
    <set>
     <set comment="spin 1">
      <set comment="kpoint 1">
       <r>  -17.0141    1.0000 </r>
       <r>  -14.6456    1.0000 </r>
       <r>  -12.1403    1.0000 </r>
       <r>   -7.8802    1.0000 </r>
       <r>   -7.5315    1.0000 </r>
       <r>   -6.6316    1.0000 </r>
       <r>   -6.4393    1.0000 </r>
       <r>   -4.9252    1.0000 </r>
       <r>   -3.7617    1.0000 </r>
       <r>   -2.6819    1.0000 </r>
       <r>   -1.7724    0.0000 </r>
       <r>   -1.1917    0.0000 </r>
       <r>   -1.1403    0.0000 </r>
       <r>   -0.2731    0.0000 </r>
       <r>    1.9033    0.0000 </r>
       <r>    2.1065    0.0000 </r>
      </set>
      <set comment="kpoint 2">
       <r>  -16.9913    1.0000 </r>
       <r>  -14.6211    1.0000 </r>
       <r>  -12.1547    1.0000 </r>
       <r>   -7.8653    1.0000 </r>
       <r>   -7.5747    1.0000 </r>
       <r>   -6.6123    1.0000 </r>
       <r>   -6.5624    1.0000 </r>
       <r>   -5.0460    1.0000 </r>
       <r>   -3.7667    1.0000 </r>
       <r>   -2.6954    1.0000 </r>
       <r>   -1.5761    0.0000 </r>
       <r>   -1.1734    0.0000 </r>
       <r>   -0.9450    0.0000 </r>
       <r>   -0.3751    0.0000 </r>
       <r>    1.9247    0.0000 </r>
       <r>    2.1348    0.0000 </r>
      </set>
      <set comment="kpoint 3">
       <r>  -16.9230    1.0000 </r>
       <r>  -14.5477    1.0000 </r>
       <r>  -12.2015    1.0000 </r>
       <r>   -7.8214    1.0000 </r>
       <r>   -7.7203    1.0000 </r>
       <r>   -6.8694    1.0000 </r>
       <r>   -6.5549    1.0000 </r>
       <r>   -5.3116    1.0000 </r>
       <r>   -3.7869    1.0000 </r>
       <r>   -2.7400    1.0000 </r>
       <r>   -1.1198    0.0000 </r>
       <r>   -1.0456    0.0000 </r>
       <r>   -0.6270    0.0000 </r>
       <r>   -0.4571    0.0000 </r>
       <r>    1.9565    0.0000 </r>
       <r>    2.2265    0.0000 </r>
      </set>
      <set comment="kpoint 4">
       <r>  -16.8095    1.0000 </r>
       <r>  -14.4255    1.0000 </r>
       <r>  -12.2904    1.0000 </r>
       <r>   -8.0006    1.0000 </r>
       <r>   -7.7517    1.0000 </r>
       <r>   -7.2431    1.0000 </r>
       <r>   -6.4609    1.0000 </r>
       <r>   -5.5565    1.0000 </r>
       <r>   -3.8382    1.0000 </r>
       <r>   -2.8223    1.0000 </r>
       <r>   -1.0355    0.0000 </r>
       <r>   -0.9209    0.0000 </r>
       <r>   -0.2954    0.0000 </r>
       <r>    0.1139    0.0000 </r>
       <r>    1.6796    0.0000 </r>
       <r>    2.1952    0.0000 </r>
      </set>
      <set comment="kpoint 5">
       <r>  -16.6517    1.0000 </r>
       <r>  -14.2548    1.0000 </r>
       <r>  -12.4350    1.0000 </r>
       <r>   -8.4217    1.0000 </r>
       <r>   -7.6621    1.0000 </r>
       <r>   -7.5903    1.0000 </r>
       <r>   -6.3330    1.0000 </r>
       <r>   -5.6897    1.0000 </r>
       <r>   -3.9412    1.0000 </r>
       <r>   -2.9479    1.0000 </r>
       <r>   -1.1611    0.0000 </r>
       <r>   -0.9321    0.0000 </r>
       <r>    0.4526    0.0000 </r>
       <r>    0.5670    0.0000 </r>
       <r>    1.2279    0.0000 </r>
       <r>    2.2140    0.0000 </r>
      </set>
      <set comment="kpoint 6">
       <r>  -16.4505    1.0000 </r>
       <r>  -14.0359    1.0000 </r>
       <r>  -12.6466    1.0000 </r>
       <r>   -8.9448    1.0000 </r>
       <r>   -7.8550    1.0000 </r>
       <r>   -7.5624    1.0000 </r>
       <r>   -6.1759    1.0000 </r>
       <r>   -5.7096    1.0000 </r>
       <r>   -4.1051    1.0000 </r>
       <r>   -3.1205    1.0000 </r>
       <r>   -1.2874    0.0000 </r>
       <r>   -0.8372    0.0000 </r>
       <r>    0.3003    0.0000 </r>
       <r>    0.8082    0.0000 </r>
       <r>    1.3635    0.0000 </r>
       <r>    2.4187    0.0000 </r>
      </set>
      <set comment="kpoint 7">
       <r>  -16.2074    1.0000 </r>
       <r>  -13.7696    1.0000 </r>
       <r>  -12.9279    1.0000 </r>
       <r>   -9.5186    1.0000 </r>
       <r>   -8.0116    1.0000 </r>
       <r>   -7.4686    1.0000 </r>
       <r>   -5.9967    1.0000 </r>
       <r>   -5.6514    1.0000 </r>
       <r>   -4.3094    1.0000 </r>
       <r>   -3.3387    1.0000 </r>
       <r>   -1.2812    0.0000 </r>
       <r>   -0.8143    0.0000 </r>
       <r>   -0.1082    0.0000 </r>
       <r>    0.5220    0.0000 </r>
       <r>    1.5732    0.0000 </r>
       <r>    2.5907    0.0000 </r>
      </set>
      <set comment="kpoint 8">
       <r>  -15.9245    1.0000 </r>
       <r>  -13.4564    1.0000 </r>
       <r>  -13.2696    1.0000 </r>
       <r>  -10.1058    1.0000 </r>
       <r>   -8.0588    1.0000 </r>
       <r>   -7.4035    1.0000 </r>
       <r>   -5.8061    1.0000 </r>
       <r>   -5.5513    1.0000 </r>
       <r>   -4.5047    1.0000 </r>
       <r>   -3.5934    1.0000 </r>
       <r>   -1.1565    0.0000 </r>
       <r>   -0.9340    0.0000 </r>
       <r>   -0.5526    0.0000 </r>
       <r>    0.4646    0.0000 </r>
       <r>    1.2899    0.0000 </r>
       <r>    2.5062    0.0000 </r>
      </set>
      <set comment="kpoint 9">
       <r>  -15.6047    1.0000 </r>
       <r>  -13.6536    1.0000 </r>
       <r>  -13.0974    1.0000 </r>
       <r>  -10.6834    1.0000 </r>
       <r>   -8.0121    1.0000 </r>
       <r>   -7.3937    1.0000 </r>
       <r>   -5.6205    1.0000 </r>
       <r>   -5.4416    1.0000 </r>
       <r>   -4.6341    1.0000 </r>
       <r>   -3.8681    1.0000 </r>
       <r>   -1.1495    0.0000 </r>
       <r>   -0.9481    0.0000 </r>
       <r>   -0.9374    0.0000 </r>
       <r>    0.6119    0.0000 </r>
       <r>    0.9028    0.0000 </r>
       <r>    2.2489    0.0000 </r>
      </set>
      <set comment="kpoint 10">
       <r>  -15.2517    1.0000 </r>
       <r>  -14.0599    1.0000 </r>
       <r>  -12.6939    1.0000 </r>
       <r>  -11.2380    1.0000 </r>
       <r>   -7.8965    1.0000 </r>
       <r>   -7.4560    1.0000 </r>
       <r>   -5.4617    1.0000 </r>
       <r>   -5.3541    1.0000 </r>
       <r>   -4.6571    1.0000 </r>
       <r>   -4.1404    1.0000 </r>
       <r>   -1.3479    0.0000 </r>
       <r>   -1.2490    0.0000 </r>
       <r>   -0.6460    0.0000 </r>
       <r>    0.4920    0.0000 </r>
       <r>    0.8744    0.0000 </r>
       <r>    1.9131    0.0000 </r>
      </set>
      <set comment="kpoint 11">
       <r>  -14.8711    1.0000 </r>
       <r>  -14.4704    1.0000 </r>
       <r>  -12.2476    1.0000 </r>
       <r>  -11.7612    1.0000 </r>
       <r>   -7.7416    1.0000 </r>
       <r>   -7.5823    1.0000 </r>
       <r>   -5.3548    1.0000 </r>
       <r>   -5.3188    1.0000 </r>
       <r>   -4.5664    1.0000 </r>
       <r>   -4.3835    1.0000 </r>
       <r>   -1.4523    0.0000 </r>
       <r>   -1.4226    0.0000 </r>
       <r>   -0.3001    0.0000 </r>
       <r>    0.0847    0.0000 </r>
       <r>    1.1976    0.0000 </r>
       <r>    1.5521    0.0000 </r>
      </set>
      <set comment="kpoint 12">
       <r>  -16.9960    1.0000 </r>
       <r>  -14.6889    1.0000 </r>
       <r>  -12.1063    1.0000 </r>
       <r>   -8.1523    1.0000 </r>
       <r>   -7.2807    1.0000 </r>
       <r>   -6.5778    1.0000 </r>
       <r>   -6.4251    1.0000 </r>
       <r>   -4.9440    1.0000 </r>
       <r>   -3.7246    1.0000 </r>
       <r>   -2.8080    1.0000 </r>
       <r>   -1.7564    0.0000 </r>
       <r>   -1.1872    0.0000 </r>
       <r>   -1.0694    0.0000 </r>
       <r>   -0.2646    0.0000 </r>
       <r>    1.9440    0.0000 </r>
       <r>    2.1295    0.0000 </r>
      </set>
      <set comment="kpoint 13">
       <r>  -16.9732    1.0000 </r>
       <r>  -14.6648    1.0000 </r>
       <r>  -12.1200    1.0000 </r>
       <r>   -8.1533    1.0000 </r>
       <r>   -7.3077    1.0000 </r>
       <r>   -6.6228    1.0000 </r>
       <r>   -6.4839    1.0000 </r>
       <r>   -5.0669    1.0000 </r>
       <r>   -3.7317    1.0000 </r>
       <r>   -2.8184    1.0000 </r>
       <r>   -1.5611    0.0000 </r>
       <r>   -1.0541    0.0000 </r>
       <r>   -0.9915    0.0000 </r>
       <r>   -0.3603    0.0000 </r>
       <r>    1.9643    0.0000 </r>
       <r>    2.1582    0.0000 </r>
      </set>
      <set comment="kpoint 14">
       <r>  -16.9050    1.0000 </r>
       <r>  -14.5925    1.0000 </r>
       <r>  -12.1643    1.0000 </r>
       <r>   -8.1720    1.0000 </r>
       <r>   -7.3906    1.0000 </r>
       <r>   -6.8974    1.0000 </r>
       <r>   -6.4597    1.0000 </r>
       <r>   -5.3358    1.0000 </r>
       <r>   -3.7588    1.0000 </r>
       <r>   -2.8537    1.0000 </r>
       <r>   -1.0461    0.0000 </r>
       <r>   -0.9969    0.0000 </r>
       <r>   -0.6298    0.0000 </r>
       <r>   -0.4676    0.0000 </r>
       <r>    1.9646    0.0000 </r>
       <r>    2.1429    0.0000 </r>
      </set>
      <set comment="kpoint 15">
       <r>  -16.7917    1.0000 </r>
       <r>  -14.4724    1.0000 </r>
       <r>  -12.2491    1.0000 </r>
       <r>   -8.2741    1.0000 </r>
       <r>   -7.5022    1.0000 </r>
       <r>   -7.2662    1.0000 </r>
       <r>   -6.3730    1.0000 </r>
       <r>   -5.5810    1.0000 </r>
       <r>   -3.8209    1.0000 </r>
       <r>   -2.9215    1.0000 </r>
       <r>   -0.9411    0.0000 </r>
       <r>   -0.8844    0.0000 </r>
       <r>   -0.2873    0.0000 </r>
       <r>    0.0943    0.0000 </r>
       <r>    1.5922    0.0000 </r>
       <r>    2.1937    0.0000 </r>
      </set>
      <set comment="kpoint 16">
       <r>  -16.6340    1.0000 </r>
       <r>  -14.3056    1.0000 </r>
       <r>  -12.3875    1.0000 </r>
       <r>   -8.5603    1.0000 </r>
       <r>   -7.6123    1.0000 </r>
       <r>   -7.5532    1.0000 </r>
       <r>   -6.2508    1.0000 </r>
       <r>   -5.7125    1.0000 </r>
       <r>   -3.9356    1.0000 </r>
       <r>   -3.0297    1.0000 </r>
       <r>   -1.1033    0.0000 </r>
       <r>   -0.8540    0.0000 </r>
       <r>    0.4634    0.0000 </r>
       <r>    0.5374    0.0000 </r>
       <r>    1.1703    0.0000 </r>
       <r>    2.2153    0.0000 </r>
      </set>
      <set comment="kpoint 17">
       <r>  -16.4331    1.0000 </r>
       <r>  -14.0944    1.0000 </r>
       <r>  -12.5896    1.0000 </r>
       <r>   -9.0206    1.0000 </r>
       <r>   -7.8765    1.0000 </r>
       <r>   -7.5201    1.0000 </r>
       <r>   -6.1008    1.0000 </r>
       <r>   -5.7350    1.0000 </r>
       <r>   -4.1058    1.0000 </r>
       <r>   -3.1839    1.0000 </r>
       <r>   -1.2123    0.0000 </r>
       <r>   -0.7783    0.0000 </r>
       <r>    0.3453    0.0000 </r>
       <r>    0.6382    0.0000 </r>
       <r>    1.4771    0.0000 </r>
       <r>    2.3946    0.0000 </r>
      </set>
      <set comment="kpoint 18">
       <r>  -16.1905    1.0000 </r>
       <r>  -13.8464    1.0000 </r>
       <r>  -12.8514    1.0000 </r>
       <r>   -9.5675    1.0000 </r>
       <r>   -8.0319    1.0000 </r>
       <r>   -7.4524    1.0000 </r>
       <r>   -5.9320    1.0000 </r>
       <r>   -5.6904    1.0000 </r>
       <r>   -4.3034    1.0000 </r>
       <r>   -3.3831    1.0000 </r>
       <r>   -1.1971    0.0000 </r>
       <r>   -0.7809    0.0000 </r>
       <r>   -0.0490    0.0000 </r>
       <r>    0.3815    0.0000 </r>
       <r>    1.7326    0.0000 </r>
       <r>    2.5516    0.0000 </r>
      </set>
      <set comment="kpoint 19">
       <r>  -15.9083    1.0000 </r>
       <r>  -13.6116    1.0000 </r>
       <r>  -13.1145    1.0000 </r>
       <r>  -10.1415    1.0000 </r>
       <r>   -8.0769    1.0000 </r>
       <r>   -7.3952    1.0000 </r>
       <r>   -5.7578    1.0000 </r>
       <r>   -5.6194    1.0000 </r>
       <r>   -4.4735    1.0000 </r>
       <r>   -3.6171    1.0000 </r>
       <r>   -1.0785    0.0000 </r>
       <r>   -0.9310    0.0000 </r>
       <r>   -0.4818    0.0000 </r>
       <r>    0.3341    0.0000 </r>
       <r>    1.4870    0.0000 </r>
       <r>    2.4629    0.0000 </r>
      </set>
      <set comment="kpoint 20">
       <r>  -15.5894    1.0000 </r>
       <r>  -13.7071    1.0000 </r>
       <r>  -13.0446    1.0000 </r>
       <r>  -10.7113    1.0000 </r>
       <r>   -8.0268    1.0000 </r>
       <r>   -7.3865    1.0000 </r>
       <r>   -5.5980    1.0000 </r>
       <r>   -5.5497    1.0000 </r>
       <r>   -4.5614    1.0000 </r>
       <r>   -3.8665    1.0000 </r>
       <r>   -1.1638    0.0000 </r>
       <r>   -0.9986    0.0000 </r>
       <r>   -0.7438    0.0000 </r>
       <r>    0.4420    0.0000 </r>
       <r>    1.1612    0.0000 </r>
       <r>    2.2085    0.0000 </r>
      </set>
      <set comment="kpoint 21">
       <r>  -15.2381    1.0000 </r>
       <r>  -14.0677    1.0000 </r>
       <r>  -12.6879    1.0000 </r>
       <r>  -11.2600    1.0000 </r>
       <r>   -7.9065    1.0000 </r>
       <r>   -7.4504    1.0000 </r>
       <r>   -5.4880    1.0000 </r>
       <r>   -5.4788    1.0000 </r>
       <r>   -4.5496    1.0000 </r>
       <r>   -4.1054    1.0000 </r>
       <r>   -1.3649    0.0000 </r>
       <r>   -1.2445    0.0000 </r>
       <r>   -0.5220    0.0000 </r>
       <r>    0.4502    0.0000 </r>
       <r>    1.0094    0.0000 </r>
       <r>    1.8807    0.0000 </r>
      </set>
      <set comment="kpoint 22">
       <r>  -14.8604    1.0000 </r>
       <r>  -14.4652    1.0000 </r>
       <r>  -12.2563    1.0000 </r>
       <r>  -11.7775    1.0000 </r>
       <r>   -7.7461    1.0000 </r>
       <r>   -7.5809    1.0000 </r>
       <r>   -5.4374    1.0000 </r>
       <r>   -5.4248    1.0000 </r>
       <r>   -4.4586    1.0000 </r>
       <r>   -4.3080    1.0000 </r>
       <r>   -1.4633    0.0000 </r>
       <r>   -1.4237    0.0000 </r>
       <r>   -0.1942    0.0000 </r>
       <r>    0.1600    0.0000 </r>
       <r>    1.2134    0.0000 </r>
       <r>    1.5347    0.0000 </r>
      </set>
      <set comment="kpoint 23">
       <r>  -14.8604    1.0000 </r>
       <r>  -14.4652    1.0000 </r>
       <r>  -12.2563    1.0000 </r>
       <r>  -11.7775    1.0000 </r>
       <r>   -7.7461    1.0000 </r>
       <r>   -7.5809    1.0000 </r>
       <r>   -5.4374    1.0000 </r>
       <r>   -5.4248    1.0000 </r>
       <r>   -4.4586    1.0000 </r>
       <r>   -4.3080    1.0000 </r>
       <r>   -1.4633    0.0000 </r>
       <r>   -1.4237    0.0000 </r>
       <r>   -0.1942    0.0000 </r>
       <r>    0.1600    0.0000 </r>
       <r>    1.2134    0.0000 </r>
       <r>    1.5347    0.0000 </r>
      </set>
      <set comment="kpoint 24">
       <r>  -15.2381    1.0000 </r>
       <r>  -14.0677    1.0000 </r>
       <r>  -12.6879    1.0000 </r>
       <r>  -11.2600    1.0000 </r>
       <r>   -7.9065    1.0000 </r>
       <r>   -7.4504    1.0000 </r>
       <r>   -5.4880    1.0000 </r>
       <r>   -5.4788    1.0000 </r>
       <r>   -4.5496    1.0000 </r>
       <r>   -4.1054    1.0000 </r>
       <r>   -1.3649    0.0000 </r>
       <r>   -1.2445    0.0000 </r>
       <r>   -0.5220    0.0000 </r>
       <r>    0.4502    0.0000 </r>
       <r>    1.0094    0.0000 </r>
       <r>    1.8807    0.0000 </r>
      </set>
      <set comment="kpoint 25">
       <r>  -15.5894    1.0000 </r>
       <r>  -13.7071    1.0000 </r>
       <r>  -13.0446    1.0000 </r>
       <r>  -10.7113    1.0000 </r>
       <r>   -8.0268    1.0000 </r>
       <r>   -7.3865    1.0000 </r>
       <r>   -5.5980    1.0000 </r>
       <r>   -5.5497    1.0000 </r>
       <r>   -4.5614    1.0000 </r>
       <r>   -3.8665    1.0000 </r>
       <r>   -1.1638    0.0000 </r>
       <r>   -0.9986    0.0000 </r>
       <r>   -0.7438    0.0000 </r>
       <r>    0.4420    0.0000 </r>
       <r>    1.1612    0.0000 </r>
       <r>    2.2085    0.0000 </r>
      </set>
      <set comment="kpoint 26">
       <r>  -15.9083    1.0000 </r>
       <r>  -13.6116    1.0000 </r>
       <r>  -13.1145    1.0000 </r>
       <r>  -10.1415    1.0000 </r>
       <r>   -8.0769    1.0000 </r>
       <r>   -7.3952    1.0000 </r>
       <r>   -5.7578    1.0000 </r>
       <r>   -5.6194    1.0000 </r>
       <r>   -4.4735    1.0000 </r>
       <r>   -3.6171    1.0000 </r>
       <r>   -1.0785    0.0000 </r>
       <r>   -0.9310    0.0000 </r>
       <r>   -0.4818    0.0000 </r>
       <r>    0.3341    0.0000 </r>
       <r>    1.4870    0.0000 </r>
       <r>    2.4629    0.0000 </r>
      </set>
      <set comment="kpoint 27">
       <r>  -16.1905    1.0000 </r>
       <r>  -13.8464    1.0000 </r>
       <r>  -12.8514    1.0000 </r>
       <r>   -9.5675    1.0000 </r>
       <r>   -8.0319    1.0000 </r>
       <r>   -7.4524    1.0000 </r>
       <r>   -5.9320    1.0000 </r>
       <r>   -5.6904    1.0000 </r>
       <r>   -4.3034    1.0000 </r>
       <r>   -3.3831    1.0000 </r>
       <r>   -1.1971    0.0000 </r>
       <r>   -0.7809    0.0000 </r>
       <r>   -0.0490    0.0000 </r>
       <r>    0.3815    0.0000 </r>
       <r>    1.7326    0.0000 </r>
       <r>    2.5516    0.0000 </r>
      </set>
      <set comment="kpoint 28">
       <r>  -16.4331    1.0000 </r>
       <r>  -14.0944    1.0000 </r>
       <r>  -12.5896    1.0000 </r>
       <r>   -9.0206    1.0000 </r>
       <r>   -7.8765    1.0000 </r>
       <r>   -7.5201    1.0000 </r>
       <r>   -6.1008    1.0000 </r>
       <r>   -5.7350    1.0000 </r>
       <r>   -4.1058    1.0000 </r>
       <r>   -3.1839    1.0000 </r>
       <r>   -1.2123    0.0000 </r>
       <r>   -0.7783    0.0000 </r>
       <r>    0.3453    0.0000 </r>
       <r>    0.6382    0.0000 </r>
       <r>    1.4771    0.0000 </r>
       <r>    2.3946    0.0000 </r>
      </set>
      <set comment="kpoint 29">
       <r>  -16.6340    1.0000 </r>
       <r>  -14.3056    1.0000 </r>
       <r>  -12.3875    1.0000 </r>
       <r>   -8.5603    1.0000 </r>
       <r>   -7.6123    1.0000 </r>
       <r>   -7.5532    1.0000 </r>
       <r>   -6.2508    1.0000 </r>
       <r>   -5.7125    1.0000 </r>
       <r>   -3.9356    1.0000 </r>
       <r>   -3.0297    1.0000 </r>
       <r>   -1.1033    0.0000 </r>
       <r>   -0.8540    0.0000 </r>
       <r>    0.4634    0.0000 </r>
       <r>    0.5374    0.0000 </r>
       <r>    1.1703    0.0000 </r>
       <r>    2.2159    0.0000 </r>
      </set>
      <set comment="kpoint 30">
       <r>  -16.7917    1.0000 </r>
       <r>  -14.4724    1.0000 </r>
       <r>  -12.2491    1.0000 </r>
       <r>   -8.2741    1.0000 </r>
       <r>   -7.5022    1.0000 </r>
       <r>   -7.2662    1.0000 </r>
       <r>   -6.3730    1.0000 </r>
       <r>   -5.5810    1.0000 </r>
       <r>   -3.8209    1.0000 </r>
       <r>   -2.9215    1.0000 </r>
       <r>   -0.9411    0.0000 </r>
       <r>   -0.8844    0.0000 </r>
       <r>   -0.2873    0.0000 </r>
       <r>    0.0943    0.0000 </r>
       <r>    1.5922    0.0000 </r>
       <r>    2.1937    0.0000 </r>
      </set>
      <set comment="kpoint 31">
       <r>  -16.9050    1.0000 </r>
       <r>  -14.5925    1.0000 </r>
       <r>  -12.1643    1.0000 </r>
       <r>   -8.1720    1.0000 </r>
       <r>   -7.3906    1.0000 </r>
       <r>   -6.8974    1.0000 </r>
       <r>   -6.4597    1.0000 </r>
       <r>   -5.3358    1.0000 </r>
       <r>   -3.7588    1.0000 </r>
       <r>   -2.8537    1.0000 </r>
       <r>   -1.0461    0.0000 </r>
       <r>   -0.9969    0.0000 </r>
       <r>   -0.6298    0.0000 </r>
       <r>   -0.4676    0.0000 </r>
       <r>    1.9646    0.0000 </r>
       <r>    2.1429    0.0000 </r>
      </set>
      <set comment="kpoint 32">
       <r>  -16.9732    1.0000 </r>
       <r>  -14.6648    1.0000 </r>
       <r>  -12.1200    1.0000 </r>
       <r>   -8.1533    1.0000 </r>
       <r>   -7.3077    1.0000 </r>
       <r>   -6.6228    1.0000 </r>
       <r>   -6.4839    1.0000 </r>
       <r>   -5.0669    1.0000 </r>
       <r>   -3.7317    1.0000 </r>
       <r>   -2.8184    1.0000 </r>
       <r>   -1.5611    0.0000 </r>
       <r>   -1.0541    0.0000 </r>
       <r>   -0.9915    0.0000 </r>
       <r>   -0.3603    0.0000 </r>
       <r>    1.9643    0.0000 </r>
       <r>    2.1582    0.0000 </r>
      </set>
      <set comment="kpoint 33">
       <r>  -16.9421    1.0000 </r>
       <r>  -14.8112    1.0000 </r>
       <r>  -12.0090    1.0000 </r>
       <r>   -8.5576    1.0000 </r>
       <r>   -6.9351    1.0000 </r>
       <r>   -6.4207    1.0000 </r>
       <r>   -6.3827    1.0000 </r>
       <r>   -4.9994    1.0000 </r>
       <r>   -3.6270    1.0000 </r>
       <r>   -3.1050    1.0000 </r>
       <r>   -1.7099    0.0000 </r>
       <r>   -1.3143    0.0000 </r>
       <r>   -0.7827    0.0000 </r>
       <r>   -0.2368    0.0000 </r>
       <r>    2.0639    0.0000 </r>
       <r>    2.2022    0.0000 </r>
      </set>
      <set comment="kpoint 34">
       <r>  -16.9194    1.0000 </r>
       <r>  -14.7879    1.0000 </r>
       <r>  -12.0205    1.0000 </r>
       <r>   -8.5609    1.0000 </r>
       <r>   -6.9588    1.0000 </r>
       <r>   -6.5990    1.0000 </r>
       <r>   -6.3082    1.0000 </r>
       <r>   -5.1276    1.0000 </r>
       <r>   -3.6409    1.0000 </r>
       <r>   -3.1104    1.0000 </r>
       <r>   -1.5182    0.0000 </r>
       <r>   -1.1142    0.0000 </r>
       <r>   -0.7719    0.0000 </r>
       <r>   -0.3174    0.0000 </r>
       <r>    2.0768    0.0000 </r>
       <r>    2.1616    0.0000 </r>
      </set>
      <set comment="kpoint 35">
       <r>  -16.8513    1.0000 </r>
       <r>  -14.7181    1.0000 </r>
       <r>  -12.0587    1.0000 </r>
       <r>   -8.5814    1.0000 </r>
       <r>   -7.0413    1.0000 </r>
       <r>   -6.9241    1.0000 </r>
       <r>   -6.2356    1.0000 </r>
       <r>   -5.4040    1.0000 </r>
       <r>   -3.6873    1.0000 </r>
       <r>   -3.1297    1.0000 </r>
       <r>   -1.0063    0.0000 </r>
       <r>   -0.7355    0.0000 </r>
       <r>   -0.6651    0.0000 </r>
       <r>   -0.4615    0.0000 </r>
       <r>    1.7937    0.0000 </r>
       <r>    2.1538    0.0000 </r>
      </set>
      <set comment="kpoint 36">
       <r>  -16.7384    1.0000 </r>
       <r>  -14.6028    1.0000 </r>
       <r>  -12.1332    1.0000 </r>
       <r>   -8.6571    1.0000 </r>
       <r>   -7.3047    1.0000 </r>
       <r>   -7.1915    1.0000 </r>
       <r>   -6.1448    1.0000 </r>
       <r>   -5.6461    1.0000 </r>
       <r>   -3.7784    1.0000 </r>
       <r>   -3.1708    1.0000 </r>
       <r>   -0.7714    0.0000 </r>
       <r>   -0.7075    0.0000 </r>
       <r>   -0.2651    0.0000 </r>
       <r>    0.0322    0.0000 </r>
       <r>    1.3623    0.0000 </r>
       <r>    2.2503    0.0000 </r>
      </set>
      <set comment="kpoint 37">
       <r>  -16.5813    1.0000 </r>
       <r>  -14.4443    1.0000 </r>
       <r>  -12.2571    1.0000 </r>
       <r>   -8.8556    1.0000 </r>
       <r>   -7.6566    1.0000 </r>
       <r>   -7.3505    1.0000 </r>
       <r>   -6.0306    1.0000 </r>
       <r>   -5.7678    1.0000 </r>
       <r>   -3.9223    1.0000 </r>
       <r>   -3.2431    1.0000 </r>
       <r>   -0.9344    0.0000 </r>
       <r>   -0.6509    0.0000 </r>
[...]
       <r>    2.4837    0.0000 </r>
       <r>    2.7852    0.0000 </r>
      </set>
      <set comment="kpoint 153">
       <r>  -15.4291    1.0000 </r>
       <r>  -15.2130    1.0000 </r>
       <r>  -11.3452    1.0000 </r>
       <r>  -11.0453    1.0000 </r>
       <r>   -7.9503    1.0000 </r>
       <r>   -7.8145    1.0000 </r>
       <r>   -5.5748    1.0000 </r>
       <r>   -5.3996    1.0000 </r>
       <r>   -4.0427    1.0000 </r>
       <r>   -4.0039    1.0000 </r>
       <r>   -0.4779    0.0000 </r>
       <r>   -0.2459    0.0000 </r>
       <r>    0.6787    0.0000 </r>
       <r>    0.8988    0.0000 </r>
       <r>    2.2380    0.0000 </r>
       <r>    2.5092    0.0000 </r>
      </set>
      <set comment="kpoint 154">
       <r>  -15.6503    1.0000 </r>
       <r>  -15.4278    1.0000 </r>
       <r>  -11.1179    1.0000 </r>
       <r>  -10.7972    1.0000 </r>
       <r>   -7.7751    1.0000 </r>
       <r>   -7.6450    1.0000 </r>
       <r>   -5.3603    1.0000 </r>
       <r>   -5.1530    1.0000 </r>
       <r>   -4.1304    1.0000 </r>
       <r>   -4.0864    1.0000 </r>
       <r>   -0.4672    0.0000 </r>
       <r>   -0.3118    0.0000 </r>
       <r>    0.8262    0.0000 </r>
       <r>    1.0914    0.0000 </r>
       <r>    1.6856    0.0000 </r>
       <r>    1.8992    0.0000 </r>
      </set>
      <set comment="kpoint 155">
       <r>  -15.8377    1.0000 </r>
       <r>  -15.6117    1.0000 </r>
       <r>  -10.9748    1.0000 </r>
       <r>  -10.6440    1.0000 </r>
       <r>   -7.4466    1.0000 </r>
       <r>   -7.3147    1.0000 </r>
       <r>   -5.2556    1.0000 </r>
       <r>   -4.9995    1.0000 </r>
       <r>   -4.2223    1.0000 </r>
       <r>   -4.0650    1.0000 </r>
       <r>   -0.4472    0.0000 </r>
       <r>   -0.3845    0.0000 </r>
       <r>    0.8725    0.0000 </r>
       <r>    1.0307    0.0000 </r>
       <r>    1.2227    0.0000 </r>
       <r>    1.2478    0.0000 </r>
      </set>
      <set comment="kpoint 156">
       <r>  -15.9868    1.0000 </r>
       <r>  -15.7589    1.0000 </r>
       <r>  -10.9022    1.0000 </r>
       <r>  -10.5694    1.0000 </r>
       <r>   -6.9993    1.0000 </r>
       <r>   -6.8600    1.0000 </r>
       <r>   -5.2358    1.0000 </r>
       <r>   -4.9393    1.0000 </r>
       <r>   -4.2928    1.0000 </r>
       <r>   -4.0273    1.0000 </r>
       <r>   -0.5700    0.0000 </r>
       <r>   -0.5511    0.0000 </r>
       <r>    0.5343    0.0000 </r>
       <r>    0.6047    0.0000 </r>
       <r>    1.0552    0.0000 </r>
       <r>    1.2845    0.0000 </r>
      </set>
      <set comment="kpoint 157">
       <r>  -16.0949    1.0000 </r>
       <r>  -15.8658    1.0000 </r>
       <r>  -10.8735    1.0000 </r>
       <r>  -10.5418    1.0000 </r>
       <r>   -6.4957    1.0000 </r>
       <r>   -6.3481    1.0000 </r>
       <r>   -5.2566    1.0000 </r>
       <r>   -4.9390    1.0000 </r>
       <r>   -4.3851    1.0000 </r>
       <r>   -4.0399    1.0000 </r>
       <r>   -0.9583    0.0000 </r>
       <r>   -0.9087    0.0000 </r>
       <r>    0.3737    0.0000 </r>
       <r>    0.5215    0.0000 </r>
       <r>    1.0395    0.0000 </r>
       <r>    1.3020    0.0000 </r>
      </set>
      <set comment="kpoint 158">
       <r>  -16.1603    1.0000 </r>
       <r>  -15.9307    1.0000 </r>
       <r>  -10.8655    1.0000 </r>
       <r>  -10.5352    1.0000 </r>
       <r>   -6.0346    1.0000 </r>
       <r>   -5.8822    1.0000 </r>
       <r>   -5.2925    1.0000 </r>
       <r>   -4.9646    1.0000 </r>
       <r>   -4.5205    1.0000 </r>
       <r>   -4.1262    1.0000 </r>
       <r>   -1.3255    0.0000 </r>
       <r>   -1.2712    0.0000 </r>
       <r>    0.3868    0.0000 </r>
       <r>    0.6084    0.0000 </r>
       <r>    1.0224    0.0000 </r>
       <r>    1.3003    0.0000 </r>
      </set>
     </set>
    </set>
   </array>
  </eigenvalues>
  <separator name="orbital magnetization" >
   <v name="MAGDIPOLOUT">      0.00000000      0.00000000      0.00000000</v>
  </separator>
  <dos>
   <i name="efermi">     -2.58652679 </i>
   <total>
    <array>
     <dimension dim="1">gridpoints</dimension>
     <dimension dim="2">spin</dimension>
     <field>energy</field>
     <field>total</field>
     <field>integrated</field>
     <set>
      <set comment="spin 1">
       <r>   -18.0154     0.0000     0.0000 </r>
       <r>   -17.9419     0.0000     0.0000 </r>
       <r>   -17.8685     0.0000     0.0000 </r>
       <r>   -17.7951     0.0000     0.0000 </r>
       <r>   -17.7217     0.0000     0.0000 </r>
       <r>   -17.6482     0.0000     0.0000 </r>
       <r>   -17.5748     0.0000     0.0000 </r>
       <r>   -17.5014     0.0000     0.0000 </r>
       <r>   -17.4279     0.0000     0.0000 </r>
       <r>   -17.3545     0.0000     0.0000 </r>
       <r>   -17.2811     0.0000     0.0000 </r>
       <r>   -17.2077     0.0000     0.0000 </r>
       <r>   -17.1342     0.0000     0.0000 </r>
       <r>   -17.0608     0.0000     0.0000 </r>
       <r>   -16.9874     0.3702     0.0272 </r>
       <r>   -16.9140     1.0197     0.1021 </r>
       <r>   -16.8405     0.9194     0.1696 </r>
       <r>   -16.7671     1.0142     0.2440 </r>
       <r>   -16.6937     1.0303     0.3197 </r>
       <r>   -16.6202     1.1762     0.4061 </r>
       <r>   -16.5468     0.8709     0.4700 </r>
       <r>   -16.4734     1.0457     0.5468 </r>
       <r>   -16.4000     0.7040     0.5985 </r>
       <r>   -16.3265     1.4694     0.7064 </r>
       <r>   -16.2531     0.6750     0.7559 </r>
       <r>   -16.1797     1.3520     0.8552 </r>
       <r>   -16.1063     1.1343     0.9385 </r>
       <r>   -16.0328     1.0036     1.0122 </r>
       <r>   -15.9594     0.7447     1.0669 </r>
       <r>   -15.8860     1.3142     1.1634 </r>
       <r>   -15.8126     1.3996     1.2661 </r>
       <r>   -15.7391     0.9756     1.3378 </r>
       <r>   -15.6657     0.7810     1.3951 </r>
       <r>   -15.5923     1.7404     1.5229 </r>
       <r>   -15.5188     1.0332     1.5988 </r>
       <r>   -15.4454     0.9332     1.6673 </r>
       <r>   -15.3720     1.5013     1.7775 </r>
       <r>   -15.2986     0.7861     1.8352 </r>
       <r>   -15.2251     1.2170     1.9246 </r>
       <r>   -15.1517     1.9366     2.0668 </r>
       <r>   -15.0783     1.2727     2.1603 </r>
       <r>   -15.0049     0.7815     2.2176 </r>
       <r>   -14.9314     1.7686     2.3475 </r>
       <r>   -14.8580     1.4516     2.4541 </r>
       <r>   -14.7846     1.6600     2.5760 </r>
       <r>   -14.7111     1.9833     2.7216 </r>
       <r>   -14.6377     1.9159     2.8623 </r>
       <r>   -14.5643     1.4552     2.9691 </r>
       <r>   -14.4909     1.7502     3.0976 </r>
       <r>   -14.4174     3.3639     3.3446 </r>
       <r>   -14.3440     1.2826     3.4388 </r>
       <r>   -14.2706     1.1305     3.5218 </r>
       <r>   -14.1972     1.0904     3.6019 </r>
       <r>   -14.1237     0.7112     3.6541 </r>
       <r>   -14.0503     1.5134     3.7652 </r>
       <r>   -13.9769     0.9153     3.8324 </r>
       <r>   -13.9035     0.0337     3.8349 </r>
       <r>   -13.8300     0.7332     3.8888 </r>
       <r>   -13.7566     0.4464     3.9215 </r>
       <r>   -13.6832     0.3644     3.9483 </r>
       <r>   -13.6097     0.3759     3.9759 </r>
       <r>   -13.5363     0.1554     3.9873 </r>
       <r>   -13.4629     0.0558     3.9914 </r>
       <r>   -13.3895     0.1171     4.0000 </r>
       <r>   -13.3160     0.0001     4.0000 </r>
       <r>   -13.2426     0.1680     4.0123 </r>
       <r>   -13.1692     0.0049     4.0127 </r>
       <r>   -13.0958     0.4082     4.0427 </r>
       <r>   -13.0223     0.4364     4.0747 </r>
       <r>   -12.9489     0.0381     4.0775 </r>
       <r>   -12.8755     0.8135     4.1373 </r>
       <r>   -12.8020     0.3792     4.1651 </r>
       <r>   -12.7286     0.3419     4.1902 </r>
       <r>   -12.6552     1.3459     4.2890 </r>
       <r>   -12.5818     1.1627     4.3744 </r>
       <r>   -12.5083     0.6118     4.4193 </r>
       <r>   -12.4349     0.9089     4.4861 </r>
       <r>   -12.3615     2.1166     4.6415 </r>
       <r>   -12.2881     1.6480     4.7625 </r>
       <r>   -12.2146     2.2861     4.9303 </r>
       <r>   -12.1412     2.2935     5.0987 </r>
       <r>   -12.0678     1.5177     5.2102 </r>
       <r>   -11.9944     1.4710     5.3182 </r>
       <r>   -11.9209     1.4033     5.4212 </r>
       <r>   -11.8475     2.0212     5.5696 </r>
       <r>   -11.7741     0.9143     5.6368 </r>
       <r>   -11.7006     1.6612     5.7588 </r>
       <r>   -11.6272     1.4081     5.8621 </r>
       <r>   -11.5538     0.7129     5.9145 </r>
       <r>   -11.4804     0.7276     5.9679 </r>
       <r>   -11.4069     1.5725     6.0834 </r>
       <r>   -11.3335     0.7873     6.1412 </r>
       <r>   -11.2601     1.1773     6.2276 </r>
       <r>   -11.1867     0.8086     6.2870 </r>
       <r>   -11.1132     1.0884     6.3669 </r>
       <r>   -11.0398     0.9349     6.4356 </r>
       <r>   -10.9664     0.3711     6.4628 </r>
       <r>   -10.8929     0.7343     6.5168 </r>
       <r>   -10.8195     1.2854     6.6111 </r>
       <r>   -10.7461     0.8178     6.6712 </r>
       <r>   -10.6727     0.6845     6.7214 </r>
       <r>   -10.5992     0.6603     6.7699 </r>
       <r>   -10.5258     1.0955     6.8504 </r>
       <r>   -10.4524     0.5875     6.8935 </r>
       <r>   -10.3790     0.6187     6.9389 </r>
       <r>   -10.3055     0.0984     6.9461 </r>
       <r>   -10.2321     0.5739     6.9883 </r>
       <r>   -10.1587     1.4585     7.0954 </r>
       <r>   -10.0853     0.9796     7.1673 </r>
       <r>   -10.0118     0.0128     7.1683 </r>
       <r>    -9.9384     0.1545     7.1796 </r>
       <r>    -9.8650     0.5495     7.2199 </r>
       <r>    -9.7915     1.2038     7.3083 </r>
       <r>    -9.7181     0.4036     7.3380 </r>
       <r>    -9.6447     0.2828     7.3587 </r>
       <r>    -9.5713     0.2781     7.3791 </r>
       <r>    -9.4978     0.6916     7.4299 </r>
       <r>    -9.4244     0.6170     7.4752 </r>
       <r>    -9.3510     0.8338     7.5365 </r>
       <r>    -9.2776     0.0007     7.5365 </r>
       <r>    -9.2041     0.4597     7.5703 </r>
       <r>    -9.1307     0.2321     7.5873 </r>
       <r>    -9.0573     0.1395     7.5975 </r>
       <r>    -8.9838     1.0142     7.6720 </r>
       <r>    -8.9104     0.5744     7.7142 </r>
       <r>    -8.8370     0.3147     7.7373 </r>
       <r>    -8.7636     0.0325     7.7397 </r>
       <r>    -8.6901     0.0033     7.7399 </r>
       <r>    -8.6167     0.3440     7.7652 </r>
       <r>    -8.5433     1.1043     7.8463 </r>
       <r>    -8.4699     0.1049     7.8540 </r>
       <r>    -8.3964     0.1665     7.8662 </r>
       <r>    -8.3230     0.0065     7.8667 </r>
       <r>    -8.2496     0.3314     7.8910 </r>
       <r>    -8.1762     0.4018     7.9205 </r>
       <r>    -8.1027     3.0611     8.1453 </r>
       <r>    -8.0293     3.1456     8.3762 </r>
       <r>    -7.9559     2.4238     8.5542 </r>
       <r>    -7.8824     3.0161     8.7757 </r>
       <r>    -7.8090     2.0233     8.9242 </r>
       <r>    -7.7356     2.0286     9.0732 </r>
       <r>    -7.6622     2.8133     9.2798 </r>
       <r>    -7.5887     2.1474     9.4375 </r>
       <r>    -7.5153     4.0575     9.7354 </r>
       <r>    -7.4419     3.0137     9.9567 </r>
       <r>    -7.3685     6.4640    10.4313 </r>
       <r>    -7.2950     4.1566    10.7365 </r>
       <r>    -7.2216     1.2688    10.8297 </r>
       <r>    -7.1482     1.1579    10.9147 </r>
       <r>    -7.0747     0.8447    10.9767 </r>
       <r>    -7.0013     0.6865    11.0271 </r>
       <r>    -6.9279     0.9449    11.0965 </r>
       <r>    -6.8545     1.7038    11.2216 </r>
       <r>    -6.7810     0.6338    11.2681 </r>
       <r>    -6.7076     1.7542    11.3970 </r>
       <r>    -6.6342     1.1884    11.4842 </r>
       <r>    -6.5608     2.1759    11.6440 </r>
       <r>    -6.4873     2.1291    11.8003 </r>
       <r>    -6.4139     1.9441    11.9431 </r>
       <r>    -6.3405     1.7204    12.0694 </r>
       <r>    -6.2671     2.5615    12.2575 </r>
       <r>    -6.1936     2.9065    12.4709 </r>
       <r>    -6.1202     0.9739    12.5424 </r>
       <r>    -6.0468     2.4494    12.7223 </r>
       <r>    -5.9733     2.6449    12.9165 </r>
       <r>    -5.8999     2.0150    13.0644 </r>
       <r>    -5.8265     3.1166    13.2933 </r>
       <r>    -5.7531     4.8517    13.6495 </r>
       <r>    -5.6796     4.8479    14.0055 </r>
       <r>    -5.6062     3.3650    14.2526 </r>
       <r>    -5.5328     4.6765    14.5959 </r>
       <r>    -5.4594     3.9348    14.8849 </r>
       <r>    -5.3859     2.4834    15.0672 </r>
       <r>    -5.3125     3.1911    15.3015 </r>
       <r>    -5.2391     1.8342    15.4362 </r>
       <r>    -5.1656     1.4075    15.5396 </r>
       <r>    -5.0922     0.9733    15.6110 </r>
       <r>    -5.0188     1.8576    15.7474 </r>
       <r>    -4.9454     1.5163    15.8588 </r>
       <r>    -4.8719     0.9475    15.9283 </r>
       <r>    -4.7985     0.3761    15.9559 </r>
       <r>    -4.7251     0.5996    16.0000 </r>
       <r>    -4.6517     0.1320    16.0097 </r>
       <r>    -4.5782     1.1666    16.0953 </r>
       <r>    -4.5048     1.3470    16.1942 </r>
       <r>    -4.4314     1.2219    16.2840 </r>
       <r>    -4.3580     1.2594    16.3764 </r>
       <r>    -4.2845     2.2869    16.5443 </r>
       <r>    -4.2111     2.8847    16.7562 </r>
       <r>    -4.1377     2.8087    16.9624 </r>
       <r>    -4.0642     4.6563    17.3043 </r>
       <r>    -3.9908     3.6082    17.5692 </r>
       <r>    -3.9174     2.7286    17.7696 </r>
       <r>    -3.8440     4.6949    18.1143 </r>
       <r>    -3.7705     5.0384    18.4843 </r>
       <r>    -3.6971     4.6286    18.8241 </r>
       <r>    -3.6237     3.3204    19.0679 </r>
       <r>    -3.5503     4.1416    19.3720 </r>
       <r>    -3.4768     2.5113    19.5564 </r>
       <r>    -3.4034     0.7921    19.6146 </r>
       <r>    -3.3300     0.7766    19.6716 </r>
       <r>    -3.2565     0.1209    19.6805 </r>
       <r>    -3.1831     0.5337    19.7197 </r>
       <r>    -3.1097     1.1419    19.8036 </r>
       <r>    -3.0363     0.4522    19.8368 </r>
       <r>    -2.9628     0.2600    19.8558 </r>
       <r>    -2.8894     0.4912    19.8919 </r>
       <r>    -2.8160     0.7080    19.9439 </r>
       <r>    -2.7426     0.4059    19.9737 </r>
       <r>    -2.6691     0.3368    19.9984 </r>
       <r>    -2.5957     0.0213    20.0000 </r>
       <r>    -2.5223     0.0000    20.0000 </r>
       <r>    -2.4489     0.0000    20.0000 </r>
       <r>    -2.3754     0.0000    20.0000 </r>
       <r>    -2.3020     0.0000    20.0000 </r>
       <r>    -2.2286     0.0000    20.0000 </r>
       <r>    -2.1551     0.0000    20.0000 </r>
       <r>    -2.0817     0.0000    20.0000 </r>
       <r>    -2.0083     0.0000    20.0000 </r>
       <r>    -1.9349     0.0000    20.0000 </r>
       <r>    -1.8614     0.0000    20.0000 </r>
       <r>    -1.7880     0.0138    20.0010 </r>
       <r>    -1.7146     0.3094    20.0237 </r>
       <r>    -1.6412     0.2387    20.0413 </r>
       <r>    -1.5677     0.7128    20.0936 </r>
       <r>    -1.4943     0.9234    20.1614 </r>
       <r>    -1.4209     2.5081    20.3456 </r>
       <r>    -1.3474     3.1905    20.5798 </r>
       <r>    -1.2740     1.7275    20.7067 </r>
       <r>    -1.2006     2.9334    20.9221 </r>
       <r>    -1.1272     2.8325    21.1300 </r>
       <r>    -1.0537     1.6635    21.2522 </r>
       <r>    -0.9803     3.8825    21.5373 </r>
       <r>    -0.9069     5.5978    21.9483 </r>
       <r>    -0.8335     3.0359    22.1712 </r>
       <r>    -0.7600     2.3976    22.3473 </r>
       <r>    -0.6866     3.9577    22.6379 </r>
       <r>    -0.6132     3.5341    22.8974 </r>
       <r>    -0.5398     1.9959    23.0439 </r>
       <r>    -0.4663     4.2837    23.3585 </r>
       <r>    -0.3929     4.7694    23.7087 </r>
       <r>    -0.3195     4.2241    24.0188 </r>
       <r>    -0.2460     4.0318    24.3149 </r>
       <r>    -0.1726     3.8245    24.5957 </r>
       <r>    -0.0992     1.6038    24.7134 </r>
       <r>    -0.0258     4.3120    25.0301 </r>
       <r>     0.0477     3.9922    25.3232 </r>
       <r>     0.1211     1.7252    25.4499 </r>
       <r>     0.1945     3.6816    25.7202 </r>
       <r>     0.2679     1.9063    25.8602 </r>
       <r>     0.3414     4.5773    26.1963 </r>
       <r>     0.4148     4.0520    26.4938 </r>
       <r>     0.4882     5.0999    26.8683 </r>
       <r>     0.5617     3.5437    27.1285 </r>
       <r>     0.6351     4.3504    27.4479 </r>
       <r>     0.7085     3.0536    27.6721 </r>
       <r>     0.7819     0.9255    27.7401 </r>
       <r>     0.8554     1.6092    27.8582 </r>
       <r>     0.9288     2.8168    28.0651 </r>
       <r>     1.0022     0.6954    28.1161 </r>
       <r>     1.0756     2.2959    28.2847 </r>
       <r>     1.1491     1.7422    28.4127 </r>
       <r>     1.2225     2.2821    28.5802 </r>
       <r>     1.2959     2.0984    28.7343 </r>
       <r>     1.3693     1.5911    28.8511 </r>
       <r>     1.4428     0.1724    28.8638 </r>
       <r>     1.5162     2.3014    29.0328 </r>
       <r>     1.5896     2.7933    29.2379 </r>
       <r>     1.6631     1.1439    29.3219 </r>
       <r>     1.7365     1.7873    29.4531 </r>
       <r>     1.8099     3.2666    29.6930 </r>
       <r>     1.8833     1.8351    29.8277 </r>
       <r>     1.9568     2.9304    30.0429 </r>
       <r>     2.0302     4.3194    30.3600 </r>
       <r>     2.1036     2.6961    30.5580 </r>
       <r>     2.1770     3.3805    30.8062 </r>
       <r>     2.2505     4.8136    31.1597 </r>
       <r>     2.3239     2.3480    31.3321 </r>
       <r>     2.3973     1.4725    31.4402 </r>
       <r>     2.4708     1.3530    31.5395 </r>
       <r>     2.5442     1.3399    31.6379 </r>
       <r>     2.6176     0.8609    31.7011 </r>
       <r>     2.6910     0.9450    31.7705 </r>
       <r>     2.7645     1.3275    31.8680 </r>
       <r>     2.8379     0.4141    31.8984 </r>
       <r>     2.9113     0.0004    31.8984 </r>
       <r>     2.9847     0.8815    31.9632 </r>
       <r>     3.0582     0.5015    32.0000 </r>
       <r>     3.1316     0.0002    32.0000 </r>
       <r>     3.2050     0.0000    32.0000 </r>
       <r>     3.2784     0.0000    32.0000 </r>
       <r>     3.3519     0.0000    32.0000 </r>
       <r>     3.4253     0.0000    32.0000 </r>
       <r>     3.4987     0.0000    32.0000 </r>
       <r>     3.5722     0.0000    32.0000 </r>
       <r>     3.6456     0.0000    32.0000 </r>
       <r>     3.7190     0.0000    32.0000 </r>
       <r>     3.7924     0.0000    32.0000 </r>
       <r>     3.8659     0.0000    32.0000 </r>
       <r>     3.9393     0.0000    32.0000 </r>
       <r>     4.0127     0.0000    32.0000 </r>
      </set>
     </set>
    </array>
   </total>
  </dos>
 </calculation>
 <structure name="finalpos" >
  <crystal>
   <varray name="basis" >
    <v>       3.52045100       0.00000000       0.00000000 </v>
    <v>       0.00000000       4.93638800      -0.00005300 </v>
    <v>       0.00000000       0.00000000      20.02439000 </v>
   </varray>
   <i name="volume">    347.99009845 </i>
   <varray name="rec_basis" >
    <v>       0.28405451       0.00000000       0.00000000 </v>
    <v>       0.00000000       0.20257727       0.00000000 </v>
    <v>       0.00000000       0.00000054       0.04993910 </v>
   </varray>
  </crystal>
  <varray name="positions" >
   <v>       0.50000002       0.89883746       0.55083765 </v>
   <v>       0.49999998       0.10116254       0.44916235 </v>
   <v>      -0.00000002       0.39883326       0.44916235 </v>
   <v>       0.00000002       0.60116674       0.55083765 </v>
  </varray>
 </structure>
</modeling>
