<?xml version="1.0" encoding="ISO-8859-1"?>
<modeling>
 <generator>
  <i name="program" type="string">vasp </i>
  <i name="version" type="string">5.4.1  </i>
  <i name="subversion" type="string">24Jun15 (build Nov 20 2020 10:29:34) complex                          parallel </i>
  <i name="platform" type="string">IFC91_ompi </i>
  <i name="date" type="string">2021 09 09 </i>
  <i name="time" type="string">14:57:12 </i>
 </generator>
 <incar>
  <i type="string" name="PREC">a</i>
  <i type="string" name="ALGO"> Normal</i>
  <i type="int" name="ISPIN">     1</i>
  <i type="int" name="ICHARG">     2</i>
  <i type="int" name="NELM">   250</i>
  <i type="int" name="NELMDL">    -5</i>
  <i type="int" name="NELMIN">     6</i>
  <i type="int" name="IBRION">     2</i>
  <i name="EDIFF">      0.00001000</i>
  <i name="EDIFFG">     -0.01000000</i>
  <i type="int" name="NSW">   200</i>
  <i type="int" name="ISIF">     2</i>
  <i name="ENCUT">    520.00000000</i>
  <i name="POTIM">      0.30000000</i>
  <i type="logical" name="LREAL"> F  </i>
  <i type="int" name="ISMEAR">     0</i>
  <i name="SIGMA">      0.02000000</i>
  <i type="logical" name="LWAVE"> F  </i>
  <i type="logical" name="LCHARG"> F  </i>
  <i type="logical" name="LAECHG"> F  </i>
  <v type="int" name="KPOINT_BSE">    -1     0     0     0</v>
  <i type="int" name="NELM">   250</i>
 </incar>
 <kpoints>
  <generation param="Gamma">
   <v type="int" name="divisions">      15       13        1 </v>
   <v name="usershift">      0.00000000       0.00000000       0.00000000 </v>
   <v name="genvec1">      0.06666667      -0.00000000       0.00000000 </v>
   <v name="genvec2">      0.00000000       0.07692308       0.00000000 </v>
   <v name="genvec3">      0.00000000       0.00000000       1.00000000 </v>
   <v name="shift">      0.00000000       0.00000000       0.00000000 </v>
  </generation>
  <varray name="kpointlist" >
   <v>       0.00000000       0.00000000       0.00000000 </v>
   <v>       0.06666667      -0.00000000       0.00000000 </v>
   <v>       0.13333333      -0.00000000       0.00000000 </v>
   <v>       0.20000000      -0.00000000       0.00000000 </v>
   <v>       0.26666667      -0.00000000       0.00000000 </v>
   <v>       0.33333333      -0.00000000       0.00000000 </v>
   <v>       0.40000000      -0.00000000       0.00000000 </v>
   <v>       0.46666667      -0.00000000       0.00000000 </v>
   <v>       0.00000000       0.07692308       0.00000000 </v>
   <v>       0.06666667       0.07692308       0.00000000 </v>
   <v>       0.13333333       0.07692308       0.00000000 </v>
   <v>       0.20000000       0.07692308       0.00000000 </v>
   <v>       0.26666667       0.07692308       0.00000000 </v>
   <v>       0.33333333       0.07692308       0.00000000 </v>
   <v>       0.40000000       0.07692308       0.00000000 </v>
   <v>       0.46666667       0.07692308       0.00000000 </v>
   <v>      -0.46666667       0.07692308       0.00000000 </v>
   <v>      -0.40000000       0.07692308       0.00000000 </v>
   <v>      -0.33333333       0.07692308       0.00000000 </v>
   <v>      -0.26666667       0.07692308       0.00000000 </v>
   <v>      -0.20000000       0.07692308       0.00000000 </v>
   <v>      -0.13333333       0.07692308       0.00000000 </v>
   <v>      -0.06666667       0.07692308       0.00000000 </v>
   <v>       0.00000000       0.15384615       0.00000000 </v>
   <v>       0.06666667       0.15384615       0.00000000 </v>
   <v>       0.13333333       0.15384615       0.00000000 </v>
   <v>       0.20000000       0.15384615       0.00000000 </v>
   <v>       0.26666667       0.15384615       0.00000000 </v>
   <v>       0.33333333       0.15384615       0.00000000 </v>
   <v>       0.40000000       0.15384615       0.00000000 </v>
   <v>       0.46666667       0.15384615       0.00000000 </v>
   <v>      -0.46666667       0.15384615       0.00000000 </v>
   <v>      -0.40000000       0.15384615       0.00000000 </v>
   <v>      -0.33333333       0.15384615       0.00000000 </v>
   <v>      -0.26666667       0.15384615       0.00000000 </v>
   <v>      -0.20000000       0.15384615       0.00000000 </v>
   <v>      -0.13333333       0.15384615       0.00000000 </v>
   <v>      -0.06666667       0.15384615       0.00000000 </v>
   <v>       0.00000000       0.23076923       0.00000000 </v>
   <v>       0.06666667       0.23076923       0.00000000 </v>
   <v>       0.13333333       0.23076923       0.00000000 </v>
   <v>       0.20000000       0.23076923       0.00000000 </v>
   <v>       0.26666667       0.23076923       0.00000000 </v>
   <v>       0.33333333       0.23076923       0.00000000 </v>
   <v>       0.40000000       0.23076923       0.00000000 </v>
   <v>       0.46666667       0.23076923       0.00000000 </v>
   <v>      -0.46666667       0.23076923       0.00000000 </v>
   <v>      -0.40000000       0.23076923       0.00000000 </v>
   <v>      -0.33333333       0.23076923       0.00000000 </v>
   <v>      -0.26666667       0.23076923       0.00000000 </v>
   <v>      -0.20000000       0.23076923       0.00000000 </v>
   <v>      -0.13333333       0.23076923       0.00000000 </v>
   <v>      -0.06666667       0.23076923       0.00000000 </v>
   <v>       0.00000000       0.30769231       0.00000000 </v>
   <v>       0.06666667       0.30769231       0.00000000 </v>
   <v>       0.13333333       0.30769231       0.00000000 </v>
   <v>       0.20000000       0.30769231       0.00000000 </v>
   <v>       0.26666667       0.30769231       0.00000000 </v>
   <v>       0.33333333       0.30769231       0.00000000 </v>
   <v>       0.40000000       0.30769231       0.00000000 </v>
   <v>       0.46666667       0.30769231       0.00000000 </v>
   <v>      -0.46666667       0.30769231       0.00000000 </v>
   <v>      -0.40000000       0.30769231       0.00000000 </v>
   <v>      -0.33333333       0.30769231       0.00000000 </v>
   <v>      -0.26666667       0.30769231       0.00000000 </v>
   <v>      -0.20000000       0.30769231       0.00000000 </v>
   <v>      -0.13333333       0.30769231       0.00000000 </v>
   <v>      -0.06666667       0.30769231       0.00000000 </v>
   <v>       0.00000000       0.38461538       0.00000000 </v>
   <v>       0.06666667       0.38461538       0.00000000 </v>
   <v>       0.13333333       0.38461538       0.00000000 </v>
   <v>       0.20000000       0.38461538       0.00000000 </v>
   <v>       0.26666667       0.38461538       0.00000000 </v>
   <v>       0.33333333       0.38461538       0.00000000 </v>
   <v>       0.40000000       0.38461538       0.00000000 </v>
   <v>       0.46666667       0.38461538       0.00000000 </v>
   <v>      -0.46666667       0.38461538       0.00000000 </v>
   <v>      -0.40000000       0.38461538       0.00000000 </v>
   <v>      -0.33333333       0.38461538       0.00000000 </v>
   <v>      -0.26666667       0.38461538       0.00000000 </v>
   <v>      -0.20000000       0.38461538       0.00000000 </v>
   <v>      -0.13333333       0.38461538       0.00000000 </v>
   <v>      -0.06666667       0.38461538       0.00000000 </v>
   <v>       0.00000000       0.46153846       0.00000000 </v>
   <v>       0.06666667       0.46153846       0.00000000 </v>
   <v>       0.13333333       0.46153846       0.00000000 </v>
   <v>       0.20000000       0.46153846       0.00000000 </v>
   <v>       0.26666667       0.46153846       0.00000000 </v>
   <v>       0.33333333       0.46153846       0.00000000 </v>
   <v>       0.40000000       0.46153846       0.00000000 </v>
   <v>       0.46666667       0.46153846       0.00000000 </v>
   <v>      -0.46666667       0.46153846       0.00000000 </v>
   <v>      -0.40000000       0.46153846       0.00000000 </v>
   <v>      -0.33333333       0.46153846       0.00000000 </v>
   <v>      -0.26666667       0.46153846       0.00000000 </v>
   <v>      -0.20000000       0.46153846       0.00000000 </v>
   <v>      -0.13333333       0.46153846       0.00000000 </v>
   <v>      -0.06666667       0.46153846       0.00000000 </v>
  </varray>
  <varray name="weights" >
   <v>       0.00512821 </v>
   <v>       0.01025641 </v>
   <v>       0.01025641 </v>
   <v>       0.01025641 </v>
   <v>       0.01025641 </v>
   <v>       0.01025641 </v>
   <v>       0.01025641 </v>
   <v>       0.01025641 </v>
   <v>       0.01025641 </v>
   <v>       0.01025641 </v>
   <v>       0.01025641 </v>
   <v>       0.01025641 </v>
   <v>       0.01025641 </v>
   <v>       0.01025641 </v>
   <v>       0.01025641 </v>
   <v>       0.01025641 </v>
   <v>       0.01025641 </v>
   <v>       0.01025641 </v>
   <v>       0.01025641 </v>
   <v>       0.01025641 </v>
   <v>       0.01025641 </v>
   <v>       0.01025641 </v>
   <v>       0.01025641 </v>
   <v>       0.01025641 </v>
   <v>       0.01025641 </v>
   <v>       0.01025641 </v>
   <v>       0.01025641 </v>
   <v>       0.01025641 </v>
   <v>       0.01025641 </v>
   <v>       0.01025641 </v>
   <v>       0.01025641 </v>
   <v>       0.01025641 </v>
   <v>       0.01025641 </v>
   <v>       0.01025641 </v>
   <v>       0.01025641 </v>
   <v>       0.01025641 </v>
   <v>       0.01025641 </v>
   <v>       0.01025641 </v>
   <v>       0.01025641 </v>
   <v>       0.01025641 </v>
   <v>       0.01025641 </v>
   <v>       0.01025641 </v>
   <v>       0.01025641 </v>
   <v>       0.01025641 </v>
   <v>       0.01025641 </v>
   <v>       0.01025641 </v>
   <v>       0.01025641 </v>
   <v>       0.01025641 </v>
   <v>       0.01025641 </v>
   <v>       0.01025641 </v>
   <v>       0.01025641 </v>
   <v>       0.01025641 </v>
   <v>       0.01025641 </v>
   <v>       0.01025641 </v>
   <v>       0.01025641 </v>
   <v>       0.01025641 </v>
   <v>       0.01025641 </v>
   <v>       0.01025641 </v>
   <v>       0.01025641 </v>
   <v>       0.01025641 </v>
   <v>       0.01025641 </v>
   <v>       0.01025641 </v>
   <v>       0.01025641 </v>
   <v>       0.01025641 </v>
   <v>       0.01025641 </v>
   <v>       0.01025641 </v>
   <v>       0.01025641 </v>
   <v>       0.01025641 </v>
   <v>       0.01025641 </v>
   <v>       0.01025641 </v>
   <v>       0.01025641 </v>
   <v>       0.01025641 </v>
   <v>       0.01025641 </v>
   <v>       0.01025641 </v>
   <v>       0.01025641 </v>
   <v>       0.01025641 </v>
   <v>       0.01025641 </v>
   <v>       0.01025641 </v>
   <v>       0.01025641 </v>
   <v>       0.01025641 </v>
   <v>       0.01025641 </v>
   <v>       0.01025641 </v>
   <v>       0.01025641 </v>
   <v>       0.01025641 </v>
   <v>       0.01025641 </v>
   <v>       0.01025641 </v>
   <v>       0.01025641 </v>
   <v>       0.01025641 </v>
   <v>       0.01025641 </v>
   <v>       0.01025641 </v>
   <v>       0.01025641 </v>
   <v>       0.01025641 </v>
   <v>       0.01025641 </v>
   <v>       0.01025641 </v>
   <v>       0.01025641 </v>
   <v>       0.01025641 </v>
   <v>       0.01025641 </v>
   <v>       0.01025641 </v>
  </varray>
 </kpoints>
 <parameters>
  <separator name="general" >
   <i type="string" name="SYSTEM">unknown system</i>
   <i type="logical" name="LCOMPAT"> F  </i>
  </separator>
  <separator name="electronic" >
   <i type="string" name="PREC">a</i>
   <i name="ENMAX">    520.00000000</i>
   <i name="ENAUG">    531.35600000</i>
   <i name="EDIFF">      0.00001000</i>
   <i type="int" name="IALGO">    38</i>
   <i type="int" name="IWAVPR">    11</i>
   <i type="int" name="NBANDS">    32</i>
   <i name="NELECT">     52.00000000</i>
   <i type="int" name="TURBO">     0</i>
   <i type="int" name="IRESTART">     0</i>
   <i type="int" name="NREBOOT">     0</i>
   <i type="int" name="NMIN">     0</i>
   <i name="EREF">      0.00000000</i>
   <separator name="electronic smearing" >
    <i type="int" name="ISMEAR">     0</i>
    <i name="SIGMA">      0.02000000</i>
    <i name="KSPACING">      0.50000000</i>
    <i type="logical" name="KGAMMA"> T  </i>
   </separator>
   <separator name="electronic projectors" >
    <i type="logical" name="LREAL"> F  </i>
    <v name="ROPT">      0.00000000      0.00000000</v>
    <i type="int" name="LMAXPAW">  -100</i>
    <i type="int" name="LMAXMIX">     2</i>
    <i type="logical" name="NLSPLINE"> F  </i>
   </separator>
   <separator name="electronic startup" >
    <i type="int" name="ISTART">     0</i>
    <i type="int" name="ICHARG">     2</i>
    <i type="int" name="INIWAV">     1</i>
   </separator>
   <separator name="electronic spin" >
    <i type="int" name="ISPIN">     1</i>
    <i type="logical" name="LNONCOLLINEAR"> F  </i>
    <v name="MAGMOM">      1.00000000      1.00000000      1.00000000      1.00000000      1.00000000      1.00000000</v>
    <i name="NUPDOWN">     -1.00000000</i>
    <i type="logical" name="LSORBIT"> F  </i>
    <v name="SAXIS">      0.00000000      0.00000000      1.00000000</v>
    <i type="logical" name="LSPIRAL"> F  </i>
    <v name="QSPIRAL">      0.00000000      0.00000000      0.00000000</v>
    <i type="logical" name="LZEROZ"> F  </i>
   </separator>
   <separator name="electronic exchange-correlation" >
    <i type="logical" name="LASPH"> F  </i>
    <i type="logical" name="LMETAGGA"> F  </i>
   </separator>
   <separator name="electronic convergence" >
    <i type="int" name="NELM">   250</i>
    <i type="int" name="NELMDL">    -5</i>
    <i type="int" name="NELMIN">     6</i>
    <i name="ENINI">    520.00000000</i>
    <separator name="electronic convergence detail" >
     <i type="logical" name="LDIAG"> T  </i>
     <i type="logical" name="LSUBROT"> F  </i>
     <i name="WEIMIN">      0.00100000</i>
     <i name="EBREAK">      0.00000008</i>
     <i name="DEPER">      0.30000000</i>
     <i type="int" name="NRMM">     4</i>
     <i name="TIME">      0.40000000</i>
    </separator>
   </separator>
   <separator name="electronic mixer" >
    <i name="AMIX">      0.40000000</i>
    <i name="BMIX">      1.00000000</i>
    <i name="AMIN">      0.10000000</i>
    <i name="AMIX_MAG">      1.60000000</i>
    <i name="BMIX_MAG">      1.00000000</i>
    <separator name="electronic mixer details" >
     <i type="int" name="IMIX">     4</i>
     <i type="logical" name="MIXFIRST"> F  </i>
     <i type="int" name="MAXMIX">   -45</i>
     <i name="WC">    100.00000000</i>
     <i type="int" name="INIMIX">     1</i>
     <i type="int" name="MIXPRE">     1</i>
     <i type="int" name="MREMOVE">     5</i>
    </separator>
   </separator>
   <separator name="electronic dipolcorrection" >
    <i type="logical" name="LDIPOL"> F  </i>
    <i type="logical" name="LMONO"> F  </i>
    <i type="int" name="IDIPOL">     0</i>
    <i name="EPSILON">      1.00000000</i>
    <v name="DIPOL">   -100.00000000   -100.00000000   -100.00000000</v>
    <i name="EFIELD">      0.00000000</i>
   </separator>
  </separator>
  <separator name="grids" >
   <i type="int" name="NGX">    36</i>
   <i type="int" name="NGY">    42</i>
   <i type="int" name="NGZ">   140</i>
   <i type="int" name="NGXF">    72</i>
   <i type="int" name="NGYF">    84</i>
   <i type="int" name="NGZF">   280</i>
   <i type="logical" name="ADDGRID"> F  </i>
  </separator>
  <separator name="ionic" >
   <i type="int" name="NSW">   200</i>
   <i type="int" name="IBRION">     2</i>
   <i type="int" name="ISIF">     2</i>
   <i name="PSTRESS">      0.00000000</i>
   <i name="EDIFFG">     -0.01000000</i>
   <i type="int" name="NFREE">     1</i>
   <i name="POTIM">      0.30000000</i>
   <i name="SMASS">     -3.00000000</i>
   <i name="SCALEE">      1.00000000</i>
  </separator>
  <separator name="ionic md" >
   <i name="TEBEG">      0.00010000</i>
   <i name="TEEND">      0.00010000</i>
   <i type="int" name="NBLOCK">     1</i>
   <i type="int" name="KBLOCK">   200</i>
   <i type="int" name="NPACO">   256</i>
   <i name="APACO">     16.00000000</i>
  </separator>
  <separator name="symmetry" >
   <i type="int" name="ISYM">     2</i>
   <i name="SYMPREC">      0.00001000</i>
  </separator>
  <separator name="dos" >
   <i type="logical" name="LORBIT"> F  </i>
   <v name="RWIGS">     -1.00000000     -1.00000000</v>
   <i type="int" name="NEDOS">   301</i>
   <i name="EMIN">     10.00000000</i>
   <i name="EMAX">    -10.00000000</i>
   <i name="EFERMI">      0.00000000</i>
  </separator>
  <separator name="writing" >
   <i type="int" name="NWRITE">     2</i>
   <i type="logical" name="LWAVE"> F  </i>
   <i type="logical" name="LCHARG"> F  </i>
   <i type="logical" name="LPARD"> F  </i>
   <i type="logical" name="LVTOT"> F  </i>
   <i type="logical" name="LVHAR"> F  </i>
   <i type="logical" name="LELF"> F  </i>
   <i type="logical" name="LOPTICS"> F  </i>
   <v name="STM">      0.00000000      0.00000000      0.00000000      0.00000000      0.00000000      0.00000000      0.00000000</v>
  </separator>
  <separator name="performance" >
   <i type="int" name="NPAR">     4</i>
   <i type="int" name="NSIM">     4</i>
   <i type="int" name="NBLK">    -1</i>
   <i type="logical" name="LPLANE"> T  </i>
   <i type="logical" name="LSCALAPACK"> T  </i>
   <i type="logical" name="LSCAAWARE"> F  </i>
   <i type="logical" name="LSCALU"> F  </i>
   <i type="logical" name="LASYNC"> F  </i>
   <i type="logical" name="LORBITALREAL"> F  </i>
  </separator>
  <separator name="miscellaneous" >
   <i type="int" name="IDIOT">     3</i>
   <i type="logical" name="LMUSIC"> F  </i>
   <v name="POMASS">     72.61000000     78.96000000</v>
   <v name="DARWINR">      0.00000000      0.00000000</v>
   <v name="DARWINV">      1.00000000      1.00000000</v>
   <i type="logical" name="LCORR"> T  </i>
  </separator>
  <i type="logical" name="GGA_COMPAT"> T  </i>
  <i type="logical" name="LBERRY"> F  </i>
  <i type="int" name="ICORELEVEL">     0</i>
  <i type="logical" name="LDAU"> F  </i>
  <i type="int" name="I_CONSTRAINED_M">     0</i>
  <separator name="electronic exchange-correlation" >
   <i type="string" name="GGA">--</i>
   <i type="int" name="VOSKOWN">     0</i>
   <i type="logical" name="LHFCALC"> F  </i>
   <i type="string" name="PRECFOCK"></i>
   <i type="logical" name="LSYMGRAD"> F  </i>
   <i type="logical" name="LHFONE"> F  </i>
   <i type="logical" name="LRHFCALC"> F  </i>
   <i type="logical" name="LTHOMAS"> F  </i>
   <i type="logical" name="LMODELHF"> F  </i>
   <i name="ENCUT4O">     -1.00000000</i>
   <i type="int" name="EXXOEP">     0</i>
   <i type="int" name="FOURORBIT">     0</i>
   <i name="AEXX">      0.00000000</i>
   <i name="HFALPHA">      0.00000000</i>
   <i name="MCALPHA">      0.00000000</i>
   <i name="ALDAX">      1.00000000</i>
   <i name="AGGAX">      1.00000000</i>
   <i name="ALDAC">      1.00000000</i>
   <i name="AGGAC">      1.00000000</i>
   <i type="int" name="NKREDX">     1</i>
   <i type="int" name="NKREDY">     1</i>
   <i type="int" name="NKREDZ">     1</i>
   <i type="logical" name="SHIFTRED"> F  </i>
   <i type="logical" name="ODDONLY"> F  </i>
   <i type="logical" name="EVENONLY"> F  </i>
   <i type="int" name="LMAXFOCK">     0</i>
   <i type="int" name="NMAXFOCKAE">     0</i>
   <i type="logical" name="LFOCKAEDFT"> F  </i>
   <i name="HFSCREEN">      0.00000000</i>
   <i name="HFSCREENC">      0.00000000</i>
   <i type="int" name="NBANDSGWLOW">     0</i>
  </separator>
  <separator name="vdW DFT" >
   <i type="logical" name="LUSE_VDW"> F  </i>
   <i name="Zab_VDW">     -0.84910000</i>
   <i name="PARAM1">      0.12340000</i>
   <i name="PARAM2">      1.00000000</i>
   <i name="PARAM3">      0.00000000</i>
  </separator>
  <separator name="model GW" >
   <i type="int" name="MODEL_GW">     0</i>
   <i name="MODEL_EPS0">     49.40578253</i>
   <i name="MODEL_ALPHA">      1.00000000</i>
  </separator>
  <separator name="linear response parameters" >
   <i type="logical" name="LEPSILON"> F  </i>
   <i type="logical" name="LRPA"> F  </i>
   <i type="logical" name="LNABLA"> F  </i>
   <i type="logical" name="LVEL"> F  </i>
   <i type="int" name="KINTER">     0</i>
   <i name="CSHIFT">      0.10000000</i>
   <i name="OMEGAMAX">     -1.00000000</i>
   <i name="DEG_THRESHOLD">      0.00200000</i>
  </separator>
  <separator name="orbital magnetization" >
   <i type="logical" name="NUCIND"> F  </i>
   <v name="MAGPOS">      0.00000000      0.00000000      0.00000000</v>
   <i type="logical" name="LNICSALL"> T  </i>
   <i type="logical" name="ORBITALMAG"> F  </i>
   <i type="logical" name="LMAGBLOCH"> F  </i>
   <i type="logical" name="LCHIMAG"> F  </i>
   <i type="logical" name="LGAUGE"> T  </i>
   <i type="int" name="MAGATOM">     0</i>
   <v name="MAGDIPOL">      0.00000000      0.00000000      0.00000000</v>
   <v name="AVECCONST">      0.00000000      0.00000000      0.00000000</v>
  </separator>
  <separator name="response functions" >
   <i type="logical" name="LADDER"> F  </i>
   <i type="logical" name="LFXC"> F  </i>
   <i type="logical" name="LHARTREE"> T  </i>
   <i type="int" name="IBSE">     0</i>
   <v type="int" name="KPOINT">    -1     0     0     0</v>
   <i type="logical" name="LTCTE"> F  </i>
   <i type="logical" name="LTETE"> F  </i>
   <i type="logical" name="LTRIPLET"> F  </i>
   <i type="logical" name="LFXCEPS"> F  </i>
   <i type="logical" name="LFXHEG"> F  </i>
   <i type="int" name="NATURALO">     0</i>
   <i type="logical" name="L2ORDER"> F  </i>
   <i type="logical" name="LUSEW"> F  </i>
   <i name="ENCUTGW">     -2.00000000</i>
   <i name="ENCUTGWSOFT">     -2.00000000</i>
   <i name="ENCUTLF">     -1.00000000</i>
   <i type="int" name="LMAXMP2">    -1</i>
   <i name="SCISSOR">      0.00000000</i>
   <i type="int" name="NOMEGA">     0</i>
   <i type="int" name="NOMEGAR">     0</i>
   <i type="int" name="NBANDSGW">    -1</i>
   <i type="int" name="NBANDSO">    -1</i>
   <i type="int" name="NBANDSV">    -1</i>
   <i type="int" name="NELM">   250</i>
   <i type="int" name="NELMHF">     1</i>
   <i type="int" name="DIM">     3</i>
   <i type="int" name="ANTIRES">     0</i>
   <i name="OMEGAMAX">    -30.00000000</i>
   <i name="OMEGAMIN">    -30.00000000</i>
   <i name="OMEGATL">   -200.00000000</i>
   <i type="int" name="OMEGAGRID">     0</i>
   <i name="CSHIFT">     -0.10000000</i>
   <i type="logical" name="SELFENERGY"> F  </i>
   <i type="logical" name="LSPECTRAL"> F  </i>
   <i type="logical" name="LSPECTRALGW"> F  </i>
   <i type="logical" name="LSINGLES"> F  </i>
   <i type="logical" name="LFERMIGW"> F  </i>
   <i type="logical" name="ODDONLYGW"> F  </i>
   <i type="logical" name="EVENONLYGW"> F  </i>
   <i type="int" name="NKREDLFX">     1</i>
   <i type="int" name="NKREDLFY">     1</i>
   <i type="int" name="NKREDLFZ">     1</i>
   <i type="int" name="MAXMEM">  1800</i>
   <i type="int" name="TELESCOPE">     0</i>
   <i type="int" name="TAUPAR">     1</i>
   <i type="int" name="OMEGAPAR">    -1</i>
   <i name="LAMBDA">      1.00000000</i>
  </separator>
  <separator name="External order field" >
   <i name="OFIELD_KAPPA">      0.00000000</i>
   <v name="OFIELD_K">      0.00000000      0.00000000      0.00000000</v>
   <i name="OFIELD_Q6_NEAR">      0.00000000</i>
   <i name="OFIELD_Q6_FAR">      0.00000000</i>
   <i name="OFIELD_A">      0.00000000</i>
  </separator>
 </parameters>
 <atominfo>
  <atoms>       6 </atoms>
  <types>       2 </types>
  <array name="atoms" >
   <dimension dim="1">ion</dimension>
   <field type="string">element</field>
   <field type="int">atomtype</field>
   <set>
    <rc><c>Ge</c><c>   1</c></rc>
    <rc><c>Ge</c><c>   1</c></rc>
    <rc><c>Se</c><c>   2</c></rc>
    <rc><c>Se</c><c>   2</c></rc>
    <rc><c>Se</c><c>   2</c></rc>
    <rc><c>Se</c><c>   2</c></rc>
   </set>
  </array>
  <array name="atomtypes" >
   <dimension dim="1">type</dimension>
   <field type="int">atomspertype</field>
   <field type="string">element</field>
   <field>mass</field>
   <field>valence</field>
   <field type="string">pseudopotential</field>
   <set>
    <rc><c>   2</c><c>Ge</c><c>     72.61000000</c><c>     14.00000000</c><c>  PAW_PBE Ge_d 03Jul2007                </c></rc>
    <rc><c>   4</c><c>Se</c><c>     78.96000000</c><c>      6.00000000</c><c>  PAW_PBE Se 06Sep2000                  </c></rc>
   </set>
  </array>
 </atominfo>
 <structure name="initialpos" >
  <crystal>
   <varray name="basis" >
    <v>       4.90583200      -0.04906300       0.00000000 </v>
    <v>      -0.05571500       5.57092300       0.00000000 </v>
    <v>       0.00000000       0.00000000      18.07929100 </v>
   </varray>
   <i name="volume">    494.05782526 </i>
   <varray name="rec_basis" >
    <v>       0.20385941       0.00203881       0.00000000 </v>
    <v>       0.00179539       0.17952142       0.00000000 </v>
    <v>       0.00000000       0.00000000       0.05531190 </v>
   </varray>
  </crystal>
  <varray name="positions" >
   <v>       0.50000000       0.50000000       0.50000000 </v>
   <v>       0.00000000       0.00000000       0.50000000 </v>
   <v>       0.25000000       0.25000000       0.41502600 </v>
   <v>       0.75000000       0.75000000       0.41502600 </v>
   <v>       0.75000000       0.25000000       0.58497400 </v>
   <v>       0.25000000       0.75000000       0.58497400 </v>
  </varray>
 </structure>
 <calculation>
  <scstep>
   <time name="dav">    2.83    2.84</time>
   <time name="total">    2.87    2.88</time>
   <energy>
    <i name="alphaZ">     46.49463335 </i>
    <i name="ewald">   4983.70355626 </i>
    <i name="hartreedc">  -9770.97702710 </i>
    <i name="XCdc">    142.45219483 </i>
    <i name="pawpsdc">   4514.43351212 </i>
    <i name="pawaedc">  -5329.26418529 </i>
    <i name="eentropy">     -0.00062622 </i>
    <i name="bandstr">   -367.93947491 </i>
    <i name="atom">   6220.98622430 </i>
    <i name="e_fr_energy">    439.88880735 </i>
    <i name="e_wo_entrp">    439.88943357 </i>
    <i name="e_0_energy">    439.88912046 </i>
   </energy>
  </scstep>
  <scstep>
   <time name="dav">    3.02    3.02</time>
   <time name="total">    3.03    3.03</time>
   <energy>
    <i name="e_fr_energy">     45.80560045 </i>
    <i name="e_wo_entrp">     45.80594566 </i>
    <i name="e_0_energy">     45.80577306 </i>
   </energy>
  </scstep>
  <scstep>
   <time name="dav">    3.23    3.24</time>
   <time name="total">    3.24    3.24</time>
   <energy>
    <i name="e_fr_energy">    -21.46547999 </i>
    <i name="e_wo_entrp">    -21.46547999 </i>
    <i name="e_0_energy">    -21.46547999 </i>
   </energy>
  </scstep>
  <scstep>
   <time name="dav">    2.92    2.92</time>
   <time name="total">    2.92    2.92</time>
   <energy>
    <i name="e_fr_energy">    -24.74109104 </i>
    <i name="e_wo_entrp">    -24.74109104 </i>
    <i name="e_0_energy">    -24.74109104 </i>
   </energy>
  </scstep>
  <scstep>
   <time name="dav">    3.44    3.44</time>
   <time name="total">    3.59    3.59</time>
   <energy>
    <i name="e_fr_energy">    -24.85375974 </i>
    <i name="e_wo_entrp">    -24.85375974 </i>
    <i name="e_0_energy">    -24.85375974 </i>
   </energy>
  </scstep>
  <scstep>
   <time name="dav">    3.37    3.37</time>
   <time name="total">    3.54    3.55</time>
   <energy>
    <i name="e_fr_energy">    -24.35301215 </i>
    <i name="e_wo_entrp">    -24.35301215 </i>
    <i name="e_0_energy">    -24.35301215 </i>
   </energy>
  </scstep>
  <scstep>
   <time name="dav">    3.05    3.05</time>
   <time name="total">    3.22    3.22</time>
   <energy>
    <i name="e_fr_energy">    -24.25720176 </i>
    <i name="e_wo_entrp">    -24.25720176 </i>
    <i name="e_0_energy">    -24.25720176 </i>
   </energy>
  </scstep>
  <scstep>
   <time name="dav">    3.22    3.22</time>
   <time name="total">    3.39    3.39</time>
   <energy>
    <i name="e_fr_energy">    -24.25131491 </i>
    <i name="e_wo_entrp">    -24.25131491 </i>
    <i name="e_0_energy">    -24.25131491 </i>
   </energy>
  </scstep>
  <scstep>
   <time name="dav">    3.23    3.23</time>
   <time name="total">    3.41    3.41</time>
   <energy>
    <i name="e_fr_energy">    -24.25078040 </i>
    <i name="e_wo_entrp">    -24.25078040 </i>
    <i name="e_0_energy">    -24.25078040 </i>
   </energy>
  </scstep>
  <scstep>
   <time name="dav">    3.40    3.40</time>
   <time name="total">    3.57    3.58</time>
   <energy>
    <i name="e_fr_energy">    -24.25055092 </i>
    <i name="e_wo_entrp">    -24.25055092 </i>
    <i name="e_0_energy">    -24.25055092 </i>
   </energy>
  </scstep>
  <scstep>
   <time name="dav">    2.78    2.78</time>
   <time name="total">    2.95    2.95</time>
   <energy>
    <i name="e_fr_energy">    -24.25034622 </i>
    <i name="e_wo_entrp">    -24.25034622 </i>
    <i name="e_0_energy">    -24.25034622 </i>
   </energy>
  </scstep>
  <scstep>
   <time name="dav">    2.69    2.69</time>
   <time name="total">    2.86    2.86</time>
   <energy>
    <i name="e_fr_energy">    -24.25046461 </i>
    <i name="e_wo_entrp">    -24.25046461 </i>
    <i name="e_0_energy">    -24.25046461 </i>
   </energy>
  </scstep>
  <scstep>
   <time name="dav">    2.65    2.65</time>
   <time name="total">    2.82    2.82</time>
   <energy>
    <i name="e_fr_energy">    -24.25072834 </i>
    <i name="e_wo_entrp">    -24.25072834 </i>
    <i name="e_0_energy">    -24.25072834 </i>
   </energy>
  </scstep>
  <scstep>
   <time name="dav">    2.53    2.53</time>
   <time name="total">    2.70    2.70</time>
   <energy>
    <i name="e_fr_energy">    -24.25083614 </i>
    <i name="e_wo_entrp">    -24.25083614 </i>
    <i name="e_0_energy">    -24.25083614 </i>
   </energy>
  </scstep>
  <scstep>
   <time name="dav">    2.47    2.47</time>
   <time name="total">    2.64    2.65</time>
   <energy>
    <i name="e_fr_energy">    -24.25089371 </i>
    <i name="e_wo_entrp">    -24.25089371 </i>
    <i name="e_0_energy">    -24.25089371 </i>
   </energy>
  </scstep>
  <scstep>
   <time name="dav">    2.37    2.37</time>
   <time name="total">    2.54    2.55</time>
   <energy>
    <i name="e_fr_energy">    -24.25094137 </i>
    <i name="e_wo_entrp">    -24.25094137 </i>
    <i name="e_0_energy">    -24.25094137 </i>
   </energy>
  </scstep>
  <scstep>
   <time name="dav">    2.26    2.26</time>
   <time name="total">    2.43    2.43</time>
   <energy>
    <i name="e_fr_energy">    -24.25099190 </i>
    <i name="e_wo_entrp">    -24.25099190 </i>
    <i name="e_0_energy">    -24.25099190 </i>
   </energy>
  </scstep>
  <scstep>
   <time name="dav">    2.27    2.27</time>
   <time name="total">    2.44    2.44</time>
   <energy>
    <i name="e_fr_energy">    -24.25103477 </i>
    <i name="e_wo_entrp">    -24.25103477 </i>
    <i name="e_0_energy">    -24.25103477 </i>
   </energy>
  </scstep>
  <scstep>
   <time name="dav">    2.35    2.35</time>
   <time name="total">    2.52    2.52</time>
   <energy>
    <i name="e_fr_energy">    -24.25104551 </i>
    <i name="e_wo_entrp">    -24.25104551 </i>
    <i name="e_0_energy">    -24.25104551 </i>
   </energy>
  </scstep>
  <scstep>
   <time name="dav">    2.27    2.27</time>
   <time name="total">    2.30    2.30</time>
   <energy>
    <i name="alphaZ">     46.49463335 </i>
    <i name="ewald">   4983.70355626 </i>
    <i name="hartreedc">  -9775.51404658 </i>
    <i name="XCdc">    142.99016223 </i>
    <i name="pawpsdc">   5762.55680735 </i>
    <i name="pawaedc">  -6582.68307004 </i>
    <i name="eentropy">     -0.00000000 </i>
    <i name="bandstr">   -822.78531572 </i>
    <i name="atom">   6220.98622430 </i>
    <i name="e_fr_energy">    -24.25104884 </i>
    <i name="e_wo_entrp">    -24.25104884 </i>
    <i name="e_0_energy">    -24.25104884 </i>
   </energy>
  </scstep>
  <structure>
   <crystal>
    <varray name="basis" >
     <v>       4.90583200      -0.04906300       0.00000000 </v>
     <v>      -0.05571500       5.57092300       0.00000000 </v>
     <v>       0.00000000       0.00000000      18.07929100 </v>
    </varray>
    <i name="volume">    494.05782526 </i>
    <varray name="rec_basis" >
     <v>       0.20385941       0.00203881       0.00000000 </v>
     <v>       0.00179539       0.17952142       0.00000000 </v>
     <v>       0.00000000       0.00000000       0.05531190 </v>
    </varray>
   </crystal>
   <varray name="positions" >
    <v>       0.50000000       0.50000000       0.50000000 </v>
    <v>       0.00000000       0.00000000       0.50000000 </v>
    <v>       0.25000000       0.25000000       0.41502600 </v>
    <v>       0.75000000       0.75000000       0.41502600 </v>
    <v>       0.75000000       0.25000000       0.58497400 </v>
    <v>       0.25000000       0.75000000       0.58497400 </v>
   </varray>
  </structure>
  <varray name="forces" >
   <v>       0.00000000       0.00000000       0.19690270 </v>
   <v>       0.00000000       0.00000000       0.19690270 </v>
   <v>       0.00000000      -0.00000000      -0.10215031 </v>
   <v>       0.00000000       0.00000000      -0.10215031 </v>
   <v>       0.00000000       0.00000000      -0.09475239 </v>
   <v>      -0.00000000       0.00000000      -0.09475239 </v>
  </varray>
  <varray name="stress" >
   <v>       0.28136257       4.10159037       0.00000000 </v>
   <v>       4.10159040       0.22340247       0.00000000 </v>
   <v>       0.00000000       0.00000000       0.01871740 </v>
  </varray>
  <energy>
   <i name="e_fr_energy">    -24.25104884 </i>
   <i name="e_wo_entrp">    -24.25104884 </i>
   <i name="e_0_energy">     -0.00000000 </i>
  </energy>
  <time name="totalsc">   60.98   61.03</time>
 </calculation>
 <calculation>
  <scstep>
   <time name="dav">    3.06    3.06</time>
   <time name="total">    3.23    3.23</time>
   <energy>
    <i name="alphaZ">     46.49463335 </i>
    <i name="ewald">   4983.32460904 </i>
    <i name="hartreedc">  -9775.16290489 </i>
    <i name="XCdc">    142.98779098 </i>
    <i name="pawpsdc">   5762.54342414 </i>
    <i name="pawaedc">  -6582.66944255 </i>
    <i name="eentropy">     -0.00000000 </i>
    <i name="bandstr">   -822.75670627 </i>
    <i name="atom">   6220.98622430 </i>
    <i name="e_fr_energy">    -24.25237190 </i>
    <i name="e_wo_entrp">    -24.25237190 </i>
    <i name="e_0_energy">    -24.25237190 </i>
   </energy>
  </scstep>
  <scstep>
   <time name="dav">    3.19    3.19</time>
   <time name="total">    3.36    3.36</time>
   <energy>
    <i name="e_fr_energy">    -24.25292824 </i>
    <i name="e_wo_entrp">    -24.25292824 </i>
    <i name="e_0_energy">    -24.25292824 </i>
   </energy>
  </scstep>
  <scstep>
   <time name="dav">    3.42    3.43</time>
   <time name="total">    3.59    3.60</time>
   <energy>
    <i name="e_fr_energy">    -24.25293362 </i>
    <i name="e_wo_entrp">    -24.25293362 </i>
    <i name="e_0_energy">    -24.25293362 </i>
   </energy>
  </scstep>
  <scstep>
   <time name="dav">    2.37    2.37</time>
   <time name="total">    2.54    2.54</time>
   <energy>
    <i name="e_fr_energy">    -24.25292722 </i>
    <i name="e_wo_entrp">    -24.25292722 </i>
    <i name="e_0_energy">    -24.25292722 </i>
   </energy>
  </scstep>
  <scstep>
   <time name="dav">    2.42    2.42</time>
   <time name="total">    2.59    2.59</time>
   <energy>
    <i name="e_fr_energy">    -24.25292485 </i>
    <i name="e_wo_entrp">    -24.25292485 </i>
    <i name="e_0_energy">    -24.25292485 </i>
   </energy>
  </scstep>
  <scstep>
   <time name="dav">    2.28    2.28</time>
   <time name="total">    2.31    2.31</time>
   <energy>
    <i name="alphaZ">     46.49463335 </i>
    <i name="ewald">   4983.32460904 </i>
    <i name="hartreedc">  -9775.16005035 </i>
    <i name="XCdc">    142.98790918 </i>
    <i name="pawpsdc">   5761.48994155 </i>
    <i name="pawaedc">  -6581.60917668 </i>
    <i name="eentropy">     -0.00000000 </i>
    <i name="bandstr">   -822.76701655 </i>
    <i name="atom">   6220.98622430 </i>
    <i name="e_fr_energy">    -24.25292617 </i>
    <i name="e_wo_entrp">    -24.25292617 </i>
    <i name="e_0_energy">    -24.25292617 </i>
   </energy>
  </scstep>
  <structure>
   <crystal>
    <varray name="basis" >
     <v>       4.90583200      -0.04906300       0.00000000 </v>
     <v>      -0.05571500       5.57092300       0.00000000 </v>
     <v>       0.00000000       0.00000000      18.07929100 </v>
    </varray>
    <i name="volume">    494.05782526 </i>
    <varray name="rec_basis" >
     <v>       0.20385941       0.00203881       0.00000000 </v>
     <v>       0.00179539       0.17952142       0.00000000 </v>
     <v>       0.00000000       0.00000000       0.05531190 </v>
    </varray>
   </crystal>
   <varray name="positions" >
    <v>       0.50000000       0.50000000       0.50031525 </v>
    <v>       0.00000000       0.00000000       0.50031525 </v>
    <v>       0.25000000       0.25000000       0.41486245 </v>
    <v>       0.75000000       0.75000000       0.41486245 </v>
    <v>       0.75000000       0.25000000       0.58482230 </v>
    <v>       0.25000000       0.75000000       0.58482230 </v>
   </varray>
  </structure>
  <varray name="forces" >
   <v>      -0.00000000       0.00000000       0.02098192 </v>
   <v>      -0.00000000       0.00000000       0.02098192 </v>
   <v>       0.00000000      -0.00000000      -0.00992927 </v>
   <v>       0.00000000      -0.00000000      -0.00992927 </v>
   <v>       0.00000000      -0.00000000      -0.01105265 </v>
   <v>       0.00000000      -0.00000000      -0.01105265 </v>
  </varray>
  <varray name="stress" >
   <v>       0.24198974       3.54919765       0.00000000 </v>
   <v>       3.54919765       0.17538211       0.00000000 </v>
   <v>       0.00000000       0.00000000      -0.07344607 </v>
  </varray>
  <energy>
   <i name="e_fr_energy">    -24.25292617 </i>
   <i name="e_wo_entrp">    -24.25292617 </i>
   <i name="e_0_energy">     -0.00000000 </i>
  </energy>
  <time name="totalsc">   19.60   19.62</time>
 </calculation>
 <calculation>
  <scstep>
   <time name="dav">    3.10    3.10</time>
   <time name="total">    3.28    3.28</time>
   <energy>
    <i name="alphaZ">     46.49463335 </i>
    <i name="ewald">   4983.27886348 </i>
    <i name="hartreedc">  -9775.11645353 </i>
    <i name="XCdc">    142.98763028 </i>
    <i name="pawpsdc">   5761.48532201 </i>
    <i name="pawaedc">  -6581.60413381 </i>
    <i name="eentropy">     -0.00000000 </i>
    <i name="bandstr">   -822.76503087 </i>
    <i name="atom">   6220.98622430 </i>
    <i name="e_fr_energy">    -24.25294480 </i>
    <i name="e_wo_entrp">    -24.25294480 </i>
    <i name="e_0_energy">    -24.25294480 </i>
   </energy>
  </scstep>
  <scstep>
   <time name="dav">    3.30    3.30</time>
   <time name="total">    3.47    3.47</time>
   <energy>
    <i name="e_fr_energy">    -24.25295352 </i>
    <i name="e_wo_entrp">    -24.25295352 </i>
    <i name="e_0_energy">    -24.25295352 </i>
   </energy>
  </scstep>
  <scstep>
   <time name="dav">    2.17    2.17</time>
   <time name="total">    2.34    2.35</time>
   <energy>
    <i name="e_fr_energy">    -24.25295412 </i>
    <i name="e_wo_entrp">    -24.25295412 </i>
    <i name="e_0_energy">    -24.25295412 </i>
   </energy>
  </scstep>
  <scstep>
   <time name="dav">    2.18    2.18</time>
   <time name="total">    2.34    2.35</time>
   <energy>
    <i name="e_fr_energy">    -24.25295484 </i>
    <i name="e_wo_entrp">    -24.25295484 </i>
    <i name="e_0_energy">    -24.25295484 </i>
   </energy>
  </scstep>
  <scstep>
   <time name="dav">    2.18    2.18</time>
   <time name="total">    2.35    2.35</time>
   <energy>
    <i name="e_fr_energy">    -24.25295552 </i>
    <i name="e_wo_entrp">    -24.25295552 </i>
    <i name="e_0_energy">    -24.25295552 </i>
   </energy>
  </scstep>
  <scstep>
   <time name="dav">    2.02    2.02</time>
   <time name="total">    2.04    2.05</time>
   <energy>
    <i name="alphaZ">     46.49463335 </i>
    <i name="ewald">   4983.27886348 </i>
    <i name="hartreedc">  -9775.11666468 </i>
    <i name="XCdc">    142.98764559 </i>
    <i name="pawpsdc">   5761.37234894 </i>
    <i name="pawaedc">  -6581.49028116 </i>
    <i name="eentropy">     -0.00000000 </i>
    <i name="bandstr">   -822.76572573 </i>
    <i name="atom">   6220.98622430 </i>
    <i name="e_fr_energy">    -24.25295591 </i>
    <i name="e_wo_entrp">    -24.25295591 </i>
    <i name="e_0_energy">    -24.25295591 </i>
   </energy>
  </scstep>
  <structure>
   <crystal>
    <varray name="basis" >
     <v>       4.90583200      -0.04906300       0.00000000 </v>
     <v>      -0.05571500       5.57092300       0.00000000 </v>
     <v>       0.00000000       0.00000000      18.07929100 </v>
    </varray>
    <i name="volume">    494.05782526 </i>
    <varray name="rec_basis" >
     <v>       0.20385941       0.00203881       0.00000000 </v>
     <v>       0.00179539       0.17952142       0.00000000 </v>
     <v>       0.00000000       0.00000000       0.05531190 </v>
    </varray>
   </crystal>
   <varray name="positions" >
    <v>       0.50000000       0.50000000       0.50035280 </v>
    <v>       0.00000000       0.00000000       0.50035280 </v>
    <v>       0.25000000       0.25000000       0.41484297 </v>
    <v>       0.75000000       0.75000000       0.41484297 </v>
    <v>       0.75000000       0.25000000       0.58480423 </v>
    <v>       0.25000000       0.75000000       0.58480423 </v>
   </varray>
  </structure>
  <varray name="forces" >
   <v>      -0.00000000       0.00000000       0.00097970 </v>
   <v>       0.00000000      -0.00000000       0.00097970 </v>
   <v>       0.00000000      -0.00000000       0.00052709 </v>
   <v>       0.00000000      -0.00000000       0.00052709 </v>
   <v>       0.00000000      -0.00000000      -0.00150678 </v>
   <v>       0.00000000      -0.00000000      -0.00150678 </v>
  </varray>
  <varray name="stress" >
   <v>       0.24856868       3.49022704       0.00000000 </v>
   <v>       3.49022707       0.18137320       0.00000000 </v>
   <v>       0.00000000       0.00000000      -0.07510643 </v>
  </varray>
  <energy>
   <i name="e_fr_energy">    -24.25295591 </i>
   <i name="e_wo_entrp">    -24.25295591 </i>
   <i name="e_0_energy">     -0.00000000 </i>
  </energy>
  <time name="totalsc">   17.68   17.70</time>
  <eigenvalues>
   <array>
    <dimension dim="1">band</dimension>
    <dimension dim="2">kpoint</dimension>
    <dimension dim="3">spin</dimension>
    <field>eigene</field>
    <field>occ</field>
    <set>
     <set comment="spin 1">
      <set comment="kpoint 1">
       <r>  -27.7946    1.0000 </r>
       <r>  -27.7886    1.0000 </r>
       <r>  -27.7879    1.0000 </r>
       <r>  -27.7820    1.0000 </r>
       <r>  -27.7795    1.0000 </r>
       <r>  -27.7674    1.0000 </r>
       <r>  -27.7626    1.0000 </r>
       <r>  -27.7606    1.0000 </r>
       <r>  -27.7480    1.0000 </r>
       <r>  -27.7425    1.0000 </r>
       <r>  -16.9062    1.0000 </r>
       <r>  -15.3940    1.0000 </r>
       <r>  -14.9701    1.0000 </r>
       <r>  -14.7587    1.0000 </r>
       <r>  -11.7908    1.0000 </r>
       <r>   -9.2177    1.0000 </r>
       <r>   -7.4584    1.0000 </r>
       <r>   -5.9014    1.0000 </r>
       <r>   -5.4916    1.0000 </r>
       <r>   -5.4800    1.0000 </r>
       <r>   -5.1754    1.0000 </r>
       <r>   -5.1359    1.0000 </r>
       <r>   -4.6515    1.0000 </r>
       <r>   -4.1529    1.0000 </r>
       <r>   -2.9103    1.0000 </r>
       <r>   -2.7172    1.0000 </r>
       <r>   -1.8579    0.0000 </r>
       <r>   -1.3773    0.0000 </r>
       <r>   -0.8810    0.0000 </r>
       <r>    0.1343    0.0000 </r>
       <r>    0.6728    0.0000 </r>
       <r>    1.9480    0.0000 </r>
      </set>
      <set comment="kpoint 2">
       <r>  -27.7945    1.0000 </r>
       <r>  -27.7886    1.0000 </r>
       <r>  -27.7878    1.0000 </r>
       <r>  -27.7821    1.0000 </r>
       <r>  -27.7796    1.0000 </r>
       <r>  -27.7673    1.0000 </r>
       <r>  -27.7627    1.0000 </r>
       <r>  -27.7609    1.0000 </r>
       <r>  -27.7480    1.0000 </r>
       <r>  -27.7425    1.0000 </r>
       <r>  -16.8896    1.0000 </r>
       <r>  -15.3877    1.0000 </r>
       <r>  -14.9730    1.0000 </r>
       <r>  -14.7975    1.0000 </r>
       <r>  -11.7479    1.0000 </r>
       <r>   -9.2330    1.0000 </r>
       <r>   -7.4569    1.0000 </r>
       <r>   -5.8963    1.0000 </r>
       <r>   -5.5826    1.0000 </r>
       <r>   -5.5528    1.0000 </r>
       <r>   -5.2419    1.0000 </r>
       <r>   -5.0354    1.0000 </r>
       <r>   -4.6477    1.0000 </r>
       <r>   -4.1383    1.0000 </r>
       <r>   -2.9573    1.0000 </r>
       <r>   -2.7604    1.0000 </r>
       <r>   -1.7586    0.0000 </r>
       <r>   -1.3729    0.0000 </r>
       <r>   -0.7701    0.0000 </r>
       <r>    0.1828    0.0000 </r>
       <r>    0.7201    0.0000 </r>
       <r>    1.9774    0.0000 </r>
      </set>
      <set comment="kpoint 3">
       <r>  -27.7941    1.0000 </r>
       <r>  -27.7884    1.0000 </r>
       <r>  -27.7874    1.0000 </r>
       <r>  -27.7823    1.0000 </r>
       <r>  -27.7796    1.0000 </r>
       <r>  -27.7671    1.0000 </r>
       <r>  -27.7629    1.0000 </r>
       <r>  -27.7616    1.0000 </r>
       <r>  -27.7478    1.0000 </r>
       <r>  -27.7427    1.0000 </r>
       <r>  -16.8399    1.0000 </r>
       <r>  -15.3692    1.0000 </r>
       <r>  -14.9837    1.0000 </r>
       <r>  -14.9050    1.0000 </r>
       <r>  -11.6259    1.0000 </r>
       <r>   -9.2809    1.0000 </r>
       <r>   -7.4514    1.0000 </r>
       <r>   -5.8818    1.0000 </r>
       <r>   -5.7429    1.0000 </r>
       <r>   -5.7311    1.0000 </r>
       <r>   -5.4103    1.0000 </r>
       <r>   -4.8590    1.0000 </r>
       <r>   -4.6540    1.0000 </r>
       <r>   -4.0960    1.0000 </r>
       <r>   -3.0881    1.0000 </r>
       <r>   -2.8667    1.0000 </r>
       <r>   -1.5017    0.0000 </r>
       <r>   -1.3487    0.0000 </r>
       <r>   -0.4589    0.0000 </r>
       <r>    0.3184    0.0000 </r>
       <r>    0.8510    0.0000 </r>
       <r>    2.0021    0.0000 </r>
      </set>
      <set comment="kpoint 4">
       <r>  -27.7935    1.0000 </r>
       <r>  -27.7881    1.0000 </r>
       <r>  -27.7870    1.0000 </r>
       <r>  -27.7827    1.0000 </r>
       <r>  -27.7794    1.0000 </r>
       <r>  -27.7668    1.0000 </r>
       <r>  -27.7635    1.0000 </r>
       <r>  -27.7625    1.0000 </r>
       <r>  -27.7475    1.0000 </r>
       <r>  -27.7430    1.0000 </r>
       <r>  -16.7580    1.0000 </r>
       <r>  -15.3398    1.0000 </r>
       <r>  -15.0791    1.0000 </r>
       <r>  -14.9879    1.0000 </r>
       <r>  -11.4407    1.0000 </r>
       <r>   -9.3658    1.0000 </r>
       <r>   -7.4382    1.0000 </r>
       <r>   -5.9979    1.0000 </r>
       <r>   -5.9098    1.0000 </r>
       <r>   -5.8037    1.0000 </r>
       <r>   -5.6206    1.0000 </r>
       <r>   -4.6928    1.0000 </r>
       <r>   -4.6900    1.0000 </r>
       <r>   -4.0304    1.0000 </r>
       <r>   -3.2783    1.0000 </r>
       <r>   -3.0010    1.0000 </r>
       <r>   -1.2810    0.0000 </r>
       <r>   -1.1631    0.0000 </r>
       <r>    0.0050    0.0000 </r>
       <r>    0.5169    0.0000 </r>
       <r>    1.0320    0.0000 </r>
       <r>    1.8417    0.0000 </r>
      </set>
      <set comment="kpoint 5">
       <r>  -27.7927    1.0000 </r>
       <r>  -27.7877    1.0000 </r>
       <r>  -27.7868    1.0000 </r>
       <r>  -27.7832    1.0000 </r>
       <r>  -27.7789    1.0000 </r>
       <r>  -27.7664    1.0000 </r>
       <r>  -27.7650    1.0000 </r>
       <r>  -27.7630    1.0000 </r>
       <r>  -27.7471    1.0000 </r>
       <r>  -27.7433    1.0000 </r>
       <r>  -16.6453    1.0000 </r>
       <r>  -15.3015    1.0000 </r>
       <r>  -15.2763    1.0000 </r>
       <r>  -15.0109    1.0000 </r>
       <r>  -11.2102    1.0000 </r>
       <r>   -9.4930    1.0000 </r>
       <r>   -7.4108    1.0000 </r>
       <r>   -6.2749    1.0000 </r>
       <r>   -6.0126    1.0000 </r>
       <r>   -5.8220    1.0000 </r>
       <r>   -5.7460    1.0000 </r>
       <r>   -4.7719    1.0000 </r>
       <r>   -4.5494    1.0000 </r>
       <r>   -3.9468    1.0000 </r>
       <r>   -3.4969    1.0000 </r>
       <r>   -3.1416    1.0000 </r>
       <r>   -1.1537    0.0000 </r>
       <r>   -0.8160    0.0000 </r>
       <r>    0.5737    0.0000 </r>
       <r>    0.7482    0.0000 </r>
       <r>    1.2096    0.0000 </r>
       <r>    1.6806    0.0000 </r>
      </set>
      <set comment="kpoint 6">
       <r>  -27.7917    1.0000 </r>
       <r>  -27.7872    1.0000 </r>
       <r>  -27.7869    1.0000 </r>
       <r>  -27.7839    1.0000 </r>
       <r>  -27.7777    1.0000 </r>
       <r>  -27.7669    1.0000 </r>
       <r>  -27.7659    1.0000 </r>
       <r>  -27.7634    1.0000 </r>
       <r>  -27.7466    1.0000 </r>
       <r>  -27.7438    1.0000 </r>
       <r>  -16.5038    1.0000 </r>
       <r>  -15.4943    1.0000 </r>
       <r>  -15.2568    1.0000 </r>
       <r>  -15.0388    1.0000 </r>
       <r>  -10.9504    1.0000 </r>
       <r>   -9.6650    1.0000 </r>
       <r>   -7.3607    1.0000 </r>
       <r>   -6.5449    1.0000 </r>
       <r>   -6.0961    1.0000 </r>
       <r>   -5.9841    1.0000 </r>
       <r>   -5.6460    1.0000 </r>
       <r>   -4.8892    1.0000 </r>
       <r>   -4.4354    1.0000 </r>
       <r>   -3.8505    1.0000 </r>
       <r>   -3.7160    1.0000 </r>
       <r>   -3.2770    1.0000 </r>
       <r>   -0.9697    0.0000 </r>
       <r>   -0.5331    0.0000 </r>
       <r>    0.9777    0.0000 </r>
       <r>    1.1976    0.0000 </r>
       <r>    1.3308    0.0000 </r>
       <r>    1.5587    0.0000 </r>
      </set>
      <set comment="kpoint 7">
       <r>  -27.7906    1.0000 </r>
       <r>  -27.7875    1.0000 </r>
       <r>  -27.7866    1.0000 </r>
       <r>  -27.7846    1.0000 </r>
       <r>  -27.7759    1.0000 </r>
       <r>  -27.7692    1.0000 </r>
       <r>  -27.7654    1.0000 </r>
       <r>  -27.7638    1.0000 </r>
       <r>  -27.7461    1.0000 </r>
       <r>  -27.7443    1.0000 </r>
       <r>  -16.3362    1.0000 </r>
       <r>  -15.7184    1.0000 </r>
       <r>  -15.2087    1.0000 </r>
       <r>  -15.0734    1.0000 </r>
       <r>  -10.6748    1.0000 </r>
       <r>   -9.8789    1.0000 </r>
       <r>   -7.2791    1.0000 </r>
       <r>   -6.7887    1.0000 </r>
       <r>   -6.1498    1.0000 </r>
       <r>   -6.0948    1.0000 </r>
       <r>   -5.5158    1.0000 </r>
       <r>   -5.0359    1.0000 </r>
       <r>   -4.3327    1.0000 </r>
       <r>   -3.9156    1.0000 </r>
       <r>   -3.7458    1.0000 </r>
       <r>   -3.4034    1.0000 </r>
       <r>   -0.7527    0.0000 </r>
       <r>   -0.3831    0.0000 </r>
       <r>    1.1689    0.0000 </r>
       <r>    1.3821    0.0000 </r>
       <r>    1.4405    0.0000 </r>
       <r>    1.4588    0.0000 </r>
      </set>
      <set comment="kpoint 8">
       <r>  -27.7895    1.0000 </r>
       <r>  -27.7884    1.0000 </r>
       <r>  -27.7860    1.0000 </r>
       <r>  -27.7853    1.0000 </r>
       <r>  -27.7738    1.0000 </r>
       <r>  -27.7715    1.0000 </r>
       <r>  -27.7648    1.0000 </r>
       <r>  -27.7643    1.0000 </r>
       <r>  -27.7455    1.0000 </r>
       <r>  -27.7449    1.0000 </r>
       <r>  -16.1461    1.0000 </r>
       <r>  -15.9382    1.0000 </r>
       <r>  -15.1603    1.0000 </r>
       <r>  -15.1144    1.0000 </r>
       <r>  -10.3960    1.0000 </r>
       <r>  -10.1265    1.0000 </r>
       <r>   -7.1586    1.0000 </r>
       <r>   -6.9951    1.0000 </r>
       <r>   -6.1709    1.0000 </r>
       <r>   -6.1549    1.0000 </r>
       <r>   -5.3631    1.0000 </r>
       <r>   -5.1987    1.0000 </r>
       <r>   -4.2211    1.0000 </r>
       <r>   -4.0846    1.0000 </r>
       <r>   -3.6358    1.0000 </r>
       <r>   -3.5221    1.0000 </r>
       <r>   -0.5430    0.0000 </r>
       <r>   -0.3978    0.0000 </r>
       <r>    1.2970    0.0000 </r>
       <r>    1.3753    0.0000 </r>
       <r>    1.3955    0.0000 </r>
       <r>    1.4088    0.0000 </r>
      </set>
      <set comment="kpoint 9">
       <r>  -27.7945    1.0000 </r>
       <r>  -27.7885    1.0000 </r>
       <r>  -27.7878    1.0000 </r>
       <r>  -27.7820    1.0000 </r>
       <r>  -27.7796    1.0000 </r>
       <r>  -27.7673    1.0000 </r>
       <r>  -27.7627    1.0000 </r>
       <r>  -27.7610    1.0000 </r>
       <r>  -27.7480    1.0000 </r>
       <r>  -27.7426    1.0000 </r>
       <r>  -16.8875    1.0000 </r>
       <r>  -15.3851    1.0000 </r>
       <r>  -15.0205    1.0000 </r>
       <r>  -14.7682    1.0000 </r>
       <r>  -11.7277    1.0000 </r>
       <r>   -9.2357    1.0000 </r>
       <r>   -7.4448    1.0000 </r>
       <r>   -5.9243    1.0000 </r>
       <r>   -5.5388    1.0000 </r>
       <r>   -5.4842    1.0000 </r>
       <r>   -5.2613    1.0000 </r>
       <r>   -5.1007    1.0000 </r>
       <r>   -4.6470    1.0000 </r>
       <r>   -4.1228    1.0000 </r>
       <r>   -2.9539    1.0000 </r>
       <r>   -2.7741    1.0000 </r>
       <r>   -1.7413    0.0000 </r>
       <r>   -1.3539    0.0000 </r>
       <r>   -0.7504    0.0000 </r>
       <r>    0.1528    0.0000 </r>
       <r>    0.7066    0.0000 </r>
       <r>    1.9754    0.0000 </r>
      </set>
      <set comment="kpoint 10">
       <r>  -27.7942    1.0000 </r>
       <r>  -27.7886    1.0000 </r>
       <r>  -27.7878    1.0000 </r>
       <r>  -27.7821    1.0000 </r>
       <r>  -27.7795    1.0000 </r>
       <r>  -27.7672    1.0000 </r>
       <r>  -27.7627    1.0000 </r>
       <r>  -27.7614    1.0000 </r>
       <r>  -27.7479    1.0000 </r>
       <r>  -27.7426    1.0000 </r>
       <r>  -16.8694    1.0000 </r>
       <r>  -15.3780    1.0000 </r>
       <r>  -15.0343    1.0000 </r>
       <r>  -14.7988    1.0000 </r>
       <r>  -11.6851    1.0000 </r>
       <r>   -9.2484    1.0000 </r>
       <r>   -7.4424    1.0000 </r>
       <r>   -5.9124    1.0000 </r>
       <r>   -5.5846    1.0000 </r>
       <r>   -5.5782    1.0000 </r>
       <r>   -5.3418    1.0000 </r>
       <r>   -5.0010    1.0000 </r>
       <r>   -4.6463    1.0000 </r>
       <r>   -4.1095    1.0000 </r>
       <r>   -2.9283    1.0000 </r>
       <r>   -2.8831    1.0000 </r>
       <r>   -1.7451    0.0000 </r>
       <r>   -1.3486    0.0000 </r>
       <r>   -0.5601    0.0000 </r>
       <r>    0.2010    0.0000 </r>
       <r>    0.7591    0.0000 </r>
       <r>    1.9622    0.0000 </r>
      </set>
      <set comment="kpoint 11">
       <r>  -27.7936    1.0000 </r>
       <r>  -27.7886    1.0000 </r>
       <r>  -27.7876    1.0000 </r>
       <r>  -27.7822    1.0000 </r>
       <r>  -27.7795    1.0000 </r>
       <r>  -27.7670    1.0000 </r>
       <r>  -27.7627    1.0000 </r>
       <r>  -27.7623    1.0000 </r>
       <r>  -27.7477    1.0000 </r>
       <r>  -27.7428    1.0000 </r>
       <r>  -16.8186    1.0000 </r>
       <r>  -15.3592    1.0000 </r>
       <r>  -15.0710    1.0000 </r>
       <r>  -14.8772    1.0000 </r>
       <r>  -11.5715    1.0000 </r>
       <r>   -9.2967    1.0000 </r>
       <r>   -7.4292    1.0000 </r>
       <r>   -5.9194    1.0000 </r>
       <r>   -5.8306    1.0000 </r>
       <r>   -5.7035    1.0000 </r>
       <r>   -5.4058    1.0000 </r>
       <r>   -4.8260    1.0000 </r>
       <r>   -4.6612    1.0000 </r>
       <r>   -4.0703    1.0000 </r>
       <r>   -3.1256    1.0000 </r>
       <r>   -2.8984    1.0000 </r>
       <r>   -1.6159    0.0000 </r>
       <r>   -1.3207    0.0000 </r>
       <r>   -0.1862    0.0000 </r>
       <r>    0.3311    0.0000 </r>
       <r>    0.8940    0.0000 </r>
       <r>    1.8540    0.0000 </r>
      </set>
      <set comment="kpoint 12">
       <r>  -27.7928    1.0000 </r>
       <r>  -27.7884    1.0000 </r>
       <r>  -27.7875    1.0000 </r>
       <r>  -27.7823    1.0000 </r>
       <r>  -27.7793    1.0000 </r>
       <r>  -27.7667    1.0000 </r>
       <r>  -27.7636    1.0000 </r>
       <r>  -27.7629    1.0000 </r>
       <r>  -27.7474    1.0000 </r>
       <r>  -27.7431    1.0000 </r>
       <r>  -16.7361    1.0000 </r>
       <r>  -15.3299    1.0000 </r>
       <r>  -15.1644    1.0000 </r>
       <r>  -14.9554    1.0000 </r>
       <r>  -11.4008    1.0000 </r>
       <r>   -9.3850    1.0000 </r>
       <r>   -7.4024    1.0000 </r>
       <r>   -6.1110    1.0000 </r>
       <r>   -5.9834    1.0000 </r>
       <r>   -5.7441    1.0000 </r>
       <r>   -5.5429    1.0000 </r>
       <r>   -4.7065    1.0000 </r>
       <r>   -4.6572    1.0000 </r>
       <r>   -4.0066    1.0000 </r>
       <r>   -3.3504    1.0000 </r>
       <r>   -2.9717    1.0000 </r>
       <r>   -1.3624    0.0000 </r>
       <r>   -1.2488    0.0000 </r>
       <r>    0.2923    0.0000 </r>
       <r>    0.5178    0.0000 </r>
       <r>    1.0804    0.0000 </r>
       <r>    1.6928    0.0000 </r>
      </set>
      <set comment="kpoint 13">
       <r>  -27.7918    1.0000 </r>
       <r>  -27.7882    1.0000 </r>
       <r>  -27.7876    1.0000 </r>
       <r>  -27.7825    1.0000 </r>
       <r>  -27.7787    1.0000 </r>
       <r>  -27.7662    1.0000 </r>
       <r>  -27.7654    1.0000 </r>
       <r>  -27.7631    1.0000 </r>
       <r>  -27.7470    1.0000 </r>
       <r>  -27.7435    1.0000 </r>
       <r>  -16.6231    1.0000 </r>
       <r>  -15.3276    1.0000 </r>
       <r>  -15.2923    1.0000 </r>
       <r>  -15.0036    1.0000 </r>
       <r>  -11.1888    1.0000 </r>
       <r>   -9.5174    1.0000 </r>
       <r>   -7.3581    1.0000 </r>
       <r>   -6.3777    1.0000 </r>
       <r>   -6.0758    1.0000 </r>
       <r>   -5.7178    1.0000 </r>
       <r>   -5.7044    1.0000 </r>
       <r>   -4.7932    1.0000 </r>
       <r>   -4.5183    1.0000 </r>
       <r>   -3.9201    1.0000 </r>
       <r>   -3.5740    1.0000 </r>
       <r>   -3.0808    1.0000 </r>
       <r>   -1.1197    0.0000 </r>
       <r>   -1.0448    0.0000 </r>
       <r>    0.7311    0.0000 </r>
       <r>    0.8135    0.0000 </r>
       <r>    1.2682    0.0000 </r>
       <r>    1.5459    0.0000 </r>
      </set>
      <set comment="kpoint 14">
       <r>  -27.7907    1.0000 </r>
       <r>  -27.7882    1.0000 </r>
       <r>  -27.7878    1.0000 </r>
       <r>  -27.7828    1.0000 </r>
       <r>  -27.7775    1.0000 </r>
       <r>  -27.7674    1.0000 </r>
       <r>  -27.7657    1.0000 </r>
       <r>  -27.7634    1.0000 </r>
       <r>  -27.7465    1.0000 </r>
       <r>  -27.7439    1.0000 </r>
       <r>  -16.4819    1.0000 </r>
       <r>  -15.5271    1.0000 </r>
       <r>  -15.2489    1.0000 </r>
       <r>  -15.0407    1.0000 </r>
       <r>  -10.9492    1.0000 </r>
       <r>   -9.6949    1.0000 </r>
       <r>   -7.2924    1.0000 </r>
       <r>   -6.6143    1.0000 </r>
       <r>   -6.1461    1.0000 </r>
       <r>   -5.8877    1.0000 </r>
       <r>   -5.6258    1.0000 </r>
       <r>   -4.9185    1.0000 </r>
       <r>   -4.4079    1.0000 </r>
       <r>   -3.8150    1.0000 </r>
       <r>   -3.7796    1.0000 </r>
       <r>   -3.2049    1.0000 </r>
       <r>   -0.9398    0.0000 </r>
       <r>   -0.7439    0.0000 </r>
       <r>    0.9396    0.0000 </r>
       <r>    1.2469    0.0000 </r>
       <r>    1.4046    0.0000 </r>
       <r>    1.5117    0.0000 </r>
      </set>
      <set comment="kpoint 15">
       <r>  -27.7895    1.0000 </r>
       <r>  -27.7889    1.0000 </r>
       <r>  -27.7874    1.0000 </r>
       <r>  -27.7833    1.0000 </r>
       <r>  -27.7758    1.0000 </r>
       <r>  -27.7696    1.0000 </r>
       <r>  -27.7652    1.0000 </r>
       <r>  -27.7638    1.0000 </r>
       <r>  -27.7460    1.0000 </r>
       <r>  -27.7444    1.0000 </r>
       <r>  -16.3152    1.0000 </r>
       <r>  -15.7391    1.0000 </r>
       <r>  -15.2027    1.0000 </r>
       <r>  -15.0783    1.0000 </r>
       <r>  -10.6937    1.0000 </r>
       <r>   -9.9124    1.0000 </r>
       <r>   -7.2019    1.0000 </r>
       <r>   -6.8170    1.0000 </r>
       <r>   -6.1791    1.0000 </r>
       <r>   -6.0255    1.0000 </r>
       <r>   -5.5205    1.0000 </r>
       <r>   -5.0684    1.0000 </r>
       <r>   -4.3100    1.0000 </r>
       <r>   -3.9596    1.0000 </r>
       <r>   -3.6960    1.0000 </r>
       <r>   -3.3317    1.0000 </r>
       <r>   -0.7356    0.0000 </r>
       <r>   -0.5441    0.0000 </r>
       <r>    1.1171    0.0000 </r>
       <r>    1.2998    0.0000 </r>
       <r>    1.4685    0.0000 </r>
       <r>    1.5160    0.0000 </r>
      </set>
      <set comment="kpoint 16">
       <r>  -27.7898    1.0000 </r>
       <r>  -27.7882    1.0000 </r>
       <r>  -27.7870    1.0000 </r>
       <r>  -27.7840    1.0000 </r>
       <r>  -27.7738    1.0000 </r>
       <r>  -27.7720    1.0000 </r>
       <r>  -27.7646    1.0000 </r>
       <r>  -27.7643    1.0000 </r>
       <r>  -27.7454    1.0000 </r>
       <r>  -27.7450    1.0000 </r>
       <r>  -16.1270    1.0000 </r>
       <r>  -15.9500    1.0000 </r>
       <r>  -15.1567    1.0000 </r>
       <r>  -15.1194    1.0000 </r>
       <r>  -10.4328    1.0000 </r>
       <r>  -10.1599    1.0000 </r>
       <r>   -7.0864    1.0000 </r>
       <r>   -6.9865    1.0000 </r>
       <r>   -6.1683    1.0000 </r>
       <r>   -6.1209    1.0000 </r>
       <r>   -5.3937    1.0000 </r>
       <r>   -5.2243    1.0000 </r>
       <r>   -4.2072    1.0000 </r>
       <r>   -4.1119    1.0000 </r>
       <r>   -3.5665    1.0000 </r>
       <r>   -3.4561    1.0000 </r>
       <r>   -0.5498    0.0000 </r>
       <r>   -0.4999    0.0000 </r>
       <r>    1.2588    0.0000 </r>
       <r>    1.2893    0.0000 </r>
       <r>    1.4390    0.0000 </r>
       <r>    1.4733    0.0000 </r>
      </set>
      <set comment="kpoint 17">
       <r>  -27.7908    1.0000 </r>
       <r>  -27.7870    1.0000 </r>
       <r>  -27.7865    1.0000 </r>
       <r>  -27.7847    1.0000 </r>
       <r>  -27.7742    1.0000 </r>
       <r>  -27.7716    1.0000 </r>
       <r>  -27.7648    1.0000 </r>
       <r>  -27.7640    1.0000 </r>
       <r>  -27.7455    1.0000 </r>
       <r>  -27.7448    1.0000 </r>
       <r>  -16.1510    1.0000 </r>
       <r>  -15.9220    1.0000 </r>
       <r>  -15.1641    1.0000 </r>
       <r>  -15.1138    1.0000 </r>
       <r>  -10.4249    1.0000 </r>
       <r>  -10.1766    1.0000 </r>
       <r>   -7.1235    1.0000 </r>
       <r>   -6.9490    1.0000 </r>
       <r>   -6.1750    1.0000 </r>
       <r>   -6.1065    1.0000 </r>
       <r>   -5.3697    1.0000 </r>
       <r>   -5.2506    1.0000 </r>
       <r>   -4.2381    1.0000 </r>
       <r>   -4.0889    1.0000 </r>
       <r>   -3.5770    1.0000 </r>
       <r>   -3.4271    1.0000 </r>
       <r>   -0.5957    0.0000 </r>
       <r>   -0.4360    0.0000 </r>
       <r>    1.2318    0.0000 </r>
       <r>    1.3798    0.0000 </r>
       <r>    1.4253    0.0000 </r>
       <r>    1.4534    0.0000 </r>
      </set>
      <set comment="kpoint 18">
       <r>  -27.7918    1.0000 </r>
       <r>  -27.7863    1.0000 </r>
       <r>  -27.7856    1.0000 </r>
       <r>  -27.7855    1.0000 </r>
       <r>  -27.7763    1.0000 </r>
       <r>  -27.7694    1.0000 </r>
       <r>  -27.7653    1.0000 </r>
       <r>  -27.7635    1.0000 </r>
       <r>  -27.7461    1.0000 </r>
       <r>  -27.7443    1.0000 </r>
       <r>  -16.3355    1.0000 </r>
       <r>  -15.7067    1.0000 </r>
       <r>  -15.2106    1.0000 </r>
       <r>  -15.0759    1.0000 </r>
       <r>  -10.6948    1.0000 </r>
       <r>   -9.9360    1.0000 </r>
       <r>   -7.2292    1.0000 </r>
       <r>   -6.7934    1.0000 </r>
       <r>   -6.1925    1.0000 </r>
       <r>   -5.9877    1.0000 </r>
       <r>   -5.4931    1.0000 </r>
       <r>   -5.0986    1.0000 </r>
       <r>   -4.3442    1.0000 </r>
       <r>   -3.9521    1.0000 </r>
       <r>   -3.6941    1.0000 </r>
       <r>   -3.2778    1.0000 </r>
       <r>   -0.7707    0.0000 </r>
       <r>   -0.4483    0.0000 </r>
       <r>    1.1165    0.0000 </r>
       <r>    1.3964    0.0000 </r>
       <r>    1.4156    0.0000 </r>
       <r>    1.5547    0.0000 </r>
      </set>
      <set comment="kpoint 19">
       <r>  -27.7927    1.0000 </r>
       <r>  -27.7862    1.0000 </r>
       <r>  -27.7862    1.0000 </r>
       <r>  -27.7844    1.0000 </r>
       <r>  -27.7780    1.0000 </r>
       <r>  -27.7673    1.0000 </r>
       <r>  -27.7658    1.0000 </r>
       <r>  -27.7630    1.0000 </r>
       <r>  -27.7466    1.0000 </r>
       <r>  -27.7438    1.0000 </r>
       <r>  -16.4986    1.0000 </r>
       <r>  -15.4896    1.0000 </r>
       <r>  -15.2566    1.0000 </r>
       <r>  -15.0440    1.0000 </r>
       <r>  -10.9578    1.0000 </r>
       <r>   -9.7221    1.0000 </r>
       <r>   -7.3065    1.0000 </r>
       <r>   -6.6190    1.0000 </r>
       <r>   -6.1770    1.0000 </r>
       <r>   -5.8144    1.0000 </r>
       <r>   -5.5873    1.0000 </r>
       <r>   -4.9502    1.0000 </r>
       <r>   -4.4425    1.0000 </r>
       <r>   -3.8060    1.0000 </r>
       <r>   -3.7979    1.0000 </r>
       <r>   -3.1204    1.0000 </r>
       <r>   -0.9653    0.0000 </r>
       <r>   -0.6089    0.0000 </r>
       <r>    0.9454    0.0000 </r>
       <r>    1.2319    0.0000 </r>
       <r>    1.3553    0.0000 </r>
       <r>    1.4336    0.0000 </r>
      </set>
      <set comment="kpoint 20">
       <r>  -27.7934    1.0000 </r>
       <r>  -27.7869    1.0000 </r>
       <r>  -27.7863    1.0000 </r>
       <r>  -27.7835    1.0000 </r>
       <r>  -27.7791    1.0000 </r>
       <r>  -27.7663    1.0000 </r>
       <r>  -27.7655    1.0000 </r>
       <r>  -27.7625    1.0000 </r>
       <r>  -27.7471    1.0000 </r>
       <r>  -27.7433    1.0000 </r>
       <r>  -16.6363    1.0000 </r>
       <r>  -15.2991    1.0000 </r>
       <r>  -15.2826    1.0000 </r>
       <r>  -15.0166    1.0000 </r>
       <r>  -11.2023    1.0000 </r>
       <r>   -9.5441    1.0000 </r>
       <r>   -7.3608    1.0000 </r>
       <r>   -6.4197    1.0000 </r>
       <r>   -6.1311    1.0000 </r>
       <r>   -5.6473    1.0000 </r>
       <r>   -5.6049    1.0000 </r>
       <r>   -4.8217    1.0000 </r>
       <r>   -4.5499    1.0000 </r>
       <r>   -3.9095    1.0000 </r>
       <r>   -3.6273    1.0000 </r>
       <r>   -2.9633    1.0000 </r>
       <r>   -1.1358    0.0000 </r>
       <r>   -0.8811    0.0000 </r>
       <r>    0.6374    0.0000 </r>
       <r>    0.7349    0.0000 </r>
       <r>    1.2244    0.0000 </r>
       <r>    1.5134    0.0000 </r>
      </set>
      <set comment="kpoint 21">
       <r>  -27.7940    1.0000 </r>
       <r>  -27.7875    1.0000 </r>
       <r>  -27.7867    1.0000 </r>
       <r>  -27.7827    1.0000 </r>
       <r>  -27.7797    1.0000 </r>
       <r>  -27.7667    1.0000 </r>
       <r>  -27.7642    1.0000 </r>
       <r>  -27.7620    1.0000 </r>
       <r>  -27.7475    1.0000 </r>
       <r>  -27.7430    1.0000 </r>
       <r>  -16.7459    1.0000 </r>
       <r>  -15.3354    1.0000 </r>
       <r>  -15.1104    1.0000 </r>
       <r>  -14.9817    1.0000 </r>
       <r>  -11.4159    1.0000 </r>
       <r>   -9.4075    1.0000 </r>
       <r>   -7.3980    1.0000 </r>
       <r>   -6.1920    1.0000 </r>
       <r>   -6.0629    1.0000 </r>
       <r>   -5.6659    1.0000 </r>
       <r>   -5.3947    1.0000 </r>
       <r>   -4.7287    1.0000 </r>
       <r>   -4.6822    1.0000 </r>
       <r>   -3.9989    1.0000 </r>
       <r>   -3.4429    1.0000 </r>
       <r>   -2.8241    1.0000 </r>
       <r>   -1.2565    0.0000 </r>
       <r>   -1.1905    0.0000 </r>
       <r>    0.0851    0.0000 </r>
       <r>    0.5175    0.0000 </r>
       <r>    1.0448    0.0000 </r>
       <r>    1.6501    0.0000 </r>
      </set>
      <set comment="kpoint 22">
       <r>  -27.7944    1.0000 </r>
       <r>  -27.7879    1.0000 </r>
       <r>  -27.7872    1.0000 </r>
       <r>  -27.7822    1.0000 </r>
       <r>  -27.7799    1.0000 </r>
       <r>  -27.7670    1.0000 </r>
       <r>  -27.7633    1.0000 </r>
       <r>  -27.7614    1.0000 </r>
       <r>  -27.7477    1.0000 </r>
       <r>  -27.7427    1.0000 </r>
       <r>  -16.8252    1.0000 </r>
       <r>  -15.3630    1.0000 </r>
       <r>  -15.0334    1.0000 </r>
       <r>  -14.8942    1.0000 </r>
       <r>  -11.5845    1.0000 </r>
       <r>   -9.3127    1.0000 </r>
       <r>   -7.4228    1.0000 </r>
       <r>   -5.9940    1.0000 </r>
       <r>   -5.9451    1.0000 </r>
       <r>   -5.6300    1.0000 </r>
       <r>   -5.2346    1.0000 </r>
       <r>   -4.8432    1.0000 </r>
       <r>   -4.6776    1.0000 </r>
       <r>   -4.0671    1.0000 </r>
       <r>   -3.2550    1.0000 </r>
       <r>   -2.7287    1.0000 </r>
       <r>   -1.4610    0.0000 </r>
       <r>   -1.3226    0.0000 </r>
       <r>   -0.3773    0.0000 </r>
       <r>    0.3279    0.0000 </r>
       <r>    0.8690    0.0000 </r>
       <r>    1.8084    0.0000 </r>
      </set>
      <set comment="kpoint 23">
       <r>  -27.7946    1.0000 </r>
       <r>  -27.7883    1.0000 </r>
       <r>  -27.7876    1.0000 </r>
       <r>  -27.7820    1.0000 </r>
       <r>  -27.7798    1.0000 </r>
       <r>  -27.7672    1.0000 </r>
       <r>  -27.7629    1.0000 </r>
       <r>  -27.7610    1.0000 </r>
       <r>  -27.7479    1.0000 </r>
       <r>  -27.7426    1.0000 </r>
       <r>  -16.8727    1.0000 </r>
       <r>  -15.3800    1.0000 </r>
       <r>  -15.0189    1.0000 </r>
       <r>  -14.8030    1.0000 </r>
       <r>  -11.6927    1.0000 </r>
       <r>   -9.2566    1.0000 </r>
       <r>   -7.4381    1.0000 </r>
       <r>   -5.9480    1.0000 </r>
       <r>   -5.7078    1.0000 </r>
       <r>   -5.5409    1.0000 </r>
       <r>   -5.1836    1.0000 </r>
       <r>   -5.0116    1.0000 </r>
       <r>   -4.6566    1.0000 </r>
       <r>   -4.1088    1.0000 </r>
       <r>   -3.0836    1.0000 </r>
       <r>   -2.7064    1.0000 </r>
       <r>   -1.6444    0.0000 </r>
       <r>   -1.3482    0.0000 </r>
       <r>   -0.6837    0.0000 </r>
       <r>    0.1980    0.0000 </r>
       <r>    0.7464    0.0000 </r>
       <r>    1.9404    0.0000 </r>
      </set>
      <set comment="kpoint 24">
       <r>  -27.7941    1.0000 </r>
       <r>  -27.7882    1.0000 </r>
       <r>  -27.7876    1.0000 </r>
       <r>  -27.7818    1.0000 </r>
       <r>  -27.7798    1.0000 </r>
       <r>  -27.7670    1.0000 </r>
       <r>  -27.7630    1.0000 </r>
       <r>  -27.7619    1.0000 </r>
       <r>  -27.7477    1.0000 </r>
       <r>  -27.7428    1.0000 </r>
       <r>  -16.8315    1.0000 </r>
       <r>  -15.3589    1.0000 </r>
       <r>  -15.1589    1.0000 </r>
       <r>  -14.7963    1.0000 </r>
       <r>  -11.5519    1.0000 </r>
       <r>   -9.2923    1.0000 </r>
       <r>   -7.4029    1.0000 </r>
       <r>   -5.9834    1.0000 </r>
       <r>   -5.6901    1.0000 </r>
       <r>   -5.4770    1.0000 </r>
       <r>   -5.4590    1.0000 </r>
       <r>   -5.0052    1.0000 </r>
       <r>   -4.6553    1.0000 </r>
       <r>   -4.0383    1.0000 </r>
       <r>   -3.0804    1.0000 </r>
       <r>   -2.8964    1.0000 </r>
       <r>   -1.4487    0.0000 </r>
       <r>   -1.2811    0.0000 </r>
       <r>   -0.3901    0.0000 </r>
       <r>    0.2065    0.0000 </r>
       <r>    0.7996    0.0000 </r>
       <r>    1.8932    0.0000 </r>
      </set>
      <set comment="kpoint 25">
       <r>  -27.7936    1.0000 </r>
       <r>  -27.7884    1.0000 </r>
       <r>  -27.7877    1.0000 </r>
       <r>  -27.7818    1.0000 </r>
       <r>  -27.7796    1.0000 </r>
       <r>  -27.7670    1.0000 </r>
       <r>  -27.7628    1.0000 </r>
       <r>  -27.7625    1.0000 </r>
       <r>  -27.7477    1.0000 </r>
       <r>  -27.7429    1.0000 </r>
       <r>  -16.8124    1.0000 </r>
       <r>  -15.3515    1.0000 </r>
       <r>  -15.1783    1.0000 </r>
       <r>  -14.8182    1.0000 </r>
       <r>  -11.5177    1.0000 </r>
       <r>   -9.3057    1.0000 </r>
       <r>   -7.3927    1.0000 </r>
       <r>   -5.9856    1.0000 </r>
       <r>   -5.8055    1.0000 </r>
       <r>   -5.5316    1.0000 </r>
       <r>   -5.4404    1.0000 </r>
       <r>   -4.9129    1.0000 </r>
       <r>   -4.6624    1.0000 </r>
       <r>   -4.0276    1.0000 </r>
       <r>   -3.1206    1.0000 </r>
       <r>   -2.9209    1.0000 </r>
       <r>   -1.5693    0.0000 </r>
       <r>   -1.2723    0.0000 </r>
       <r>   -0.1423    0.0000 </r>
       <r>    0.2497    0.0000 </r>
       <r>    0.8558    0.0000 </r>
       <r>    1.7920    0.0000 </r>
      </set>
      <set comment="kpoint 26">
       <r>  -27.7929    1.0000 </r>
       <r>  -27.7885    1.0000 </r>
       <r>  -27.7879    1.0000 </r>
       <r>  -27.7817    1.0000 </r>
       <r>  -27.7795    1.0000 </r>
       <r>  -27.7667    1.0000 </r>
       <r>  -27.7635    1.0000 </r>
       <r>  -27.7627    1.0000 </r>
       <r>  -27.7475    1.0000 </r>
       <r>  -27.7431    1.0000 </r>
       <r>  -16.7617    1.0000 </r>
       <r>  -15.3335    1.0000 </r>
       <r>  -15.2200    1.0000 </r>
       <r>  -14.8757    1.0000 </r>
       <r>  -11.4318    1.0000 </r>
       <r>   -9.3629    1.0000 </r>
       <r>   -7.3555    1.0000 </r>
       <r>   -6.0904    1.0000 </r>
       <r>   -6.0413    1.0000 </r>
       <r>   -5.6092    1.0000 </r>
       <r>   -5.3388    1.0000 </r>
       <r>   -4.7478    1.0000 </r>
       <r>   -4.6985    1.0000 </r>
       <r>   -3.9909    1.0000 </r>
       <r>   -3.3395    1.0000 </r>
       <r>   -2.8497    1.0000 </r>
       <r>   -1.6319    0.0000 </r>
       <r>   -1.2374    0.0000 </r>
       <r>    0.2617    0.0000 </r>
       <r>    0.3628    0.0000 </r>
       <r>    0.9916    0.0000 </r>
       <r>    1.6297    0.0000 </r>
      </set>
      <set comment="kpoint 27">
       <r>  -27.7921    1.0000 </r>
       <r>  -27.7884    1.0000 </r>
       <r>  -27.7882    1.0000 </r>
       <r>  -27.7815    1.0000 </r>
       <r>  -27.7793    1.0000 </r>
       <r>  -27.7664    1.0000 </r>
       <r>  -27.7649    1.0000 </r>
       <r>  -27.7628    1.0000 </r>
       <r>  -27.7472    1.0000 </r>
       <r>  -27.7433    1.0000 </r>
       <r>  -16.6804    1.0000 </r>
       <r>  -15.3065    1.0000 </r>
       <r>  -15.2981    1.0000 </r>
       <r>  -14.9450    1.0000 </r>
       <r>  -11.3027    1.0000 </r>
       <r>   -9.4664    1.0000 </r>
       <r>   -7.2920    1.0000 </r>
       <r>   -6.3519    1.0000 </r>
       <r>   -6.1381    1.0000 </r>
       <r>   -5.6299    1.0000 </r>
       <r>   -5.3547    1.0000 </r>
       <r>   -4.7690    1.0000 </r>
       <r>   -4.5916    1.0000 </r>
       <r>   -3.9219    1.0000 </r>
       <r>   -3.5552    1.0000 </r>
       <r>   -2.8464    1.0000 </r>
       <r>   -1.5543    0.0000 </r>
       <r>   -1.1614    0.0000 </r>
       <r>    0.5210    0.0000 </r>
       <r>    0.7056    0.0000 </r>
       <r>    1.1819    0.0000 </r>
       <r>    1.4893    0.0000 </r>
      </set>
      <set comment="kpoint 28">
       <r>  -27.7912    1.0000 </r>
       <r>  -27.7887    1.0000 </r>
       <r>  -27.7881    1.0000 </r>
       <r>  -27.7813    1.0000 </r>
       <r>  -27.7788    1.0000 </r>
       <r>  -27.7666    1.0000 </r>
       <r>  -27.7659    1.0000 </r>
       <r>  -27.7629    1.0000 </r>
       <r>  -27.7468    1.0000 </r>
       <r>  -27.7436    1.0000 </r>
       <r>  -16.5701    1.0000 </r>
       <r>  -15.4226    1.0000 </r>
       <r>  -15.2723    1.0000 </r>
       <r>  -15.0042    1.0000 </r>
       <r>  -11.1394    1.0000 </r>
       <r>   -9.6161    1.0000 </r>
       <r>   -7.2066    1.0000 </r>
       <r>   -6.5669    1.0000 </r>
       <r>   -6.2307    1.0000 </r>
       <r>   -5.6081    1.0000 </r>
       <r>   -5.4684    1.0000 </r>
       <r>   -4.8821    1.0000 </r>
       <r>   -4.4715    1.0000 </r>
       <r>   -3.8177    1.0000 </r>
       <r>   -3.7443    1.0000 </r>
       <r>   -2.9059    1.0000 </r>
       <r>   -1.3501    0.0000 </r>
       <r>   -1.0389    0.0000 </r>
       <r>    0.6991    0.0000 </r>
       <r>    1.0516    0.0000 </r>
       <r>    1.3805    0.0000 </r>
       <r>    1.4798    0.0000 </r>
      </set>
      <set comment="kpoint 29">
       <r>  -27.7902    1.0000 </r>
       <r>  -27.7894    1.0000 </r>
       <r>  -27.7877    1.0000 </r>
       <r>  -27.7816    1.0000 </r>
       <r>  -27.7776    1.0000 </r>
       <r>  -27.7686    1.0000 </r>
       <r>  -27.7653    1.0000 </r>
       <r>  -27.7632    1.0000 </r>
       <r>  -27.7463    1.0000 </r>
       <r>  -27.7441    1.0000 </r>
       <r>  -16.4334    1.0000 </r>
       <r>  -15.5853    1.0000 </r>
       <r>  -15.2336    1.0000 </r>
       <r>  -15.0500    1.0000 </r>
       <r>  -10.9502    1.0000 </r>
       <r>   -9.8066    1.0000 </r>
       <r>   -7.1097    1.0000 </r>
       <r>   -6.7308    1.0000 </r>
       <r>   -6.2794    1.0000 </r>
       <r>   -5.6378    1.0000 </r>
       <r>   -5.5639    1.0000 </r>
       <r>   -5.0260    1.0000 </r>
       <r>   -4.3819    1.0000 </r>
       <r>   -3.9030    1.0000 </r>
       <r>   -3.6853    1.0000 </r>
       <r>   -3.0079    1.0000 </r>
       <r>   -1.0886    0.0000 </r>
       <r>   -0.8838    0.0000 </r>
       <r>    0.8777    0.0000 </r>
       <r>    1.1201    0.0000 </r>
       <r>    1.5288    0.0000 </r>
       <r>    1.7382    0.0000 </r>
      </set>
      <set comment="kpoint 30">
       <r>  -27.7903    1.0000 </r>
       <r>  -27.7892    1.0000 </r>
       <r>  -27.7871    1.0000 </r>
       <r>  -27.7821    1.0000 </r>
       <r>  -27.7760    1.0000 </r>
       <r>  -27.7707    1.0000 </r>
       <r>  -27.7648    1.0000 </r>
       <r>  -27.7636    1.0000 </r>
       <r>  -27.7458    1.0000 </r>
       <r>  -27.7445    1.0000 </r>
       <r>  -16.2734    1.0000 </r>
       <r>  -15.7687    1.0000 </r>
       <r>  -15.1932    1.0000 </r>
       <r>  -15.0895    1.0000 </r>
       <r>  -10.7417    1.0000 </r>
       <r>  -10.0275    1.0000 </r>
       <r>   -7.0180    1.0000 </r>
       <r>   -6.8500    1.0000 </r>
       <r>   -6.2569    1.0000 </r>
       <r>   -5.8283    1.0000 </r>
       <r>   -5.5050    1.0000 </r>
       <r>   -5.1718    1.0000 </r>
       <r>   -4.3033    1.0000 </r>
       <r>   -4.0387    1.0000 </r>
       <r>   -3.5355    1.0000 </r>
       <r>   -3.1337    1.0000 </r>
       <r>   -0.8549    0.0000 </r>
       <r>   -0.7295    0.0000 </r>
       <r>    1.0481    0.0000 </r>
       <r>    1.1323    0.0000 </r>
       <r>    1.5879    0.0000 </r>
       <r>    1.6462    0.0000 </r>
      </set>
      <set comment="kpoint 31">
       <r>  -27.7912    1.0000 </r>
       <r>  -27.7884    1.0000 </r>
       <r>  -27.7864    1.0000 </r>
       <r>  -27.7827    1.0000 </r>
       <r>  -27.7741    1.0000 </r>
       <r>  -27.7729    1.0000 </r>
       <r>  -27.7641    1.0000 </r>
       <r>  -27.7640    1.0000 </r>
       <r>  -27.7452    1.0000 </r>
       <r>  -27.7450    1.0000 </r>
       <r>  -16.0946    1.0000 </r>
       <r>  -15.9578    1.0000 </r>
       <r>  -15.1539    1.0000 </r>
       <r>  -15.1280    1.0000 </r>
       <r>  -10.5201    1.0000 </r>
       <r>  -10.2654    1.0000 </r>
       <r>   -6.9445    1.0000 </r>
       <r>   -6.9368    1.0000 </r>
       <r>   -6.1502    1.0000 </r>
       <r>   -6.0142    1.0000 </r>
       <r>   -5.4308    1.0000 </r>
       <r>   -5.2961    1.0000 </r>
       <r>   -4.2205    1.0000 </r>
       <r>   -4.1582    1.0000 </r>
       <r>   -3.3747    1.0000 </r>
       <r>   -3.2702    1.0000 </r>
       <r>   -0.7206    0.0000 </r>
       <r>   -0.6207    0.0000 </r>
       <r>    1.1606    0.0000 </r>
       <r>    1.2080    0.0000 </r>
       <r>    1.5265    0.0000 </r>
       <r>    1.5637    0.0000 </r>
      </set>
      <set comment="kpoint 32">
       <r>  -27.7920    1.0000 </r>
       <r>  -27.7876    1.0000 </r>
       <r>  -27.7855    1.0000 </r>
       <r>  -27.7835    1.0000 </r>
       <r>  -27.7749    1.0000 </r>
       <r>  -27.7721    1.0000 </r>
       <r>  -27.7645    1.0000 </r>
       <r>  -27.7636    1.0000 </r>
       <r>  -27.7455    1.0000 </r>
       <r>  -27.7447    1.0000 </r>
       <r>  -16.1421    1.0000 </r>
       <r>  -15.9030    1.0000 </r>
       <r>  -15.1677    1.0000 </r>
       <r>  -15.1176    1.0000 </r>
       <r>  -10.5078    1.0000 </r>
       <r>  -10.2922    1.0000 </r>
[...]
       <r>    1.2987    0.0000 </r>
       <r>    1.3175    0.0000 </r>
      </set>
      <set comment="kpoint 96">
       <r>  -27.7930    1.0000 </r>
       <r>  -27.7890    1.0000 </r>
       <r>  -27.7837    1.0000 </r>
       <r>  -27.7825    1.0000 </r>
       <r>  -27.7755    1.0000 </r>
       <r>  -27.7723    1.0000 </r>
       <r>  -27.7644    1.0000 </r>
       <r>  -27.7633    1.0000 </r>
       <r>  -27.7456    1.0000 </r>
       <r>  -27.7447    1.0000 </r>
       <r>  -16.2141    1.0000 </r>
       <r>  -15.9708    1.0000 </r>
       <r>  -15.1404    1.0000 </r>
       <r>  -15.0667    1.0000 </r>
       <r>  -10.5337    1.0000 </r>
       <r>  -10.3086    1.0000 </r>
       <r>   -6.7847    1.0000 </r>
       <r>   -6.7478    1.0000 </r>
       <r>   -6.0683    1.0000 </r>
       <r>   -5.7051    1.0000 </r>
       <r>   -5.3560    1.0000 </r>
       <r>   -5.3135    1.0000 </r>
       <r>   -4.2815    1.0000 </r>
       <r>   -4.1327    1.0000 </r>
       <r>   -3.1530    1.0000 </r>
       <r>   -2.8976    1.0000 </r>
       <r>   -0.8319    0.0000 </r>
       <r>   -0.7914    0.0000 </r>
       <r>    0.8257    0.0000 </r>
       <r>    1.0913    0.0000 </r>
       <r>    1.2508    0.0000 </r>
       <r>    1.2872    0.0000 </r>
      </set>
      <set comment="kpoint 97">
       <r>  -27.7922    1.0000 </r>
       <r>  -27.7888    1.0000 </r>
       <r>  -27.7842    1.0000 </r>
       <r>  -27.7834    1.0000 </r>
       <r>  -27.7748    1.0000 </r>
       <r>  -27.7716    1.0000 </r>
       <r>  -27.7648    1.0000 </r>
       <r>  -27.7637    1.0000 </r>
       <r>  -27.7457    1.0000 </r>
       <r>  -27.7448    1.0000 </r>
       <r>  -16.2469    1.0000 </r>
       <r>  -16.0066    1.0000 </r>
       <r>  -15.1320    1.0000 </r>
       <r>  -15.0512    1.0000 </r>
       <r>  -10.4314    1.0000 </r>
       <r>  -10.1704    1.0000 </r>
       <r>   -6.8279    1.0000 </r>
       <r>   -6.7102    1.0000 </r>
       <r>   -6.1574    1.0000 </r>
       <r>   -5.9310    1.0000 </r>
       <r>   -5.2638    1.0000 </r>
       <r>   -5.1903    1.0000 </r>
       <r>   -4.2720    1.0000 </r>
       <r>   -4.0808    1.0000 </r>
       <r>   -3.3228    1.0000 </r>
       <r>   -3.1035    1.0000 </r>
       <r>   -0.6747    0.0000 </r>
       <r>   -0.5628    0.0000 </r>
       <r>    0.7546    0.0000 </r>
       <r>    0.9900    0.0000 </r>
       <r>    1.1955    0.0000 </r>
       <r>    1.2823    0.0000 </r>
      </set>
      <set comment="kpoint 98">
       <r>  -27.7914    1.0000 </r>
       <r>  -27.7890    1.0000 </r>
       <r>  -27.7843    1.0000 </r>
       <r>  -27.7842    1.0000 </r>
       <r>  -27.7741    1.0000 </r>
       <r>  -27.7712    1.0000 </r>
       <r>  -27.7650    1.0000 </r>
       <r>  -27.7642    1.0000 </r>
       <r>  -27.7457    1.0000 </r>
       <r>  -27.7449    1.0000 </r>
       <r>  -16.2642    1.0000 </r>
       <r>  -16.0344    1.0000 </r>
       <r>  -15.1252    1.0000 </r>
       <r>  -15.0434    1.0000 </r>
       <r>  -10.3575    1.0000 </r>
       <r>  -10.0691    1.0000 </r>
       <r>   -6.8710    1.0000 </r>
       <r>   -6.6671    1.0000 </r>
       <r>   -6.2119    1.0000 </r>
       <r>   -6.1286    1.0000 </r>
       <r>   -5.1618    1.0000 </r>
       <r>   -5.0635    1.0000 </r>
       <r>   -4.2814    1.0000 </r>
       <r>   -4.0441    1.0000 </r>
       <r>   -3.4448    1.0000 </r>
       <r>   -3.2805    1.0000 </r>
       <r>   -0.5720    0.0000 </r>
       <r>   -0.4126    0.0000 </r>
       <r>    0.7169    0.0000 </r>
       <r>    0.9161    0.0000 </r>
       <r>    1.1638    0.0000 </r>
       <r>    1.2508    0.0000 </r>
      </set>
     </set>
    </set>
   </array>
  </eigenvalues>
  <separator name="orbital magnetization" >
   <v name="MAGDIPOLOUT">      0.00000000      0.00000000      0.00000000</v>
  </separator>
  <dos>
   <i name="efermi">     -2.38053152 </i>
   <total>
    <array>
     <dimension dim="1">gridpoints</dimension>
     <dimension dim="2">spin</dimension>
     <field>energy</field>
     <field>total</field>
     <field>integrated</field>
     <set>
      <set comment="spin 1">
       <r>   -29.2844     0.0000     0.0000 </r>
       <r>   -29.1752     0.0000     0.0000 </r>
       <r>   -29.0659     0.0000     0.0000 </r>
       <r>   -28.9567     0.0000     0.0000 </r>
       <r>   -28.8474     0.0000     0.0000 </r>
       <r>   -28.7382     0.0000     0.0000 </r>
       <r>   -28.6289     0.0000     0.0000 </r>
       <r>   -28.5197     0.0000     0.0000 </r>
       <r>   -28.4104     0.0000     0.0000 </r>
       <r>   -28.3011     0.0000     0.0000 </r>
       <r>   -28.1919     0.0000     0.0000 </r>
       <r>   -28.0826     0.0000     0.0000 </r>
       <r>   -27.9734     0.0000     0.0000 </r>
       <r>   -27.8641     0.0000     0.0000 </r>
       <r>   -27.7549   140.8620    15.3898 </r>
       <r>   -27.6456    42.1969    20.0000 </r>
       <r>   -27.5364     0.0000    20.0000 </r>
       <r>   -27.4271     0.0000    20.0000 </r>
       <r>   -27.3179     0.0000    20.0000 </r>
       <r>   -27.2086     0.0000    20.0000 </r>
       <r>   -27.0994     0.0000    20.0000 </r>
       <r>   -26.9901     0.0000    20.0000 </r>
       <r>   -26.8808     0.0000    20.0000 </r>
       <r>   -26.7716     0.0000    20.0000 </r>
       <r>   -26.6623     0.0000    20.0000 </r>
       <r>   -26.5531     0.0000    20.0000 </r>
       <r>   -26.4438     0.0000    20.0000 </r>
       <r>   -26.3346     0.0000    20.0000 </r>
       <r>   -26.2253     0.0000    20.0000 </r>
       <r>   -26.1161     0.0000    20.0000 </r>
       <r>   -26.0068     0.0000    20.0000 </r>
       <r>   -25.8976     0.0000    20.0000 </r>
       <r>   -25.7883     0.0000    20.0000 </r>
       <r>   -25.6790     0.0000    20.0000 </r>
       <r>   -25.5698     0.0000    20.0000 </r>
       <r>   -25.4605     0.0000    20.0000 </r>
       <r>   -25.3513     0.0000    20.0000 </r>
       <r>   -25.2420     0.0000    20.0000 </r>
       <r>   -25.1328     0.0000    20.0000 </r>
       <r>   -25.0235     0.0000    20.0000 </r>
       <r>   -24.9143     0.0000    20.0000 </r>
       <r>   -24.8050     0.0000    20.0000 </r>
       <r>   -24.6958     0.0000    20.0000 </r>
       <r>   -24.5865     0.0000    20.0000 </r>
       <r>   -24.4772     0.0000    20.0000 </r>
       <r>   -24.3680     0.0000    20.0000 </r>
       <r>   -24.2587     0.0000    20.0000 </r>
       <r>   -24.1495     0.0000    20.0000 </r>
       <r>   -24.0402     0.0000    20.0000 </r>
       <r>   -23.9310     0.0000    20.0000 </r>
       <r>   -23.8217     0.0000    20.0000 </r>
       <r>   -23.7125     0.0000    20.0000 </r>
       <r>   -23.6032     0.0000    20.0000 </r>
       <r>   -23.4940     0.0000    20.0000 </r>
       <r>   -23.3847     0.0000    20.0000 </r>
       <r>   -23.2754     0.0000    20.0000 </r>
       <r>   -23.1662     0.0000    20.0000 </r>
       <r>   -23.0569     0.0000    20.0000 </r>
       <r>   -22.9477     0.0000    20.0000 </r>
       <r>   -22.8384     0.0000    20.0000 </r>
       <r>   -22.7292     0.0000    20.0000 </r>
       <r>   -22.6199     0.0000    20.0000 </r>
       <r>   -22.5107     0.0000    20.0000 </r>
       <r>   -22.4014     0.0000    20.0000 </r>
       <r>   -22.2922     0.0000    20.0000 </r>
       <r>   -22.1829     0.0000    20.0000 </r>
       <r>   -22.0736     0.0000    20.0000 </r>
       <r>   -21.9644     0.0000    20.0000 </r>
       <r>   -21.8551     0.0000    20.0000 </r>
       <r>   -21.7459     0.0000    20.0000 </r>
       <r>   -21.6366     0.0000    20.0000 </r>
       <r>   -21.5274     0.0000    20.0000 </r>
       <r>   -21.4181     0.0000    20.0000 </r>
       <r>   -21.3089     0.0000    20.0000 </r>
       <r>   -21.1996     0.0000    20.0000 </r>
       <r>   -21.0904     0.0000    20.0000 </r>
       <r>   -20.9811     0.0000    20.0000 </r>
       <r>   -20.8718     0.0000    20.0000 </r>
       <r>   -20.7626     0.0000    20.0000 </r>
       <r>   -20.6533     0.0000    20.0000 </r>
       <r>   -20.5441     0.0000    20.0000 </r>
       <r>   -20.4348     0.0000    20.0000 </r>
       <r>   -20.3256     0.0000    20.0000 </r>
       <r>   -20.2163     0.0000    20.0000 </r>
       <r>   -20.1071     0.0000    20.0000 </r>
       <r>   -19.9978     0.0000    20.0000 </r>
       <r>   -19.8886     0.0000    20.0000 </r>
       <r>   -19.7793     0.0000    20.0000 </r>
       <r>   -19.6700     0.0000    20.0000 </r>
       <r>   -19.5608     0.0000    20.0000 </r>
       <r>   -19.4515     0.0000    20.0000 </r>
       <r>   -19.3423     0.0000    20.0000 </r>
       <r>   -19.2330     0.0000    20.0000 </r>
       <r>   -19.1238     0.0000    20.0000 </r>
       <r>   -19.0145     0.0000    20.0000 </r>
       <r>   -18.9053     0.0000    20.0000 </r>
       <r>   -18.7960     0.0000    20.0000 </r>
       <r>   -18.6868     0.0000    20.0000 </r>
       <r>   -18.5775     0.0000    20.0000 </r>
       <r>   -18.4682     0.0000    20.0000 </r>
       <r>   -18.3590     0.0000    20.0000 </r>
       <r>   -18.2497     0.0000    20.0000 </r>
       <r>   -18.1405     0.0000    20.0000 </r>
       <r>   -18.0312     0.0000    20.0000 </r>
       <r>   -17.9220     0.0000    20.0000 </r>
       <r>   -17.8127     0.0000    20.0000 </r>
       <r>   -17.7035     0.0000    20.0000 </r>
       <r>   -17.5942     0.0000    20.0000 </r>
       <r>   -17.4850     0.0000    20.0000 </r>
       <r>   -17.3757     0.0000    20.0000 </r>
       <r>   -17.2664     0.0000    20.0000 </r>
       <r>   -17.1572     0.0000    20.0000 </r>
       <r>   -17.0479     0.0000    20.0000 </r>
       <r>   -16.9387     0.0011    20.0001 </r>
       <r>   -16.8294     1.2705    20.1389 </r>
       <r>   -16.7202     2.0235    20.3600 </r>
       <r>   -16.6109     1.8209    20.5590 </r>
       <r>   -16.5017     1.9218    20.7689 </r>
       <r>   -16.3924     2.3680    21.0276 </r>
       <r>   -16.2832     2.0853    21.2555 </r>
       <r>   -16.1739     2.4370    21.5217 </r>
       <r>   -16.0647     2.8732    21.8356 </r>
       <r>   -15.9554     3.8966    22.2614 </r>
       <r>   -15.8461     3.3057    22.6225 </r>
       <r>   -15.7369     2.6853    22.9159 </r>
       <r>   -15.6276     1.6219    23.0931 </r>
       <r>   -15.5184     2.0508    23.3171 </r>
       <r>   -15.4091     1.2074    23.4491 </r>
       <r>   -15.2999     5.6554    24.0670 </r>
       <r>   -15.1906     7.9586    24.9365 </r>
       <r>   -15.0814    14.1169    26.4788 </r>
       <r>   -14.9721     8.3038    27.3860 </r>
       <r>   -14.8629     3.7063    27.7910 </r>
       <r>   -14.7536     1.8506    27.9932 </r>
       <r>   -14.6443     0.0626    28.0000 </r>
       <r>   -14.5351     0.0000    28.0000 </r>
       <r>   -14.4258     0.0000    28.0000 </r>
       <r>   -14.3166     0.0000    28.0000 </r>
       <r>   -14.2073     0.0000    28.0000 </r>
       <r>   -14.0981     0.0000    28.0000 </r>
       <r>   -13.9888     0.0000    28.0000 </r>
       <r>   -13.8796     0.0000    28.0000 </r>
       <r>   -13.7703     0.0000    28.0000 </r>
       <r>   -13.6611     0.0000    28.0000 </r>
       <r>   -13.5518     0.0000    28.0000 </r>
       <r>   -13.4425     0.0000    28.0000 </r>
       <r>   -13.3333     0.0000    28.0000 </r>
       <r>   -13.2240     0.0000    28.0000 </r>
       <r>   -13.1148     0.0000    28.0000 </r>
       <r>   -13.0055     0.0000    28.0000 </r>
       <r>   -12.8963     0.0000    28.0000 </r>
       <r>   -12.7870     0.0000    28.0000 </r>
       <r>   -12.6778     0.0000    28.0000 </r>
       <r>   -12.5685     0.0000    28.0000 </r>
       <r>   -12.4593     0.0000    28.0000 </r>
       <r>   -12.3500     0.0000    28.0000 </r>
       <r>   -12.2407     0.0000    28.0000 </r>
       <r>   -12.1315     0.0000    28.0000 </r>
       <r>   -12.0222     0.0000    28.0000 </r>
       <r>   -11.9130     0.0000    28.0000 </r>
       <r>   -11.8037     0.0169    28.0018 </r>
       <r>   -11.6945     0.5827    28.0655 </r>
       <r>   -11.5852     0.5554    28.1262 </r>
       <r>   -11.4760     0.8278    28.2166 </r>
       <r>   -11.3667     0.9264    28.3178 </r>
       <r>   -11.2575     0.9781    28.4247 </r>
       <r>   -11.1482     1.4324    28.5812 </r>
       <r>   -11.0389     0.5855    28.6452 </r>
       <r>   -10.9297     2.9770    28.9704 </r>
       <r>   -10.8204     1.6963    29.1557 </r>
       <r>   -10.7112     3.9231    29.5844 </r>
       <r>   -10.6019     2.7424    29.8840 </r>
       <r>   -10.4927     1.7823    30.0787 </r>
       <r>   -10.3834     2.2374    30.3232 </r>
       <r>   -10.2742     1.3397    30.4695 </r>
       <r>   -10.1649     1.6639    30.6513 </r>
       <r>   -10.0557     1.2117    30.7837 </r>
       <r>    -9.9464     1.5104    30.9487 </r>
       <r>    -9.8371     1.2964    31.0904 </r>
       <r>    -9.7279     1.3541    31.2383 </r>
       <r>    -9.6186     1.3760    31.3886 </r>
       <r>    -9.5094     1.3940    31.5409 </r>
       <r>    -9.4001     1.3429    31.6876 </r>
       <r>    -9.2909     1.6808    31.8713 </r>
       <r>    -9.1816     1.1777    31.9999 </r>
       <r>    -9.0724     0.0005    32.0000 </r>
       <r>    -8.9631     0.0000    32.0000 </r>
       <r>    -8.8539     0.0000    32.0000 </r>
       <r>    -8.7446     0.0000    32.0000 </r>
       <r>    -8.6353     0.0000    32.0000 </r>
       <r>    -8.5261     0.0000    32.0000 </r>
       <r>    -8.4168     0.0000    32.0000 </r>
       <r>    -8.3076     0.0000    32.0000 </r>
       <r>    -8.1983     0.0000    32.0000 </r>
       <r>    -8.0891     0.0000    32.0000 </r>
       <r>    -7.9798     0.0000    32.0000 </r>
       <r>    -7.8706     0.0000    32.0000 </r>
       <r>    -7.7613     0.0000    32.0000 </r>
       <r>    -7.6521     0.0000    32.0000 </r>
       <r>    -7.5428     0.0000    32.0000 </r>
       <r>    -7.4335     1.0883    32.1189 </r>
       <r>    -7.3243     2.7319    32.4174 </r>
       <r>    -7.2150     2.1344    32.6506 </r>
       <r>    -7.1058     1.9072    32.8589 </r>
       <r>    -6.9965     1.9257    33.0693 </r>
       <r>    -6.8873     2.4016    33.3317 </r>
       <r>    -6.7780    10.0912    34.4342 </r>
       <r>    -6.6688     5.5204    35.0374 </r>
       <r>    -6.5595     2.1661    35.2740 </r>
       <r>    -6.4503     2.0061    35.4932 </r>
       <r>    -6.3410     2.3112    35.7457 </r>
       <r>    -6.2318     3.9390    36.1761 </r>
       <r>    -6.1225     7.1991    36.9626 </r>
       <r>    -6.0132     4.2195    37.4236 </r>
       <r>    -5.9040     4.8201    37.9502 </r>
       <r>    -5.7947     3.5002    38.3326 </r>
       <r>    -5.6855     4.6781    38.8437 </r>
       <r>    -5.5762     4.5995    39.3462 </r>
       <r>    -5.4670     7.1704    40.1296 </r>
       <r>    -5.3577     8.8146    41.0927 </r>
       <r>    -5.2485     6.4813    41.8008 </r>
       <r>    -5.1392     5.9585    42.4518 </r>
       <r>    -5.0300     4.6820    42.9633 </r>
       <r>    -4.9207     3.9107    43.3906 </r>
       <r>    -4.8114     2.9691    43.7150 </r>
       <r>    -4.7022     3.1904    44.0636 </r>
       <r>    -4.5929     4.1208    44.5138 </r>
       <r>    -4.4837     2.1243    44.7459 </r>
       <r>    -4.3744     4.5710    45.2453 </r>
       <r>    -4.2652     6.8287    45.9913 </r>
       <r>    -4.1559     4.1104    46.4404 </r>
       <r>    -4.0467     4.4556    46.9272 </r>
       <r>    -3.9374     3.8286    47.3455 </r>
       <r>    -3.8282     3.7143    47.7513 </r>
       <r>    -3.7189     3.6658    48.1518 </r>
       <r>    -3.6096     2.6843    48.4451 </r>
       <r>    -3.5004     2.9306    48.7653 </r>
       <r>    -3.3911     2.7961    49.0708 </r>
       <r>    -3.2819     2.9262    49.3905 </r>
       <r>    -3.1726     2.5790    49.6722 </r>
       <r>    -3.0634     3.5728    50.0626 </r>
       <r>    -2.9541     2.9276    50.3824 </r>
       <r>    -2.8449     4.2153    50.8430 </r>
       <r>    -2.7356     3.7220    51.2496 </r>
       <r>    -2.6264     3.9652    51.6828 </r>
       <r>    -2.5171     2.1026    51.9126 </r>
       <r>    -2.4078     0.8003    52.0000 </r>
       <r>    -2.2986     0.0000    52.0000 </r>
       <r>    -2.1893     0.0000    52.0000 </r>
       <r>    -2.0801     0.0000    52.0000 </r>
       <r>    -1.9708     0.0000    52.0000 </r>
       <r>    -1.8616     0.0374    52.0041 </r>
       <r>    -1.7523     0.2807    52.0348 </r>
       <r>    -1.6431     0.5432    52.0941 </r>
       <r>    -1.5338     2.5401    52.3716 </r>
       <r>    -1.4246     2.2238    52.6146 </r>
       <r>    -1.3153     4.0990    53.0624 </r>
       <r>    -1.2060     3.9001    53.4885 </r>
       <r>    -1.0968     3.4963    53.8705 </r>
       <r>    -0.9875     3.2986    54.2309 </r>
       <r>    -0.8783     4.7703    54.7521 </r>
       <r>    -0.7690     3.5105    55.1356 </r>
       <r>    -0.6598     4.0249    55.5754 </r>
       <r>    -0.5505     1.8733    55.7800 </r>
       <r>    -0.4413     1.9921    55.9977 </r>
       <r>    -0.3320     1.5141    56.1631 </r>
       <r>    -0.2228     0.1038    56.1745 </r>
       <r>    -0.1135     0.3707    56.2150 </r>
       <r>    -0.0042     0.1213    56.2282 </r>
       <r>     0.1050     0.4347    56.2757 </r>
       <r>     0.2143     1.2996    56.4177 </r>
       <r>     0.3235     1.4974    56.5813 </r>
       <r>     0.4328     1.9355    56.7927 </r>
       <r>     0.5420     2.3028    57.0443 </r>
       <r>     0.6513     1.7801    57.2388 </r>
       <r>     0.7605     3.8848    57.6632 </r>
       <r>     0.8698     3.4094    58.0357 </r>
       <r>     0.9790     4.9897    58.5809 </r>
       <r>     1.0883     8.2270    59.4797 </r>
       <r>     1.1976     7.8426    60.3366 </r>
       <r>     1.3068     6.0689    60.9996 </r>
       <r>     1.4161     6.7475    61.7368 </r>
       <r>     1.5253     6.4670    62.4434 </r>
       <r>     1.6346     5.2800    63.0202 </r>
       <r>     1.7438     4.6493    63.5282 </r>
       <r>     1.8531     2.7720    63.8311 </r>
       <r>     1.9623     0.9246    63.9321 </r>
       <r>     2.0716     0.6218    64.0000 </r>
       <r>     2.1808     0.0000    64.0000 </r>
       <r>     2.2901     0.0000    64.0000 </r>
       <r>     2.3994     0.0000    64.0000 </r>
       <r>     2.5086     0.0000    64.0000 </r>
       <r>     2.6179     0.0000    64.0000 </r>
       <r>     2.7271     0.0000    64.0000 </r>
       <r>     2.8364     0.0000    64.0000 </r>
       <r>     2.9456     0.0000    64.0000 </r>
       <r>     3.0549     0.0000    64.0000 </r>
       <r>     3.1641     0.0000    64.0000 </r>
       <r>     3.2734     0.0000    64.0000 </r>
       <r>     3.3826     0.0000    64.0000 </r>
       <r>     3.4919     0.0000    64.0000 </r>
      </set>
     </set>
    </array>
   </total>
  </dos>
 </calculation>
 <structure name="finalpos" >
  <crystal>
   <varray name="basis" >
    <v>       4.90583200      -0.04906300       0.00000000 </v>
    <v>      -0.05571500       5.57092300       0.00000000 </v>
    <v>       0.00000000       0.00000000      18.07929100 </v>
   </varray>
   <i name="volume">    494.05782526 </i>
   <varray name="rec_basis" >
    <v>       0.20385941       0.00203881       0.00000000 </v>
    <v>       0.00179539       0.17952142       0.00000000 </v>
    <v>       0.00000000       0.00000000       0.05531190 </v>
   </varray>
  </crystal>
  <varray name="positions" >
   <v>       0.50000000       0.50000000       0.50035280 </v>
   <v>       0.00000000       0.00000000       0.50035280 </v>
   <v>       0.25000000       0.25000000       0.41484297 </v>
   <v>       0.75000000       0.75000000       0.41484297 </v>
   <v>       0.75000000       0.25000000       0.58480423 </v>
   <v>       0.25000000       0.75000000       0.58480423 </v>
  </varray>
 </structure>
</modeling>
