<?xml version="1.0" encoding="ISO-8859-1"?>
<modeling>
 <generator>
  <i name="program" type="string">vasp </i>
  <i name="version" type="string">5.4.1  </i>
  <i name="subversion" type="string">24Jun15 (build Nov 20 2020 10:29:34) complex                          parallel </i>
  <i name="platform" type="string">IFC91_ompi </i>
  <i name="date" type="string">2021 09 09 </i>
  <i name="time" type="string">13:43:38 </i>
 </generator>
 <incar>
  <i type="string" name="PREC">a</i>
  <i type="string" name="ALGO"> Normal</i>
  <i type="int" name="ISPIN">     1</i>
  <i type="int" name="ICHARG">     2</i>
  <i type="int" name="NELM">   250</i>
  <i type="int" name="NELMDL">    -5</i>
  <i type="int" name="NELMIN">     6</i>
  <i type="int" name="IBRION">     2</i>
  <i name="EDIFF">      0.00001000</i>
  <i name="EDIFFG">     -0.01000000</i>
  <i type="int" name="NSW">   200</i>
  <i type="int" name="ISIF">     2</i>
  <i name="ENCUT">    520.00000000</i>
  <i name="POTIM">      0.30000000</i>
  <i type="logical" name="LREAL"> F  </i>
  <i type="int" name="ISMEAR">     0</i>
  <i name="SIGMA">      0.02000000</i>
  <i type="logical" name="LWAVE"> F  </i>
  <i type="logical" name="LCHARG"> F  </i>
  <i type="logical" name="LAECHG"> F  </i>
  <v type="int" name="KPOINT_BSE">    -1     0     0     0</v>
  <i type="int" name="NELM">   250</i>
 </incar>
 <kpoints>
  <generation param="Gamma">
   <v type="int" name="divisions">      22       15        1 </v>
   <v name="usershift">      0.00000000       0.00000000       0.00000000 </v>
   <v name="genvec1">      0.04545455       0.00000000       0.00000000 </v>
   <v name="genvec2">      0.00000000       0.06666667       0.00000000 </v>
   <v name="genvec3">      0.00000000       0.00000000       1.00000000 </v>
   <v name="shift">      0.00000000       0.00000000       0.00000000 </v>
  </generation>
  <varray name="kpointlist" >
   <v>       0.00000000       0.00000000       0.00000000 </v>
   <v>       0.04545455       0.00000000       0.00000000 </v>
   <v>       0.09090909       0.00000000       0.00000000 </v>
   <v>       0.13636364       0.00000000       0.00000000 </v>
   <v>       0.18181818       0.00000000       0.00000000 </v>
   <v>       0.22727273       0.00000000       0.00000000 </v>
   <v>       0.27272727       0.00000000       0.00000000 </v>
   <v>       0.31818182       0.00000000       0.00000000 </v>
   <v>       0.36363636       0.00000000       0.00000000 </v>
   <v>       0.40909091       0.00000000       0.00000000 </v>
   <v>       0.45454545       0.00000000       0.00000000 </v>
   <v>       0.50000000       0.00000000       0.00000000 </v>
   <v>       0.00000000       0.06666667       0.00000000 </v>
   <v>       0.04545455       0.06666667       0.00000000 </v>
   <v>       0.09090909       0.06666667       0.00000000 </v>
   <v>       0.13636364       0.06666667       0.00000000 </v>
   <v>       0.18181818       0.06666667       0.00000000 </v>
   <v>       0.22727273       0.06666667       0.00000000 </v>
   <v>       0.27272727       0.06666667       0.00000000 </v>
   <v>       0.31818182       0.06666667       0.00000000 </v>
   <v>       0.36363636       0.06666667       0.00000000 </v>
   <v>       0.40909091       0.06666667       0.00000000 </v>
   <v>       0.45454545       0.06666667       0.00000000 </v>
   <v>       0.50000000       0.06666667       0.00000000 </v>
   <v>      -0.45454545       0.06666667       0.00000000 </v>
   <v>      -0.40909091       0.06666667       0.00000000 </v>
   <v>      -0.36363636       0.06666667       0.00000000 </v>
   <v>      -0.31818182       0.06666667       0.00000000 </v>
   <v>      -0.27272727       0.06666667       0.00000000 </v>
   <v>      -0.22727273       0.06666667       0.00000000 </v>
   <v>      -0.18181818       0.06666667       0.00000000 </v>
   <v>      -0.13636364       0.06666667       0.00000000 </v>
   <v>      -0.09090909       0.06666667       0.00000000 </v>
   <v>      -0.04545455       0.06666667       0.00000000 </v>
   <v>       0.00000000       0.13333333       0.00000000 </v>
   <v>       0.04545455       0.13333333       0.00000000 </v>
   <v>       0.09090909       0.13333333       0.00000000 </v>
   <v>       0.13636364       0.13333333       0.00000000 </v>
   <v>       0.18181818       0.13333333       0.00000000 </v>
   <v>       0.22727273       0.13333333       0.00000000 </v>
   <v>       0.27272727       0.13333333       0.00000000 </v>
   <v>       0.31818182       0.13333333       0.00000000 </v>
   <v>       0.36363636       0.13333333       0.00000000 </v>
   <v>       0.40909091       0.13333333       0.00000000 </v>
   <v>       0.45454545       0.13333333       0.00000000 </v>
   <v>       0.50000000       0.13333333       0.00000000 </v>
   <v>      -0.45454545       0.13333333       0.00000000 </v>
   <v>      -0.40909091       0.13333333       0.00000000 </v>
   <v>      -0.36363636       0.13333333       0.00000000 </v>
   <v>      -0.31818182       0.13333333       0.00000000 </v>
   <v>      -0.27272727       0.13333333       0.00000000 </v>
   <v>      -0.22727273       0.13333333       0.00000000 </v>
   <v>      -0.18181818       0.13333333       0.00000000 </v>
   <v>      -0.13636364       0.13333333       0.00000000 </v>
   <v>      -0.09090909       0.13333333       0.00000000 </v>
   <v>      -0.04545455       0.13333333       0.00000000 </v>
   <v>       0.00000000       0.20000000       0.00000000 </v>
   <v>       0.04545455       0.20000000       0.00000000 </v>
   <v>       0.09090909       0.20000000       0.00000000 </v>
   <v>       0.13636364       0.20000000       0.00000000 </v>
   <v>       0.18181818       0.20000000       0.00000000 </v>
   <v>       0.22727273       0.20000000       0.00000000 </v>
   <v>       0.27272727       0.20000000       0.00000000 </v>
   <v>       0.31818182       0.20000000       0.00000000 </v>
   <v>       0.36363636       0.20000000       0.00000000 </v>
   <v>       0.40909091       0.20000000       0.00000000 </v>
   <v>       0.45454545       0.20000000       0.00000000 </v>
   <v>       0.50000000       0.20000000       0.00000000 </v>
   <v>      -0.45454545       0.20000000       0.00000000 </v>
   <v>      -0.40909091       0.20000000       0.00000000 </v>
   <v>      -0.36363636       0.20000000       0.00000000 </v>
   <v>      -0.31818182       0.20000000       0.00000000 </v>
   <v>      -0.27272727       0.20000000       0.00000000 </v>
   <v>      -0.22727273       0.20000000       0.00000000 </v>
   <v>      -0.18181818       0.20000000       0.00000000 </v>
   <v>      -0.13636364       0.20000000       0.00000000 </v>
   <v>      -0.09090909       0.20000000       0.00000000 </v>
   <v>      -0.04545455       0.20000000       0.00000000 </v>
   <v>       0.00000000       0.26666667       0.00000000 </v>
   <v>       0.04545455       0.26666667       0.00000000 </v>
   <v>       0.09090909       0.26666667       0.00000000 </v>
   <v>       0.13636364       0.26666667       0.00000000 </v>
   <v>       0.18181818       0.26666667       0.00000000 </v>
   <v>       0.22727273       0.26666667       0.00000000 </v>
   <v>       0.27272727       0.26666667       0.00000000 </v>
   <v>       0.31818182       0.26666667       0.00000000 </v>
   <v>       0.36363636       0.26666667       0.00000000 </v>
   <v>       0.40909091       0.26666667       0.00000000 </v>
   <v>       0.45454545       0.26666667       0.00000000 </v>
   <v>       0.50000000       0.26666667       0.00000000 </v>
   <v>      -0.45454545       0.26666667       0.00000000 </v>
   <v>      -0.40909091       0.26666667       0.00000000 </v>
   <v>      -0.36363636       0.26666667       0.00000000 </v>
   <v>      -0.31818182       0.26666667       0.00000000 </v>
   <v>      -0.27272727       0.26666667       0.00000000 </v>
   <v>      -0.22727273       0.26666667       0.00000000 </v>
   <v>      -0.18181818       0.26666667       0.00000000 </v>
   <v>      -0.13636364       0.26666667       0.00000000 </v>
   <v>      -0.09090909       0.26666667       0.00000000 </v>
   <v>      -0.04545455       0.26666667       0.00000000 </v>
   <v>       0.00000000       0.33333333       0.00000000 </v>
   <v>       0.04545455       0.33333333       0.00000000 </v>
   <v>       0.09090909       0.33333333       0.00000000 </v>
   <v>       0.13636364       0.33333333       0.00000000 </v>
   <v>       0.18181818       0.33333333       0.00000000 </v>
   <v>       0.22727273       0.33333333       0.00000000 </v>
   <v>       0.27272727       0.33333333       0.00000000 </v>
   <v>       0.31818182       0.33333333       0.00000000 </v>
   <v>       0.36363636       0.33333333       0.00000000 </v>
   <v>       0.40909091       0.33333333       0.00000000 </v>
   <v>       0.45454545       0.33333333       0.00000000 </v>
   <v>       0.50000000       0.33333333       0.00000000 </v>
   <v>      -0.45454545       0.33333333       0.00000000 </v>
   <v>      -0.40909091       0.33333333       0.00000000 </v>
   <v>      -0.36363636       0.33333333       0.00000000 </v>
   <v>      -0.31818182       0.33333333       0.00000000 </v>
   <v>      -0.27272727       0.33333333       0.00000000 </v>
   <v>      -0.22727273       0.33333333       0.00000000 </v>
   <v>      -0.18181818       0.33333333       0.00000000 </v>
   <v>      -0.13636364       0.33333333       0.00000000 </v>
   <v>      -0.09090909       0.33333333       0.00000000 </v>
   <v>      -0.04545455       0.33333333       0.00000000 </v>
   <v>       0.00000000       0.40000000       0.00000000 </v>
   <v>       0.04545455       0.40000000       0.00000000 </v>
   <v>       0.09090909       0.40000000       0.00000000 </v>
   <v>       0.13636364       0.40000000       0.00000000 </v>
   <v>       0.18181818       0.40000000       0.00000000 </v>
   <v>       0.22727273       0.40000000       0.00000000 </v>
   <v>       0.27272727       0.40000000       0.00000000 </v>
   <v>       0.31818182       0.40000000       0.00000000 </v>
   <v>       0.36363636       0.40000000       0.00000000 </v>
   <v>       0.40909091       0.40000000       0.00000000 </v>
   <v>       0.45454545       0.40000000       0.00000000 </v>
   <v>       0.50000000       0.40000000       0.00000000 </v>
   <v>      -0.45454545       0.40000000       0.00000000 </v>
   <v>      -0.40909091       0.40000000       0.00000000 </v>
   <v>      -0.36363636       0.40000000       0.00000000 </v>
   <v>      -0.31818182       0.40000000       0.00000000 </v>
   <v>      -0.27272727       0.40000000       0.00000000 </v>
   <v>      -0.22727273       0.40000000       0.00000000 </v>
   <v>      -0.18181818       0.40000000       0.00000000 </v>
   <v>      -0.13636364       0.40000000       0.00000000 </v>
   <v>      -0.09090909       0.40000000       0.00000000 </v>
   <v>      -0.04545455       0.40000000       0.00000000 </v>
   <v>       0.00000000       0.46666667       0.00000000 </v>
   <v>       0.04545455       0.46666667       0.00000000 </v>
   <v>       0.09090909       0.46666667       0.00000000 </v>
   <v>       0.13636364       0.46666667       0.00000000 </v>
   <v>       0.18181818       0.46666667       0.00000000 </v>
   <v>       0.22727273       0.46666667       0.00000000 </v>
   <v>       0.27272727       0.46666667       0.00000000 </v>
   <v>       0.31818182       0.46666667       0.00000000 </v>
   <v>       0.36363636       0.46666667       0.00000000 </v>
   <v>       0.40909091       0.46666667       0.00000000 </v>
   <v>       0.45454545       0.46666667       0.00000000 </v>
   <v>       0.50000000       0.46666667       0.00000000 </v>
   <v>      -0.45454545       0.46666667       0.00000000 </v>
   <v>      -0.40909091       0.46666667       0.00000000 </v>
   <v>      -0.36363636       0.46666667       0.00000000 </v>
   <v>      -0.31818182       0.46666667       0.00000000 </v>
   <v>      -0.27272727       0.46666667       0.00000000 </v>
   <v>      -0.22727273       0.46666667       0.00000000 </v>
   <v>      -0.18181818       0.46666667       0.00000000 </v>
   <v>      -0.13636364       0.46666667       0.00000000 </v>
   <v>      -0.09090909       0.46666667       0.00000000 </v>
   <v>      -0.04545455       0.46666667       0.00000000 </v>
  </varray>
  <varray name="weights" >
   <v>       0.00303030 </v>
   <v>       0.00606061 </v>
   <v>       0.00606061 </v>
   <v>       0.00606061 </v>
   <v>       0.00606061 </v>
   <v>       0.00606061 </v>
   <v>       0.00606061 </v>
   <v>       0.00606061 </v>
   <v>       0.00606061 </v>
   <v>       0.00606061 </v>
   <v>       0.00606061 </v>
   <v>       0.00303030 </v>
   <v>       0.00606061 </v>
   <v>       0.00606061 </v>
   <v>       0.00606061 </v>
   <v>       0.00606061 </v>
   <v>       0.00606061 </v>
   <v>       0.00606061 </v>
   <v>       0.00606061 </v>
   <v>       0.00606061 </v>
   <v>       0.00606061 </v>
   <v>       0.00606061 </v>
   <v>       0.00606061 </v>
   <v>       0.00606061 </v>
   <v>       0.00606061 </v>
   <v>       0.00606061 </v>
   <v>       0.00606061 </v>
   <v>       0.00606061 </v>
   <v>       0.00606061 </v>
   <v>       0.00606061 </v>
   <v>       0.00606061 </v>
   <v>       0.00606061 </v>
   <v>       0.00606061 </v>
   <v>       0.00606061 </v>
   <v>       0.00606061 </v>
   <v>       0.00606061 </v>
   <v>       0.00606061 </v>
   <v>       0.00606061 </v>
   <v>       0.00606061 </v>
   <v>       0.00606061 </v>
   <v>       0.00606061 </v>
   <v>       0.00606061 </v>
   <v>       0.00606061 </v>
   <v>       0.00606061 </v>
   <v>       0.00606061 </v>
   <v>       0.00606061 </v>
   <v>       0.00606061 </v>
   <v>       0.00606061 </v>
   <v>       0.00606061 </v>
   <v>       0.00606061 </v>
   <v>       0.00606061 </v>
   <v>       0.00606061 </v>
   <v>       0.00606061 </v>
   <v>       0.00606061 </v>
   <v>       0.00606061 </v>
   <v>       0.00606061 </v>
   <v>       0.00606061 </v>
   <v>       0.00606061 </v>
   <v>       0.00606061 </v>
   <v>       0.00606061 </v>
   <v>       0.00606061 </v>
   <v>       0.00606061 </v>
   <v>       0.00606061 </v>
   <v>       0.00606061 </v>
   <v>       0.00606061 </v>
   <v>       0.00606061 </v>
   <v>       0.00606061 </v>
   <v>       0.00606061 </v>
   <v>       0.00606061 </v>
   <v>       0.00606061 </v>
   <v>       0.00606061 </v>
   <v>       0.00606061 </v>
   <v>       0.00606061 </v>
   <v>       0.00606061 </v>
   <v>       0.00606061 </v>
   <v>       0.00606061 </v>
   <v>       0.00606061 </v>
   <v>       0.00606061 </v>
   <v>       0.00606061 </v>
   <v>       0.00606061 </v>
   <v>       0.00606061 </v>
   <v>       0.00606061 </v>
   <v>       0.00606061 </v>
   <v>       0.00606061 </v>
   <v>       0.00606061 </v>
   <v>       0.00606061 </v>
   <v>       0.00606061 </v>
   <v>       0.00606061 </v>
   <v>       0.00606061 </v>
   <v>       0.00606061 </v>
   <v>       0.00606061 </v>
   <v>       0.00606061 </v>
   <v>       0.00606061 </v>
   <v>       0.00606061 </v>
   <v>       0.00606061 </v>
   <v>       0.00606061 </v>
   <v>       0.00606061 </v>
   <v>       0.00606061 </v>
   <v>       0.00606061 </v>
   <v>       0.00606061 </v>
   <v>       0.00606061 </v>
   <v>       0.00606061 </v>
   <v>       0.00606061 </v>
   <v>       0.00606061 </v>
   <v>       0.00606061 </v>
   <v>       0.00606061 </v>
   <v>       0.00606061 </v>
   <v>       0.00606061 </v>
   <v>       0.00606061 </v>
   <v>       0.00606061 </v>
   <v>       0.00606061 </v>
   <v>       0.00606061 </v>
   <v>       0.00606061 </v>
   <v>       0.00606061 </v>
   <v>       0.00606061 </v>
   <v>       0.00606061 </v>
   <v>       0.00606061 </v>
   <v>       0.00606061 </v>
   <v>       0.00606061 </v>
   <v>       0.00606061 </v>
   <v>       0.00606061 </v>
   <v>       0.00606061 </v>
   <v>       0.00606061 </v>
   <v>       0.00606061 </v>
   <v>       0.00606061 </v>
   <v>       0.00606061 </v>
   <v>       0.00606061 </v>
   <v>       0.00606061 </v>
   <v>       0.00606061 </v>
   <v>       0.00606061 </v>
   <v>       0.00606061 </v>
   <v>       0.00606061 </v>
   <v>       0.00606061 </v>
   <v>       0.00606061 </v>
   <v>       0.00606061 </v>
   <v>       0.00606061 </v>
   <v>       0.00606061 </v>
   <v>       0.00606061 </v>
   <v>       0.00606061 </v>
   <v>       0.00606061 </v>
   <v>       0.00606061 </v>
   <v>       0.00606061 </v>
   <v>       0.00606061 </v>
   <v>       0.00606061 </v>
   <v>       0.00606061 </v>
   <v>       0.00606061 </v>
   <v>       0.00606061 </v>
   <v>       0.00606061 </v>
   <v>       0.00606061 </v>
   <v>       0.00606061 </v>
   <v>       0.00606061 </v>
   <v>       0.00606061 </v>
   <v>       0.00606061 </v>
   <v>       0.00606061 </v>
   <v>       0.00606061 </v>
   <v>       0.00606061 </v>
   <v>       0.00606061 </v>
   <v>       0.00606061 </v>
   <v>       0.00606061 </v>
   <v>       0.00606061 </v>
   <v>       0.00606061 </v>
   <v>       0.00606061 </v>
   <v>       0.00606061 </v>
   <v>       0.00606061 </v>
   <v>       0.00606061 </v>
   <v>       0.00606061 </v>
  </varray>
 </kpoints>
 <parameters>
  <separator name="general" >
   <i type="string" name="SYSTEM">unknown system</i>
   <i type="logical" name="LCOMPAT"> F  </i>
  </separator>
  <separator name="electronic" >
   <i type="string" name="PREC">a</i>
   <i name="ENMAX">    520.00000000</i>
   <i name="ENAUG">    342.92400000</i>
   <i name="EDIFF">      0.00001000</i>
   <i type="int" name="IALGO">    38</i>
   <i type="int" name="IWAVPR">    11</i>
   <i type="int" name="NBANDS">    16</i>
   <i name="NELECT">     20.00000000</i>
   <i type="int" name="TURBO">     0</i>
   <i type="int" name="IRESTART">     0</i>
   <i type="int" name="NREBOOT">     0</i>
   <i type="int" name="NMIN">     0</i>
   <i name="EREF">      0.00000000</i>
   <separator name="electronic smearing" >
    <i type="int" name="ISMEAR">     0</i>
    <i name="SIGMA">      0.02000000</i>
    <i name="KSPACING">      0.50000000</i>
    <i type="logical" name="KGAMMA"> T  </i>
   </separator>
   <separator name="electronic projectors" >
    <i type="logical" name="LREAL"> F  </i>
    <v name="ROPT">      0.00000000</v>
    <i type="int" name="LMAXPAW">  -100</i>
    <i type="int" name="LMAXMIX">     2</i>
    <i type="logical" name="NLSPLINE"> F  </i>
   </separator>
   <separator name="electronic startup" >
    <i type="int" name="ISTART">     0</i>
    <i type="int" name="ICHARG">     2</i>
    <i type="int" name="INIWAV">     1</i>
   </separator>
   <separator name="electronic spin" >
    <i type="int" name="ISPIN">     1</i>
    <i type="logical" name="LNONCOLLINEAR"> F  </i>
    <v name="MAGMOM">      1.00000000      1.00000000      1.00000000      1.00000000</v>
    <i name="NUPDOWN">     -1.00000000</i>
    <i type="logical" name="LSORBIT"> F  </i>
    <v name="SAXIS">      0.00000000      0.00000000      1.00000000</v>
    <i type="logical" name="LSPIRAL"> F  </i>
    <v name="QSPIRAL">      0.00000000      0.00000000      0.00000000</v>
    <i type="logical" name="LZEROZ"> F  </i>
   </separator>
   <separator name="electronic exchange-correlation" >
    <i type="logical" name="LASPH"> F  </i>
    <i type="logical" name="LMETAGGA"> F  </i>
   </separator>
   <separator name="electronic convergence" >
    <i type="int" name="NELM">   250</i>
    <i type="int" name="NELMDL">    -5</i>
    <i type="int" name="NELMIN">     6</i>
    <i name="ENINI">    520.00000000</i>
    <separator name="electronic convergence detail" >
     <i type="logical" name="LDIAG"> T  </i>
     <i type="logical" name="LSUBROT"> F  </i>
     <i name="WEIMIN">      0.00100000</i>
     <i name="EBREAK">      0.00000016</i>
     <i name="DEPER">      0.30000000</i>
     <i type="int" name="NRMM">     4</i>
     <i name="TIME">      0.40000000</i>
    </separator>
   </separator>
   <separator name="electronic mixer" >
    <i name="AMIX">      0.40000000</i>
    <i name="BMIX">      1.00000000</i>
    <i name="AMIN">      0.10000000</i>
    <i name="AMIX_MAG">      1.60000000</i>
    <i name="BMIX_MAG">      1.00000000</i>
    <separator name="electronic mixer details" >
     <i type="int" name="IMIX">     4</i>
     <i type="logical" name="MIXFIRST"> F  </i>
     <i type="int" name="MAXMIX">   -45</i>
     <i name="WC">    100.00000000</i>
     <i type="int" name="INIMIX">     1</i>
     <i type="int" name="MIXPRE">     1</i>
     <i type="int" name="MREMOVE">     5</i>
    </separator>
   </separator>
   <separator name="electronic dipolcorrection" >
    <i type="logical" name="LDIPOL"> F  </i>
    <i type="logical" name="LMONO"> F  </i>
    <i type="int" name="IDIPOL">     0</i>
    <i name="EPSILON">      1.00000000</i>
    <v name="DIPOL">   -100.00000000   -100.00000000   -100.00000000</v>
    <i name="EFIELD">      0.00000000</i>
   </separator>
  </separator>
  <separator name="grids" >
   <i type="int" name="NGX">    24</i>
   <i type="int" name="NGY">    36</i>
   <i type="int" name="NGZ">   150</i>
   <i type="int" name="NGXF">    48</i>
   <i type="int" name="NGYF">    72</i>
   <i type="int" name="NGZF">   300</i>
   <i type="logical" name="ADDGRID"> F  </i>
  </separator>
  <separator name="ionic" >
   <i type="int" name="NSW">   200</i>
   <i type="int" name="IBRION">     2</i>
   <i type="int" name="ISIF">     2</i>
   <i name="PSTRESS">      0.00000000</i>
   <i name="EDIFFG">     -0.01000000</i>
   <i type="int" name="NFREE">     1</i>
   <i name="POTIM">      0.30000000</i>
   <i name="SMASS">     -3.00000000</i>
   <i name="SCALEE">      1.00000000</i>
  </separator>
  <separator name="ionic md" >
   <i name="TEBEG">      0.00010000</i>
   <i name="TEEND">      0.00010000</i>
   <i type="int" name="NBLOCK">     1</i>
   <i type="int" name="KBLOCK">   200</i>
   <i type="int" name="NPACO">   256</i>
   <i name="APACO">     16.00000000</i>
  </separator>
  <separator name="symmetry" >
   <i type="int" name="ISYM">     2</i>
   <i name="SYMPREC">      0.00001000</i>
  </separator>
  <separator name="dos" >
   <i type="logical" name="LORBIT"> F  </i>
   <v name="RWIGS">     -1.00000000</v>
   <i type="int" name="NEDOS">   301</i>
   <i name="EMIN">     10.00000000</i>
   <i name="EMAX">    -10.00000000</i>
   <i name="EFERMI">      0.00000000</i>
  </separator>
  <separator name="writing" >
   <i type="int" name="NWRITE">     2</i>
   <i type="logical" name="LWAVE"> F  </i>
   <i type="logical" name="LCHARG"> F  </i>
   <i type="logical" name="LPARD"> F  </i>
   <i type="logical" name="LVTOT"> F  </i>
   <i type="logical" name="LVHAR"> F  </i>
   <i type="logical" name="LELF"> F  </i>
   <i type="logical" name="LOPTICS"> F  </i>
   <v name="STM">      0.00000000      0.00000000      0.00000000      0.00000000      0.00000000      0.00000000      0.00000000</v>
  </separator>
  <separator name="performance" >
   <i type="int" name="NPAR">     4</i>
   <i type="int" name="NSIM">     4</i>
   <i type="int" name="NBLK">    -1</i>
   <i type="logical" name="LPLANE"> T  </i>
   <i type="logical" name="LSCALAPACK"> T  </i>
   <i type="logical" name="LSCAAWARE"> F  </i>
   <i type="logical" name="LSCALU"> F  </i>
   <i type="logical" name="LASYNC"> F  </i>
   <i type="logical" name="LORBITALREAL"> F  </i>
  </separator>
  <separator name="miscellaneous" >
   <i type="int" name="IDIOT">     3</i>
   <i type="logical" name="LMUSIC"> F  </i>
   <v name="POMASS">     30.97400000</v>
   <v name="DARWINR">      0.00000000</v>
   <v name="DARWINV">      1.00000000</v>
   <i type="logical" name="LCORR"> T  </i>
  </separator>
  <i type="logical" name="GGA_COMPAT"> T  </i>
  <i type="logical" name="LBERRY"> F  </i>
  <i type="int" name="ICORELEVEL">     0</i>
  <i type="logical" name="LDAU"> F  </i>
  <i type="int" name="I_CONSTRAINED_M">     0</i>
  <separator name="electronic exchange-correlation" >
   <i type="string" name="GGA">--</i>
   <i type="int" name="VOSKOWN">     0</i>
   <i type="logical" name="LHFCALC"> F  </i>
   <i type="string" name="PRECFOCK"></i>
   <i type="logical" name="LSYMGRAD"> F  </i>
   <i type="logical" name="LHFONE"> F  </i>
   <i type="logical" name="LRHFCALC"> F  </i>
   <i type="logical" name="LTHOMAS"> F  </i>
   <i type="logical" name="LMODELHF"> F  </i>
   <i name="ENCUT4O">     -1.00000000</i>
   <i type="int" name="EXXOEP">     0</i>
   <i type="int" name="FOURORBIT">     0</i>
   <i name="AEXX">      0.00000000</i>
   <i name="HFALPHA">      0.00000000</i>
   <i name="MCALPHA">      0.00000000</i>
   <i name="ALDAX">      1.00000000</i>
   <i name="AGGAX">      1.00000000</i>
   <i name="ALDAC">      1.00000000</i>
   <i name="AGGAC">      1.00000000</i>
   <i type="int" name="NKREDX">     1</i>
   <i type="int" name="NKREDY">     1</i>
   <i type="int" name="NKREDZ">     1</i>
   <i type="logical" name="SHIFTRED"> F  </i>
   <i type="logical" name="ODDONLY"> F  </i>
   <i type="logical" name="EVENONLY"> F  </i>
   <i type="int" name="LMAXFOCK">     0</i>
   <i type="int" name="NMAXFOCKAE">     0</i>
   <i type="logical" name="LFOCKAEDFT"> F  </i>
   <i name="HFSCREEN">      0.00000000</i>
   <i name="HFSCREENC">      0.00000000</i>
   <i type="int" name="NBANDSGWLOW">     0</i>
  </separator>
  <separator name="vdW DFT" >
   <i type="logical" name="LUSE_VDW"> F  </i>
   <i name="Zab_VDW">     -0.84910000</i>
   <i name="PARAM1">      0.12340000</i>
   <i name="PARAM2">      1.00000000</i>
   <i name="PARAM3">      0.00000000</i>
  </separator>
  <separator name="model GW" >
   <i type="int" name="MODEL_GW">     0</i>
   <i name="MODEL_EPS0">     45.10135030</i>
   <i name="MODEL_ALPHA">      1.00000000</i>
  </separator>
  <separator name="linear response parameters" >
   <i type="logical" name="LEPSILON"> F  </i>
   <i type="logical" name="LRPA"> F  </i>
   <i type="logical" name="LNABLA"> F  </i>
   <i type="logical" name="LVEL"> F  </i>
   <i type="int" name="KINTER">     0</i>
   <i name="CSHIFT">      0.10000000</i>
   <i name="OMEGAMAX">     -1.00000000</i>
   <i name="DEG_THRESHOLD">      0.00200000</i>
  </separator>
  <separator name="orbital magnetization" >
   <i type="logical" name="NUCIND"> F  </i>
   <v name="MAGPOS">      0.00000000      0.00000000      0.00000000</v>
   <i type="logical" name="LNICSALL"> T  </i>
   <i type="logical" name="ORBITALMAG"> F  </i>
   <i type="logical" name="LMAGBLOCH"> F  </i>
   <i type="logical" name="LCHIMAG"> F  </i>
   <i type="logical" name="LGAUGE"> T  </i>
   <i type="int" name="MAGATOM">     0</i>
   <v name="MAGDIPOL">      0.00000000      0.00000000      0.00000000</v>
   <v name="AVECCONST">      0.00000000      0.00000000      0.00000000</v>
  </separator>
  <separator name="response functions" >
   <i type="logical" name="LADDER"> F  </i>
   <i type="logical" name="LFXC"> F  </i>
   <i type="logical" name="LHARTREE"> T  </i>
   <i type="int" name="IBSE">     0</i>
   <v type="int" name="KPOINT">    -1     0     0     0</v>
   <i type="logical" name="LTCTE"> F  </i>
   <i type="logical" name="LTETE"> F  </i>
   <i type="logical" name="LTRIPLET"> F  </i>
   <i type="logical" name="LFXCEPS"> F  </i>
   <i type="logical" name="LFXHEG"> F  </i>
   <i type="int" name="NATURALO">     0</i>
   <i type="logical" name="L2ORDER"> F  </i>
   <i type="logical" name="LUSEW"> F  </i>
   <i name="ENCUTGW">     -2.00000000</i>
   <i name="ENCUTGWSOFT">     -2.00000000</i>
   <i name="ENCUTLF">     -1.00000000</i>
   <i type="int" name="LMAXMP2">    -1</i>
   <i name="SCISSOR">      0.00000000</i>
   <i type="int" name="NOMEGA">     0</i>
   <i type="int" name="NOMEGAR">     0</i>
   <i type="int" name="NBANDSGW">    -1</i>
   <i type="int" name="NBANDSO">    -1</i>
   <i type="int" name="NBANDSV">    -1</i>
   <i type="int" name="NELM">   250</i>
   <i type="int" name="NELMHF">     1</i>
   <i type="int" name="DIM">     3</i>
   <i type="int" name="ANTIRES">     0</i>
   <i name="OMEGAMAX">    -30.00000000</i>
   <i name="OMEGAMIN">    -30.00000000</i>
   <i name="OMEGATL">   -200.00000000</i>
   <i type="int" name="OMEGAGRID">     0</i>
   <i name="CSHIFT">     -0.10000000</i>
   <i type="logical" name="SELFENERGY"> F  </i>
   <i type="logical" name="LSPECTRAL"> F  </i>
   <i type="logical" name="LSPECTRALGW"> F  </i>
   <i type="logical" name="LSINGLES"> F  </i>
   <i type="logical" name="LFERMIGW"> F  </i>
   <i type="logical" name="ODDONLYGW"> F  </i>
   <i type="logical" name="EVENONLYGW"> F  </i>
   <i type="int" name="NKREDLFX">     1</i>
   <i type="int" name="NKREDLFY">     1</i>
   <i type="int" name="NKREDLFZ">     1</i>
   <i type="int" name="MAXMEM">  1800</i>
   <i type="int" name="TELESCOPE">     0</i>
   <i type="int" name="TAUPAR">     1</i>
   <i type="int" name="OMEGAPAR">    -1</i>
   <i name="LAMBDA">      1.00000000</i>
  </separator>
  <separator name="External order field" >
   <i name="OFIELD_KAPPA">      0.00000000</i>
   <v name="OFIELD_K">      0.00000000      0.00000000      0.00000000</v>
   <i name="OFIELD_Q6_NEAR">      0.00000000</i>
   <i name="OFIELD_Q6_FAR">      0.00000000</i>
   <i name="OFIELD_A">      0.00000000</i>
  </separator>
 </parameters>
 <atominfo>
  <atoms>       4 </atoms>
  <types>       1 </types>
  <array name="atoms" >
   <dimension dim="1">ion</dimension>
   <field type="string">element</field>
   <field type="int">atomtype</field>
   <set>
    <rc><c>P </c><c>   1</c></rc>
    <rc><c>P </c><c>   1</c></rc>
    <rc><c>P </c><c>   1</c></rc>
    <rc><c>P </c><c>   1</c></rc>
   </set>
  </array>
  <array name="atomtypes" >
   <dimension dim="1">type</dimension>
   <field type="int">atomspertype</field>
   <field type="string">element</field>
   <field>mass</field>
   <field>valence</field>
   <field type="string">pseudopotential</field>
   <set>
    <rc><c>   4</c><c>P </c><c>     30.97400000</c><c>      5.00000000</c><c>  PAW_PBE P 06Sep2000                   </c></rc>
   </set>
  </array>
 </atominfo>
 <structure name="initialpos" >
  <crystal>
   <varray name="basis" >
    <v>       3.27238200       0.00000000       0.00000000 </v>
    <v>       0.00000000       4.58854500      -0.00005300 </v>
    <v>       0.00000000       0.00000000      20.02439000 </v>
   </varray>
   <i name="volume">    300.67566865 </i>
   <varray name="rec_basis" >
    <v>       0.30558780       0.00000000       0.00000000 </v>
    <v>       0.00000000       0.21793401       0.00000000 </v>
    <v>       0.00000000       0.00000058       0.04993910 </v>
   </varray>
  </crystal>
  <varray name="positions" >
   <v>       0.50000000       0.91077300       0.55252100 </v>
   <v>       0.50000000       0.08922700       0.44747900 </v>
   <v>       0.00000000       0.41076900       0.44747900 </v>
   <v>       0.00000000       0.58923100       0.55252100 </v>
  </varray>
 </structure>
 <calculation>
  <scstep>
   <time name="dav">    1.30    1.30</time>
   <time name="total">    1.32    1.32</time>
   <energy>
    <i name="alphaZ">      5.33518740 </i>
    <i name="ewald">   1899.06186497 </i>
    <i name="hartreedc">  -2492.52727709 </i>
    <i name="XCdc">     13.16932209 </i>
    <i name="pawpsdc">    559.04011960 </i>
    <i name="pawaedc">   -526.39432044 </i>
    <i name="eentropy">     -0.00022864 </i>
    <i name="bandstr">    -27.99029328 </i>
    <i name="atom">    704.16778566 </i>
    <i name="e_fr_energy">    133.86216027 </i>
    <i name="e_wo_entrp">    133.86238891 </i>
    <i name="e_0_energy">    133.86227459 </i>
   </energy>
  </scstep>
  <scstep>
   <time name="dav">    1.74    1.74</time>
   <time name="total">    1.74    1.74</time>
   <energy>
    <i name="e_fr_energy">     -6.37703960 </i>
    <i name="e_wo_entrp">     -6.37703960 </i>
    <i name="e_0_energy">     -6.37703960 </i>
   </energy>
  </scstep>
  <scstep>
   <time name="dav">    1.60    1.60</time>
   <time name="total">    1.60    1.60</time>
   <energy>
    <i name="e_fr_energy">    -21.36436323 </i>
    <i name="e_wo_entrp">    -21.36436323 </i>
    <i name="e_0_energy">    -21.36436323 </i>
   </energy>
  </scstep>
  <scstep>
   <time name="dav">    1.63    1.63</time>
   <time name="total">    1.63    1.63</time>
   <energy>
    <i name="e_fr_energy">    -21.66726122 </i>
    <i name="e_wo_entrp">    -21.66726122 </i>
    <i name="e_0_energy">    -21.66726122 </i>
   </energy>
  </scstep>
  <scstep>
   <time name="dav">    1.72    1.72</time>
   <time name="total">    1.79    1.80</time>
   <energy>
    <i name="e_fr_energy">    -21.67676362 </i>
    <i name="e_wo_entrp">    -21.67676362 </i>
    <i name="e_0_energy">    -21.67676362 </i>
   </energy>
  </scstep>
  <scstep>
   <time name="dav">    1.54    1.54</time>
   <time name="total">    1.62    1.63</time>
   <energy>
    <i name="e_fr_energy">    -21.52218567 </i>
    <i name="e_wo_entrp">    -21.52218567 </i>
    <i name="e_0_energy">    -21.52218567 </i>
   </energy>
  </scstep>
  <scstep>
   <time name="dav">    1.53    1.53</time>
   <time name="total">    1.62    1.62</time>
   <energy>
    <i name="e_fr_energy">    -21.45076903 </i>
    <i name="e_wo_entrp">    -21.45076903 </i>
    <i name="e_0_energy">    -21.45076903 </i>
   </energy>
  </scstep>
  <scstep>
   <time name="dav">    1.56    1.56</time>
   <time name="total">    1.65    1.65</time>
   <energy>
    <i name="e_fr_energy">    -21.44985456 </i>
    <i name="e_wo_entrp">    -21.44985456 </i>
    <i name="e_0_energy">    -21.44985456 </i>
   </energy>
  </scstep>
  <scstep>
   <time name="dav">    1.84    1.84</time>
   <time name="total">    1.92    1.92</time>
   <energy>
    <i name="e_fr_energy">    -21.44969804 </i>
    <i name="e_wo_entrp">    -21.44969804 </i>
    <i name="e_0_energy">    -21.44969804 </i>
   </energy>
  </scstep>
  <scstep>
   <time name="dav">    1.54    1.54</time>
   <time name="total">    1.63    1.63</time>
   <energy>
    <i name="e_fr_energy">    -21.44947757 </i>
    <i name="e_wo_entrp">    -21.44947757 </i>
    <i name="e_0_energy">    -21.44947757 </i>
   </energy>
  </scstep>
  <scstep>
   <time name="dav">    1.57    1.57</time>
   <time name="total">    1.66    1.66</time>
   <energy>
    <i name="e_fr_energy">    -21.44936399 </i>
    <i name="e_wo_entrp">    -21.44936399 </i>
    <i name="e_0_energy">    -21.44936399 </i>
   </energy>
  </scstep>
  <scstep>
   <time name="dav">    1.40    1.40</time>
   <time name="total">    1.48    1.49</time>
   <energy>
    <i name="e_fr_energy">    -21.44977137 </i>
    <i name="e_wo_entrp">    -21.44977137 </i>
    <i name="e_0_energy">    -21.44977137 </i>
   </energy>
  </scstep>
  <scstep>
   <time name="dav">    1.41    1.41</time>
   <time name="total">    1.49    1.50</time>
   <energy>
    <i name="e_fr_energy">    -21.44986316 </i>
    <i name="e_wo_entrp">    -21.44986316 </i>
    <i name="e_0_energy">    -21.44986316 </i>
   </energy>
  </scstep>
  <scstep>
   <time name="dav">    1.29    1.29</time>
   <time name="total">    1.37    1.37</time>
   <energy>
    <i name="e_fr_energy">    -21.45000826 </i>
    <i name="e_wo_entrp">    -21.45000826 </i>
    <i name="e_0_energy">    -21.45000826 </i>
   </energy>
  </scstep>
  <scstep>
   <time name="dav">    1.34    1.34</time>
   <time name="total">    1.42    1.42</time>
   <energy>
    <i name="e_fr_energy">    -21.45005369 </i>
    <i name="e_wo_entrp">    -21.45005369 </i>
    <i name="e_0_energy">    -21.45005369 </i>
   </energy>
  </scstep>
  <scstep>
   <time name="dav">    1.27    1.27</time>
   <time name="total">    1.35    1.35</time>
   <energy>
    <i name="e_fr_energy">    -21.45008756 </i>
    <i name="e_wo_entrp">    -21.45008756 </i>
    <i name="e_0_energy">    -21.45008756 </i>
   </energy>
  </scstep>
  <scstep>
   <time name="dav">    1.28    1.28</time>
   <time name="total">    1.30    1.30</time>
   <energy>
    <i name="alphaZ">      5.33518740 </i>
    <i name="ewald">   1899.06186497 </i>
    <i name="hartreedc">  -2508.58097227 </i>
    <i name="XCdc">     14.25993858 </i>
    <i name="pawpsdc">   2170.07098958 </i>
    <i name="pawaedc">  -2137.78770788 </i>
    <i name="eentropy">     -0.00000000 </i>
    <i name="bandstr">   -167.97717562 </i>
    <i name="atom">    704.16778566 </i>
    <i name="e_fr_energy">    -21.45008958 </i>
    <i name="e_wo_entrp">    -21.45008958 </i>
    <i name="e_0_energy">    -21.45008958 </i>
   </energy>
  </scstep>
  <structure>
   <crystal>
    <varray name="basis" >
     <v>       3.27238200       0.00000000       0.00000000 </v>
     <v>       0.00000000       4.58854500      -0.00005300 </v>
     <v>       0.00000000       0.00000000      20.02439000 </v>
    </varray>
    <i name="volume">    300.67566865 </i>
    <varray name="rec_basis" >
     <v>       0.30558780       0.00000000       0.00000000 </v>
     <v>       0.00000000       0.21793401       0.00000000 </v>
     <v>       0.00000000       0.00000058       0.04993910 </v>
    </varray>
   </crystal>
   <varray name="positions" >
    <v>       0.50000000       0.91077300       0.55252100 </v>
    <v>       0.50000000       0.08922700       0.44747900 </v>
    <v>       0.00000000       0.41076900       0.44747900 </v>
    <v>       0.00000000       0.58923100       0.55252100 </v>
   </varray>
  </structure>
  <varray name="forces" >
   <v>       0.00000004       0.15343532       0.02612521 </v>
   <v>      -0.00000004      -0.15343532      -0.02612521 </v>
   <v>      -0.00000015       0.15340060      -0.02612525 </v>
   <v>       0.00000015      -0.15340060       0.02612525 </v>
  </varray>
  <varray name="stress" >
   <v>       5.69961484       0.00000658       0.00000058 </v>
   <v>       0.00000665       4.07280396       0.00034295 </v>
   <v>       0.00000066       0.00034294       0.52042821 </v>
  </varray>
  <energy>
   <i name="e_fr_energy">    -21.45008958 </i>
   <i name="e_wo_entrp">    -21.45008958 </i>
   <i name="e_0_energy">     -0.00000000 </i>
  </energy>
  <time name="totalsc">   27.36   27.39</time>
 </calculation>
 <calculation>
  <scstep>
   <time name="dav">    1.38    1.38</time>
   <time name="total">    1.46    1.46</time>
   <energy>
    <i name="alphaZ">      5.33518740 </i>
    <i name="ewald">   1897.66875545 </i>
    <i name="hartreedc">  -2507.47386608 </i>
    <i name="XCdc">     14.23430315 </i>
    <i name="pawpsdc">   2169.67603127 </i>
    <i name="pawaedc">  -2137.39280274 </i>
    <i name="eentropy">     -0.00000000 </i>
    <i name="bandstr">   -167.66715260 </i>
    <i name="atom">    704.16778566 </i>
    <i name="e_fr_energy">    -21.45175850 </i>
    <i name="e_wo_entrp">    -21.45175850 </i>
    <i name="e_0_energy">    -21.45175850 </i>
   </energy>
  </scstep>
  <scstep>
   <time name="dav">    1.66    1.66</time>
   <time name="total">    1.75    1.75</time>
   <energy>
    <i name="e_fr_energy">    -21.45202619 </i>
    <i name="e_wo_entrp">    -21.45202619 </i>
    <i name="e_0_energy">    -21.45202619 </i>
   </energy>
  </scstep>
  <scstep>
   <time name="dav">    1.70    1.70</time>
   <time name="total">    1.78    1.78</time>
   <energy>
    <i name="e_fr_energy">    -21.45202157 </i>
    <i name="e_wo_entrp">    -21.45202157 </i>
    <i name="e_0_energy">    -21.45202157 </i>
   </energy>
  </scstep>
  <scstep>
   <time name="dav">    1.29    1.29</time>
   <time name="total">    1.38    1.38</time>
   <energy>
    <i name="e_fr_energy">    -21.45202134 </i>
    <i name="e_wo_entrp">    -21.45202134 </i>
    <i name="e_0_energy">    -21.45202134 </i>
   </energy>
  </scstep>
  <scstep>
   <time name="dav">    1.18    1.18</time>
   <time name="total">    1.26    1.26</time>
   <energy>
    <i name="e_fr_energy">    -21.45202176 </i>
    <i name="e_wo_entrp">    -21.45202176 </i>
    <i name="e_0_energy">    -21.45202176 </i>
   </energy>
  </scstep>
  <scstep>
   <time name="dav">    1.13    1.13</time>
   <time name="total">    1.15    1.15</time>
   <energy>
    <i name="alphaZ">      5.33518740 </i>
    <i name="ewald">   1897.66875545 </i>
    <i name="hartreedc">  -2507.46758520 </i>
    <i name="XCdc">     14.23101295 </i>
    <i name="pawpsdc">   2151.95370611 </i>
    <i name="pawaedc">  -2119.66386401 </i>
    <i name="eentropy">     -0.00000000 </i>
    <i name="bandstr">   -167.67702058 </i>
    <i name="atom">    704.16778566 </i>
    <i name="e_fr_energy">    -21.45202222 </i>
    <i name="e_wo_entrp">    -21.45202222 </i>
    <i name="e_0_energy">    -21.45202222 </i>
   </energy>
  </scstep>
  <structure>
   <crystal>
    <varray name="basis" >
     <v>       3.27238200       0.00000000       0.00000000 </v>
     <v>       0.00000000       4.58854500      -0.00005300 </v>
     <v>       0.00000000       0.00000000      20.02439000 </v>
    </varray>
    <i name="volume">    300.67566865 </i>
    <varray name="rec_basis" >
     <v>       0.30558780       0.00000000       0.00000000 </v>
     <v>       0.00000000       0.21793401       0.00000000 </v>
     <v>       0.00000000       0.00000058       0.04993910 </v>
    </varray>
   </crystal>
   <varray name="positions" >
    <v>       0.50000000       0.91174091       0.55255877 </v>
    <v>       0.50000000       0.08825909       0.44744123 </v>
    <v>      -0.00000000       0.41173669       0.44744124 </v>
    <v>       0.00000000       0.58826331       0.55255876 </v>
   </varray>
  </structure>
  <varray name="forces" >
   <v>      -0.00000009       0.05363753       0.02898845 </v>
   <v>       0.00000009      -0.05363753      -0.02898845 </v>
   <v>      -0.00000009       0.05360823      -0.02898917 </v>
   <v>       0.00000009      -0.05360823       0.02898917 </v>
  </varray>
  <varray name="stress" >
   <v>       5.18620218      -0.00000075      -0.00000041 </v>
   <v>      -0.00000079       2.62594508       0.00029857 </v>
   <v>      -0.00000041       0.00029846       0.59935294 </v>
  </varray>
  <energy>
   <i name="e_fr_energy">    -21.45202222 </i>
   <i name="e_wo_entrp">    -21.45202222 </i>
   <i name="e_0_energy">     -0.00000000 </i>
  </energy>
  <time name="totalsc">    9.53    9.55</time>
 </calculation>
 <calculation>
  <scstep>
   <time name="dav">    1.36    1.36</time>
   <time name="total">    1.45    1.45</time>
   <energy>
    <i name="alphaZ">      5.33518740 </i>
    <i name="ewald">   1896.85020086 </i>
    <i name="hartreedc">  -2506.81308317 </i>
    <i name="XCdc">     14.21596307 </i>
    <i name="pawpsdc">   2151.77638444 </i>
    <i name="pawaedc">  -2119.48656641 </i>
    <i name="eentropy">     -0.00000000 </i>
    <i name="bandstr">   -167.49811456 </i>
    <i name="atom">    704.16778566 </i>
    <i name="e_fr_energy">    -21.45224271 </i>
    <i name="e_wo_entrp">    -21.45224271 </i>
    <i name="e_0_energy">    -21.45224271 </i>
   </energy>
  </scstep>
  <scstep>
   <time name="dav">    1.66    1.66</time>
   <time name="total">    1.74    1.74</time>
   <energy>
    <i name="e_fr_energy">    -21.45233516 </i>
    <i name="e_wo_entrp">    -21.45233516 </i>
    <i name="e_0_energy">    -21.45233516 </i>
   </energy>
  </scstep>
  <scstep>
   <time name="dav">    1.42    1.42</time>
   <time name="total">    1.51    1.51</time>
   <energy>
    <i name="e_fr_energy">    -21.45233262 </i>
    <i name="e_wo_entrp">    -21.45233262 </i>
    <i name="e_0_energy">    -21.45233262 </i>
   </energy>
  </scstep>
  <scstep>
   <time name="dav">    1.12    1.12</time>
   <time name="total">    1.21    1.21</time>
   <energy>
    <i name="e_fr_energy">    -21.45233129 </i>
    <i name="e_wo_entrp">    -21.45233129 </i>
    <i name="e_0_energy">    -21.45233129 </i>
   </energy>
  </scstep>
  <scstep>
   <time name="dav">    1.03    1.03</time>
   <time name="total">    1.12    1.12</time>
   <energy>
    <i name="e_fr_energy">    -21.45233143 </i>
    <i name="e_wo_entrp">    -21.45233143 </i>
    <i name="e_0_energy">    -21.45233143 </i>
   </energy>
  </scstep>
  <scstep>
   <time name="dav">    0.98    0.98</time>
   <time name="total">    0.99    1.00</time>
   <energy>
    <i name="alphaZ">      5.33518740 </i>
    <i name="ewald">   1896.85020086 </i>
    <i name="hartreedc">  -2506.81672684 </i>
    <i name="XCdc">     14.21415760 </i>
    <i name="pawpsdc">   2141.45734283 </i>
    <i name="pawaedc">  -2109.16372384 </i>
    <i name="eentropy">     -0.00000000 </i>
    <i name="bandstr">   -167.49655513 </i>
    <i name="atom">    704.16778566 </i>
    <i name="e_fr_energy">    -21.45233145 </i>
    <i name="e_wo_entrp">    -21.45233145 </i>
    <i name="e_0_energy">    -21.45233145 </i>
   </energy>
  </scstep>
  <structure>
   <crystal>
    <varray name="basis" >
     <v>       3.27238200       0.00000000       0.00000000 </v>
     <v>       0.00000000       4.58854500      -0.00005300 </v>
     <v>       0.00000000       0.00000000      20.02439000 </v>
    </varray>
    <i name="volume">    300.67566865 </i>
    <varray name="rec_basis" >
     <v>       0.30558780       0.00000000       0.00000000 </v>
     <v>       0.00000000       0.21793401       0.00000000 </v>
     <v>       0.00000000       0.00000058       0.04993910 </v>
    </varray>
   </crystal>
   <varray name="positions" >
    <v>       0.50000000       0.91231166       0.55258104 </v>
    <v>       0.50000000       0.08768834       0.44741896 </v>
    <v>      -0.00000000       0.41230731       0.44741897 </v>
    <v>       0.00000000       0.58769269       0.55258103 </v>
   </varray>
  </structure>
  <varray name="forces" >
   <v>       0.00000006      -0.00425344       0.03045447 </v>
   <v>      -0.00000006       0.00425344      -0.03045447 </v>
   <v>       0.00000011      -0.00427922      -0.03045524 </v>
   <v>      -0.00000011       0.00427922       0.03045524 </v>
  </varray>
  <varray name="stress" >
   <v>       4.90554653      -0.00000008      -0.00000042 </v>
   <v>      -0.00000005       1.77301164       0.00027049 </v>
   <v>      -0.00000041       0.00027044       0.62526007 </v>
  </varray>
  <energy>
   <i name="e_fr_energy">    -21.45233145 </i>
   <i name="e_wo_entrp">    -21.45233145 </i>
   <i name="e_0_energy">     -0.00000000 </i>
  </energy>
  <time name="totalsc">    8.77    8.79</time>
 </calculation>
 <calculation>
  <scstep>
   <time name="dav">    1.25    1.25</time>
   <time name="total">    1.34    1.34</time>
   <energy>
    <i name="alphaZ">      5.33518740 </i>
    <i name="ewald">   1895.89611841 </i>
    <i name="hartreedc">  -2505.91899473 </i>
    <i name="XCdc">     14.20774343 </i>
    <i name="pawpsdc">   2141.33911155 </i>
    <i name="pawaedc">  -2109.04549932 </i>
    <i name="eentropy">     -0.00000000 </i>
    <i name="bandstr">   -167.43385926 </i>
    <i name="atom">    704.16778566 </i>
    <i name="e_fr_energy">    -21.45240686 </i>
    <i name="e_wo_entrp">    -21.45240686 </i>
    <i name="e_0_energy">    -21.45240686 </i>
   </energy>
  </scstep>
  <scstep>
   <time name="dav">    1.57    1.57</time>
   <time name="total">    1.65    1.65</time>
   <energy>
    <i name="e_fr_energy">    -21.45242417 </i>
    <i name="e_wo_entrp">    -21.45242417 </i>
    <i name="e_0_energy">    -21.45242417 </i>
   </energy>
  </scstep>
  <scstep>
   <time name="dav">    1.02    1.02</time>
   <time name="total">    1.10    1.10</time>
   <energy>
    <i name="e_fr_energy">    -21.45242323 </i>
    <i name="e_wo_entrp">    -21.45242323 </i>
    <i name="e_0_energy">    -21.45242323 </i>
   </energy>
  </scstep>
  <scstep>
   <time name="dav">    1.01    1.01</time>
   <time name="total">    1.09    1.09</time>
   <energy>
    <i name="e_fr_energy">    -21.45242303 </i>
    <i name="e_wo_entrp">    -21.45242303 </i>
    <i name="e_0_energy">    -21.45242303 </i>
   </energy>
  </scstep>
  <scstep>
   <time name="dav">    0.99    0.99</time>
   <time name="total">    1.07    1.07</time>
   <energy>
    <i name="e_fr_energy">    -21.45242310 </i>
    <i name="e_wo_entrp">    -21.45242310 </i>
    <i name="e_0_energy">    -21.45242310 </i>
   </energy>
  </scstep>
  <scstep>
   <time name="dav">    1.04    1.04</time>
   <time name="total">    1.05    1.05</time>
   <energy>
    <i name="alphaZ">      5.33518740 </i>
    <i name="ewald">   1895.89611841 </i>
    <i name="hartreedc">  -2505.92450665 </i>
    <i name="XCdc">     14.20734411 </i>
    <i name="pawpsdc">   2138.00146389 </i>
    <i name="pawaedc">  -2105.70676248 </i>
    <i name="eentropy">     -0.00000000 </i>
    <i name="bandstr">   -167.42905346 </i>
    <i name="atom">    704.16778566 </i>
    <i name="e_fr_energy">    -21.45242312 </i>
    <i name="e_wo_entrp">    -21.45242312 </i>
    <i name="e_0_energy">    -21.45242312 </i>
   </energy>
  </scstep>
  <structure>
   <crystal>
    <varray name="basis" >
     <v>       3.27238200       0.00000000       0.00000000 </v>
     <v>       0.00000000       4.58854500      -0.00005300 </v>
     <v>       0.00000000       0.00000000      20.02439000 </v>
    </varray>
    <i name="volume">    300.67566865 </i>
    <varray name="rec_basis" >
     <v>       0.30558780       0.00000000       0.00000000 </v>
     <v>       0.00000000       0.21793401       0.00000000 </v>
     <v>       0.00000000       0.00000058       0.04993910 </v>
    </varray>
   </crystal>
   <varray name="positions" >
    <v>       0.50000000       0.91231761       0.55263165 </v>
    <v>       0.50000000       0.08768239       0.44736835 </v>
    <v>      -0.00000000       0.41231307       0.44736835 </v>
    <v>       0.00000000       0.58768693       0.55263165 </v>
   </varray>
  </structure>
  <varray name="forces" >
   <v>       0.00000000      -0.00164782       0.01533670 </v>
   <v>      -0.00000000       0.00164782      -0.01533670 </v>
   <v>       0.00000002      -0.00166821      -0.01533726 </v>
   <v>      -0.00000002       0.00166821       0.01533726 </v>
  </varray>
  <varray name="stress" >
   <v>       4.87941399      -0.00000002      -0.00000039 </v>
   <v>      -0.00000004       1.70887566       0.00021145 </v>
   <v>      -0.00000036       0.00021147       0.27977109 </v>
  </varray>
  <energy>
   <i name="e_fr_energy">    -21.45242312 </i>
   <i name="e_wo_entrp">    -21.45242312 </i>
   <i name="e_0_energy">     -0.00000000 </i>
  </energy>
  <time name="totalsc">    8.06    8.08</time>
 </calculation>
 <calculation>
  <scstep>
   <time name="dav">    1.26    1.26</time>
   <time name="total">    1.34    1.34</time>
   <energy>
    <i name="alphaZ">      5.33518740 </i>
    <i name="ewald">   1894.92678873 </i>
    <i name="hartreedc">  -2505.01229281 </i>
    <i name="XCdc">     14.20087082 </i>
    <i name="pawpsdc">   2137.92679919 </i>
    <i name="pawaedc">  -2105.63211493 </i>
    <i name="eentropy">     -0.00000000 </i>
    <i name="bandstr">   -167.36546170 </i>
    <i name="atom">    704.16778566 </i>
    <i name="e_fr_energy">    -21.45243763 </i>
    <i name="e_wo_entrp">    -21.45243763 </i>
    <i name="e_0_energy">    -21.45243763 </i>
   </energy>
  </scstep>
  <scstep>
   <time name="dav">    1.58    1.58</time>
   <time name="total">    1.66    1.66</time>
   <energy>
    <i name="e_fr_energy">    -21.45245563 </i>
    <i name="e_wo_entrp">    -21.45245563 </i>
    <i name="e_0_energy">    -21.45245563 </i>
   </energy>
  </scstep>
  <scstep>
   <time name="dav">    1.08    1.08</time>
   <time name="total">    1.17    1.17</time>
   <energy>
    <i name="e_fr_energy">    -21.45245471 </i>
    <i name="e_wo_entrp">    -21.45245471 </i>
    <i name="e_0_energy">    -21.45245471 </i>
   </energy>
  </scstep>
  <scstep>
   <time name="dav">    1.00    1.00</time>
   <time name="total">    1.08    1.08</time>
   <energy>
    <i name="e_fr_energy">    -21.45245450 </i>
    <i name="e_wo_entrp">    -21.45245450 </i>
    <i name="e_0_energy">    -21.45245450 </i>
   </energy>
  </scstep>
  <scstep>
   <time name="dav">    1.01    1.01</time>
   <time name="total">    1.09    1.10</time>
   <energy>
    <i name="e_fr_energy">    -21.45245454 </i>
    <i name="e_wo_entrp">    -21.45245454 </i>
    <i name="e_0_energy">    -21.45245454 </i>
   </energy>
  </scstep>
  <scstep>
   <time name="dav">    0.96    0.96</time>
   <time name="total">    0.97    0.97</time>
   <energy>
    <i name="alphaZ">      5.33518740 </i>
    <i name="ewald">   1894.92678873 </i>
    <i name="hartreedc">  -2505.01385194 </i>
    <i name="XCdc">     14.20043855 </i>
    <i name="pawpsdc">   2134.72430525 </i>
    <i name="pawaedc">  -2102.42851121 </i>
    <i name="eentropy">     -0.00000000 </i>
    <i name="bandstr">   -167.36459700 </i>
    <i name="atom">    704.16778566 </i>
    <i name="e_fr_energy">    -21.45245455 </i>
    <i name="e_wo_entrp">    -21.45245455 </i>
    <i name="e_0_energy">    -21.45245455 </i>
   </energy>
  </scstep>
  <structure>
   <crystal>
    <varray name="basis" >
     <v>       3.27238200       0.00000000       0.00000000 </v>
     <v>       0.00000000       4.58854500      -0.00005300 </v>
     <v>       0.00000000       0.00000000      20.02439000 </v>
    </varray>
    <i name="volume">    300.67566865 </i>
    <varray name="rec_basis" >
     <v>       0.30558780       0.00000000       0.00000000 </v>
     <v>       0.00000000       0.21793401       0.00000000 </v>
     <v>       0.00000000       0.00000058       0.04993910 </v>
    </varray>
   </crystal>
   <varray name="positions" >
    <v>       0.50000000       0.91232365       0.55268309 </v>
    <v>       0.50000000       0.08767635       0.44731691 </v>
    <v>      -0.00000000       0.41231892       0.44731691 </v>
    <v>       0.00000000       0.58768108       0.55268309 </v>
   </varray>
  </structure>
  <varray name="forces" >
   <v>      -0.00000006       0.00082604       0.00025509 </v>
   <v>       0.00000006      -0.00082604      -0.00025509 </v>
   <v>      -0.00000004       0.00081103      -0.00025546 </v>
   <v>       0.00000004      -0.00081103       0.00025546 </v>
  </varray>
  <varray name="stress" >
   <v>       4.84779749      -0.00000099      -0.00000030 </v>
   <v>      -0.00000103       1.64432670       0.00015178 </v>
   <v>      -0.00000031       0.00015172      -0.06035170 </v>
  </varray>
  <energy>
   <i name="e_fr_energy">    -21.45245455 </i>
   <i name="e_wo_entrp">    -21.45245455 </i>
   <i name="e_0_energy">     -0.00000000 </i>
  </energy>
  <time name="totalsc">    8.01    8.03</time>
  <eigenvalues>
   <array>
    <dimension dim="1">band</dimension>
    <dimension dim="2">kpoint</dimension>
    <dimension dim="3">spin</dimension>
    <field>eigene</field>
    <field>occ</field>
    <set>
     <set comment="spin 1">
      <set comment="kpoint 1">
       <r>  -17.2534    1.0000 </r>
       <r>  -14.7821    1.0000 </r>
       <r>  -11.3568    1.0000 </r>
       <r>   -7.9403    1.0000 </r>
       <r>   -6.9105    1.0000 </r>
       <r>   -6.7887    1.0000 </r>
       <r>   -5.4660    1.0000 </r>
       <r>   -3.9586    1.0000 </r>
       <r>   -3.8806    1.0000 </r>
       <r>   -2.2248    1.0000 </r>
       <r>   -1.3943    0.0000 </r>
       <r>   -0.4778    0.0000 </r>
       <r>    0.6067    0.0000 </r>
       <r>    1.2152    0.0000 </r>
       <r>    2.1627    0.0000 </r>
       <r>    2.3175    0.0000 </r>
      </set>
      <set comment="kpoint 2">
       <r>  -17.2283    1.0000 </r>
       <r>  -14.7559    1.0000 </r>
       <r>  -11.3641    1.0000 </r>
       <r>   -7.9210    1.0000 </r>
       <r>   -6.9241    1.0000 </r>
       <r>   -6.7665    1.0000 </r>
       <r>   -5.6337    1.0000 </r>
       <r>   -4.0565    1.0000 </r>
       <r>   -3.9470    1.0000 </r>
       <r>   -2.2227    1.0000 </r>
       <r>   -1.3705    0.0000 </r>
       <r>   -0.2490    0.0000 </r>
       <r>    0.8331    0.0000 </r>
       <r>    1.0553    0.0000 </r>
       <r>    2.1889    0.0000 </r>
       <r>    2.3457    0.0000 </r>
      </set>
      <set comment="kpoint 3">
       <r>  -17.1531    1.0000 </r>
       <r>  -14.6775    1.0000 </r>
       <r>  -11.3909    1.0000 </r>
       <r>   -7.8635    1.0000 </r>
       <r>   -6.9810    1.0000 </r>
       <r>   -6.7000    1.0000 </r>
       <r>   -6.0478    1.0000 </r>
       <r>   -4.4724    1.0000 </r>
       <r>   -3.9148    1.0000 </r>
       <r>   -2.2350    1.0000 </r>
       <r>   -1.2996    0.0000 </r>
       <r>    0.3676    0.0000 </r>
       <r>    0.6543    0.0000 </r>
       <r>    1.3948    0.0000 </r>
       <r>    2.2648    0.0000 </r>
       <r>    2.4296    0.0000 </r>
      </set>
      <set comment="kpoint 4">
       <r>  -17.0281    1.0000 </r>
       <r>  -14.5470    1.0000 </r>
       <r>  -11.4514    1.0000 </r>
       <r>   -7.7698    1.0000 </r>
       <r>   -7.1338    1.0000 </r>
       <r>   -6.5903    1.0000 </r>
       <r>   -6.5510    1.0000 </r>
       <r>   -4.9197    1.0000 </r>
       <r>   -3.8711    1.0000 </r>
       <r>   -2.2830    1.0000 </r>
       <r>   -1.1824    0.0000 </r>
       <r>    0.1488    0.0000 </r>
       <r>    1.2362    0.0000 </r>
       <r>    2.0143    0.0000 </r>
       <r>    2.3640    0.0000 </r>
       <r>    2.5686    0.0000 </r>
      </set>
      <set comment="kpoint 5">
       <r>  -16.8537    1.0000 </r>
       <r>  -14.3647    1.0000 </r>
       <r>  -11.5683    1.0000 </r>
       <r>   -7.6436    1.0000 </r>
       <r>   -7.4552    1.0000 </r>
       <r>   -7.0250    1.0000 </r>
       <r>   -6.4395    1.0000 </r>
       <r>   -5.2287    1.0000 </r>
       <r>   -3.8335    1.0000 </r>
       <r>   -2.3776    1.0000 </r>
       <r>   -1.0207    0.0000 </r>
       <r>   -0.3557    0.0000 </r>
       <r>    2.0834    0.0000 </r>
       <r>    2.1609    0.0000 </r>
       <r>    2.2275    0.0000 </r>
       <r>    2.7039    0.0000 </r>
      </set>
      <set comment="kpoint 6">
       <r>  -16.6309    1.0000 </r>
       <r>  -14.1308    1.0000 </r>
       <r>  -11.7673    1.0000 </r>
       <r>   -7.9569    1.0000 </r>
       <r>   -7.4913    1.0000 </r>
       <r>   -7.3946    1.0000 </r>
       <r>   -6.2508    1.0000 </r>
       <r>   -5.3417    1.0000 </r>
       <r>   -3.8304    1.0000 </r>
       <r>   -2.5277    1.0000 </r>
       <r>   -0.8190    0.0000 </r>
       <r>   -0.7792    0.0000 </r>
       <r>    1.5312    0.0000 </r>
       <r>    1.6099    0.0000 </r>
       <r>    2.7596    0.0000 </r>
       <r>    2.9153    0.0000 </r>
      </set>
      <set comment="kpoint 7">
       <r>  -16.3607    1.0000 </r>
       <r>  -13.8460    1.0000 </r>
       <r>  -12.0635    1.0000 </r>
       <r>   -8.5694    1.0000 </r>
       <r>   -7.6205    1.0000 </r>
       <r>   -7.3238    1.0000 </r>
       <r>   -6.0293    1.0000 </r>
       <r>   -5.3101    1.0000 </r>
       <r>   -3.8942    1.0000 </r>
       <r>   -2.7380    1.0000 </r>
       <r>   -1.0546    0.0000 </r>
       <r>   -0.5885    0.0000 </r>
       <r>    0.8854    0.0000 </r>
       <r>    1.0532    0.0000 </r>
       <r>    2.3245    0.0000 </r>
       <r>    3.2157    0.0000 </r>
      </set>
      <set comment="kpoint 8">
       <r>  -16.0446    1.0000 </r>
       <r>  -13.5107    1.0000 </r>
       <r>  -12.4506    1.0000 </r>
       <r>   -9.2236    1.0000 </r>
       <r>   -7.6985    1.0000 </r>
       <r>   -7.1593    1.0000 </r>
       <r>   -5.7835    1.0000 </r>
       <r>   -5.2012    1.0000 </r>
       <r>   -4.0328    1.0000 </r>
       <r>   -3.0044    1.0000 </r>
       <r>   -1.1428    0.0000 </r>
       <r>   -0.3748    0.0000 </r>
       <r>    0.2754    0.0000 </r>
       <r>    0.5873    0.0000 </r>
       <r>    1.8245    0.0000 </r>
       <r>    3.2172    0.0000 </r>
      </set>
      <set comment="kpoint 9">
       <r>  -15.6849    1.0000 </r>
       <r>  -13.1260    1.0000 </r>
       <r>  -12.9035    1.0000 </r>
       <r>   -9.8793    1.0000 </r>
       <r>   -7.6517    1.0000 </r>
       <r>   -7.0273    1.0000 </r>
       <r>   -5.5262    1.0000 </r>
       <r>   -5.0663    1.0000 </r>
       <r>   -4.2010    1.0000 </r>
       <r>   -3.3112    1.0000 </r>
       <r>   -1.0529    0.0000 </r>
       <r>   -0.3723    0.0000 </r>
       <r>   -0.2539    0.0000 </r>
       <r>    0.4324    0.0000 </r>
       <r>    1.3256    0.0000 </r>
       <r>    2.8316    0.0000 </r>
      </set>
      <set comment="kpoint 10">
       <r>  -15.2844    1.0000 </r>
       <r>  -13.3920    1.0000 </r>
       <r>  -12.6928    1.0000 </r>
       <r>  -10.5153    1.0000 </r>
       <r>   -7.5161    1.0000 </r>
       <r>   -6.9670    1.0000 </r>
       <r>   -5.2779    1.0000 </r>
       <r>   -4.9495    1.0000 </r>
       <r>   -4.3180    1.0000 </r>
       <r>   -3.6324    1.0000 </r>
       <r>   -0.8242    0.0000 </r>
       <r>   -0.6651    0.0000 </r>
       <r>   -0.6361    0.0000 </r>
       <r>    0.6697    0.0000 </r>
       <r>    0.8311    0.0000 </r>
       <r>    2.3899    0.0000 </r>
      </set>
      <set comment="kpoint 11">
       <r>  -14.8474    1.0000 </r>
       <r>  -13.8904    1.0000 </r>
       <r>  -12.2126    1.0000 </r>
       <r>  -11.1203    1.0000 </r>
       <r>   -7.3321    1.0000 </r>
       <r>   -7.0092    1.0000 </r>
       <r>   -5.0681    1.0000 </r>
       <r>   -4.8938    1.0000 </r>
       <r>   -4.3155    1.0000 </r>
       <r>   -3.9346    1.0000 </r>
       <r>   -0.9203    0.0000 </r>
       <r>   -0.8820    0.0000 </r>
       <r>   -0.4959    0.0000 </r>
       <r>    0.3516    0.0000 </r>
       <r>    1.0458    0.0000 </r>
       <r>    1.9291    0.0000 </r>
      </set>
      <set comment="kpoint 12">
       <r>  -14.3798    1.0000 </r>
       <r>  -14.3798    1.0000 </r>
       <r>  -11.6875    1.0000 </r>
       <r>  -11.6875    1.0000 </r>
       <r>   -7.1457    1.0000 </r>
       <r>   -7.1457    1.0000 </r>
       <r>   -4.9318    1.0000 </r>
       <r>   -4.9318    1.0000 </r>
       <r>   -4.1773    1.0000 </r>
       <r>   -4.1773    1.0000 </r>
       <r>   -0.9916    0.0000 </r>
       <r>   -0.9915    0.0000 </r>
       <r>   -0.0968    0.0000 </r>
       <r>   -0.0968    0.0000 </r>
       <r>    1.4744    0.0000 </r>
       <r>    1.4744    0.0000 </r>
      </set>
      <set comment="kpoint 13">
       <r>  -17.2315    1.0000 </r>
       <r>  -14.8108    1.0000 </r>
       <r>  -11.3713    1.0000 </r>
       <r>   -8.0891    1.0000 </r>
       <r>   -6.8292    1.0000 </r>
       <r>   -6.6899    1.0000 </r>
       <r>   -5.4492    1.0000 </r>
       <r>   -3.8953    1.0000 </r>
       <r>   -3.8539    1.0000 </r>
       <r>   -2.4386    1.0000 </r>
       <r>   -1.1969    0.0000 </r>
       <r>   -0.4613    0.0000 </r>
       <r>    0.5619    0.0000 </r>
       <r>    1.1979    0.0000 </r>
       <r>    2.2237    0.0000 </r>
       <r>    2.3485    0.0000 </r>
      </set>
      <set comment="kpoint 14">
       <r>  -17.2065    1.0000 </r>
       <r>  -14.7848    1.0000 </r>
       <r>  -11.3774    1.0000 </r>
       <r>   -8.0727    1.0000 </r>
       <r>   -6.8377    1.0000 </r>
       <r>   -6.6751    1.0000 </r>
       <r>   -5.6100    1.0000 </r>
       <r>   -4.0817    1.0000 </r>
       <r>   -3.8376    1.0000 </r>
       <r>   -2.4327    1.0000 </r>
       <r>   -1.1772    0.0000 </r>
       <r>   -0.2327    0.0000 </r>
       <r>    0.7794    0.0000 </r>
       <r>    1.0506    0.0000 </r>
       <r>    2.2487    0.0000 </r>
       <r>    2.3765    0.0000 </r>
      </set>
      <set comment="kpoint 15">
       <r>  -17.1313    1.0000 </r>
       <r>  -14.7068    1.0000 </r>
       <r>  -11.4001    1.0000 </r>
       <r>   -8.0264    1.0000 </r>
       <r>   -6.8768    1.0000 </r>
       <r>   -6.6460    1.0000 </r>
       <r>   -5.9895    1.0000 </r>
       <r>   -4.5069    1.0000 </r>
       <r>   -3.8123    1.0000 </r>
       <r>   -2.4297    1.0000 </r>
       <r>   -1.1218    0.0000 </r>
       <r>    0.3833    0.0000 </r>
       <r>    0.6319    0.0000 </r>
       <r>    1.3719    0.0000 </r>
       <r>    2.3210    0.0000 </r>
       <r>    2.4601    0.0000 </r>
      </set>
      <set comment="kpoint 16">
       <r>  -17.0063    1.0000 </r>
       <r>  -14.5772    1.0000 </r>
       <r>  -11.4537    1.0000 </r>
       <r>   -7.9623    1.0000 </r>
       <r>   -6.9902    1.0000 </r>
       <r>   -6.7443    1.0000 </r>
       <r>   -6.2913    1.0000 </r>
       <r>   -4.9650    1.0000 </r>
       <r>   -3.7832    1.0000 </r>
       <r>   -2.4506    1.0000 </r>
       <r>   -1.0305    0.0000 </r>
       <r>    0.1455    0.0000 </r>
       <r>    1.2479    0.0000 </r>
       <r>    2.0082    0.0000 </r>
       <r>    2.4063    0.0000 </r>
       <r>    2.5987    0.0000 </r>
      </set>
      <set comment="kpoint 17">
       <r>  -16.8322    1.0000 </r>
       <r>  -14.3963    1.0000 </r>
       <r>  -11.5611    1.0000 </r>
       <r>   -7.9311    1.0000 </r>
       <r>   -7.2098    1.0000 </r>
       <r>   -7.1176    1.0000 </r>
       <r>   -6.2514    1.0000 </r>
       <r>   -5.2805    1.0000 </r>
       <r>   -3.7693    1.0000 </r>
       <r>   -2.5113    1.0000 </r>
       <r>   -0.9002    0.0000 </r>
       <r>   -0.3331    0.0000 </r>
       <r>    1.9642    0.0000 </r>
       <r>    2.1515    0.0000 </r>
       <r>    2.3156    0.0000 </r>
       <r>    2.6598    0.0000 </r>
      </set>
      <set comment="kpoint 18">
       <r>  -16.6095    1.0000 </r>
       <r>  -14.1650    1.0000 </r>
       <r>  -11.7485    1.0000 </r>
       <r>   -8.1294    1.0000 </r>
       <r>   -7.4696    1.0000 </r>
       <r>   -7.3609    1.0000 </r>
       <r>   -6.0939    1.0000 </r>
       <r>   -5.3930    1.0000 </r>
       <r>   -3.7988    1.0000 </r>
       <r>   -2.6264    1.0000 </r>
       <r>   -0.7300    0.0000 </r>
       <r>   -0.7208    0.0000 </r>
       <r>    1.4216    0.0000 </r>
       <r>    1.6343    0.0000 </r>
       <r>    2.7334    0.0000 </r>
       <r>    3.0359    0.0000 </r>
      </set>
      <set comment="kpoint 19">
       <r>  -16.3397    1.0000 </r>
       <r>  -13.8849    1.0000 </r>
       <r>  -12.0319    1.0000 </r>
       <r>   -8.6407    1.0000 </r>
       <r>   -7.6909    1.0000 </r>
       <r>   -7.2958    1.0000 </r>
       <r>   -5.8932    1.0000 </r>
       <r>   -5.3623    1.0000 </r>
       <r>   -3.8963    1.0000 </r>
       <r>   -2.8044    1.0000 </r>
       <r>   -0.9553    0.0000 </r>
       <r>   -0.5280    0.0000 </r>
       <r>    0.8635    0.0000 </r>
       <r>    0.9957    0.0000 </r>
       <r>    2.4783    0.0000 </r>
       <r>    3.2901    0.0000 </r>
      </set>
      <set comment="kpoint 20">
       <r>  -16.0241    1.0000 </r>
       <r>  -13.5618    1.0000 </r>
       <r>  -12.4013    1.0000 </r>
       <r>   -9.2644    1.0000 </r>
       <r>   -7.7655    1.0000 </r>
       <r>   -7.1592    1.0000 </r>
       <r>   -5.6702    1.0000 </r>
       <r>   -5.2669    1.0000 </r>
       <r>   -4.0499    1.0000 </r>
       <r>   -3.0416    1.0000 </r>
       <r>   -1.0115    0.0000 </r>
       <r>   -0.3445    0.0000 </r>
       <r>    0.3848    0.0000 </r>
       <r>    0.4073    0.0000 </r>
       <r>    2.0405    0.0000 </r>
       <r>    3.1589    0.0000 </r>
      </set>
      <set comment="kpoint 21">
       <r>  -15.6651    1.0000 </r>
       <r>  -13.2418    1.0000 </r>
       <r>  -12.7864    1.0000 </r>
       <r>   -9.9076    1.0000 </r>
       <r>   -7.7133    1.0000 </r>
       <r>   -7.0337    1.0000 </r>
       <r>   -5.4452    1.0000 </r>
       <r>   -5.1703    1.0000 </r>
       <r>   -4.1918    1.0000 </r>
       <r>   -3.3187    1.0000 </r>
       <r>   -0.9143    0.0000 </r>
       <r>   -0.4178    0.0000 </r>
       <r>   -0.1435    0.0000 </r>
       <r>    0.3094    0.0000 </r>
       <r>    1.5794    0.0000 </r>
       <r>    2.7841    0.0000 </r>
      </set>
      <set comment="kpoint 22">
       <r>  -15.2658    1.0000 </r>
       <r>  -13.4159    1.0000 </r>
       <r>  -12.6662    1.0000 </r>
       <r>  -10.5368    1.0000 </r>
       <r>   -7.5694    1.0000 </r>
       <r>   -6.9753    1.0000 </r>
       <r>   -5.2471    1.0000 </r>
       <r>   -5.1137    1.0000 </r>
       <r>   -4.2393    1.0000 </r>
       <r>   -3.6038    1.0000 </r>
       <r>   -0.7900    0.0000 </r>
       <r>   -0.7165    0.0000 </r>
       <r>   -0.4652    0.0000 </r>
       <r>    0.5305    0.0000 </r>
       <r>    1.1502    0.0000 </r>
       <r>    2.3511    0.0000 </r>
      </set>
      <set comment="kpoint 23">
       <r>  -14.8307    1.0000 </r>
       <r>  -13.8855    1.0000 </r>
       <r>  -12.2148    1.0000 </r>
       <r>  -11.1368    1.0000 </r>
       <r>   -7.3740    1.0000 </r>
       <r>   -7.0243    1.0000 </r>
       <r>   -5.1133    1.0000 </r>
       <r>   -5.0832    1.0000 </r>
       <r>   -4.1798    1.0000 </r>
       <r>   -3.8576    1.0000 </r>
       <r>   -0.9534    0.0000 </r>
       <r>   -0.9475    0.0000 </r>
       <r>   -0.2681    0.0000 </r>
       <r>    0.4878    0.0000 </r>
       <r>    1.0982    0.0000 </r>
       <r>    1.9011    0.0000 </r>
      </set>
      <set comment="kpoint 24">
       <r>  -14.3668    1.0000 </r>
       <r>  -14.3667    1.0000 </r>
       <r>  -11.6987    1.0000 </r>
       <r>  -11.6987    1.0000 </r>
       <r>   -7.1738    1.0000 </r>
       <r>   -7.1738    1.0000 </r>
       <r>   -5.0678    1.0000 </r>
       <r>   -5.0678    1.0000 </r>
       <r>   -4.0504    1.0000 </r>
       <r>   -4.0504    1.0000 </r>
       <r>   -1.0387    0.0000 </r>
       <r>   -1.0387    0.0000 </r>
       <r>    0.1025    0.0000 </r>
       <r>    0.1025    0.0000 </r>
       <r>    1.4652    0.0000 </r>
       <r>    1.4652    0.0000 </r>
      </set>
      <set comment="kpoint 25">
       <r>  -14.8307    1.0000 </r>
       <r>  -13.8855    1.0000 </r>
       <r>  -12.2148    1.0000 </r>
       <r>  -11.1368    1.0000 </r>
       <r>   -7.3740    1.0000 </r>
       <r>   -7.0243    1.0000 </r>
       <r>   -5.1133    1.0000 </r>
       <r>   -5.0832    1.0000 </r>
       <r>   -4.1798    1.0000 </r>
       <r>   -3.8576    1.0000 </r>
       <r>   -0.9534    0.0000 </r>
       <r>   -0.9475    0.0000 </r>
       <r>   -0.2681    0.0000 </r>
       <r>    0.4878    0.0000 </r>
       <r>    1.0982    0.0000 </r>
       <r>    1.9011    0.0000 </r>
      </set>
      <set comment="kpoint 26">
       <r>  -15.2658    1.0000 </r>
       <r>  -13.4159    1.0000 </r>
       <r>  -12.6662    1.0000 </r>
       <r>  -10.5368    1.0000 </r>
       <r>   -7.5694    1.0000 </r>
       <r>   -6.9753    1.0000 </r>
       <r>   -5.2471    1.0000 </r>
       <r>   -5.1137    1.0000 </r>
       <r>   -4.2393    1.0000 </r>
       <r>   -3.6038    1.0000 </r>
       <r>   -0.7900    0.0000 </r>
       <r>   -0.7165    0.0000 </r>
       <r>   -0.4652    0.0000 </r>
       <r>    0.5305    0.0000 </r>
       <r>    1.1502    0.0000 </r>
       <r>    2.3511    0.0000 </r>
      </set>
      <set comment="kpoint 27">
       <r>  -15.6651    1.0000 </r>
       <r>  -13.2418    1.0000 </r>
       <r>  -12.7864    1.0000 </r>
       <r>   -9.9076    1.0000 </r>
       <r>   -7.7133    1.0000 </r>
       <r>   -7.0337    1.0000 </r>
       <r>   -5.4452    1.0000 </r>
       <r>   -5.1703    1.0000 </r>
       <r>   -4.1918    1.0000 </r>
       <r>   -3.3187    1.0000 </r>
       <r>   -0.9143    0.0000 </r>
       <r>   -0.4178    0.0000 </r>
       <r>   -0.1435    0.0000 </r>
       <r>    0.3094    0.0000 </r>
       <r>    1.5794    0.0000 </r>
       <r>    2.7841    0.0000 </r>
      </set>
      <set comment="kpoint 28">
       <r>  -16.0241    1.0000 </r>
       <r>  -13.5618    1.0000 </r>
       <r>  -12.4013    1.0000 </r>
       <r>   -9.2644    1.0000 </r>
       <r>   -7.7655    1.0000 </r>
       <r>   -7.1592    1.0000 </r>
       <r>   -5.6702    1.0000 </r>
       <r>   -5.2669    1.0000 </r>
       <r>   -4.0499    1.0000 </r>
       <r>   -3.0416    1.0000 </r>
       <r>   -1.0115    0.0000 </r>
       <r>   -0.3445    0.0000 </r>
       <r>    0.3848    0.0000 </r>
       <r>    0.4073    0.0000 </r>
       <r>    2.0405    0.0000 </r>
       <r>    3.1589    0.0000 </r>
      </set>
      <set comment="kpoint 29">
       <r>  -16.3397    1.0000 </r>
       <r>  -13.8849    1.0000 </r>
       <r>  -12.0319    1.0000 </r>
       <r>   -8.6407    1.0000 </r>
       <r>   -7.6909    1.0000 </r>
       <r>   -7.2958    1.0000 </r>
       <r>   -5.8932    1.0000 </r>
       <r>   -5.3623    1.0000 </r>
       <r>   -3.8963    1.0000 </r>
       <r>   -2.8044    1.0000 </r>
       <r>   -0.9553    0.0000 </r>
       <r>   -0.5280    0.0000 </r>
       <r>    0.8635    0.0000 </r>
       <r>    0.9957    0.0000 </r>
       <r>    2.4783    0.0000 </r>
       <r>    3.2901    0.0000 </r>
      </set>
      <set comment="kpoint 30">
       <r>  -16.6095    1.0000 </r>
       <r>  -14.1650    1.0000 </r>
       <r>  -11.7485    1.0000 </r>
       <r>   -8.1294    1.0000 </r>
       <r>   -7.4696    1.0000 </r>
       <r>   -7.3609    1.0000 </r>
       <r>   -6.0939    1.0000 </r>
       <r>   -5.3930    1.0000 </r>
       <r>   -3.7988    1.0000 </r>
       <r>   -2.6264    1.0000 </r>
       <r>   -0.7300    0.0000 </r>
       <r>   -0.7208    0.0000 </r>
       <r>    1.4216    0.0000 </r>
       <r>    1.6343    0.0000 </r>
       <r>    2.7334    0.0000 </r>
       <r>    3.0359    0.0000 </r>
      </set>
      <set comment="kpoint 31">
       <r>  -16.8322    1.0000 </r>
       <r>  -14.3963    1.0000 </r>
       <r>  -11.5611    1.0000 </r>
       <r>   -7.9311    1.0000 </r>
       <r>   -7.2098    1.0000 </r>
       <r>   -7.1176    1.0000 </r>
       <r>   -6.2514    1.0000 </r>
       <r>   -5.2805    1.0000 </r>
       <r>   -3.7693    1.0000 </r>
       <r>   -2.5113    1.0000 </r>
       <r>   -0.9002    0.0000 </r>
       <r>   -0.3331    0.0000 </r>
       <r>    1.9642    0.0000 </r>
       <r>    2.1515    0.0000 </r>
       <r>    2.3156    0.0000 </r>
       <r>    2.6598    0.0000 </r>
      </set>
      <set comment="kpoint 32">
       <r>  -17.0063    1.0000 </r>
       <r>  -14.5772    1.0000 </r>
       <r>  -11.4537    1.0000 </r>
       <r>   -7.9623    1.0000 </r>
       <r>   -6.9902    1.0000 </r>
       <r>   -6.7443    1.0000 </r>
       <r>   -6.2913    1.0000 </r>
       <r>   -4.9650    1.0000 </r>
       <r>   -3.7832    1.0000 </r>
       <r>   -2.4506    1.0000 </r>
       <r>   -1.0305    0.0000 </r>
       <r>    0.1455    0.0000 </r>
       <r>    1.2479    0.0000 </r>
       <r>    2.0082    0.0000 </r>
       <r>    2.4063    0.0000 </r>
       <r>    2.5987    0.0000 </r>
      </set>
      <set comment="kpoint 33">
       <r>  -17.1313    1.0000 </r>
       <r>  -14.7068    1.0000 </r>
       <r>  -11.4001    1.0000 </r>
       <r>   -8.0264    1.0000 </r>
       <r>   -6.8768    1.0000 </r>
       <r>   -6.6460    1.0000 </r>
       <r>   -5.9895    1.0000 </r>
       <r>   -4.5069    1.0000 </r>
       <r>   -3.8123    1.0000 </r>
       <r>   -2.4297    1.0000 </r>
       <r>   -1.1218    0.0000 </r>
       <r>    0.3833    0.0000 </r>
       <r>    0.6319    0.0000 </r>
       <r>    1.3719    0.0000 </r>
       <r>    2.3210    0.0000 </r>
       <r>    2.4601    0.0000 </r>
      </set>
      <set comment="kpoint 34">
       <r>  -17.2065    1.0000 </r>
       <r>  -14.7848    1.0000 </r>
       <r>  -11.3774    1.0000 </r>
       <r>   -8.0727    1.0000 </r>
       <r>   -6.8377    1.0000 </r>
       <r>   -6.6751    1.0000 </r>
       <r>   -5.6100    1.0000 </r>
       <r>   -4.0817    1.0000 </r>
       <r>   -3.8376    1.0000 </r>
       <r>   -2.4327    1.0000 </r>
       <r>   -1.1772    0.0000 </r>
       <r>   -0.2327    0.0000 </r>
       <r>    0.7794    0.0000 </r>
       <r>    1.0506    0.0000 </r>
       <r>    2.2487    0.0000 </r>
       <r>    2.3765    0.0000 </r>
      </set>
      <set comment="kpoint 35">
       <r>  -17.1662    1.0000 </r>
       <r>  -14.8973    1.0000 </r>
       <r>  -11.4000    1.0000 </r>
       <r>   -8.4362    1.0000 </r>
       <r>   -6.6583    1.0000 </r>
       <r>   -6.4095    1.0000 </r>
       <r>   -5.3993    1.0000 </r>
       <r>   -3.9400    1.0000 </r>
       <r>   -3.5746    1.0000 </r>
       <r>   -2.8487    1.0000 </r>
       <r>   -0.8315    0.0000 </r>
       <r>   -0.4107    0.0000 </r>
       <r>    0.4303    0.0000 </r>
       <r>    1.1563    0.0000 </r>
       <r>    2.3976    0.0000 </r>
       <r>    2.4406    0.0000 </r>
      </set>
      <set comment="kpoint 36">
       <r>  -17.1412    1.0000 </r>
       <r>  -14.8717    1.0000 </r>
       <r>  -11.4027    1.0000 </r>
       <r>   -8.4228    1.0000 </r>
       <r>   -6.6588    1.0000 </r>
       <r>   -6.4209    1.0000 </r>
       <r>   -5.5352    1.0000 </r>
       <r>   -4.1346    1.0000 </r>
       <r>   -3.5660    1.0000 </r>
       <r>   -2.8395    1.0000 </r>
       <r>   -0.8169    0.0000 </r>
       <r>   -0.1819    0.0000 </r>
       <r>    0.6392    0.0000 </r>
       <r>    1.0315    0.0000 </r>
       <r>    2.4194    0.0000 </r>
       <r>    2.4683    0.0000 </r>
      </set>
      <set comment="kpoint 37">
       <r>  -17.0662    1.0000 </r>
       <r>  -14.7950    1.0000 </r>
       <r>  -11.4152    1.0000 </r>
       <r>   -8.3864    1.0000 </r>
       <r>   -6.6725    1.0000 </r>
       <r>   -6.5127    1.0000 </r>
       <r>   -5.8011    1.0000 </r>
       <r>   -4.5861    1.0000 </r>
       <r>   -3.5596    1.0000 </r>
       <r>   -2.8216    1.0000 </r>
       <r>   -0.7770    0.0000 </r>
       <r>    0.4317    0.0000 </r>
       <r>    0.5905    0.0000 </r>
       <r>    1.2972    0.0000 </r>
       <r>    2.4820    0.0000 </r>
       <r>    2.5511    0.0000 </r>
      </set>
      <set comment="kpoint 38">
       <r>  -16.9416    1.0000 </r>
       <r>  -14.6676    1.0000 </r>
       <r>  -11.4511    1.0000 </r>
       <r>   -8.3416    1.0000 </r>
       <r>   -6.8196    1.0000 </r>
       <r>   -6.7429    1.0000 </r>
       <r>   -5.9116    1.0000 </r>
       <r>   -5.0739    1.0000 </r>
       <r>   -3.5718    1.0000 </r>
       <r>   -2.8111    1.0000 </r>
       <r>   -0.7127    0.0000 </r>
       <r>    0.1653    0.0000 </r>
       <r>    1.2796    0.0000 </r>
       <r>    1.9688    0.0000 </r>
       <r>    2.3028    0.0000 </r>
       <r>    2.5862    0.0000 </r>
      </set>
      <set comment="kpoint 39">
       <r>  -16.7678    1.0000 </r>
       <r>  -14.4905    1.0000 </r>
       <r>  -11.5335    1.0000 </r>
       <r>   -8.3302    1.0000 </r>
       <r>   -7.2408    1.0000 </r>
       <r>   -6.9296    1.0000 </r>
       <r>   -5.8527    1.0000 </r>
       <r>   -5.4049    1.0000 </r>
       <r>   -3.6233    1.0000 </r>
       <r>   -2.8234    1.0000 </r>
       <r>   -0.6229    0.0000 </r>
       <r>   -0.2366    0.0000 </r>
       <r>    1.6002    0.0000 </r>
       <r>    2.2991    0.0000 </r>
       <r>    2.3920    0.0000 </r>
       <r>    2.6985    0.0000 </r>
      </set>
      <set comment="kpoint 40">
       <r>  -16.5459    1.0000 </r>
       <r>  -14.2655    1.0000 </r>
       <r>  -11.6904    1.0000 </r>
       <r>   -8.4576    1.0000 </r>
       <r>   -7.6054    1.0000 </r>
       <r>   -7.1597    1.0000 </r>
       <r>   -5.7223    1.0000 </r>
       <r>   -5.5118    1.0000 </r>
       <r>   -3.7362    1.0000 </r>
       <r>   -2.8756    1.0000 </r>
       <r>   -0.5285    0.0000 </r>
       <r>   -0.5055    0.0000 </r>
       <r>    1.0408    0.0000 </r>
       <r>    1.9059    0.0000 </r>
       <r>    2.7701    0.0000 </r>
       <r>    3.1073    0.0000 </r>
      </set>
      <set comment="kpoint 41">
       <r>  -16.2770    1.0000 </r>
       <r>  -13.9968    1.0000 </r>
       <r>  -11.9404    1.0000 </r>
       <r>   -8.8331    1.0000 </r>
       <r>   -7.8363    1.0000 </r>
       <r>   -7.2370    1.0000 </r>
       <r>   -5.5617    1.0000 </r>
       <r>   -5.4835    1.0000 </r>
       <r>   -3.9090    1.0000 </r>
       <r>   -2.9816    1.0000 </r>
       <r>   -0.6660    0.0000 </r>
       <r>   -0.3629    0.0000 </r>
       <r>    0.4985    0.0000 </r>
[...]
       <r>    3.4145    0.0000 </r>
       <r>    3.4529    0.0000 </r>
      </set>
      <set comment="kpoint 161">
       <r>  -15.4114    1.0000 </r>
       <r>  -15.1579    1.0000 </r>
       <r>  -10.8052    1.0000 </r>
       <r>  -10.4783    1.0000 </r>
       <r>   -7.8560    1.0000 </r>
       <r>   -7.6931    1.0000 </r>
       <r>   -5.1789    1.0000 </r>
       <r>   -4.9338    1.0000 </r>
       <r>   -3.7890    1.0000 </r>
       <r>   -3.7231    1.0000 </r>
       <r>    0.3685    0.0000 </r>
       <r>    0.7591    0.0000 </r>
       <r>    1.2091    0.0000 </r>
       <r>    1.5301    0.0000 </r>
       <r>    3.4056    0.0000 </r>
       <r>    3.4225    0.0000 </r>
      </set>
      <set comment="kpoint 162">
       <r>  -15.6657    1.0000 </r>
       <r>  -15.4083    1.0000 </r>
       <r>  -10.7071    1.0000 </r>
       <r>  -10.3780    1.0000 </r>
       <r>   -7.4686    1.0000 </r>
       <r>   -7.2978    1.0000 </r>
       <r>   -5.1211    1.0000 </r>
       <r>   -4.8236    1.0000 </r>
       <r>   -3.6585    1.0000 </r>
       <r>   -3.6048    1.0000 </r>
       <r>    0.4018    0.0000 </r>
       <r>    0.6984    0.0000 </r>
       <r>    1.2711    0.0000 </r>
       <r>    1.6267    0.0000 </r>
       <r>    3.1125    0.0000 </r>
       <r>    3.3645    0.0000 </r>
      </set>
      <set comment="kpoint 163">
       <r>  -15.8783    1.0000 </r>
       <r>  -15.6188    1.0000 </r>
       <r>  -10.7017    1.0000 </r>
       <r>  -10.3775    1.0000 </r>
       <r>   -6.9166    1.0000 </r>
       <r>   -6.7332    1.0000 </r>
       <r>   -5.1668    1.0000 </r>
       <r>   -4.8379    1.0000 </r>
       <r>   -3.5433    1.0000 </r>
       <r>   -3.3684    1.0000 </r>
       <r>    0.5287    0.0000 </r>
       <r>    0.7078    0.0000 </r>
       <r>    1.2462    0.0000 </r>
       <r>    1.6230    0.0000 </r>
       <r>    2.5172    0.0000 </r>
       <r>    2.7558    0.0000 </r>
      </set>
      <set comment="kpoint 164">
       <r>  -16.0460    1.0000 </r>
       <r>  -15.7852    1.0000 </r>
       <r>  -10.7392    1.0000 </r>
       <r>  -10.4206    1.0000 </r>
       <r>   -6.2717    1.0000 </r>
       <r>   -6.0774    1.0000 </r>
       <r>   -5.2417    1.0000 </r>
       <r>   -4.8990    1.0000 </r>
       <r>   -3.4682    1.0000 </r>
       <r>   -3.1808    1.0000 </r>
       <r>    0.6906    0.0000 </r>
       <r>    0.7494    0.0000 </r>
       <r>    1.1537    0.0000 </r>
       <r>    1.4908    0.0000 </r>
       <r>    1.9052    0.0000 </r>
       <r>    2.0273    0.0000 </r>
      </set>
      <set comment="kpoint 165">
       <r>  -16.1669    1.0000 </r>
       <r>  -15.9054    1.0000 </r>
       <r>  -10.7842    1.0000 </r>
       <r>  -10.4698    1.0000 </r>
       <r>   -5.6070    1.0000 </r>
       <r>   -5.4217    1.0000 </r>
       <r>   -5.2958    1.0000 </r>
       <r>   -4.9609    1.0000 </r>
       <r>   -3.4841    1.0000 </r>
       <r>   -3.0989    1.0000 </r>
       <r>    0.5601    0.0000 </r>
       <r>    0.5662    0.0000 </r>
       <r>    1.1487    0.0000 </r>
       <r>    1.2820    0.0000 </r>
       <r>    1.6221    0.0000 </r>
       <r>    1.6714    0.0000 </r>
      </set>
      <set comment="kpoint 166">
       <r>  -16.2398    1.0000 </r>
       <r>  -15.9780    1.0000 </r>
       <r>  -10.8174    1.0000 </r>
       <r>  -10.5055    1.0000 </r>
       <r>   -5.3620    1.0000 </r>
       <r>   -5.0247    1.0000 </r>
       <r>   -5.0033    1.0000 </r>
       <r>   -4.8294    1.0000 </r>
       <r>   -3.6006    1.0000 </r>
       <r>   -3.1347    1.0000 </r>
       <r>    0.1535    0.0000 </r>
       <r>    0.1748    0.0000 </r>
       <r>    1.2164    0.0000 </r>
       <r>    1.3426    0.0000 </r>
       <r>    1.5910    0.0000 </r>
       <r>    1.5929    0.0000 </r>
      </set>
     </set>
    </set>
   </array>
  </eigenvalues>
  <separator name="orbital magnetization" >
   <v name="MAGDIPOLOUT">      0.00000000      0.00000000      0.00000000</v>
  </separator>
  <dos>
   <i name="efermi">     -2.07711086 </i>
   <total>
    <array>
     <dimension dim="1">gridpoints</dimension>
     <dimension dim="2">spin</dimension>
     <field>energy</field>
     <field>total</field>
     <field>integrated</field>
     <set>
      <set comment="spin 1">
       <r>   -18.2961     0.0000     0.0000 </r>
       <r>   -18.2196     0.0000     0.0000 </r>
       <r>   -18.1431     0.0000     0.0000 </r>
       <r>   -18.0667     0.0000     0.0000 </r>
       <r>   -17.9902     0.0000     0.0000 </r>
       <r>   -17.9138     0.0000     0.0000 </r>
       <r>   -17.8373     0.0000     0.0000 </r>
       <r>   -17.7608     0.0000     0.0000 </r>
       <r>   -17.6844     0.0000     0.0000 </r>
       <r>   -17.6079     0.0000     0.0000 </r>
       <r>   -17.5315     0.0000     0.0000 </r>
       <r>   -17.4550     0.0000     0.0000 </r>
       <r>   -17.3786     0.0000     0.0000 </r>
       <r>   -17.3021     0.0000     0.0000 </r>
       <r>   -17.2256     0.3013     0.0230 </r>
       <r>   -17.1492     0.7726     0.0821 </r>
       <r>   -17.0727     0.7193     0.1371 </r>
       <r>   -16.9963     1.0622     0.2183 </r>
       <r>   -16.9198     0.7354     0.2746 </r>
       <r>   -16.8433     0.7320     0.3305 </r>
       <r>   -16.7669     0.9965     0.4067 </r>
       <r>   -16.6904     0.6992     0.4602 </r>
       <r>   -16.6140     1.0824     0.5429 </r>
       <r>   -16.5375     0.5275     0.5833 </r>
       <r>   -16.4610     1.1774     0.6733 </r>
       <r>   -16.3846     0.6232     0.7209 </r>
       <r>   -16.3081     0.8809     0.7883 </r>
       <r>   -16.2317     1.2505     0.8839 </r>
       <r>   -16.1552     0.6339     0.9324 </r>
       <r>   -16.0787     0.7288     0.9881 </r>
       <r>   -16.0023     1.1749     1.0779 </r>
       <r>   -15.9258     0.7674     1.1366 </r>
       <r>   -15.8494     1.3686     1.2412 </r>
       <r>   -15.7729     0.4306     1.2742 </r>
       <r>   -15.6964     0.8306     1.3377 </r>
       <r>   -15.6200     1.6026     1.4602 </r>
       <r>   -15.5435     0.7202     1.5153 </r>
       <r>   -15.4671     0.8497     1.5802 </r>
       <r>   -15.3906     1.0189     1.6581 </r>
       <r>   -15.3141     1.2203     1.7515 </r>
       <r>   -15.2377     0.8620     1.8174 </r>
       <r>   -15.1612     1.2172     1.9104 </r>
       <r>   -15.0848     1.6030     2.0330 </r>
       <r>   -15.0083     1.0466     2.1130 </r>
       <r>   -14.9318     0.7408     2.1697 </r>
       <r>   -14.8554     1.6539     2.2961 </r>
       <r>   -14.7789     2.4600     2.4842 </r>
       <r>   -14.7025     0.8456     2.5489 </r>
       <r>   -14.6260     1.9063     2.6946 </r>
       <r>   -14.5496     1.4202     2.8032 </r>
       <r>   -14.4731     0.7301     2.8590 </r>
       <r>   -14.3966     0.9070     2.9284 </r>
       <r>   -14.3202     2.0597     3.0858 </r>
       <r>   -14.2437     1.1453     3.1734 </r>
       <r>   -14.1673     0.9564     3.2465 </r>
       <r>   -14.0908     1.3808     3.3521 </r>
       <r>   -14.0143     1.2721     3.4494 </r>
       <r>   -13.9379     0.6841     3.5017 </r>
       <r>   -13.8614     2.4834     3.6916 </r>
       <r>   -13.7850     0.7048     3.7455 </r>
       <r>   -13.7085     0.3630     3.7732 </r>
       <r>   -13.6320     0.4789     3.8098 </r>
       <r>   -13.5556     0.6364     3.8585 </r>
       <r>   -13.4791     0.4668     3.8942 </r>
       <r>   -13.4027     0.7227     3.9494 </r>
       <r>   -13.3262     0.1857     3.9636 </r>
       <r>   -13.2497     0.0907     3.9706 </r>
       <r>   -13.1733     0.2264     3.9879 </r>
       <r>   -13.0968     0.1554     3.9998 </r>
       <r>   -13.0204     0.0031     4.0000 </r>
       <r>   -12.9439     0.0003     4.0000 </r>
       <r>   -12.8674     0.1573     4.0121 </r>
       <r>   -12.7910     0.1187     4.0211 </r>
       <r>   -12.7145     0.2092     4.0371 </r>
       <r>   -12.6381     0.4586     4.0722 </r>
       <r>   -12.5616     0.6312     4.1205 </r>
       <r>   -12.4851     0.0821     4.1267 </r>
       <r>   -12.4087     0.5057     4.1654 </r>
       <r>   -12.3322     0.6201     4.2128 </r>
       <r>   -12.2558     0.5033     4.2513 </r>
       <r>   -12.1793     1.5915     4.3730 </r>
       <r>   -12.1029     1.0135     4.4505 </r>
       <r>   -12.0264     1.1332     4.5371 </r>
       <r>   -11.9499     0.9606     4.6106 </r>
       <r>   -11.8735     1.1610     4.6993 </r>
       <r>   -11.7970     1.0662     4.7808 </r>
       <r>   -11.7206     1.3137     4.8813 </r>
       <r>   -11.6441     1.4246     4.9902 </r>
       <r>   -11.5676     1.3230     5.0914 </r>
       <r>   -11.4912     1.1275     5.1776 </r>
       <r>   -11.4147     2.3327     5.3559 </r>
       <r>   -11.3383     4.5588     5.7045 </r>
       <r>   -11.2618     1.0334     5.7835 </r>
       <r>   -11.1853     1.8895     5.9280 </r>
       <r>   -11.1089     0.8103     5.9899 </r>
       <r>   -11.0324     1.6674     6.1174 </r>
       <r>   -10.9560     1.2161     6.2104 </r>
       <r>   -10.8795     0.0566     6.2147 </r>
       <r>   -10.8030     1.1307     6.3012 </r>
       <r>   -10.7266     1.0336     6.3802 </r>
       <r>   -10.6501     1.1306     6.4667 </r>
       <r>   -10.5737     0.3290     6.4918 </r>
       <r>   -10.4972     1.1773     6.5818 </r>
       <r>   -10.4207     0.9242     6.6525 </r>
       <r>   -10.3443     1.0674     6.7341 </r>
       <r>   -10.2678     0.3068     6.7576 </r>
       <r>   -10.1914     0.0008     6.7576 </r>
       <r>   -10.1149     1.1506     6.8456 </r>
       <r>   -10.0384     0.8944     6.9140 </r>
       <r>    -9.9620     0.9611     6.9875 </r>
       <r>    -9.8855     0.3556     7.0147 </r>
       <r>    -9.8091     0.3549     7.0418 </r>
       <r>    -9.7326     0.7127     7.0963 </r>
       <r>    -9.6562     0.5945     7.1418 </r>
       <r>    -9.5797     0.9324     7.2130 </r>
       <r>    -9.5032     0.2257     7.2303 </r>
       <r>    -9.4268     0.1933     7.2451 </r>
       <r>    -9.3503     0.4383     7.2786 </r>
       <r>    -9.2739     0.6125     7.3254 </r>
       <r>    -9.1974     1.3414     7.4280 </r>
       <r>    -9.1209     0.3214     7.4526 </r>
       <r>    -9.0445     0.2638     7.4727 </r>
       <r>    -8.9680     0.0000     7.4727 </r>
       <r>    -8.8916     0.0041     7.4730 </r>
       <r>    -8.8151     1.2152     7.5660 </r>
       <r>    -8.7386     0.8036     7.6274 </r>
       <r>    -8.6622     0.0583     7.6319 </r>
       <r>    -8.5857     0.3166     7.6561 </r>
       <r>    -8.5093     0.1388     7.6667 </r>
       <r>    -8.4328     0.4751     7.7030 </r>
       <r>    -8.3563     0.6866     7.7555 </r>
       <r>    -8.2799     0.5820     7.8000 </r>
       <r>    -8.2034     0.0295     7.8023 </r>
       <r>    -8.1270     1.3630     7.9065 </r>
       <r>    -8.0505     1.7118     8.0374 </r>
       <r>    -7.9740     2.1993     8.2055 </r>
       <r>    -7.8976     2.4679     8.3942 </r>
       <r>    -7.8211     1.8408     8.5350 </r>
       <r>    -7.7447     1.1846     8.6255 </r>
       <r>    -7.6682     2.8401     8.8427 </r>
       <r>    -7.5917     2.4484     9.0299 </r>
       <r>    -7.5153     0.9348     9.1014 </r>
       <r>    -7.4388     2.0435     9.2576 </r>
       <r>    -7.3624     1.6496     9.3837 </r>
       <r>    -7.2859     3.1986     9.6283 </r>
       <r>    -7.2094     2.6077     9.8277 </r>
       <r>    -7.1330     3.5396    10.0983 </r>
       <r>    -7.0565     2.7387    10.3077 </r>
       <r>    -6.9801     2.9281    10.5316 </r>
       <r>    -6.9036     1.7461    10.6651 </r>
       <r>    -6.8272     0.9111    10.7348 </r>
       <r>    -6.7507     1.4660    10.8468 </r>
       <r>    -6.6742     2.0441    11.0031 </r>
       <r>    -6.5978     2.0440    11.1594 </r>
       <r>    -6.5213     0.9911    11.2352 </r>
       <r>    -6.4449     2.4998    11.4263 </r>
       <r>    -6.3684     1.0399    11.5058 </r>
       <r>    -6.2919     1.2728    11.6032 </r>
       <r>    -6.2155     2.1375    11.7666 </r>
       <r>    -6.1390     1.3729    11.8716 </r>
       <r>    -6.0626     1.0221    11.9497 </r>
       <r>    -5.9861     1.9329    12.0975 </r>
       <r>    -5.9096     2.4664    12.2861 </r>
       <r>    -5.8332     1.2321    12.3803 </r>
       <r>    -5.7567     1.9813    12.5318 </r>
       <r>    -5.6803     2.0219    12.6864 </r>
       <r>    -5.6038     3.7262    12.9713 </r>
       <r>    -5.5273     3.2962    13.2233 </r>
       <r>    -5.4509     2.5351    13.4171 </r>
       <r>    -5.3744     5.6642    13.8502 </r>
       <r>    -5.2980     2.3500    14.0299 </r>
       <r>    -5.2215     3.3286    14.2844 </r>
       <r>    -5.1450     3.1488    14.5251 </r>
       <r>    -5.0686     3.1048    14.7625 </r>
       <r>    -4.9921     2.0891    14.9223 </r>
       <r>    -4.9157     2.0489    15.0789 </r>
       <r>    -4.8392     1.9970    15.2316 </r>
       <r>    -4.7627     1.5949    15.3536 </r>
       <r>    -4.6863     0.7254    15.4090 </r>
       <r>    -4.6098     1.3368    15.5112 </r>
       <r>    -4.5334     1.2802    15.6091 </r>
       <r>    -4.4569     1.9651    15.7594 </r>
       <r>    -4.3805     0.8424    15.8238 </r>
       <r>    -4.3040     0.5799    15.8681 </r>
       <r>    -4.2275     0.7082    15.9223 </r>
       <r>    -4.1511     2.3985    16.1056 </r>
       <r>    -4.0746     3.0047    16.3354 </r>
       <r>    -3.9982     2.3656    16.5163 </r>
       <r>    -3.9217     2.8028    16.7306 </r>
       <r>    -3.8452     3.4970    16.9979 </r>
       <r>    -3.7688     3.7399    17.2839 </r>
       <r>    -3.6923     2.9961    17.5130 </r>
       <r>    -3.6159     3.7891    17.8027 </r>
       <r>    -3.5394     4.0231    18.1103 </r>
       <r>    -3.4629     2.4899    18.3007 </r>
       <r>    -3.3865     2.2842    18.4753 </r>
       <r>    -3.3100     4.3080    18.8047 </r>
       <r>    -3.2336     3.6853    19.0865 </r>
       <r>    -3.1571     2.0960    19.2467 </r>
       <r>    -3.0806     1.1821    19.3371 </r>
       <r>    -3.0042     1.0749    19.4193 </r>
       <r>    -2.9277     0.7031    19.4731 </r>
       <r>    -2.8513     1.2390    19.5678 </r>
       <r>    -2.7748     2.3961    19.7510 </r>
       <r>    -2.6983     0.5979    19.7967 </r>
       <r>    -2.6219     0.2409    19.8151 </r>
       <r>    -2.5454     0.1382    19.8257 </r>
       <r>    -2.4690     0.4918    19.8633 </r>
       <r>    -2.3925     1.0955    19.9471 </r>
       <r>    -2.3160     0.1390    19.9577 </r>
       <r>    -2.2396     0.2460    19.9765 </r>
       <r>    -2.1631     0.3074    20.0000 </r>
       <r>    -2.0867     0.0000    20.0000 </r>
       <r>    -2.0102     0.0000    20.0000 </r>
       <r>    -1.9337     0.0000    20.0000 </r>
       <r>    -1.8573     0.0000    20.0000 </r>
       <r>    -1.7808     0.0000    20.0000 </r>
       <r>    -1.7044     0.0000    20.0000 </r>
       <r>    -1.6279     0.0000    20.0000 </r>
       <r>    -1.5515     0.0000    20.0000 </r>
       <r>    -1.4750     0.0000    20.0000 </r>
       <r>    -1.3985     0.0340    20.0026 </r>
       <r>    -1.3221     0.2126    20.0189 </r>
       <r>    -1.2456     0.1497    20.0303 </r>
       <r>    -1.1692     0.5173    20.0699 </r>
       <r>    -1.0927     0.5870    20.1147 </r>
       <r>    -1.0162     1.5899    20.2363 </r>
       <r>    -0.9398     1.6352    20.3613 </r>
       <r>    -0.8633     1.5952    20.4833 </r>
       <r>    -0.7869     1.9773    20.6345 </r>
       <r>    -0.7104     1.7242    20.7663 </r>
       <r>    -0.6339     2.0631    20.9241 </r>
       <r>    -0.5575     0.9603    20.9975 </r>
       <r>    -0.4810     2.1515    21.1620 </r>
       <r>    -0.4046     2.2690    21.3355 </r>
       <r>    -0.3281     2.4571    21.5233 </r>
       <r>    -0.2516     2.4055    21.7073 </r>
       <r>    -0.1752     1.9403    21.8556 </r>
       <r>    -0.0987     2.5773    22.0527 </r>
       <r>    -0.0223     2.6540    22.2556 </r>
       <r>     0.0542     3.2772    22.5062 </r>
       <r>     0.1307     2.2351    22.6771 </r>
       <r>     0.2071     5.1780    23.0730 </r>
       <r>     0.2836     2.1815    23.2398 </r>
       <r>     0.3600     2.5973    23.4384 </r>
       <r>     0.4365     4.9229    23.8148 </r>
       <r>     0.5130     4.9165    24.1907 </r>
       <r>     0.5894     2.9765    24.4183 </r>
       <r>     0.6659     4.1228    24.7335 </r>
       <r>     0.7423     4.3744    25.0679 </r>
       <r>     0.8188     3.0705    25.3027 </r>
       <r>     0.8952     4.2499    25.6277 </r>
       <r>     0.9717     1.8858    25.7718 </r>
       <r>     1.0482     3.6166    26.0484 </r>
       <r>     1.1246     3.0078    26.2783 </r>
       <r>     1.2011     3.6721    26.5591 </r>
       <r>     1.2775     3.0941    26.7957 </r>
       <r>     1.3540     2.6362    26.9972 </r>
       <r>     1.4305     1.9527    27.1465 </r>
       <r>     1.5069     2.1042    27.3074 </r>
       <r>     1.5834     2.6280    27.5084 </r>
       <r>     1.6598     3.3230    27.7624 </r>
       <r>     1.7363     1.9888    27.9145 </r>
       <r>     1.8128     1.4329    28.0241 </r>
       <r>     1.8892     2.0245    28.1788 </r>
       <r>     1.9657     3.2809    28.4297 </r>
       <r>     2.0421     2.1940    28.5975 </r>
       <r>     2.1186     1.9307    28.7451 </r>
       <r>     2.1951     1.9182    28.8917 </r>
       <r>     2.2715     2.5944    29.0901 </r>
       <r>     2.3480     3.3930    29.3495 </r>
       <r>     2.4244     3.0875    29.5856 </r>
       <r>     2.5009     3.8352    29.8789 </r>
       <r>     2.5774     1.8466    30.0200 </r>
       <r>     2.6538     2.5503    30.2150 </r>
       <r>     2.7303     3.1917    30.4591 </r>
       <r>     2.8067     3.5102    30.7275 </r>
       <r>     2.8832     2.7367    30.9367 </r>
       <r>     2.9597     1.6286    31.0612 </r>
       <r>     3.0361     1.3653    31.1656 </r>
       <r>     3.1126     1.6680    31.2931 </r>
       <r>     3.1890     2.7474    31.5032 </r>
       <r>     3.2655     1.5494    31.6217 </r>
       <r>     3.3420     1.1816    31.7120 </r>
       <r>     3.4184     1.4586    31.8235 </r>
       <r>     3.4949     1.2188    31.9167 </r>
       <r>     3.5713     0.5355    31.9577 </r>
       <r>     3.6478     0.5534    32.0000 </r>
       <r>     3.7242     0.0001    32.0000 </r>
       <r>     3.8007     0.0000    32.0000 </r>
       <r>     3.8772     0.0000    32.0000 </r>
       <r>     3.9536     0.0000    32.0000 </r>
       <r>     4.0301     0.0000    32.0000 </r>
       <r>     4.1065     0.0000    32.0000 </r>
       <r>     4.1830     0.0000    32.0000 </r>
       <r>     4.2595     0.0000    32.0000 </r>
       <r>     4.3359     0.0000    32.0000 </r>
       <r>     4.4124     0.0000    32.0000 </r>
       <r>     4.4888     0.0000    32.0000 </r>
       <r>     4.5653     0.0000    32.0000 </r>
       <r>     4.6418     0.0000    32.0000 </r>
      </set>
     </set>
    </array>
   </total>
  </dos>
 </calculation>
 <structure name="finalpos" >
  <crystal>
   <varray name="basis" >
    <v>       3.27238200       0.00000000       0.00000000 </v>
    <v>       0.00000000       4.58854500      -0.00005300 </v>
    <v>       0.00000000       0.00000000      20.02439000 </v>
   </varray>
   <i name="volume">    300.67566865 </i>
   <varray name="rec_basis" >
    <v>       0.30558780       0.00000000       0.00000000 </v>
    <v>       0.00000000       0.21793401       0.00000000 </v>
    <v>       0.00000000       0.00000058       0.04993910 </v>
   </varray>
  </crystal>
  <varray name="positions" >
   <v>       0.50000000       0.91232365       0.55268309 </v>
   <v>       0.50000000       0.08767635       0.44731691 </v>
   <v>      -0.00000000       0.41231892       0.44731691 </v>
   <v>       0.00000000       0.58768108       0.55268309 </v>
  </varray>
 </structure>
</modeling>
