<?xml version="1.0" encoding="ISO-8859-1"?>
<modeling>
 <generator>
  <i name="program" type="string">vasp </i>
  <i name="version" type="string">5.4.1  </i>
  <i name="subversion" type="string">24Jun15 (build Nov 20 2020 10:29:34) complex                          parallel </i>
  <i name="platform" type="string">IFC91_ompi </i>
  <i name="date" type="string">2021 09 09 </i>
  <i name="time" type="string">13:43:38 </i>
 </generator>
 <incar>
  <i type="string" name="PREC">a</i>
  <i type="string" name="ALGO"> Normal</i>
  <i type="int" name="ISPIN">     1</i>
  <i type="int" name="ICHARG">     2</i>
  <i type="int" name="NELM">   250</i>
  <i type="int" name="NELMDL">    -5</i>
  <i type="int" name="NELMIN">     6</i>
  <i type="int" name="IBRION">     2</i>
  <i name="EDIFF">      0.00001000</i>
  <i name="EDIFFG">     -0.01000000</i>
  <i type="int" name="NSW">   200</i>
  <i type="int" name="ISIF">     2</i>
  <i name="ENCUT">    520.00000000</i>
  <i name="POTIM">      0.30000000</i>
  <i type="logical" name="LREAL"> F  </i>
  <i type="int" name="ISMEAR">     0</i>
  <i name="SIGMA">      0.02000000</i>
  <i type="logical" name="LWAVE"> F  </i>
  <i type="logical" name="LCHARG"> F  </i>
  <i type="logical" name="LAECHG"> F  </i>
  <v type="int" name="KPOINT_BSE">    -1     0     0     0</v>
  <i type="int" name="NELM">   250</i>
 </incar>
 <kpoints>
  <generation param="Gamma">
   <v type="int" name="divisions">      21       15        1 </v>
   <v name="usershift">      0.00000000       0.00000000       0.00000000 </v>
   <v name="genvec1">      0.04761905       0.00000000       0.00000000 </v>
   <v name="genvec2">      0.00000000       0.06666667       0.00000000 </v>
   <v name="genvec3">      0.00000000       0.00000000       1.00000000 </v>
   <v name="shift">      0.00000000       0.00000000       0.00000000 </v>
  </generation>
  <varray name="kpointlist" >
   <v>       0.00000000       0.00000000       0.00000000 </v>
   <v>       0.04761905       0.00000000       0.00000000 </v>
   <v>       0.09523810       0.00000000       0.00000000 </v>
   <v>       0.14285714       0.00000000       0.00000000 </v>
   <v>       0.19047619       0.00000000       0.00000000 </v>
   <v>       0.23809524       0.00000000       0.00000000 </v>
   <v>       0.28571429       0.00000000       0.00000000 </v>
   <v>       0.33333333       0.00000000       0.00000000 </v>
   <v>       0.38095238       0.00000000       0.00000000 </v>
   <v>       0.42857143       0.00000000       0.00000000 </v>
   <v>       0.47619048       0.00000000       0.00000000 </v>
   <v>       0.00000000       0.06666667       0.00000000 </v>
   <v>       0.04761905       0.06666667       0.00000000 </v>
   <v>       0.09523810       0.06666667       0.00000000 </v>
   <v>       0.14285714       0.06666667       0.00000000 </v>
   <v>       0.19047619       0.06666667       0.00000000 </v>
   <v>       0.23809524       0.06666667       0.00000000 </v>
   <v>       0.28571429       0.06666667       0.00000000 </v>
   <v>       0.33333333       0.06666667       0.00000000 </v>
   <v>       0.38095238       0.06666667       0.00000000 </v>
   <v>       0.42857143       0.06666667       0.00000000 </v>
   <v>       0.47619048       0.06666667       0.00000000 </v>
   <v>      -0.47619048       0.06666667       0.00000000 </v>
   <v>      -0.42857143       0.06666667       0.00000000 </v>
   <v>      -0.38095238       0.06666667       0.00000000 </v>
   <v>      -0.33333333       0.06666667       0.00000000 </v>
   <v>      -0.28571429       0.06666667       0.00000000 </v>
   <v>      -0.23809524       0.06666667       0.00000000 </v>
   <v>      -0.19047619       0.06666667       0.00000000 </v>
   <v>      -0.14285714       0.06666667       0.00000000 </v>
   <v>      -0.09523810       0.06666667       0.00000000 </v>
   <v>      -0.04761905       0.06666667       0.00000000 </v>
   <v>       0.00000000       0.13333333       0.00000000 </v>
   <v>       0.04761905       0.13333333       0.00000000 </v>
   <v>       0.09523810       0.13333333       0.00000000 </v>
   <v>       0.14285714       0.13333333       0.00000000 </v>
   <v>       0.19047619       0.13333333       0.00000000 </v>
   <v>       0.23809524       0.13333333       0.00000000 </v>
   <v>       0.28571429       0.13333333       0.00000000 </v>
   <v>       0.33333333       0.13333333       0.00000000 </v>
   <v>       0.38095238       0.13333333       0.00000000 </v>
   <v>       0.42857143       0.13333333       0.00000000 </v>
   <v>       0.47619048       0.13333333       0.00000000 </v>
   <v>      -0.47619048       0.13333333       0.00000000 </v>
   <v>      -0.42857143       0.13333333       0.00000000 </v>
   <v>      -0.38095238       0.13333333       0.00000000 </v>
   <v>      -0.33333333       0.13333333       0.00000000 </v>
   <v>      -0.28571429       0.13333333       0.00000000 </v>
   <v>      -0.23809524       0.13333333       0.00000000 </v>
   <v>      -0.19047619       0.13333333       0.00000000 </v>
   <v>      -0.14285714       0.13333333       0.00000000 </v>
   <v>      -0.09523810       0.13333333       0.00000000 </v>
   <v>      -0.04761905       0.13333333       0.00000000 </v>
   <v>       0.00000000       0.20000000       0.00000000 </v>
   <v>       0.04761905       0.20000000       0.00000000 </v>
   <v>       0.09523810       0.20000000       0.00000000 </v>
   <v>       0.14285714       0.20000000       0.00000000 </v>
   <v>       0.19047619       0.20000000       0.00000000 </v>
   <v>       0.23809524       0.20000000       0.00000000 </v>
   <v>       0.28571429       0.20000000       0.00000000 </v>
   <v>       0.33333333       0.20000000       0.00000000 </v>
   <v>       0.38095238       0.20000000       0.00000000 </v>
   <v>       0.42857143       0.20000000       0.00000000 </v>
   <v>       0.47619048       0.20000000       0.00000000 </v>
   <v>      -0.47619048       0.20000000       0.00000000 </v>
   <v>      -0.42857143       0.20000000       0.00000000 </v>
   <v>      -0.38095238       0.20000000       0.00000000 </v>
   <v>      -0.33333333       0.20000000       0.00000000 </v>
   <v>      -0.28571429       0.20000000       0.00000000 </v>
   <v>      -0.23809524       0.20000000       0.00000000 </v>
   <v>      -0.19047619       0.20000000       0.00000000 </v>
   <v>      -0.14285714       0.20000000       0.00000000 </v>
   <v>      -0.09523810       0.20000000       0.00000000 </v>
   <v>      -0.04761905       0.20000000       0.00000000 </v>
   <v>       0.00000000       0.26666667       0.00000000 </v>
   <v>       0.04761905       0.26666667       0.00000000 </v>
   <v>       0.09523810       0.26666667       0.00000000 </v>
   <v>       0.14285714       0.26666667       0.00000000 </v>
   <v>       0.19047619       0.26666667       0.00000000 </v>
   <v>       0.23809524       0.26666667       0.00000000 </v>
   <v>       0.28571429       0.26666667       0.00000000 </v>
   <v>       0.33333333       0.26666667       0.00000000 </v>
   <v>       0.38095238       0.26666667       0.00000000 </v>
   <v>       0.42857143       0.26666667       0.00000000 </v>
   <v>       0.47619048       0.26666667       0.00000000 </v>
   <v>      -0.47619048       0.26666667       0.00000000 </v>
   <v>      -0.42857143       0.26666667       0.00000000 </v>
   <v>      -0.38095238       0.26666667       0.00000000 </v>
   <v>      -0.33333333       0.26666667       0.00000000 </v>
   <v>      -0.28571429       0.26666667       0.00000000 </v>
   <v>      -0.23809524       0.26666667       0.00000000 </v>
   <v>      -0.19047619       0.26666667       0.00000000 </v>
   <v>      -0.14285714       0.26666667       0.00000000 </v>
   <v>      -0.09523810       0.26666667       0.00000000 </v>
   <v>      -0.04761905       0.26666667       0.00000000 </v>
   <v>       0.00000000       0.33333333       0.00000000 </v>
   <v>       0.04761905       0.33333333       0.00000000 </v>
   <v>       0.09523810       0.33333333       0.00000000 </v>
   <v>       0.14285714       0.33333333       0.00000000 </v>
   <v>       0.19047619       0.33333333       0.00000000 </v>
   <v>       0.23809524       0.33333333       0.00000000 </v>
   <v>       0.28571429       0.33333333       0.00000000 </v>
   <v>       0.33333333       0.33333333       0.00000000 </v>
   <v>       0.38095238       0.33333333       0.00000000 </v>
   <v>       0.42857143       0.33333333       0.00000000 </v>
   <v>       0.47619048       0.33333333       0.00000000 </v>
   <v>      -0.47619048       0.33333333       0.00000000 </v>
   <v>      -0.42857143       0.33333333       0.00000000 </v>
   <v>      -0.38095238       0.33333333       0.00000000 </v>
   <v>      -0.33333333       0.33333333       0.00000000 </v>
   <v>      -0.28571429       0.33333333       0.00000000 </v>
   <v>      -0.23809524       0.33333333       0.00000000 </v>
   <v>      -0.19047619       0.33333333       0.00000000 </v>
   <v>      -0.14285714       0.33333333       0.00000000 </v>
   <v>      -0.09523810       0.33333333       0.00000000 </v>
   <v>      -0.04761905       0.33333333       0.00000000 </v>
   <v>       0.00000000       0.40000000       0.00000000 </v>
   <v>       0.04761905       0.40000000       0.00000000 </v>
   <v>       0.09523810       0.40000000       0.00000000 </v>
   <v>       0.14285714       0.40000000       0.00000000 </v>
   <v>       0.19047619       0.40000000       0.00000000 </v>
   <v>       0.23809524       0.40000000       0.00000000 </v>
   <v>       0.28571429       0.40000000       0.00000000 </v>
   <v>       0.33333333       0.40000000       0.00000000 </v>
   <v>       0.38095238       0.40000000       0.00000000 </v>
   <v>       0.42857143       0.40000000       0.00000000 </v>
   <v>       0.47619048       0.40000000       0.00000000 </v>
   <v>      -0.47619048       0.40000000       0.00000000 </v>
   <v>      -0.42857143       0.40000000       0.00000000 </v>
   <v>      -0.38095238       0.40000000       0.00000000 </v>
   <v>      -0.33333333       0.40000000       0.00000000 </v>
   <v>      -0.28571429       0.40000000       0.00000000 </v>
   <v>      -0.23809524       0.40000000       0.00000000 </v>
   <v>      -0.19047619       0.40000000       0.00000000 </v>
   <v>      -0.14285714       0.40000000       0.00000000 </v>
   <v>      -0.09523810       0.40000000       0.00000000 </v>
   <v>      -0.04761905       0.40000000       0.00000000 </v>
   <v>       0.00000000       0.46666667       0.00000000 </v>
   <v>       0.04761905       0.46666667       0.00000000 </v>
   <v>       0.09523810       0.46666667       0.00000000 </v>
   <v>       0.14285714       0.46666667       0.00000000 </v>
   <v>       0.19047619       0.46666667       0.00000000 </v>
   <v>       0.23809524       0.46666667       0.00000000 </v>
   <v>       0.28571429       0.46666667       0.00000000 </v>
   <v>       0.33333333       0.46666667       0.00000000 </v>
   <v>       0.38095238       0.46666667       0.00000000 </v>
   <v>       0.42857143       0.46666667       0.00000000 </v>
   <v>       0.47619048       0.46666667       0.00000000 </v>
   <v>      -0.47619048       0.46666667       0.00000000 </v>
   <v>      -0.42857143       0.46666667       0.00000000 </v>
   <v>      -0.38095238       0.46666667       0.00000000 </v>
   <v>      -0.33333333       0.46666667       0.00000000 </v>
   <v>      -0.28571429       0.46666667       0.00000000 </v>
   <v>      -0.23809524       0.46666667       0.00000000 </v>
   <v>      -0.19047619       0.46666667       0.00000000 </v>
   <v>      -0.14285714       0.46666667       0.00000000 </v>
   <v>      -0.09523810       0.46666667       0.00000000 </v>
   <v>      -0.04761905       0.46666667       0.00000000 </v>
  </varray>
  <varray name="weights" >
   <v>       0.00317460 </v>
   <v>       0.00634921 </v>
   <v>       0.00634921 </v>
   <v>       0.00634921 </v>
   <v>       0.00634921 </v>
   <v>       0.00634921 </v>
   <v>       0.00634921 </v>
   <v>       0.00634921 </v>
   <v>       0.00634921 </v>
   <v>       0.00634921 </v>
   <v>       0.00634921 </v>
   <v>       0.00634921 </v>
   <v>       0.00634921 </v>
   <v>       0.00634921 </v>
   <v>       0.00634921 </v>
   <v>       0.00634921 </v>
   <v>       0.00634921 </v>
   <v>       0.00634921 </v>
   <v>       0.00634921 </v>
   <v>       0.00634921 </v>
   <v>       0.00634921 </v>
   <v>       0.00634921 </v>
   <v>       0.00634921 </v>
   <v>       0.00634921 </v>
   <v>       0.00634921 </v>
   <v>       0.00634921 </v>
   <v>       0.00634921 </v>
   <v>       0.00634921 </v>
   <v>       0.00634921 </v>
   <v>       0.00634921 </v>
   <v>       0.00634921 </v>
   <v>       0.00634921 </v>
   <v>       0.00634921 </v>
   <v>       0.00634921 </v>
   <v>       0.00634921 </v>
   <v>       0.00634921 </v>
   <v>       0.00634921 </v>
   <v>       0.00634921 </v>
   <v>       0.00634921 </v>
   <v>       0.00634921 </v>
   <v>       0.00634921 </v>
   <v>       0.00634921 </v>
   <v>       0.00634921 </v>
   <v>       0.00634921 </v>
   <v>       0.00634921 </v>
   <v>       0.00634921 </v>
   <v>       0.00634921 </v>
   <v>       0.00634921 </v>
   <v>       0.00634921 </v>
   <v>       0.00634921 </v>
   <v>       0.00634921 </v>
   <v>       0.00634921 </v>
   <v>       0.00634921 </v>
   <v>       0.00634921 </v>
   <v>       0.00634921 </v>
   <v>       0.00634921 </v>
   <v>       0.00634921 </v>
   <v>       0.00634921 </v>
   <v>       0.00634921 </v>
   <v>       0.00634921 </v>
   <v>       0.00634921 </v>
   <v>       0.00634921 </v>
   <v>       0.00634921 </v>
   <v>       0.00634921 </v>
   <v>       0.00634921 </v>
   <v>       0.00634921 </v>
   <v>       0.00634921 </v>
   <v>       0.00634921 </v>
   <v>       0.00634921 </v>
   <v>       0.00634921 </v>
   <v>       0.00634921 </v>
   <v>       0.00634921 </v>
   <v>       0.00634921 </v>
   <v>       0.00634921 </v>
   <v>       0.00634921 </v>
   <v>       0.00634921 </v>
   <v>       0.00634921 </v>
   <v>       0.00634921 </v>
   <v>       0.00634921 </v>
   <v>       0.00634921 </v>
   <v>       0.00634921 </v>
   <v>       0.00634921 </v>
   <v>       0.00634921 </v>
   <v>       0.00634921 </v>
   <v>       0.00634921 </v>
   <v>       0.00634921 </v>
   <v>       0.00634921 </v>
   <v>       0.00634921 </v>
   <v>       0.00634921 </v>
   <v>       0.00634921 </v>
   <v>       0.00634921 </v>
   <v>       0.00634921 </v>
   <v>       0.00634921 </v>
   <v>       0.00634921 </v>
   <v>       0.00634921 </v>
   <v>       0.00634921 </v>
   <v>       0.00634921 </v>
   <v>       0.00634921 </v>
   <v>       0.00634921 </v>
   <v>       0.00634921 </v>
   <v>       0.00634921 </v>
   <v>       0.00634921 </v>
   <v>       0.00634921 </v>
   <v>       0.00634921 </v>
   <v>       0.00634921 </v>
   <v>       0.00634921 </v>
   <v>       0.00634921 </v>
   <v>       0.00634921 </v>
   <v>       0.00634921 </v>
   <v>       0.00634921 </v>
   <v>       0.00634921 </v>
   <v>       0.00634921 </v>
   <v>       0.00634921 </v>
   <v>       0.00634921 </v>
   <v>       0.00634921 </v>
   <v>       0.00634921 </v>
   <v>       0.00634921 </v>
   <v>       0.00634921 </v>
   <v>       0.00634921 </v>
   <v>       0.00634921 </v>
   <v>       0.00634921 </v>
   <v>       0.00634921 </v>
   <v>       0.00634921 </v>
   <v>       0.00634921 </v>
   <v>       0.00634921 </v>
   <v>       0.00634921 </v>
   <v>       0.00634921 </v>
   <v>       0.00634921 </v>
   <v>       0.00634921 </v>
   <v>       0.00634921 </v>
   <v>       0.00634921 </v>
   <v>       0.00634921 </v>
   <v>       0.00634921 </v>
   <v>       0.00634921 </v>
   <v>       0.00634921 </v>
   <v>       0.00634921 </v>
   <v>       0.00634921 </v>
   <v>       0.00634921 </v>
   <v>       0.00634921 </v>
   <v>       0.00634921 </v>
   <v>       0.00634921 </v>
   <v>       0.00634921 </v>
   <v>       0.00634921 </v>
   <v>       0.00634921 </v>
   <v>       0.00634921 </v>
   <v>       0.00634921 </v>
   <v>       0.00634921 </v>
   <v>       0.00634921 </v>
   <v>       0.00634921 </v>
   <v>       0.00634921 </v>
   <v>       0.00634921 </v>
   <v>       0.00634921 </v>
   <v>       0.00634921 </v>
   <v>       0.00634921 </v>
   <v>       0.00634921 </v>
   <v>       0.00634921 </v>
   <v>       0.00634921 </v>
   <v>       0.00634921 </v>
  </varray>
 </kpoints>
 <parameters>
  <separator name="general" >
   <i type="string" name="SYSTEM">unknown system</i>
   <i type="logical" name="LCOMPAT"> F  </i>
  </separator>
  <separator name="electronic" >
   <i type="string" name="PREC">a</i>
   <i name="ENMAX">    520.00000000</i>
   <i name="ENAUG">    342.92400000</i>
   <i name="EDIFF">      0.00001000</i>
   <i type="int" name="IALGO">    38</i>
   <i type="int" name="IWAVPR">    11</i>
   <i type="int" name="NBANDS">    16</i>
   <i name="NELECT">     20.00000000</i>
   <i type="int" name="TURBO">     0</i>
   <i type="int" name="IRESTART">     0</i>
   <i type="int" name="NREBOOT">     0</i>
   <i type="int" name="NMIN">     0</i>
   <i name="EREF">      0.00000000</i>
   <separator name="electronic smearing" >
    <i type="int" name="ISMEAR">     0</i>
    <i name="SIGMA">      0.02000000</i>
    <i name="KSPACING">      0.50000000</i>
    <i type="logical" name="KGAMMA"> T  </i>
   </separator>
   <separator name="electronic projectors" >
    <i type="logical" name="LREAL"> F  </i>
    <v name="ROPT">      0.00000000</v>
    <i type="int" name="LMAXPAW">  -100</i>
    <i type="int" name="LMAXMIX">     2</i>
    <i type="logical" name="NLSPLINE"> F  </i>
   </separator>
   <separator name="electronic startup" >
    <i type="int" name="ISTART">     0</i>
    <i type="int" name="ICHARG">     2</i>
    <i type="int" name="INIWAV">     1</i>
   </separator>
   <separator name="electronic spin" >
    <i type="int" name="ISPIN">     1</i>
    <i type="logical" name="LNONCOLLINEAR"> F  </i>
    <v name="MAGMOM">      1.00000000      1.00000000      1.00000000      1.00000000</v>
    <i name="NUPDOWN">     -1.00000000</i>
    <i type="logical" name="LSORBIT"> F  </i>
    <v name="SAXIS">      0.00000000      0.00000000      1.00000000</v>
    <i type="logical" name="LSPIRAL"> F  </i>
    <v name="QSPIRAL">      0.00000000      0.00000000      0.00000000</v>
    <i type="logical" name="LZEROZ"> F  </i>
   </separator>
   <separator name="electronic exchange-correlation" >
    <i type="logical" name="LASPH"> F  </i>
    <i type="logical" name="LMETAGGA"> F  </i>
   </separator>
   <separator name="electronic convergence" >
    <i type="int" name="NELM">   250</i>
    <i type="int" name="NELMDL">    -5</i>
    <i type="int" name="NELMIN">     6</i>
    <i name="ENINI">    520.00000000</i>
    <separator name="electronic convergence detail" >
     <i type="logical" name="LDIAG"> T  </i>
     <i type="logical" name="LSUBROT"> F  </i>
     <i name="WEIMIN">      0.00100000</i>
     <i name="EBREAK">      0.00000016</i>
     <i name="DEPER">      0.30000000</i>
     <i type="int" name="NRMM">     4</i>
     <i name="TIME">      0.40000000</i>
    </separator>
   </separator>
   <separator name="electronic mixer" >
    <i name="AMIX">      0.40000000</i>
    <i name="BMIX">      1.00000000</i>
    <i name="AMIN">      0.10000000</i>
    <i name="AMIX_MAG">      1.60000000</i>
    <i name="BMIX_MAG">      1.00000000</i>
    <separator name="electronic mixer details" >
     <i type="int" name="IMIX">     4</i>
     <i type="logical" name="MIXFIRST"> F  </i>
     <i type="int" name="MAXMIX">   -45</i>
     <i name="WC">    100.00000000</i>
     <i type="int" name="INIMIX">     1</i>
     <i type="int" name="MIXPRE">     1</i>
     <i type="int" name="MREMOVE">     5</i>
    </separator>
   </separator>
   <separator name="electronic dipolcorrection" >
    <i type="logical" name="LDIPOL"> F  </i>
    <i type="logical" name="LMONO"> F  </i>
    <i type="int" name="IDIPOL">     0</i>
    <i name="EPSILON">      1.00000000</i>
    <v name="DIPOL">   -100.00000000   -100.00000000   -100.00000000</v>
    <i name="EFIELD">      0.00000000</i>
   </separator>
  </separator>
  <separator name="grids" >
   <i type="int" name="NGX">    28</i>
   <i type="int" name="NGY">    36</i>
   <i type="int" name="NGZ">   150</i>
   <i type="int" name="NGXF">    56</i>
   <i type="int" name="NGYF">    72</i>
   <i type="int" name="NGZF">   300</i>
   <i type="logical" name="ADDGRID"> F  </i>
  </separator>
  <separator name="ionic" >
   <i type="int" name="NSW">   200</i>
   <i type="int" name="IBRION">     2</i>
   <i type="int" name="ISIF">     2</i>
   <i name="PSTRESS">      0.00000000</i>
   <i name="EDIFFG">     -0.01000000</i>
   <i type="int" name="NFREE">     1</i>
   <i name="POTIM">      0.30000000</i>
   <i name="SMASS">     -3.00000000</i>
   <i name="SCALEE">      1.00000000</i>
  </separator>
  <separator name="ionic md" >
   <i name="TEBEG">      0.00010000</i>
   <i name="TEEND">      0.00010000</i>
   <i type="int" name="NBLOCK">     1</i>
   <i type="int" name="KBLOCK">   200</i>
   <i type="int" name="NPACO">   256</i>
   <i name="APACO">     16.00000000</i>
  </separator>
  <separator name="symmetry" >
   <i type="int" name="ISYM">     2</i>
   <i name="SYMPREC">      0.00001000</i>
  </separator>
  <separator name="dos" >
   <i type="logical" name="LORBIT"> F  </i>
   <v name="RWIGS">     -1.00000000</v>
   <i type="int" name="NEDOS">   301</i>
   <i name="EMIN">     10.00000000</i>
   <i name="EMAX">    -10.00000000</i>
   <i name="EFERMI">      0.00000000</i>
  </separator>
  <separator name="writing" >
   <i type="int" name="NWRITE">     2</i>
   <i type="logical" name="LWAVE"> F  </i>
   <i type="logical" name="LCHARG"> F  </i>
   <i type="logical" name="LPARD"> F  </i>
   <i type="logical" name="LVTOT"> F  </i>
   <i type="logical" name="LVHAR"> F  </i>
   <i type="logical" name="LELF"> F  </i>
   <i type="logical" name="LOPTICS"> F  </i>
   <v name="STM">      0.00000000      0.00000000      0.00000000      0.00000000      0.00000000      0.00000000      0.00000000</v>
  </separator>
  <separator name="performance" >
   <i type="int" name="NPAR">     4</i>
   <i type="int" name="NSIM">     4</i>
   <i type="int" name="NBLK">    -1</i>
   <i type="logical" name="LPLANE"> T  </i>
   <i type="logical" name="LSCALAPACK"> T  </i>
   <i type="logical" name="LSCAAWARE"> F  </i>
   <i type="logical" name="LSCALU"> F  </i>
   <i type="logical" name="LASYNC"> F  </i>
   <i type="logical" name="LORBITALREAL"> F  </i>
  </separator>
  <separator name="miscellaneous" >
   <i type="int" name="IDIOT">     3</i>
   <i type="logical" name="LMUSIC"> F  </i>
   <v name="POMASS">     30.97400000</v>
   <v name="DARWINR">      0.00000000</v>
   <v name="DARWINV">      1.00000000</v>
   <i type="logical" name="LCORR"> T  </i>
  </separator>
  <i type="logical" name="GGA_COMPAT"> T  </i>
  <i type="logical" name="LBERRY"> F  </i>
  <i type="int" name="ICORELEVEL">     0</i>
  <i type="logical" name="LDAU"> F  </i>
  <i type="int" name="I_CONSTRAINED_M">     0</i>
  <separator name="electronic exchange-correlation" >
   <i type="string" name="GGA">--</i>
   <i type="int" name="VOSKOWN">     0</i>
   <i type="logical" name="LHFCALC"> F  </i>
   <i type="string" name="PRECFOCK"></i>
   <i type="logical" name="LSYMGRAD"> F  </i>
   <i type="logical" name="LHFONE"> F  </i>
   <i type="logical" name="LRHFCALC"> F  </i>
   <i type="logical" name="LTHOMAS"> F  </i>
   <i type="logical" name="LMODELHF"> F  </i>
   <i name="ENCUT4O">     -1.00000000</i>
   <i type="int" name="EXXOEP">     0</i>
   <i type="int" name="FOURORBIT">     0</i>
   <i name="AEXX">      0.00000000</i>
   <i name="HFALPHA">      0.00000000</i>
   <i name="MCALPHA">      0.00000000</i>
   <i name="ALDAX">      1.00000000</i>
   <i name="AGGAX">      1.00000000</i>
   <i name="ALDAC">      1.00000000</i>
   <i name="AGGAC">      1.00000000</i>
   <i type="int" name="NKREDX">     1</i>
   <i type="int" name="NKREDY">     1</i>
   <i type="int" name="NKREDZ">     1</i>
   <i type="logical" name="SHIFTRED"> F  </i>
   <i type="logical" name="ODDONLY"> F  </i>
   <i type="logical" name="EVENONLY"> F  </i>
   <i type="int" name="LMAXFOCK">     0</i>
   <i type="int" name="NMAXFOCKAE">     0</i>
   <i type="logical" name="LFOCKAEDFT"> F  </i>
   <i name="HFSCREEN">      0.00000000</i>
   <i name="HFSCREENC">      0.00000000</i>
   <i type="int" name="NBANDSGWLOW">     0</i>
  </separator>
  <separator name="vdW DFT" >
   <i type="logical" name="LUSE_VDW"> F  </i>
   <i name="Zab_VDW">     -0.84910000</i>
   <i name="PARAM1">      0.12340000</i>
   <i name="PARAM2">      1.00000000</i>
   <i name="PARAM3">      0.00000000</i>
  </separator>
  <separator name="model GW" >
   <i type="int" name="MODEL_GW">     0</i>
   <i name="MODEL_EPS0">     45.78816489</i>
   <i name="MODEL_ALPHA">      1.00000000</i>
  </separator>
  <separator name="linear response parameters" >
   <i type="logical" name="LEPSILON"> F  </i>
   <i type="logical" name="LRPA"> F  </i>
   <i type="logical" name="LNABLA"> F  </i>
   <i type="logical" name="LVEL"> F  </i>
   <i type="int" name="KINTER">     0</i>
   <i name="CSHIFT">      0.10000000</i>
   <i name="OMEGAMAX">     -1.00000000</i>
   <i name="DEG_THRESHOLD">      0.00200000</i>
  </separator>
  <separator name="orbital magnetization" >
   <i type="logical" name="NUCIND"> F  </i>
   <v name="MAGPOS">      0.00000000      0.00000000      0.00000000</v>
   <i type="logical" name="LNICSALL"> T  </i>
   <i type="logical" name="ORBITALMAG"> F  </i>
   <i type="logical" name="LMAGBLOCH"> F  </i>
   <i type="logical" name="LCHIMAG"> F  </i>
   <i type="logical" name="LGAUGE"> T  </i>
   <i type="int" name="MAGATOM">     0</i>
   <v name="MAGDIPOL">      0.00000000      0.00000000      0.00000000</v>
   <v name="AVECCONST">      0.00000000      0.00000000      0.00000000</v>
  </separator>
  <separator name="response functions" >
   <i type="logical" name="LADDER"> F  </i>
   <i type="logical" name="LFXC"> F  </i>
   <i type="logical" name="LHARTREE"> T  </i>
   <i type="int" name="IBSE">     0</i>
   <v type="int" name="KPOINT">    -1     0     0     0</v>
   <i type="logical" name="LTCTE"> F  </i>
   <i type="logical" name="LTETE"> F  </i>
   <i type="logical" name="LTRIPLET"> F  </i>
   <i type="logical" name="LFXCEPS"> F  </i>
   <i type="logical" name="LFXHEG"> F  </i>
   <i type="int" name="NATURALO">     0</i>
   <i type="logical" name="L2ORDER"> F  </i>
   <i type="logical" name="LUSEW"> F  </i>
   <i name="ENCUTGW">     -2.00000000</i>
   <i name="ENCUTGWSOFT">     -2.00000000</i>
   <i name="ENCUTLF">     -1.00000000</i>
   <i type="int" name="LMAXMP2">    -1</i>
   <i name="SCISSOR">      0.00000000</i>
   <i type="int" name="NOMEGA">     0</i>
   <i type="int" name="NOMEGAR">     0</i>
   <i type="int" name="NBANDSGW">    -1</i>
   <i type="int" name="NBANDSO">    -1</i>
   <i type="int" name="NBANDSV">    -1</i>
   <i type="int" name="NELM">   250</i>
   <i type="int" name="NELMHF">     1</i>
   <i type="int" name="DIM">     3</i>
   <i type="int" name="ANTIRES">     0</i>
   <i name="OMEGAMAX">    -30.00000000</i>
   <i name="OMEGAMIN">    -30.00000000</i>
   <i name="OMEGATL">   -200.00000000</i>
   <i type="int" name="OMEGAGRID">     0</i>
   <i name="CSHIFT">     -0.10000000</i>
   <i type="logical" name="SELFENERGY"> F  </i>
   <i type="logical" name="LSPECTRAL"> F  </i>
   <i type="logical" name="LSPECTRALGW"> F  </i>
   <i type="logical" name="LSINGLES"> F  </i>
   <i type="logical" name="LFERMIGW"> F  </i>
   <i type="logical" name="ODDONLYGW"> F  </i>
   <i type="logical" name="EVENONLYGW"> F  </i>
   <i type="int" name="NKREDLFX">     1</i>
   <i type="int" name="NKREDLFY">     1</i>
   <i type="int" name="NKREDLFZ">     1</i>
   <i type="int" name="MAXMEM">  1800</i>
   <i type="int" name="TELESCOPE">     0</i>
   <i type="int" name="TAUPAR">     1</i>
   <i type="int" name="OMEGAPAR">    -1</i>
   <i name="LAMBDA">      1.00000000</i>
  </separator>
  <separator name="External order field" >
   <i name="OFIELD_KAPPA">      0.00000000</i>
   <v name="OFIELD_K">      0.00000000      0.00000000      0.00000000</v>
   <i name="OFIELD_Q6_NEAR">      0.00000000</i>
   <i name="OFIELD_Q6_FAR">      0.00000000</i>
   <i name="OFIELD_A">      0.00000000</i>
  </separator>
 </parameters>
 <atominfo>
  <atoms>       4 </atoms>
  <types>       1 </types>
  <array name="atoms" >
   <dimension dim="1">ion</dimension>
   <field type="string">element</field>
   <field type="int">atomtype</field>
   <set>
    <rc><c>P </c><c>   1</c></rc>
    <rc><c>P </c><c>   1</c></rc>
    <rc><c>P </c><c>   1</c></rc>
    <rc><c>P </c><c>   1</c></rc>
   </set>
  </array>
  <array name="atomtypes" >
   <dimension dim="1">type</dimension>
   <field type="int">atomspertype</field>
   <field type="string">element</field>
   <field>mass</field>
   <field>valence</field>
   <field type="string">pseudopotential</field>
   <set>
    <rc><c>   4</c><c>P </c><c>     30.97400000</c><c>      5.00000000</c><c>  PAW_PBE P 06Sep2000                   </c></rc>
   </set>
  </array>
 </atominfo>
 <structure name="initialpos" >
  <crystal>
   <varray name="basis" >
    <v>       3.29720400       0.00000000       0.00000000 </v>
    <v>       0.00000000       4.62335100      -0.00005300 </v>
    <v>       0.00000000       0.00000000      20.02439000 </v>
   </varray>
   <i name="volume">    305.25443258 </i>
   <varray name="rec_basis" >
    <v>       0.30328727       0.00000000       0.00000000 </v>
    <v>       0.00000000       0.21629333       0.00000000 </v>
    <v>       0.00000000       0.00000057       0.04993910 </v>
   </varray>
  </crystal>
  <varray name="positions" >
   <v>       0.50000000       0.91077300       0.55252100 </v>
   <v>       0.50000000       0.08922700       0.44747900 </v>
   <v>       0.00000000       0.41076900       0.44747900 </v>
   <v>       0.00000000       0.58923100       0.55252100 </v>
  </varray>
 </structure>
 <calculation>
  <scstep>
   <time name="dav">    1.49    1.49</time>
   <time name="total">    1.52    1.52</time>
   <energy>
    <i name="alphaZ">      5.25516051 </i>
    <i name="ewald">   1863.06463208 </i>
    <i name="hartreedc">  -2456.81431373 </i>
    <i name="XCdc">     13.02941476 </i>
    <i name="pawpsdc">    559.04011960 </i>
    <i name="pawaedc">   -526.39432044 </i>
    <i name="eentropy">     -0.00065532 </i>
    <i name="bandstr">    -28.63460798 </i>
    <i name="atom">    704.16778566 </i>
    <i name="e_fr_energy">    132.71321514 </i>
    <i name="e_wo_entrp">    132.71387047 </i>
    <i name="e_0_energy">    132.71354280 </i>
   </energy>
  </scstep>
  <scstep>
   <time name="dav">    1.98    1.98</time>
   <time name="total">    1.98    1.98</time>
   <energy>
    <i name="e_fr_energy">     -6.27770641 </i>
    <i name="e_wo_entrp">     -6.27767987 </i>
    <i name="e_0_energy">     -6.27769314 </i>
   </energy>
  </scstep>
  <scstep>
   <time name="dav">    1.83    1.83</time>
   <time name="total">    1.83    1.84</time>
   <energy>
    <i name="e_fr_energy">    -21.35032904 </i>
    <i name="e_wo_entrp">    -21.35032904 </i>
    <i name="e_0_energy">    -21.35032904 </i>
   </energy>
  </scstep>
  <scstep>
   <time name="dav">    1.88    1.88</time>
   <time name="total">    1.88    1.88</time>
   <energy>
    <i name="e_fr_energy">    -21.66038196 </i>
    <i name="e_wo_entrp">    -21.66038196 </i>
    <i name="e_0_energy">    -21.66038196 </i>
   </energy>
  </scstep>
  <scstep>
   <time name="dav">    1.97    1.97</time>
   <time name="total">    2.07    2.07</time>
   <energy>
    <i name="e_fr_energy">    -21.66962842 </i>
    <i name="e_wo_entrp">    -21.66962842 </i>
    <i name="e_0_energy">    -21.66962842 </i>
   </energy>
  </scstep>
  <scstep>
   <time name="dav">    1.79    1.79</time>
   <time name="total">    1.91    1.91</time>
   <energy>
    <i name="e_fr_energy">    -21.52576419 </i>
    <i name="e_wo_entrp">    -21.52576419 </i>
    <i name="e_0_energy">    -21.52576419 </i>
   </energy>
  </scstep>
  <scstep>
   <time name="dav">    1.72    1.72</time>
   <time name="total">    1.83    1.83</time>
   <energy>
    <i name="e_fr_energy">    -21.45769794 </i>
    <i name="e_wo_entrp">    -21.45769794 </i>
    <i name="e_0_energy">    -21.45769794 </i>
   </energy>
  </scstep>
  <scstep>
   <time name="dav">    1.83    1.83</time>
   <time name="total">    1.94    1.94</time>
   <energy>
    <i name="e_fr_energy">    -21.45704043 </i>
    <i name="e_wo_entrp">    -21.45704043 </i>
    <i name="e_0_energy">    -21.45704043 </i>
   </energy>
  </scstep>
  <scstep>
   <time name="dav">    2.11    2.11</time>
   <time name="total">    2.22    2.22</time>
   <energy>
    <i name="e_fr_energy">    -21.45689341 </i>
    <i name="e_wo_entrp">    -21.45689341 </i>
    <i name="e_0_energy">    -21.45689341 </i>
   </energy>
  </scstep>
  <scstep>
   <time name="dav">    1.81    1.81</time>
   <time name="total">    1.92    1.92</time>
   <energy>
    <i name="e_fr_energy">    -21.45671944 </i>
    <i name="e_wo_entrp">    -21.45671944 </i>
    <i name="e_0_energy">    -21.45671944 </i>
   </energy>
  </scstep>
  <scstep>
   <time name="dav">    1.81    1.81</time>
   <time name="total">    1.93    1.93</time>
   <energy>
    <i name="e_fr_energy">    -21.45662504 </i>
    <i name="e_wo_entrp">    -21.45662504 </i>
    <i name="e_0_energy">    -21.45662504 </i>
   </energy>
  </scstep>
  <scstep>
   <time name="dav">    1.62    1.62</time>
   <time name="total">    1.73    1.73</time>
   <energy>
    <i name="e_fr_energy">    -21.45701614 </i>
    <i name="e_wo_entrp">    -21.45701614 </i>
    <i name="e_0_energy">    -21.45701614 </i>
   </energy>
  </scstep>
  <scstep>
   <time name="dav">    1.62    1.62</time>
   <time name="total">    1.73    1.74</time>
   <energy>
    <i name="e_fr_energy">    -21.45710891 </i>
    <i name="e_wo_entrp">    -21.45710891 </i>
    <i name="e_0_energy">    -21.45710891 </i>
   </energy>
  </scstep>
  <scstep>
   <time name="dav">    1.48    1.48</time>
   <time name="total">    1.60    1.60</time>
   <energy>
    <i name="e_fr_energy">    -21.45724507 </i>
    <i name="e_wo_entrp">    -21.45724507 </i>
    <i name="e_0_energy">    -21.45724507 </i>
   </energy>
  </scstep>
  <scstep>
   <time name="dav">    1.54    1.54</time>
   <time name="total">    1.65    1.66</time>
   <energy>
    <i name="e_fr_energy">    -21.45728108 </i>
    <i name="e_wo_entrp">    -21.45728108 </i>
    <i name="e_0_energy">    -21.45728108 </i>
   </energy>
  </scstep>
  <scstep>
   <time name="dav">    1.46    1.46</time>
   <time name="total">    1.57    1.57</time>
   <energy>
    <i name="e_fr_energy">    -21.45731267 </i>
    <i name="e_wo_entrp">    -21.45731267 </i>
    <i name="e_0_energy">    -21.45731267 </i>
   </energy>
  </scstep>
  <scstep>
   <time name="dav">    1.47    1.47</time>
   <time name="total">    1.49    1.50</time>
   <energy>
    <i name="alphaZ">      5.25516051 </i>
    <i name="ewald">   1863.06463208 </i>
    <i name="hartreedc">  -2472.19376125 </i>
    <i name="XCdc">     14.09673282 </i>
    <i name="pawpsdc">   2102.50845834 </i>
    <i name="pawaedc">  -2070.20141025 </i>
    <i name="eentropy">     -0.00000000 </i>
    <i name="bandstr">   -168.15491288 </i>
    <i name="atom">    704.16778566 </i>
    <i name="e_fr_energy">    -21.45731496 </i>
    <i name="e_wo_entrp">    -21.45731496 </i>
    <i name="e_0_energy">    -21.45731496 </i>
   </energy>
  </scstep>
  <structure>
   <crystal>
    <varray name="basis" >
     <v>       3.29720400       0.00000000       0.00000000 </v>
     <v>       0.00000000       4.62335100      -0.00005300 </v>
     <v>       0.00000000       0.00000000      20.02439000 </v>
    </varray>
    <i name="volume">    305.25443258 </i>
    <varray name="rec_basis" >
     <v>       0.30328727       0.00000000       0.00000000 </v>
     <v>       0.00000000       0.21629333       0.00000000 </v>
     <v>       0.00000000       0.00000057       0.04993910 </v>
    </varray>
   </crystal>
   <varray name="positions" >
    <v>       0.50000000       0.91077300       0.55252100 </v>
    <v>       0.50000000       0.08922700       0.44747900 </v>
    <v>       0.00000000       0.41076900       0.44747900 </v>
    <v>       0.00000000       0.58923100       0.55252100 </v>
   </varray>
  </structure>
  <varray name="forces" >
   <v>      -0.00000014       0.00494975      -0.00314735 </v>
   <v>       0.00000014      -0.00494975       0.00314735 </v>
   <v>      -0.00000002       0.00491755       0.00314940 </v>
   <v>       0.00000002      -0.00491755      -0.00314940 </v>
  </varray>
  <varray name="stress" >
   <v>       0.15520606       0.00000026       0.00000018 </v>
   <v>       0.00000029       0.05711178       0.00035156 </v>
   <v>       0.00000019       0.00035157      -0.13469416 </v>
  </varray>
  <energy>
   <i name="e_fr_energy">    -21.45731496 </i>
   <i name="e_wo_entrp">    -21.45731496 </i>
   <i name="e_0_energy">     -0.00000000 </i>
  </energy>
  <time name="totalsc">   31.50   31.56</time>
  <eigenvalues>
   <array>
    <dimension dim="1">band</dimension>
    <dimension dim="2">kpoint</dimension>
    <dimension dim="3">spin</dimension>
    <field>eigene</field>
    <field>occ</field>
    <set>
     <set comment="spin 1">
      <set comment="kpoint 1">
       <r>  -17.2326    1.0000 </r>
       <r>  -14.7767    1.0000 </r>
       <r>  -11.4454    1.0000 </r>
       <r>   -7.9390    1.0000 </r>
       <r>   -6.9821    1.0000 </r>
       <r>   -6.7687    1.0000 </r>
       <r>   -5.5890    1.0000 </r>
       <r>   -4.0144    1.0000 </r>
       <r>   -3.9314    1.0000 </r>
       <r>   -2.2806    1.0000 </r>
       <r>   -1.3784    0.0000 </r>
       <r>   -0.6248    0.0000 </r>
       <r>    0.4106    0.0000 </r>
       <r>    1.0426    0.0000 </r>
       <r>    2.1467    0.0000 </r>
       <r>    2.2961    0.0000 </r>
      </set>
      <set comment="kpoint 2">
       <r>  -17.2056    1.0000 </r>
       <r>  -14.7485    1.0000 </r>
       <r>  -11.4544    1.0000 </r>
       <r>   -7.9184    1.0000 </r>
       <r>   -7.0000    1.0000 </r>
       <r>   -6.7448    1.0000 </r>
       <r>   -5.7646    1.0000 </r>
       <r>   -4.1987    1.0000 </r>
       <r>   -3.9203    1.0000 </r>
       <r>   -2.2803    1.0000 </r>
       <r>   -1.3530    0.0000 </r>
       <r>   -0.3811    0.0000 </r>
       <r>    0.6524    0.0000 </r>
       <r>    0.8758    0.0000 </r>
       <r>    2.1748    0.0000 </r>
       <r>    2.3264    0.0000 </r>
      </set>
      <set comment="kpoint 3">
       <r>  -17.1245    1.0000 </r>
       <r>  -14.6638    1.0000 </r>
       <r>  -11.4867    1.0000 </r>
       <r>   -7.8574    1.0000 </r>
       <r>   -7.0735    1.0000 </r>
       <r>   -6.6736    1.0000 </r>
       <r>   -6.1929    1.0000 </r>
       <r>   -4.6232    1.0000 </r>
       <r>   -3.8904    1.0000 </r>
       <r>   -2.2990    1.0000 </r>
       <r>   -1.2774    0.0000 </r>
       <r>    0.2717    0.0000 </r>
       <r>    0.4625    0.0000 </r>
       <r>    1.2440    0.0000 </r>
       <r>    2.2544    0.0000 </r>
       <r>    2.4170    0.0000 </r>
      </set>
      <set comment="kpoint 4">
       <r>  -16.9900    1.0000 </r>
       <r>  -14.5230    1.0000 </r>
       <r>  -11.5589    1.0000 </r>
       <r>   -7.7583    1.0000 </r>
       <r>   -7.2647    1.0000 </r>
       <r>   -6.7029    1.0000 </r>
       <r>   -6.5565    1.0000 </r>
       <r>   -5.0559    1.0000 </r>
       <r>   -3.8535    1.0000 </r>
       <r>   -2.3580    1.0000 </r>
       <r>   -1.1527    0.0000 </r>
       <r>   -0.0475    0.0000 </r>
       <r>    1.1832    0.0000 </r>
       <r>    1.8664    0.0000 </r>
       <r>    2.3288    0.0000 </r>
       <r>    2.5674    0.0000 </r>
      </set>
      <set comment="kpoint 5">
       <r>  -16.8024    1.0000 </r>
       <r>  -14.3261    1.0000 </r>
       <r>  -11.6962    1.0000 </r>
       <r>   -7.6444    1.0000 </r>
       <r>   -7.6260    1.0000 </r>
       <r>   -7.1690    1.0000 </r>
       <r>   -6.3958    1.0000 </r>
       <r>   -5.3246    1.0000 </r>
       <r>   -3.8323    1.0000 </r>
       <r>   -2.4688    1.0000 </r>
       <r>   -0.9819    0.0000 </r>
       <r>   -0.5382    0.0000 </r>
       <r>    1.8593    0.0000 </r>
       <r>    1.9595    0.0000 </r>
       <r>    2.2028    0.0000 </r>
       <r>    2.7020    0.0000 </r>
      </set>
      <set comment="kpoint 6">
       <r>  -16.5629    1.0000 </r>
       <r>  -14.0738    1.0000 </r>
       <r>  -11.9248    1.0000 </r>
       <r>   -8.1997    1.0000 </r>
       <r>   -7.5149    1.0000 </r>
       <r>   -7.4687    1.0000 </r>
       <r>   -6.1958    1.0000 </r>
       <r>   -5.3962    1.0000 </r>
       <r>   -3.8610    1.0000 </r>
       <r>   -2.6402    1.0000 </r>
       <r>   -0.9207    0.0000 </r>
       <r>   -0.7721    0.0000 </r>
       <r>    1.2790    0.0000 </r>
       <r>    1.3810    0.0000 </r>
       <r>    2.5891    0.0000 </r>
       <r>    2.9521    0.0000 </r>
      </set>
      <set comment="kpoint 7">
       <r>  -16.2728    1.0000 </r>
       <r>  -13.7666    1.0000 </r>
       <r>  -12.2558    1.0000 </r>
       <r>   -8.8491    1.0000 </r>
       <r>   -7.7055    1.0000 </r>
       <r>   -7.3008    1.0000 </r>
       <r>   -5.9632    1.0000 </r>
       <r>   -5.3362    1.0000 </r>
       <r>   -3.9687    1.0000 </r>
       <r>   -2.8753    1.0000 </r>
       <r>   -1.1274    0.0000 </r>
       <r>   -0.5454    0.0000 </r>
       <r>    0.6292    0.0000 </r>
       <r>    0.8364    0.0000 </r>
       <r>    2.1302    0.0000 </r>
       <r>    3.2809    0.0000 </r>
      </set>
      <set comment="kpoint 8">
       <r>  -15.9341    1.0000 </r>
       <r>  -13.4052    1.0000 </r>
       <r>  -12.6759    1.0000 </r>
       <r>   -9.5267    1.0000 </r>
       <r>   -7.7448    1.0000 </r>
       <r>   -7.1464    1.0000 </r>
       <r>   -5.7089    1.0000 </r>
       <r>   -5.2119    1.0000 </r>
       <r>   -4.1412    1.0000 </r>
       <r>   -3.1655    1.0000 </r>
       <r>   -1.1355    0.0000 </r>
       <r>   -0.3982    0.0000 </r>
       <r>    0.0283    0.0000 </r>
       <r>    0.4615    0.0000 </r>
       <r>    1.6233    0.0000 </r>
       <r>    3.0302    0.0000 </r>
      </set>
      <set comment="kpoint 9">
       <r>  -15.5496    1.0000 </r>
       <r>  -13.1549    1.0000 </r>
       <r>  -12.9907    1.0000 </r>
       <r>  -10.1963    1.0000 </r>
       <r>   -7.6630    1.0000 </r>
       <r>   -7.0429    1.0000 </r>
       <r>   -5.4503    1.0000 </r>
       <r>   -5.0753    1.0000 </r>
       <r>   -4.3074    1.0000 </r>
       <r>   -3.4896    1.0000 </r>
       <r>   -0.9730    0.0000 </r>
       <r>   -0.5465    0.0000 </r>
       <r>   -0.4755    0.0000 </r>
       <r>    0.5006    0.0000 </r>
       <r>    1.1149    0.0000 </r>
       <r>    2.6145    0.0000 </r>
      </set>
      <set comment="kpoint 10">
       <r>  -15.1230    1.0000 </r>
       <r>  -13.6609    1.0000 </r>
       <r>  -12.5246    1.0000 </r>
       <r>  -10.8394    1.0000 </r>
       <r>   -7.5013    1.0000 </r>
       <r>   -7.0326    1.0000 </r>
       <r>   -5.2141    1.0000 </r>
       <r>   -4.9742    1.0000 </r>
       <r>   -4.3792    1.0000 </r>
       <r>   -3.8157    1.0000 </r>
       <r>   -0.8395    0.0000 </r>
       <r>   -0.8252    0.0000 </r>
       <r>   -0.6847    0.0000 </r>
       <r>    0.6126    0.0000 </r>
       <r>    0.8195    0.0000 </r>
       <r>    2.1533    0.0000 </r>
      </set>
      <set comment="kpoint 11">
       <r>  -14.6599    1.0000 </r>
       <r>  -14.1686    1.0000 </r>
       <r>  -12.0086    1.0000 </r>
       <r>  -11.4456    1.0000 </r>
       <r>   -7.3061    1.0000 </r>
       <r>   -7.1310    1.0000 </r>
       <r>   -5.0368    1.0000 </r>
       <r>   -4.9532    1.0000 </r>
       <r>   -4.3072    1.0000 </r>
       <r>   -4.1040    1.0000 </r>
       <r>   -1.0242    0.0000 </r>
       <r>   -1.0113    0.0000 </r>
       <r>   -0.3075    0.0000 </r>
       <r>    0.1321    0.0000 </r>
       <r>    1.2307    0.0000 </r>
       <r>    1.6835    0.0000 </r>
      </set>
      <set comment="kpoint 12">
       <r>  -17.2112    1.0000 </r>
       <r>  -14.8069    1.0000 </r>
       <r>  -11.4534    1.0000 </r>
       <r>   -8.0959    1.0000 </r>
       <r>   -6.8852    1.0000 </r>
       <r>   -6.6763    1.0000 </r>
       <r>   -5.5725    1.0000 </r>
       <r>   -4.0297    1.0000 </r>
       <r>   -3.8363    1.0000 </r>
       <r>   -2.4820    1.0000 </r>
       <r>   -1.1915    0.0000 </r>
       <r>   -0.6082    0.0000 </r>
       <r>    0.3648    0.0000 </r>
       <r>    1.0288    0.0000 </r>
       <r>    2.2054    0.0000 </r>
       <r>    2.3264    0.0000 </r>
      </set>
      <set comment="kpoint 13">
       <r>  -17.1842    1.0000 </r>
       <r>  -14.7788    1.0000 </r>
       <r>  -11.4610    1.0000 </r>
       <r>   -8.0792    1.0000 </r>
       <r>   -6.8970    1.0000 </r>
       <r>   -6.6612    1.0000 </r>
       <r>   -5.7399    1.0000 </r>
       <r>   -4.2213    1.0000 </r>
       <r>   -3.8239    1.0000 </r>
       <r>   -2.4777    1.0000 </r>
       <r>   -1.1703    0.0000 </r>
       <r>   -0.3648    0.0000 </r>
       <r>    0.5976    0.0000 </r>
       <r>    0.8755    0.0000 </r>
       <r>    2.2321    0.0000 </r>
       <r>    2.3566    0.0000 </r>
      </set>
      <set comment="kpoint 14">
       <r>  -17.1032    1.0000 </r>
       <r>  -14.6947    1.0000 </r>
       <r>  -11.4892    1.0000 </r>
       <r>   -8.0331    1.0000 </r>
       <r>   -6.9492    1.0000 </r>
       <r>   -6.6413    1.0000 </r>
       <r>   -6.1198    1.0000 </r>
       <r>   -4.6563    1.0000 </r>
       <r>   -3.8006    1.0000 </r>
       <r>   -2.4805    1.0000 </r>
       <r>   -1.1107    0.0000 </r>
       <r>    0.2870    0.0000 </r>
       <r>    0.4464    0.0000 </r>
       <r>    1.2206    0.0000 </r>
       <r>    2.3079    0.0000 </r>
       <r>    2.4470    0.0000 </r>
      </set>
      <set comment="kpoint 15">
       <r>  -16.9687    1.0000 </r>
       <r>  -14.5549    1.0000 </r>
       <r>  -11.5544    1.0000 </r>
       <r>   -7.9766    1.0000 </r>
       <r>   -7.0895    1.0000 </r>
       <r>   -6.8325    1.0000 </r>
       <r>   -6.3279    1.0000 </r>
       <r>   -5.0990    1.0000 </r>
       <r>   -3.7794    1.0000 </r>
       <r>   -2.5121    1.0000 </r>
       <r>   -1.0121    0.0000 </r>
       <r>   -0.0421    0.0000 </r>
       <r>    1.1931    0.0000 </r>
       <r>    1.8634    0.0000 </r>
       <r>    2.3389    0.0000 </r>
       <r>    2.5853    0.0000 </r>
      </set>
      <set comment="kpoint 16">
       <r>  -16.7814    1.0000 </r>
       <r>  -14.3599    1.0000 </r>
       <r>  -11.6822    1.0000 </r>
       <r>   -7.9961    1.0000 </r>
       <r>   -7.3140    1.0000 </r>
       <r>   -7.2440    1.0000 </r>
       <r>   -6.2324    1.0000 </r>
       <r>   -5.3714    1.0000 </r>
       <r>   -3.7834    1.0000 </r>
       <r>   -2.5895    1.0000 </r>
       <r>   -0.8722    0.0000 </r>
       <r>   -0.5040    0.0000 </r>
       <r>    1.7687    0.0000 </r>
       <r>    1.9287    0.0000 </r>
       <r>    2.2800    0.0000 </r>
       <r>    2.6645    0.0000 </r>
      </set>
      <set comment="kpoint 17">
       <r>  -16.5421    1.0000 </r>
       <r>  -14.1108    1.0000 </r>
       <r>  -11.8993    1.0000 </r>
       <r>   -8.3234    1.0000 </r>
       <r>   -7.5799    1.0000 </r>
       <r>   -7.3867    1.0000 </r>
       <r>   -6.0559    1.0000 </r>
       <r>   -5.4419    1.0000 </r>
       <r>   -3.8444    1.0000 </r>
       <r>   -2.7273    1.0000 </r>
       <r>   -0.8490    0.0000 </r>
       <r>   -0.6929    0.0000 </r>
       <r>    1.1988    0.0000 </r>
       <r>    1.3772    0.0000 </r>
       <r>    2.6461    0.0000 </r>
       <r>    3.0690    0.0000 </r>
      </set>
      <set comment="kpoint 18">
       <r>  -16.2524    1.0000 </r>
       <r>  -13.8105    1.0000 </r>
       <r>  -12.2167    1.0000 </r>
       <r>   -8.9067    1.0000 </r>
       <r>   -7.7674    1.0000 </r>
       <r>   -7.2852    1.0000 </r>
       <r>   -5.8429    1.0000 </r>
       <r>   -5.3865    1.0000 </r>
       <r>   -3.9789    1.0000 </r>
       <r>   -2.9314    1.0000 </r>
       <r>   -1.0182    0.0000 </r>
       <r>   -0.4940    0.0000 </r>
       <r>    0.6566    0.0000 </r>
       <r>    0.7327    0.0000 </r>
       <r>    2.3037    0.0000 </r>
       <r>    3.2713    0.0000 </r>
      </set>
      <set comment="kpoint 19">
       <r>  -15.9143    1.0000 </r>
       <r>  -13.4705    1.0000 </r>
       <r>  -12.6111    1.0000 </r>
       <r>   -9.5623    1.0000 </r>
       <r>   -7.8030    1.0000 </r>
       <r>   -7.1486    1.0000 </r>
       <r>   -5.6134    1.0000 </r>
       <r>   -5.2847    1.0000 </r>
       <r>   -4.1502    1.0000 </r>
       <r>   -3.1926    1.0000 </r>
       <r>   -1.0038    0.0000 </r>
       <r>   -0.3902    0.0000 </r>
       <r>    0.1308    0.0000 </r>
       <r>    0.3056    0.0000 </r>
       <r>    1.8456    0.0000 </r>
       <r>    2.9773    0.0000 </r>
      </set>
      <set comment="kpoint 20">
       <r>  -15.5307    1.0000 </r>
       <r>  -13.2691    1.0000 </r>
       <r>  -12.8750    1.0000 </r>
       <r>  -10.2221    1.0000 </r>
       <r>   -7.7151    1.0000 </r>
       <r>   -7.0483    1.0000 </r>
       <r>   -5.3925    1.0000 </r>
       <r>   -5.1989    1.0000 </r>
       <r>   -4.2690    1.0000 </r>
       <r>   -3.4849    1.0000 </r>
       <r>   -0.8573    0.0000 </r>
       <r>   -0.6046    0.0000 </r>
       <r>   -0.3589    0.0000 </r>
       <r>    0.3844    0.0000 </r>
       <r>    1.3787    0.0000 </r>
       <r>    2.5707    0.0000 </r>
      </set>
      <set comment="kpoint 21">
       <r>  -15.1056    1.0000 </r>
       <r>  -13.6673    1.0000 </r>
       <r>  -12.5162    1.0000 </r>
       <r>  -10.8592    1.0000 </r>
       <r>   -7.5443    1.0000 </r>
       <r>   -7.0409    1.0000 </r>
       <r>   -5.2163    1.0000 </r>
       <r>   -5.1515    1.0000 </r>
       <r>   -4.2690    1.0000 </r>
       <r>   -3.7693    1.0000 </r>
       <r>   -0.8932    0.0000 </r>
       <r>   -0.8714    0.0000 </r>
       <r>   -0.4435    0.0000 </r>
       <r>    0.5711    0.0000 </r>
       <r>    1.0323    0.0000 </r>
       <r>    2.1190    0.0000 </r>
      </set>
      <set comment="kpoint 22">
       <r>  -14.6453    1.0000 </r>
       <r>  -14.1595    1.0000 </r>
       <r>  -12.0162    1.0000 </r>
       <r>  -11.4601    1.0000 </r>
       <r>   -7.3371    1.0000 </r>
       <r>   -7.1489    1.0000 </r>
       <r>   -5.1240    1.0000 </r>
       <r>   -5.1191    1.0000 </r>
       <r>   -4.1711    1.0000 </r>
       <r>   -4.0047    1.0000 </r>
       <r>   -1.0626    0.0000 </r>
       <r>   -1.0511    0.0000 </r>
       <r>   -0.1110    0.0000 </r>
       <r>    0.2935    0.0000 </r>
       <r>    1.2437    0.0000 </r>
       <r>    1.6635    0.0000 </r>
      </set>
      <set comment="kpoint 23">
       <r>  -14.6453    1.0000 </r>
       <r>  -14.1595    1.0000 </r>
       <r>  -12.0162    1.0000 </r>
       <r>  -11.4601    1.0000 </r>
       <r>   -7.3371    1.0000 </r>
       <r>   -7.1489    1.0000 </r>
       <r>   -5.1240    1.0000 </r>
       <r>   -5.1191    1.0000 </r>
       <r>   -4.1711    1.0000 </r>
       <r>   -4.0047    1.0000 </r>
       <r>   -1.0626    0.0000 </r>
       <r>   -1.0511    0.0000 </r>
       <r>   -0.1110    0.0000 </r>
       <r>    0.2935    0.0000 </r>
       <r>    1.2437    0.0000 </r>
       <r>    1.6635    0.0000 </r>
      </set>
      <set comment="kpoint 24">
       <r>  -15.1056    1.0000 </r>
       <r>  -13.6673    1.0000 </r>
       <r>  -12.5162    1.0000 </r>
       <r>  -10.8592    1.0000 </r>
       <r>   -7.5443    1.0000 </r>
       <r>   -7.0409    1.0000 </r>
       <r>   -5.2163    1.0000 </r>
       <r>   -5.1515    1.0000 </r>
       <r>   -4.2690    1.0000 </r>
       <r>   -3.7693    1.0000 </r>
       <r>   -0.8932    0.0000 </r>
       <r>   -0.8714    0.0000 </r>
       <r>   -0.4435    0.0000 </r>
       <r>    0.5711    0.0000 </r>
       <r>    1.0323    0.0000 </r>
       <r>    2.1190    0.0000 </r>
      </set>
      <set comment="kpoint 25">
       <r>  -15.5307    1.0000 </r>
       <r>  -13.2691    1.0000 </r>
       <r>  -12.8750    1.0000 </r>
       <r>  -10.2221    1.0000 </r>
       <r>   -7.7151    1.0000 </r>
       <r>   -7.0483    1.0000 </r>
       <r>   -5.3925    1.0000 </r>
       <r>   -5.1989    1.0000 </r>
       <r>   -4.2690    1.0000 </r>
       <r>   -3.4849    1.0000 </r>
       <r>   -0.8573    0.0000 </r>
       <r>   -0.6046    0.0000 </r>
       <r>   -0.3589    0.0000 </r>
       <r>    0.3844    0.0000 </r>
       <r>    1.3787    0.0000 </r>
       <r>    2.5707    0.0000 </r>
      </set>
      <set comment="kpoint 26">
       <r>  -15.9143    1.0000 </r>
       <r>  -13.4705    1.0000 </r>
       <r>  -12.6111    1.0000 </r>
       <r>   -9.5623    1.0000 </r>
       <r>   -7.8030    1.0000 </r>
       <r>   -7.1486    1.0000 </r>
       <r>   -5.6134    1.0000 </r>
       <r>   -5.2847    1.0000 </r>
       <r>   -4.1502    1.0000 </r>
       <r>   -3.1926    1.0000 </r>
       <r>   -1.0038    0.0000 </r>
       <r>   -0.3902    0.0000 </r>
       <r>    0.1308    0.0000 </r>
       <r>    0.3056    0.0000 </r>
       <r>    1.8456    0.0000 </r>
       <r>    2.9773    0.0000 </r>
      </set>
      <set comment="kpoint 27">
       <r>  -16.2524    1.0000 </r>
       <r>  -13.8105    1.0000 </r>
       <r>  -12.2167    1.0000 </r>
       <r>   -8.9067    1.0000 </r>
       <r>   -7.7674    1.0000 </r>
       <r>   -7.2852    1.0000 </r>
       <r>   -5.8429    1.0000 </r>
       <r>   -5.3865    1.0000 </r>
       <r>   -3.9789    1.0000 </r>
       <r>   -2.9314    1.0000 </r>
       <r>   -1.0182    0.0000 </r>
       <r>   -0.4940    0.0000 </r>
       <r>    0.6566    0.0000 </r>
       <r>    0.7327    0.0000 </r>
       <r>    2.3037    0.0000 </r>
       <r>    3.3123    0.0000 </r>
      </set>
      <set comment="kpoint 28">
       <r>  -16.5421    1.0000 </r>
       <r>  -14.1108    1.0000 </r>
       <r>  -11.8993    1.0000 </r>
       <r>   -8.3234    1.0000 </r>
       <r>   -7.5799    1.0000 </r>
       <r>   -7.3867    1.0000 </r>
       <r>   -6.0559    1.0000 </r>
       <r>   -5.4419    1.0000 </r>
       <r>   -3.8444    1.0000 </r>
       <r>   -2.7273    1.0000 </r>
       <r>   -0.8490    0.0000 </r>
       <r>   -0.6929    0.0000 </r>
       <r>    1.1988    0.0000 </r>
       <r>    1.3772    0.0000 </r>
       <r>    2.6461    0.0000 </r>
       <r>    3.0690    0.0000 </r>
      </set>
      <set comment="kpoint 29">
       <r>  -16.7814    1.0000 </r>
       <r>  -14.3599    1.0000 </r>
       <r>  -11.6822    1.0000 </r>
       <r>   -7.9961    1.0000 </r>
       <r>   -7.3140    1.0000 </r>
       <r>   -7.2440    1.0000 </r>
       <r>   -6.2324    1.0000 </r>
       <r>   -5.3714    1.0000 </r>
       <r>   -3.7834    1.0000 </r>
       <r>   -2.5895    1.0000 </r>
       <r>   -0.8722    0.0000 </r>
       <r>   -0.5040    0.0000 </r>
       <r>    1.7687    0.0000 </r>
       <r>    1.9287    0.0000 </r>
       <r>    2.2800    0.0000 </r>
       <r>    2.6645    0.0000 </r>
      </set>
      <set comment="kpoint 30">
       <r>  -16.9687    1.0000 </r>
       <r>  -14.5549    1.0000 </r>
       <r>  -11.5544    1.0000 </r>
       <r>   -7.9766    1.0000 </r>
       <r>   -7.0895    1.0000 </r>
       <r>   -6.8325    1.0000 </r>
       <r>   -6.3279    1.0000 </r>
       <r>   -5.0990    1.0000 </r>
       <r>   -3.7794    1.0000 </r>
       <r>   -2.5121    1.0000 </r>
       <r>   -1.0121    0.0000 </r>
       <r>   -0.0421    0.0000 </r>
       <r>    1.1931    0.0000 </r>
       <r>    1.8634    0.0000 </r>
       <r>    2.3387    0.0000 </r>
       <r>    2.5811    0.0000 </r>
      </set>
      <set comment="kpoint 31">
       <r>  -17.1032    1.0000 </r>
       <r>  -14.6947    1.0000 </r>
       <r>  -11.4892    1.0000 </r>
       <r>   -8.0331    1.0000 </r>
       <r>   -6.9492    1.0000 </r>
       <r>   -6.6413    1.0000 </r>
       <r>   -6.1198    1.0000 </r>
       <r>   -4.6563    1.0000 </r>
       <r>   -3.8006    1.0000 </r>
       <r>   -2.4805    1.0000 </r>
       <r>   -1.1107    0.0000 </r>
       <r>    0.2870    0.0000 </r>
       <r>    0.4464    0.0000 </r>
       <r>    1.2206    0.0000 </r>
       <r>    2.3079    0.0000 </r>
       <r>    2.4470    0.0000 </r>
      </set>
      <set comment="kpoint 32">
       <r>  -17.1842    1.0000 </r>
       <r>  -14.7788    1.0000 </r>
       <r>  -11.4610    1.0000 </r>
       <r>   -8.0792    1.0000 </r>
       <r>   -6.8970    1.0000 </r>
       <r>   -6.6612    1.0000 </r>
       <r>   -5.7399    1.0000 </r>
       <r>   -4.2213    1.0000 </r>
       <r>   -3.8239    1.0000 </r>
       <r>   -2.4777    1.0000 </r>
       <r>   -1.1703    0.0000 </r>
       <r>   -0.3648    0.0000 </r>
       <r>    0.5976    0.0000 </r>
       <r>    0.8755    0.0000 </r>
       <r>    2.2321    0.0000 </r>
       <r>    2.3566    0.0000 </r>
      </set>
      <set comment="kpoint 33">
       <r>  -17.1473    1.0000 </r>
       <r>  -14.8972    1.0000 </r>
       <r>  -11.4653    1.0000 </r>
       <r>   -8.4495    1.0000 </r>
       <r>   -6.6900    1.0000 </r>
       <r>   -6.4127    1.0000 </r>
       <r>   -5.5237    1.0000 </r>
       <r>   -4.0757    1.0000 </r>
       <r>   -3.5814    1.0000 </r>
       <r>   -2.8798    1.0000 </r>
       <r>   -0.8325    0.0000 </r>
       <r>   -0.5580    0.0000 </r>
       <r>    0.2311    0.0000 </r>
       <r>    0.9964    0.0000 </r>
       <r>    2.3737    0.0000 </r>
       <r>    2.4168    0.0000 </r>
      </set>
      <set comment="kpoint 34">
       <r>  -17.1203    1.0000 </r>
       <r>  -14.8696    1.0000 </r>
       <r>  -11.4694    1.0000 </r>
       <r>   -8.4363    1.0000 </r>
       <r>   -6.6931    1.0000 </r>
       <r>   -6.4295    1.0000 </r>
       <r>   -5.6606    1.0000 </r>
       <r>   -4.2776    1.0000 </r>
       <r>   -3.5759    1.0000 </r>
       <r>   -2.8715    1.0000 </r>
       <r>   -0.8172    0.0000 </r>
       <r>   -0.3146    0.0000 </r>
       <r>    0.4569    0.0000 </r>
       <r>    0.8666    0.0000 </r>
       <r>    2.3969    0.0000 </r>
       <r>    2.4468    0.0000 </r>
      </set>
      <set comment="kpoint 35">
       <r>  -17.0396    1.0000 </r>
       <r>  -14.7869    1.0000 </r>
       <r>  -11.4870    1.0000 </r>
       <r>   -8.4019    1.0000 </r>
       <r>   -6.7182    1.0000 </r>
       <r>   -6.5595    1.0000 </r>
       <r>   -5.8980    1.0000 </r>
       <r>   -4.7377    1.0000 </r>
       <r>   -3.5756    1.0000 </r>
       <r>   -2.8573    1.0000 </r>
       <r>   -0.7751    0.0000 </r>
       <r>    0.3339    0.0000 </r>
       <r>    0.4215    0.0000 </r>
       <r>    1.1452    0.0000 </r>
       <r>    2.4621    0.0000 </r>
       <r>    2.5372    0.0000 </r>
      </set>
      <set comment="kpoint 36">
       <r>  -16.9054    1.0000 </r>
       <r>  -14.6498    1.0000 </r>
       <r>  -11.5341    1.0000 </r>
       <r>   -8.3665    1.0000 </r>
       <r>   -6.9252    1.0000 </r>
       <r>   -6.8173    1.0000 </r>
       <r>   -5.9497    1.0000 </r>
       <r>   -5.2064    1.0000 </r>
       <r>   -3.5998    1.0000 </r>
       <r>   -2.8544    1.0000 </r>
       <r>   -0.7067    0.0000 </r>
       <r>    0.0004    0.0000 </r>
       <r>    1.2161    0.0000 </r>
       <r>    1.8314    0.0000 </r>
       <r>    2.1242    0.0000 </r>
       <r>    2.5735    0.0000 </r>
      </set>
      <set comment="kpoint 37">
       <r>  -16.7186    1.0000 </r>
       <r>  -14.4594    1.0000 </r>
       <r>  -11.6367    1.0000 </r>
       <r>   -8.3898    1.0000 </r>
       <r>   -7.3599    1.0000 </r>
       <r>   -7.0348    1.0000 </r>
       <r>   -5.8606    1.0000 </r>
       <r>   -5.4851    1.0000 </r>
       <r>   -3.6728    1.0000 </r>
       <r>   -2.8799    1.0000 </r>
       <r>   -0.6109    0.0000 </r>
       <r>   -0.3789    0.0000 </r>
       <r>    1.4002    0.0000 </r>
       <r>    2.0879    0.0000 </r>
       <r>    2.3763    0.0000 </r>
       <r>    2.6884    0.0000 </r>
      </set>
      <set comment="kpoint 38">
       <r>  -16.4801    1.0000 </r>
       <r>  -14.2183    1.0000 </r>
       <r>  -11.8235    1.0000 </r>
       <r>   -8.6026    1.0000 </r>
       <r>   -7.7061    1.0000 </r>
       <r>   -7.2344    1.0000 </r>
       <r>   -5.7146    1.0000 </r>
       <r>   -5.5481    1.0000 </r>
       <r>   -3.8139    1.0000 </r>
       <r>   -2.9522    1.0000 </r>
       <r>   -0.6273    0.0000 </r>
       <r>   -0.4873    0.0000 </r>
       <r>    0.8324    0.0000 </r>
       <r>    1.6391    0.0000 </r>
       <r>    2.7258    0.0000 </r>
       <r>    3.1209    0.0000 </r>
      </set>
      <set comment="kpoint 39">
       <r>  -16.1916    1.0000 </r>
       <r>  -13.9332    1.0000 </r>
       <r>  -12.1070    1.0000 </r>
       <r>   -9.0679    1.0000 </r>
       <r>   -7.9005    1.0000 </r>
       <r>   -7.2544    1.0000 </r>
       <r>   -5.5462    1.0000 </r>
       <r>   -5.5056    1.0000 </r>
       <r>   -4.0052    1.0000 </r>
       <r>   -3.0825    1.0000 </r>
       <r>   -0.7096    0.0000 </r>
       <r>   -0.3519    0.0000 </r>
       <r>    0.3130    0.0000 </r>
       <r>    1.0182    0.0000 </r>
       <r>    2.5846    0.0000 </r>
       <r>    3.1098    0.0000 </r>
      </set>
      <set comment="kpoint 40">
       <r>  -15.8553    1.0000 </r>
       <r>  -13.6281    1.0000 </r>
       <r>  -12.4545    1.0000 </r>
       <r>   -9.6673    1.0000 </r>
       <r>   -7.9354    1.0000 </r>
       <r>   -7.1614    1.0000 </r>
       <r>   -5.4626    1.0000 </r>
       <r>   -5.3860    1.0000 </r>
       <r>   -4.1678    1.0000 </r>
       <r>   -3.2623    1.0000 </r>
       <r>   -0.6446    0.0000 </r>
       <r>   -0.4005    0.0000 </r>
       <r>    0.0852    0.0000 </r>
       <r>    0.4182    0.0000 </r>
       <r>    2.2787    0.0000 </r>
       <r>    2.8331    0.0000 </r>
      </set>
      <set comment="kpoint 41">
       <r>  -15.4744    1.0000 </r>
       <r>  -13.4432    1.0000 </r>
       <r>  -12.6965    1.0000 </r>
       <r>  -10.2993    1.0000 </r>
       <r>   -7.8377    1.0000 </r>
       <r>   -7.0659    1.0000 </r>
       <r>   -5.4769    1.0000 </r>
       <r>   -5.2740    1.0000 </r>
       <r>   -4.2049    1.0000 </r>
       <r>   -3.4599    1.0000 </r>
       <r>   -0.7300    0.0000 </r>
       <r>   -0.5334    0.0000 </r>
       <r>   -0.0372    0.0000 </r>
       <r>    0.2696    0.0000 </r>
       <r>    1.8891    0.0000 </r>
       <r>    2.4489    0.0000 </r>
      </set>
      <set comment="kpoint 42">
       <r>  -15.0540    1.0000 </r>
       <r>  -13.6892    1.0000 </r>
       <r>  -12.4887    1.0000 </r>
       <r>  -10.9188    1.0000 </r>
       <r>   -7.6482    1.0000 </r>
       <r>   -7.0614    1.0000 </r>
       <r>   -5.4958    1.0000 </r>
       <r>   -5.2522    1.0000 </r>
       <r>   -4.1090    1.0000 </r>
       <r>   -3.6388    1.0000 </r>
       <r>   -0.9937    0.0000 </r>
       <r>   -0.7249    0.0000 </r>
       <r>    0.0038    0.0000 </r>
       <r>    0.5201    0.0000 </r>
       <r>    1.5031    0.0000 </r>
       <r>    2.0265    0.0000 </r>
      </set>
      <set comment="kpoint 43">
       <r>  -14.6021    1.0000 </r>
       <r>  -14.1339    1.0000 </r>
       <r>  -12.0381    1.0000 </r>
       <r>  -11.5039    1.0000 </r>
       <r>   -7.4134    1.0000 </r>
       <r>   -7.1925    1.0000 </r>
       <r>   -5.4364    1.0000 </r>
       <r>   -5.3259    1.0000 </r>
       <r>   -3.9530    1.0000 </r>
       <r>   -3.7948    1.0000 </r>
       <r>   -1.0908    0.0000 </r>
       <r>   -0.9894    0.0000 </r>
       <r>    0.3130    0.0000 </r>
       <r>    0.5841    0.0000 </r>
       <r>    1.3591    0.0000 </r>
       <r>    1.6239    0.0000 </r>
      </set>
      <set comment="kpoint 44">
       <r>  -14.6021    1.0000 </r>
       <r>  -14.1339    1.0000 </r>
       <r>  -12.0381    1.0000 </r>
       <r>  -11.5039    1.0000 </r>
       <r>   -7.4134    1.0000 </r>
       <r>   -7.1925    1.0000 </r>
       <r>   -5.4364    1.0000 </r>
       <r>   -5.3259    1.0000 </r>
       <r>   -3.9530    1.0000 </r>
       <r>   -3.7948    1.0000 </r>
       <r>   -1.0908    0.0000 </r>
       <r>   -0.9894    0.0000 </r>
       <r>    0.3130    0.0000 </r>
       <r>    0.5841    0.0000 </r>
       <r>    1.3591    0.0000 </r>
       <r>    1.6239    0.0000 </r>
      </set>
      <set comment="kpoint 45">
       <r>  -15.0540    1.0000 </r>
       <r>  -13.6892    1.0000 </r>
       <r>  -12.4887    1.0000 </r>
       <r>  -10.9188    1.0000 </r>
       <r>   -7.6482    1.0000 </r>
       <r>   -7.0614    1.0000 </r>
       <r>   -5.4958    1.0000 </r>
       <r>   -5.2522    1.0000 </r>
       <r>   -4.1090    1.0000 </r>
       <r>   -3.6388    1.0000 </r>
       <r>   -0.9937    0.0000 </r>
       <r>   -0.7249    0.0000 </r>
       <r>    0.0038    0.0000 </r>
       <r>    0.5201    0.0000 </r>
       <r>    1.5031    0.0000 </r>
       <r>    2.0265    0.0000 </r>
      </set>
      <set comment="kpoint 46">
       <r>  -15.4744    1.0000 </r>
       <r>  -13.4432    1.0000 </r>
       <r>  -12.6965    1.0000 </r>
       <r>  -10.2993    1.0000 </r>
       <r>   -7.8377    1.0000 </r>
       <r>   -7.0659    1.0000 </r>
       <r>   -5.4769    1.0000 </r>
       <r>   -5.2740    1.0000 </r>
       <r>   -4.2049    1.0000 </r>
       <r>   -3.4599    1.0000 </r>
       <r>   -0.7300    0.0000 </r>
       <r>   -0.5334    0.0000 </r>
       <r>   -0.0372    0.0000 </r>
       <r>    0.2696    0.0000 </r>
       <r>    1.8891    0.0000 </r>
       <r>    2.4489    0.0000 </r>
      </set>
      <set comment="kpoint 47">
       <r>  -15.8553    1.0000 </r>
       <r>  -13.6281    1.0000 </r>
       <r>  -12.4545    1.0000 </r>
       <r>   -9.6673    1.0000 </r>
       <r>   -7.9354    1.0000 </r>
       <r>   -7.1614    1.0000 </r>
       <r>   -5.4626    1.0000 </r>
       <r>   -5.3860    1.0000 </r>
       <r>   -4.1678    1.0000 </r>
       <r>   -3.2623    1.0000 </r>
       <r>   -0.6446    0.0000 </r>
       <r>   -0.4005    0.0000 </r>
       <r>    0.0852    0.0000 </r>
       <r>    0.4182    0.0000 </r>
       <r>    2.2787    0.0000 </r>
       <r>    2.8331    0.0000 </r>
      </set>
      <set comment="kpoint 48">
       <r>  -16.1916    1.0000 </r>
       <r>  -13.9332    1.0000 </r>
       <r>  -12.1070    1.0000 </r>
       <r>   -9.0679    1.0000 </r>
       <r>   -7.9005    1.0000 </r>
       <r>   -7.2544    1.0000 </r>
       <r>   -5.5462    1.0000 </r>
       <r>   -5.5056    1.0000 </r>
       <r>   -4.0052    1.0000 </r>
       <r>   -3.0825    1.0000 </r>
       <r>   -0.7096    0.0000 </r>
       <r>   -0.3519    0.0000 </r>
       <r>    0.3130    0.0000 </r>
       <r>    1.0182    0.0000 </r>
       <r>    2.5846    0.0000 </r>
       <r>    3.1098    0.0000 </r>
      </set>
      <set comment="kpoint 49">
       <r>  -16.4801    1.0000 </r>
       <r>  -14.2183    1.0000 </r>
       <r>  -11.8235    1.0000 </r>
       <r>   -8.6026    1.0000 </r>
       <r>   -7.7061    1.0000 </r>
       <r>   -7.2344    1.0000 </r>
       <r>   -5.7146    1.0000 </r>
       <r>   -5.5481    1.0000 </r>
       <r>   -3.8139    1.0000 </r>
       <r>   -2.9522    1.0000 </r>
       <r>   -0.6273    0.0000 </r>
       <r>   -0.4873    0.0000 </r>
       <r>    0.8324    0.0000 </r>
       <r>    1.6391    0.0000 </r>
       <r>    2.7258    0.0000 </r>
       <r>    3.1208    0.0000 </r>
      </set>
      <set comment="kpoint 50">
       <r>  -16.7186    1.0000 </r>
       <r>  -14.4594    1.0000 </r>
       <r>  -11.6367    1.0000 </r>
       <r>   -8.3898    1.0000 </r>
       <r>   -7.3599    1.0000 </r>
       <r>   -7.0348    1.0000 </r>
       <r>   -5.8606    1.0000 </r>
       <r>   -5.4851    1.0000 </r>
       <r>   -3.6728    1.0000 </r>
       <r>   -2.8799    1.0000 </r>
       <r>   -0.6109    0.0000 </r>
       <r>   -0.3789    0.0000 </r>
       <r>    1.4002    0.0000 </r>
       <r>    2.0879    0.0000 </r>
       <r>    2.3763    0.0000 </r>
       <r>    2.6884    0.0000 </r>
      </set>
      <set comment="kpoint 51">
       <r>  -16.9054    1.0000 </r>
       <r>  -14.6498    1.0000 </r>
       <r>  -11.5341    1.0000 </r>
       <r>   -8.3665    1.0000 </r>
       <r>   -6.9252    1.0000 </r>
       <r>   -6.8173    1.0000 </r>
       <r>   -5.9497    1.0000 </r>
       <r>   -5.2064    1.0000 </r>
       <r>   -3.5998    1.0000 </r>
       <r>   -2.8544    1.0000 </r>
       <r>   -0.7067    0.0000 </r>
       <r>    0.0004    0.0000 </r>
       <r>    1.2161    0.0000 </r>
       <r>    1.8314    0.0000 </r>
       <r>    2.1242    0.0000 </r>
       <r>    2.5734    0.0000 </r>
      </set>
      <set comment="kpoint 52">
       <r>  -17.0396    1.0000 </r>
       <r>  -14.7869    1.0000 </r>
       <r>  -11.4870    1.0000 </r>
       <r>   -8.4019    1.0000 </r>
       <r>   -6.7182    1.0000 </r>
       <r>   -6.5595    1.0000 </r>
       <r>   -5.8980    1.0000 </r>
       <r>   -4.7377    1.0000 </r>
       <r>   -3.5756    1.0000 </r>
       <r>   -2.8573    1.0000 </r>
       <r>   -0.7751    0.0000 </r>
       <r>    0.3339    0.0000 </r>
       <r>    0.4215    0.0000 </r>
       <r>    1.1452    0.0000 </r>
       <r>    2.4620    0.0000 </r>
       <r>    2.5370    0.0000 </r>
      </set>
      <set comment="kpoint 53">
       <r>  -17.1203    1.0000 </r>
       <r>  -14.8696    1.0000 </r>
       <r>  -11.4694    1.0000 </r>
       <r>   -8.4363    1.0000 </r>
       <r>   -6.6931    1.0000 </r>
       <r>   -6.4295    1.0000 </r>
       <r>   -5.6606    1.0000 </r>
       <r>   -4.2776    1.0000 </r>
       <r>   -3.5759    1.0000 </r>
       <r>   -2.8715    1.0000 </r>
       <r>   -0.8172    0.0000 </r>
       <r>   -0.3146    0.0000 </r>
       <r>    0.4569    0.0000 </r>
       <r>    0.8666    0.0000 </r>
       <r>    2.3969    0.0000 </r>
       <r>    2.4468    0.0000 </r>
      </set>
      <set comment="kpoint 54">
       <r>  -17.0420    1.0000 </r>
       <r>  -15.0454    1.0000 </r>
       <r>  -11.4538    1.0000 </r>
       <r>   -8.8753    1.0000 </r>
       <r>   -6.4722    1.0000 </r>
       <r>   -6.0120    1.0000 </r>
       <r>   -5.4438    1.0000 </r>
       <r>   -4.1526    1.0000 </r>
       <r>   -3.3236    1.0000 </r>
       <r>   -3.2452    1.0000 </r>
       <r>   -0.5018    0.0000 </r>
       <r>   -0.4133    0.0000 </r>
       <r>    0.0304    0.0000 </r>
       <r>    0.9672    0.0000 </r>
       <r>    2.5650    0.0000 </r>
       <r>    2.6317    0.0000 </r>
      </set>
      <set comment="kpoint 55">
       <r>  -17.0152    1.0000 </r>
       <r>  -15.0184    1.0000 </r>
       <r>  -11.4536    1.0000 </r>
       <r>   -8.8630    1.0000 </r>
       <r>   -6.4688    1.0000 </r>
       <r>   -6.1092    1.0000 </r>
       <r>   -5.5018    1.0000 </r>
       <r>   -4.3637    1.0000 </r>
       <r>   -3.3129    1.0000 </r>
       <r>   -3.2565    1.0000 </r>
       <r>   -0.4474    0.0000 </r>
       <r>   -0.2152    0.0000 </r>
       <r>    0.2676    0.0000 </r>
       <r>    0.8577    0.0000 </r>
       <r>    2.5954    0.0000 </r>
       <r>    2.6491    0.0000 </r>
      </set>
      <set comment="kpoint 56">
       <r>  -16.9347    1.0000 </r>
       <r>  -14.9375    1.0000 </r>
       <r>  -11.4580    1.0000 </r>
       <r>   -8.8309    1.0000 </r>
       <r>   -6.4738    1.0000 </r>
       <r>   -6.4479    1.0000 </r>
       <r>   -5.5408    1.0000 </r>
       <r>   -4.8504    1.0000 </r>
       <r>   -3.3001    1.0000 </r>
       <r>   -3.2877    1.0000 </r>
       <r>   -0.4064    0.0000 </r>
       <r>    0.4138    0.0000 </r>
       <r>    0.4382    0.0000 </r>
       <r>    1.0142    0.0000 </r>
       <r>    2.2914    0.0000 </r>
       <r>    2.6880    0.0000 </r>
      </set>
      <set comment="kpoint 57">
       <r>  -16.8011    1.0000 </r>
       <r>  -14.8037    1.0000 </r>
       <r>  -11.4820    1.0000 </r>
       <r>   -8.7966    1.0000 </r>
       <r>   -6.9392    1.0000 </r>
       <r>   -6.5525    1.0000 </r>
       <r>   -5.4936    1.0000 </r>
       <r>   -5.3463    1.0000 </r>
       <r>   -3.3957    1.0000 </r>
       <r>   -3.2603    1.0000 </r>
       <r>   -0.3517    0.0000 </r>
       <r>    0.1322    0.0000 </r>
       <r>    1.2088    0.0000 </r>
       <r>    1.7334    0.0000 </r>
       <r>    1.8159    0.0000 </r>
       <r>    2.7677    0.0000 </r>
      </set>
      <set comment="kpoint 58">
       <r>  -16.6151    1.0000 </r>
       <r>  -14.6187    1.0000 </r>
       <r>  -11.5517    1.0000 </r>
       <r>   -8.8048    1.0000 </r>
       <r>   -7.4265    1.0000 </r>
       <r>   -6.8049    1.0000 </r>
       <r>   -5.6117    1.0000 </r>
       <r>   -5.3990    1.0000 </r>
       <r>   -3.5619    1.0000 </r>
       <r>   -3.2432    1.0000 </r>
       <r>   -0.2841    0.0000 </r>
       <r>   -0.1291    0.0000 </r>
       <r>    1.0093    0.0000 </r>
       <r>    2.2133    0.0000 </r>
       <r>    2.4671    0.0000 </r>
       <r>    2.8216    0.0000 </r>
      </set>
      <set comment="kpoint 59">
       <r>  -16.3780    1.0000 </r>
       <r>  -14.3863    1.0000 </r>
       <r>  -11.6990    1.0000 </r>
       <r>   -8.9473    1.0000 </r>
       <r>   -7.8078    1.0000 </r>
       <r>   -7.1119    1.0000 </r>
       <r>   -5.6479    1.0000 </r>
       <r>   -5.2876    1.0000 </r>
       <r>   -3.7927    1.0000 </r>
       <r>   -3.2496    1.0000 </r>
       <r>   -0.2610    0.0000 </r>
       <r>   -0.2070    0.0000 </r>
       <r>    0.4666    0.0000 </r>
       <r>    1.9720    0.0000 </r>
       <r>    2.8207    0.0000 </r>
       <r>    2.9907    0.0000 </r>
      </set>
      <set comment="kpoint 60">
       <r>  -16.0914    1.0000 </r>
       <r>  -14.1154    1.0000 </r>
       <r>  -11.9416    1.0000 </r>
       <r>   -9.3078    1.0000 </r>
       <r>   -8.0259    1.0000 </r>
       <r>   -7.2466    1.0000 </r>
       <r>   -5.6223    1.0000 </r>
       <r>   -5.1906    1.0000 </r>
       <r>   -4.0314    1.0000 </r>
       <r>   -3.2860    1.0000 </r>
       <r>   -0.2525    0.0000 </r>
       <r>   -0.1584    0.0000 </r>
       <r>    0.0150    0.0000 </r>
       <r>    1.4161    0.0000 </r>
       <r>    2.7641    0.0000 </r>
       <r>    2.8940    0.0000 </r>
      </set>
      <set comment="kpoint 61">
       <r>  -15.7581    1.0000 </r>
       <r>  -13.8321    1.0000 </r>
       <r>  -12.2508    1.0000 </r>
       <r>   -9.8355    1.0000 </r>
       <r>   -8.0704    1.0000 </r>
       <r>   -7.2044    1.0000 </r>
       <r>   -5.6574    1.0000 </r>
       <r>   -5.1493    1.0000 </r>
       <r>   -4.1728    1.0000 </r>
       <r>   -3.3422    1.0000 </r>
       <r>   -0.4913    0.0000 </r>
       <r>   -0.1369    0.0000 </r>
       <r>    0.0575    0.0000 </r>
       <r>    0.8333    0.0000 </r>
       <r>    2.6348    0.0000 </r>
       <r>    2.6616    0.0000 </r>
      </set>
      <set comment="kpoint 62">
       <r>  -15.3821    1.0000 </r>
       <r>  -13.6323    1.0000 </r>
       <r>  -12.5004    1.0000 </r>
       <r>  -10.4266    1.0000 </r>
       <r>   -7.9682    1.0000 </r>
       <r>   -7.1038    1.0000 </r>
       <r>   -5.7819    1.0000 </r>
       <r>   -5.2038    1.0000 </r>
       <r>   -4.1442    1.0000 </r>
       <r>   -3.4005    1.0000 </r>
       <r>   -0.8089    0.0000 </r>
       <r>   -0.0624    0.0000 </r>
       <r>    0.2404    0.0000 </r>
       <r>    0.4187    0.0000 </r>
       <r>    2.2845    0.0000 </r>
       <r>    2.4448    0.0000 </r>
      </set>
      <set comment="kpoint 63">
       <r>  -14.9699    1.0000 </r>
       <r>  -13.7343    1.0000 </r>
       <r>  -12.4363    1.0000 </r>
       <r>  -11.0182    1.0000 </r>
       <r>   -7.7615    1.0000 </r>
       <r>   -7.0845    1.0000 </r>
       <r>   -5.8678    1.0000 </r>
       <r>   -5.3613    1.0000 </r>
       <r>   -3.9857    1.0000 </r>
       <r>   -3.4712    1.0000 </r>
       <r>   -0.9799    0.0000 </r>
       <r>   -0.3802    0.0000 </r>
       <r>    0.4737    0.0000 </r>
       <r>    0.5222    0.0000 </r>
       <r>    1.9216    0.0000 </r>
       <r>    2.0934    0.0000 </r>
      </set>
      <set comment="kpoint 64">
       <r>  -14.5333    1.0000 </r>
       <r>  -14.0975    1.0000 </r>
       <r>  -12.0709    1.0000 </r>
       <r>  -11.5764    1.0000 </r>
       <r>   -7.4971    1.0000 </r>
       <r>   -7.2380    1.0000 </r>
       <r>   -5.7843    1.0000 </r>
       <r>   -5.5803    1.0000 </r>
       <r>   -3.7795    1.0000 </r>
       <r>   -3.5943    1.0000 </r>
       <r>   -0.9566    0.0000 </r>
       <r>   -0.7386    0.0000 </r>
       <r>    0.6991    0.0000 </r>
       <r>    0.7316    0.0000 </r>
       <r>    1.6702    0.0000 </r>
       <r>    1.7531    0.0000 </r>
      </set>
      <set comment="kpoint 65">
       <r>  -14.5333    1.0000 </r>
       <r>  -14.0975    1.0000 </r>
       <r>  -12.0709    1.0000 </r>
       <r>  -11.5764    1.0000 </r>
       <r>   -7.4971    1.0000 </r>
       <r>   -7.2380    1.0000 </r>
       <r>   -5.7843    1.0000 </r>
       <r>   -5.5803    1.0000 </r>
       <r>   -3.7795    1.0000 </r>
       <r>   -3.5943    1.0000 </r>
       <r>   -0.9566    0.0000 </r>
       <r>   -0.7386    0.0000 </r>
       <r>    0.6991    0.0000 </r>
       <r>    0.7316    0.0000 </r>
       <r>    1.6702    0.0000 </r>
       <r>    1.7531    0.0000 </r>
      </set>
      <set comment="kpoint 66">
       <r>  -14.9699    1.0000 </r>
       <r>  -13.7343    1.0000 </r>
       <r>  -12.4363    1.0000 </r>
       <r>  -11.0182    1.0000 </r>
       <r>   -7.7615    1.0000 </r>
       <r>   -7.0845    1.0000 </r>
       <r>   -5.8678    1.0000 </r>
       <r>   -5.3613    1.0000 </r>
       <r>   -3.9857    1.0000 </r>
       <r>   -3.4712    1.0000 </r>
       <r>   -0.9799    0.0000 </r>
       <r>   -0.3802    0.0000 </r>
       <r>    0.4737    0.0000 </r>
       <r>    0.5222    0.0000 </r>
       <r>    1.9216    0.0000 </r>
       <r>    2.0934    0.0000 </r>
      </set>
      <set comment="kpoint 67">
       <r>  -15.3821    1.0000 </r>
       <r>  -13.6323    1.0000 </r>
       <r>  -12.5004    1.0000 </r>
       <r>  -10.4266    1.0000 </r>
       <r>   -7.9682    1.0000 </r>
       <r>   -7.1038    1.0000 </r>
       <r>   -5.7819    1.0000 </r>
       <r>   -5.2038    1.0000 </r>
       <r>   -4.1442    1.0000 </r>
       <r>   -3.4005    1.0000 </r>
       <r>   -0.8089    0.0000 </r>
       <r>   -0.0624    0.0000 </r>
       <r>    0.2404    0.0000 </r>
       <r>    0.4187    0.0000 </r>
       <r>    2.2845    0.0000 </r>
       <r>    2.4448    0.0000 </r>
      </set>
      <set comment="kpoint 68">
       <r>  -15.7581    1.0000 </r>
       <r>  -13.8321    1.0000 </r>
       <r>  -12.2508    1.0000 </r>
       <r>   -9.8355    1.0000 </r>
       <r>   -8.0704    1.0000 </r>
       <r>   -7.2044    1.0000 </r>
       <r>   -5.6574    1.0000 </r>
       <r>   -5.1493    1.0000 </r>
       <r>   -4.1728    1.0000 </r>
       <r>   -3.3422    1.0000 </r>
       <r>   -0.4913    0.0000 </r>
       <r>   -0.1369    0.0000 </r>
       <r>    0.0575    0.0000 </r>
       <r>    0.8333    0.0000 </r>
       <r>    2.6348    0.0000 </r>
       <r>    2.6616    0.0000 </r>
      </set>
      <set comment="kpoint 69">
       <r>  -16.0914    1.0000 </r>
       <r>  -14.1154    1.0000 </r>
       <r>  -11.9416    1.0000 </r>
       <r>   -9.3078    1.0000 </r>
       <r>   -8.0259    1.0000 </r>
[...]
       <r>    3.3666    0.0000 </r>
       <r>    3.3983    0.0000 </r>
      </set>
      <set comment="kpoint 153">
       <r>  -15.3500    1.0000 </r>
       <r>  -15.1026    1.0000 </r>
       <r>  -10.9129    1.0000 </r>
       <r>  -10.5919    1.0000 </r>
       <r>   -7.9387    1.0000 </r>
       <r>   -7.7807    1.0000 </r>
       <r>   -5.2654    1.0000 </r>
       <r>   -5.0428    1.0000 </r>
       <r>   -3.8489    1.0000 </r>
       <r>   -3.7602    1.0000 </r>
       <r>    0.2847    0.0000 </r>
       <r>    0.6794    0.0000 </r>
       <r>    1.1129    0.0000 </r>
       <r>    1.4121    0.0000 </r>
       <r>    3.3342    0.0000 </r>
       <r>    3.3643    0.0000 </r>
      </set>
      <set comment="kpoint 154">
       <r>  -15.6211    1.0000 </r>
       <r>  -15.3688    1.0000 </r>
       <r>  -10.7603    1.0000 </r>
       <r>  -10.4317    1.0000 </r>
       <r>   -7.6139    1.0000 </r>
       <r>   -7.4517    1.0000 </r>
       <r>   -5.1452    1.0000 </r>
       <r>   -4.8673    1.0000 </r>
       <r>   -3.7455    1.0000 </r>
       <r>   -3.7173    1.0000 </r>
       <r>    0.2970    0.0000 </r>
       <r>    0.6027    0.0000 </r>
       <r>    1.2130    0.0000 </r>
       <r>    1.5517    0.0000 </r>
       <r>    3.0601    0.0000 </r>
       <r>    3.2988    0.0000 </r>
      </set>
      <set comment="kpoint 155">
       <r>  -15.8487    1.0000 </r>
       <r>  -15.5937    1.0000 </r>
       <r>  -10.7216    1.0000 </r>
       <r>  -10.3960    1.0000 </r>
       <r>   -7.0937    1.0000 </r>
       <r>   -6.9198    1.0000 </r>
       <r>   -5.1629    1.0000 </r>
       <r>   -4.8448    1.0000 </r>
       <r>   -3.6522    1.0000 </r>
       <r>   -3.4964    1.0000 </r>
       <r>    0.4037    0.0000 </r>
       <r>    0.5930    0.0000 </r>
       <r>    1.2179    0.0000 </r>
       <r>    1.5839    0.0000 </r>
       <r>    2.4573    0.0000 </r>
       <r>    2.7025    0.0000 </r>
      </set>
      <set comment="kpoint 156">
       <r>  -16.0287    1.0000 </r>
       <r>  -15.7722    1.0000 </r>
       <r>  -10.7435    1.0000 </r>
       <r>  -10.4235    1.0000 </r>
       <r>   -6.4539    1.0000 </r>
       <r>   -6.2683    1.0000 </r>
       <r>   -5.2306    1.0000 </r>
       <r>   -4.8947    1.0000 </r>
       <r>   -3.5770    1.0000 </r>
       <r>   -3.3039    1.0000 </r>
       <r>    0.5543    0.0000 </r>
       <r>    0.6194    0.0000 </r>
       <r>    1.1365    0.0000 </r>
       <r>    1.4655    0.0000 </r>
       <r>    1.8207    0.0000 </r>
       <r>    1.9460    0.0000 </r>
      </set>
      <set comment="kpoint 157">
       <r>  -16.1586    1.0000 </r>
       <r>  -15.9014    1.0000 </r>
       <r>  -10.7827    1.0000 </r>
       <r>  -10.4672    1.0000 </r>
       <r>   -5.7771    1.0000 </r>
       <r>   -5.5910    1.0000 </r>
       <r>   -5.2928    1.0000 </r>
       <r>   -4.9553    1.0000 </r>
       <r>   -3.5891    1.0000 </r>
       <r>   -3.2149    1.0000 </r>
       <r>    0.4285    0.0000 </r>
       <r>    0.4335    0.0000 </r>
       <r>    1.1004    0.0000 </r>
       <r>    1.1991    0.0000 </r>
       <r>    1.5286    0.0000 </r>
       <r>    1.6174    0.0000 </r>
      </set>
      <set comment="kpoint 158">
       <r>  -16.2370    1.0000 </r>
       <r>  -15.9794    1.0000 </r>
       <r>  -10.8141    1.0000 </r>
       <r>  -10.5014    1.0000 </r>
       <r>   -5.3568    1.0000 </r>
       <r>   -5.1740    1.0000 </r>
       <r>   -4.9987    1.0000 </r>
       <r>   -4.9797    1.0000 </r>
       <r>   -3.7070    1.0000 </r>
       <r>   -3.2507    1.0000 </r>
       <r>   -0.0043    0.0000 </r>
       <r>    0.0273    0.0000 </r>
       <r>    1.1792    0.0000 </r>
       <r>    1.2384    0.0000 </r>
       <r>    1.4850    0.0000 </r>
       <r>    1.5510    0.0000 </r>
      </set>
     </set>
    </set>
   </array>
  </eigenvalues>
  <separator name="orbital magnetization" >
   <v name="MAGDIPOLOUT">      0.00000000      0.00000000      0.00000000</v>
  </separator>
  <dos>
   <i name="efermi">     -2.19462517 </i>
   <total>
    <array>
     <dimension dim="1">gridpoints</dimension>
     <dimension dim="2">spin</dimension>
     <field>energy</field>
     <field>total</field>
     <field>integrated</field>
     <set>
      <set comment="spin 1">
       <r>   -18.2756     0.0000     0.0000 </r>
       <r>   -18.1991     0.0000     0.0000 </r>
       <r>   -18.1226     0.0000     0.0000 </r>
       <r>   -18.0461     0.0000     0.0000 </r>
       <r>   -17.9696     0.0000     0.0000 </r>
       <r>   -17.8931     0.0000     0.0000 </r>
       <r>   -17.8167     0.0000     0.0000 </r>
       <r>   -17.7402     0.0000     0.0000 </r>
       <r>   -17.6637     0.0000     0.0000 </r>
       <r>   -17.5872     0.0000     0.0000 </r>
       <r>   -17.5107     0.0000     0.0000 </r>
       <r>   -17.4342     0.0000     0.0000 </r>
       <r>   -17.3577     0.0000     0.0000 </r>
       <r>   -17.2813     0.0000     0.0000 </r>
       <r>   -17.2048     0.3036     0.0232 </r>
       <r>   -17.1283     0.7680     0.0820 </r>
       <r>   -17.0518     0.7779     0.1415 </r>
       <r>   -16.9753     0.9712     0.2158 </r>
       <r>   -16.8988     0.8900     0.2838 </r>
       <r>   -16.8224     0.5627     0.3269 </r>
       <r>   -16.7459     1.1319     0.4134 </r>
       <r>   -16.6694     0.8630     0.4794 </r>
       <r>   -16.5929     0.9000     0.5483 </r>
       <r>   -16.5164     0.5722     0.5920 </r>
       <r>   -16.4399     1.4674     0.7043 </r>
       <r>   -16.3634     0.6173     0.7515 </r>
       <r>   -16.2870     0.3507     0.7783 </r>
       <r>   -16.2105     1.7053     0.9087 </r>
       <r>   -16.1340     0.6404     0.9577 </r>
       <r>   -16.0575     0.8779     1.0249 </r>
       <r>   -15.9810     0.7826     1.0847 </r>
       <r>   -15.9045     1.0616     1.1659 </r>
       <r>   -15.8280     1.2326     1.2602 </r>
       <r>   -15.7516     0.9400     1.3321 </r>
       <r>   -15.6751     0.5975     1.3778 </r>
       <r>   -15.5986     1.1132     1.4629 </r>
       <r>   -15.5221     1.0009     1.5395 </r>
       <r>   -15.4456     1.3866     1.6455 </r>
       <r>   -15.3691     0.8522     1.7107 </r>
       <r>   -15.2927     0.9658     1.7846 </r>
       <r>   -15.2162     1.3291     1.8862 </r>
       <r>   -15.1397     0.3427     1.9125 </r>
       <r>   -15.0632     1.9879     2.0645 </r>
       <r>   -14.9867     1.4926     2.1787 </r>
       <r>   -14.9102     0.8961     2.2472 </r>
       <r>   -14.8337     1.5457     2.3654 </r>
       <r>   -14.7573     1.9572     2.5151 </r>
       <r>   -14.6808     1.1296     2.6015 </r>
       <r>   -14.6043     1.6093     2.7246 </r>
       <r>   -14.5278     1.9932     2.8771 </r>
       <r>   -14.4513     0.9045     2.9462 </r>
       <r>   -14.3748     0.9323     3.0175 </r>
       <r>   -14.2984     1.4630     3.1294 </r>
       <r>   -14.2219     0.9815     3.2045 </r>
       <r>   -14.1454     1.0725     3.2865 </r>
       <r>   -14.0689     2.1036     3.4474 </r>
       <r>   -13.9924     1.9108     3.5936 </r>
       <r>   -13.9159     0.4976     3.6316 </r>
       <r>   -13.8394     0.4064     3.6627 </r>
       <r>   -13.7630     1.1959     3.7542 </r>
       <r>   -13.6865     0.6180     3.8015 </r>
       <r>   -13.6100     1.2156     3.8944 </r>
       <r>   -13.5335     0.0521     3.8984 </r>
       <r>   -13.4570     0.3298     3.9236 </r>
       <r>   -13.3805     0.4936     3.9614 </r>
       <r>   -13.3040     0.0090     3.9621 </r>
       <r>   -13.2276     0.3293     3.9873 </r>
       <r>   -13.1511     0.1014     3.9950 </r>
       <r>   -13.0746     0.0652     4.0000 </r>
       <r>   -12.9981     0.0499     4.0038 </r>
       <r>   -12.9216     0.1162     4.0127 </r>
       <r>   -12.8451     0.3261     4.0377 </r>
       <r>   -12.7687     0.0058     4.0381 </r>
       <r>   -12.6922     0.2265     4.0554 </r>
       <r>   -12.6157     0.3957     4.0857 </r>
       <r>   -12.5392     0.2512     4.1049 </r>
       <r>   -12.4627     1.2104     4.1975 </r>
       <r>   -12.3862     0.5753     4.2415 </r>
       <r>   -12.3097     0.3498     4.2682 </r>
       <r>   -12.2333     0.9779     4.3430 </r>
       <r>   -12.1568     0.5266     4.3833 </r>
       <r>   -12.0803     1.8563     4.5253 </r>
       <r>   -12.0038     2.0245     4.6801 </r>
       <r>   -11.9273     0.6541     4.7302 </r>
       <r>   -11.8508     1.0902     4.8136 </r>
       <r>   -11.7744     1.0026     4.8902 </r>
       <r>   -11.6979     1.2339     4.9846 </r>
       <r>   -11.6214     1.1926     5.0758 </r>
       <r>   -11.5449     1.4026     5.1831 </r>
       <r>   -11.4684     3.7576     5.4705 </r>
       <r>   -11.3919     2.8197     5.6862 </r>
       <r>   -11.3154     1.2300     5.7802 </r>
       <r>   -11.2390     1.4650     5.8923 </r>
       <r>   -11.1625     1.3413     5.9949 </r>
       <r>   -11.0860     0.3373     6.0207 </r>
       <r>   -11.0095     1.9387     6.1690 </r>
       <r>   -10.9330     0.5286     6.2094 </r>
       <r>   -10.8565     1.1273     6.2956 </r>
       <r>   -10.7800     1.3279     6.3972 </r>
       <r>   -10.7036     1.0816     6.4799 </r>
       <r>   -10.6271     0.0607     6.4845 </r>
       <r>   -10.5506     0.9701     6.5587 </r>
       <r>   -10.4741     0.5929     6.6041 </r>
       <r>   -10.3976     1.3631     6.7083 </r>
       <r>   -10.3211     0.3540     6.7354 </r>
       <r>   -10.2447     0.8081     6.7972 </r>
       <r>   -10.1682     0.5581     6.8399 </r>
       <r>   -10.0917     0.7938     6.9006 </r>
       <r>   -10.0152     1.3037     7.0003 </r>
       <r>    -9.9387     0.0825     7.0067 </r>
       <r>    -9.8622     0.2963     7.0293 </r>
       <r>    -9.7857     0.3231     7.0540 </r>
       <r>    -9.7093     0.6906     7.1069 </r>
       <r>    -9.6328     1.3518     7.2102 </r>
       <r>    -9.5563     0.6704     7.2615 </r>
       <r>    -9.4798     0.2747     7.2825 </r>
       <r>    -9.4033     0.0001     7.2825 </r>
       <r>    -9.3268     0.2062     7.2983 </r>
       <r>    -9.2504     1.3231     7.3995 </r>
       <r>    -9.1739     0.6289     7.4476 </r>
       <r>    -9.0974     0.0062     7.4481 </r>
       <r>    -9.0209     0.3257     7.4730 </r>
       <r>    -8.9444     0.1942     7.4879 </r>
       <r>    -8.8679     0.7230     7.5432 </r>
       <r>    -8.7914     1.2297     7.6372 </r>
       <r>    -8.7150     0.1775     7.6508 </r>
       <r>    -8.6385     0.0019     7.6509 </r>
       <r>    -8.5620     0.3295     7.6761 </r>
       <r>    -8.4855     0.0017     7.6763 </r>
       <r>    -8.4090     0.6192     7.7236 </r>
       <r>    -8.3325     0.9576     7.7969 </r>
       <r>    -8.2560     0.2485     7.8159 </r>
       <r>    -8.1796     0.4224     7.8482 </r>
       <r>    -8.1031     1.2213     7.9416 </r>
       <r>    -8.0266     2.8875     8.1624 </r>
       <r>    -7.9501     1.5566     8.2815 </r>
       <r>    -7.8736     1.6575     8.4083 </r>
       <r>    -7.7971     2.7147     8.6159 </r>
       <r>    -7.7207     2.4040     8.7998 </r>
       <r>    -7.6442     1.7786     8.9358 </r>
       <r>    -7.5677     1.4162     9.0441 </r>
       <r>    -7.4912     2.2109     9.2132 </r>
       <r>    -7.4147     2.1980     9.3813 </r>
       <r>    -7.3382     2.0002     9.5343 </r>
       <r>    -7.2617     3.1651     9.7764 </r>
       <r>    -7.1853     3.7179    10.0608 </r>
       <r>    -7.1088     3.0044    10.2906 </r>
       <r>    -7.0323     3.5192    10.5597 </r>
       <r>    -6.9558     0.8014    10.6210 </r>
       <r>    -6.8793     1.8093    10.7594 </r>
       <r>    -6.8028     1.0677    10.8411 </r>
       <r>    -6.7264     1.4914    10.9551 </r>
       <r>    -6.6499     2.4293    11.1409 </r>
       <r>    -6.5734     1.2009    11.2328 </r>
       <r>    -6.4969     1.0272    11.3114 </r>
       <r>    -6.4204     2.7784    11.5239 </r>
       <r>    -6.3439     0.7936    11.5846 </r>
       <r>    -6.2674     1.1335    11.6713 </r>
       <r>    -6.1910     2.1264    11.8339 </r>
       <r>    -6.1145     2.0777    11.9928 </r>
       <r>    -6.0380     1.4425    12.1031 </r>
       <r>    -5.9615     1.9800    12.2546 </r>
       <r>    -5.8850     1.1624    12.3435 </r>
       <r>    -5.8085     1.6405    12.4689 </r>
       <r>    -5.7320     2.8357    12.6858 </r>
       <r>    -5.6556     3.0007    12.9153 </r>
       <r>    -5.5791     3.7390    13.2013 </r>
       <r>    -5.5026     3.6249    13.4786 </r>
       <r>    -5.4261     3.6350    13.7566 </r>
       <r>    -5.3496     4.1827    14.0765 </r>
       <r>    -5.2731     2.6439    14.2787 </r>
       <r>    -5.1967     3.3019    14.5313 </r>
       <r>    -5.1202     3.3730    14.7892 </r>
       <r>    -5.0437     1.7861    14.9259 </r>
       <r>    -4.9672     2.4980    15.1169 </r>
       <r>    -4.8907     1.4757    15.2298 </r>
       <r>    -4.8142     2.0396    15.3858 </r>
       <r>    -4.7377     1.0972    15.4697 </r>
       <r>    -4.6613     0.5011    15.5080 </r>
       <r>    -4.5848     1.9276    15.6555 </r>
       <r>    -4.5083     1.5261    15.7722 </r>
       <r>    -4.4318     0.9036    15.8413 </r>
       <r>    -4.3553     0.7187    15.8963 </r>
       <r>    -4.2788     0.7657    15.9548 </r>
       <r>    -4.2024     1.9468    16.1037 </r>
       <r>    -4.1259     3.1458    16.3444 </r>
       <r>    -4.0494     2.0205    16.4989 </r>
       <r>    -3.9729     2.9000    16.7207 </r>
       <r>    -3.8964     2.4493    16.9080 </r>
       <r>    -3.8199     2.9565    17.1342 </r>
       <r>    -3.7434     5.4900    17.5541 </r>
       <r>    -3.6670     3.1357    17.7939 </r>
       <r>    -3.5905     2.8453    18.0115 </r>
       <r>    -3.5140     3.3766    18.2698 </r>
       <r>    -3.4375     3.4829    18.5362 </r>
       <r>    -3.3610     3.2193    18.7824 </r>
       <r>    -3.2845     3.6904    19.0646 </r>
       <r>    -3.2080     3.1053    19.3022 </r>
       <r>    -3.1316     1.1953    19.3936 </r>
       <r>    -3.0551     0.5944    19.4390 </r>
       <r>    -2.9786     0.4611    19.4743 </r>
       <r>    -2.9021     2.0016    19.6274 </r>
       <r>    -2.8256     1.8746    19.7708 </r>
       <r>    -2.7491     0.2779    19.7920 </r>
       <r>    -2.6727     0.3135    19.8160 </r>
       <r>    -2.5962     0.2702    19.8367 </r>
       <r>    -2.5197     0.3265    19.8616 </r>
       <r>    -2.4432     1.2176    19.9548 </r>
       <r>    -2.3667     0.0549    19.9590 </r>
       <r>    -2.2902     0.3035    19.9822 </r>
       <r>    -2.2137     0.2328    20.0000 </r>
       <r>    -2.1373     0.0000    20.0000 </r>
       <r>    -2.0608     0.0000    20.0000 </r>
       <r>    -1.9843     0.0000    20.0000 </r>
       <r>    -1.9078     0.0000    20.0000 </r>
       <r>    -1.8313     0.0000    20.0000 </r>
       <r>    -1.7548     0.0000    20.0000 </r>
       <r>    -1.6784     0.0000    20.0000 </r>
       <r>    -1.6019     0.0000    20.0000 </r>
       <r>    -1.5254     0.0000    20.0000 </r>
       <r>    -1.4489     0.0000    20.0000 </r>
       <r>    -1.3724     0.0692    20.0053 </r>
       <r>    -1.2959     0.1955    20.0203 </r>
       <r>    -1.2194     0.1544    20.0321 </r>
       <r>    -1.1430     0.6861    20.0845 </r>
       <r>    -1.0665     1.1324    20.1711 </r>
       <r>    -0.9900     2.2453    20.3429 </r>
       <r>    -0.9135     1.3862    20.4489 </r>
       <r>    -0.8370     1.8145    20.5877 </r>
       <r>    -0.7605     1.8063    20.7258 </r>
       <r>    -0.6840     2.3501    20.9056 </r>
       <r>    -0.6076     1.6582    21.0324 </r>
       <r>    -0.5311     1.4599    21.1441 </r>
       <r>    -0.4546     2.4927    21.3347 </r>
       <r>    -0.3781     3.0649    21.5691 </r>
       <r>    -0.3016     2.6058    21.7684 </r>
       <r>    -0.2251     2.4079    21.9526 </r>
       <r>    -0.1487     1.9939    22.1051 </r>
       <r>    -0.0722     2.4882    22.2954 </r>
       <r>     0.0043     3.8250    22.5880 </r>
       <r>     0.0808     4.0129    22.8949 </r>
       <r>     0.1573     2.7199    23.1029 </r>
       <r>     0.2338     2.1715    23.2690 </r>
       <r>     0.3103     4.3308    23.6003 </r>
       <r>     0.3867     2.9148    23.8232 </r>
       <r>     0.4632     7.0408    24.3617 </r>
       <r>     0.5397     3.9256    24.6620 </r>
       <r>     0.6162     3.5816    24.9359 </r>
       <r>     0.6927     3.6064    25.2117 </r>
       <r>     0.7692     3.1675    25.4540 </r>
       <r>     0.8456     3.7798    25.7431 </r>
       <r>     0.9221     3.8769    26.0396 </r>
       <r>     0.9986     2.7025    26.2463 </r>
       <r>     1.0751     2.8829    26.4668 </r>
       <r>     1.1516     2.0183    26.6212 </r>
       <r>     1.2281     4.1592    26.9393 </r>
       <r>     1.3046     2.6248    27.1400 </r>
       <r>     1.3810     1.4813    27.2533 </r>
       <r>     1.4575     3.0409    27.4859 </r>
       <r>     1.5340     2.3449    27.6653 </r>
       <r>     1.6105     1.9402    27.8137 </r>
       <r>     1.6870     2.3752    27.9953 </r>
       <r>     1.7635     1.4725    28.1080 </r>
       <r>     1.8400     3.1312    28.3474 </r>
       <r>     1.9164     2.9596    28.5738 </r>
       <r>     1.9929     2.0834    28.7332 </r>
       <r>     2.0694     1.4403    28.8433 </r>
       <r>     2.1459     2.0880    29.0030 </r>
       <r>     2.2224     2.9061    29.2253 </r>
       <r>     2.2989     2.5478    29.4202 </r>
       <r>     2.3753     3.3718    29.6781 </r>
       <r>     2.4518     2.2252    29.8483 </r>
       <r>     2.5283     2.3267    30.0262 </r>
       <r>     2.6048     3.5836    30.3003 </r>
       <r>     2.6813     3.0454    30.5332 </r>
       <r>     2.7578     3.2155    30.7792 </r>
       <r>     2.8343     2.5726    30.9759 </r>
       <r>     2.9107     1.8087    31.1143 </r>
       <r>     2.9872     1.5471    31.2326 </r>
       <r>     3.0637     2.0099    31.3863 </r>
       <r>     3.1402     1.8463    31.5275 </r>
       <r>     3.2167     0.9232    31.5981 </r>
       <r>     3.2932     2.0869    31.7578 </r>
       <r>     3.3696     1.2697    31.8549 </r>
       <r>     3.4461     0.9780    31.9297 </r>
       <r>     3.5226     0.5844    31.9744 </r>
       <r>     3.5991     0.0111    31.9752 </r>
       <r>     3.6756     0.3238    32.0000 </r>
       <r>     3.7521     0.0001    32.0000 </r>
       <r>     3.8286     0.0000    32.0000 </r>
       <r>     3.9050     0.0000    32.0000 </r>
       <r>     3.9815     0.0000    32.0000 </r>
       <r>     4.0580     0.0000    32.0000 </r>
       <r>     4.1345     0.0000    32.0000 </r>
       <r>     4.2110     0.0000    32.0000 </r>
       <r>     4.2875     0.0000    32.0000 </r>
       <r>     4.3639     0.0000    32.0000 </r>
       <r>     4.4404     0.0000    32.0000 </r>
       <r>     4.5169     0.0000    32.0000 </r>
       <r>     4.5934     0.0000    32.0000 </r>
       <r>     4.6699     0.0000    32.0000 </r>
      </set>
     </set>
    </array>
   </total>
  </dos>
 </calculation>
 <structure name="finalpos" >
  <crystal>
   <varray name="basis" >
    <v>       3.29720400       0.00000000       0.00000000 </v>
    <v>       0.00000000       4.62335100      -0.00005300 </v>
    <v>       0.00000000       0.00000000      20.02439000 </v>
   </varray>
   <i name="volume">    305.25443258 </i>
   <varray name="rec_basis" >
    <v>       0.30328727       0.00000000       0.00000000 </v>
    <v>       0.00000000       0.21629333       0.00000000 </v>
    <v>       0.00000000       0.00000057       0.04993910 </v>
   </varray>
  </crystal>
  <varray name="positions" >
   <v>       0.50000000       0.91077300       0.55252100 </v>
   <v>       0.50000000       0.08922700       0.44747900 </v>
   <v>       0.00000000       0.41076900       0.44747900 </v>
   <v>       0.00000000       0.58923100       0.55252100 </v>
  </varray>
 </structure>
</modeling>
