<?xml version="1.0" encoding="ISO-8859-1"?>
<modeling>
 <generator>
  <i name="program" type="string">vasp </i>
  <i name="version" type="string">5.4.1  </i>
  <i name="subversion" type="string">24Jun15 (build Nov 20 2020 10:29:34) complex                          parallel </i>
  <i name="platform" type="string">IFC91_ompi </i>
  <i name="date" type="string">2021 09 09 </i>
  <i name="time" type="string">15:24:37 </i>
 </generator>
 <incar>
  <i type="string" name="PREC">a</i>
  <i type="string" name="ALGO"> Normal</i>
  <i type="int" name="ISPIN">     1</i>
  <i type="int" name="ICHARG">     2</i>
  <i type="int" name="NELM">   250</i>
  <i type="int" name="NELMDL">    -5</i>
  <i type="int" name="NELMIN">     6</i>
  <i type="int" name="IBRION">     2</i>
  <i name="EDIFF">      0.00001000</i>
  <i name="EDIFFG">     -0.01000000</i>
  <i type="int" name="NSW">   200</i>
  <i type="int" name="ISIF">     2</i>
  <i name="ENCUT">    520.00000000</i>
  <i name="POTIM">      0.30000000</i>
  <i type="logical" name="LREAL"> F  </i>
  <i type="int" name="ISMEAR">     0</i>
  <i name="SIGMA">      0.02000000</i>
  <i type="logical" name="LWAVE"> F  </i>
  <i type="logical" name="LCHARG"> F  </i>
  <i type="logical" name="LAECHG"> F  </i>
  <v type="int" name="KPOINT_BSE">    -1     0     0     0</v>
  <i type="int" name="NELM">   250</i>
 </incar>
 <kpoints>
  <generation param="Gamma">
   <v type="int" name="divisions">      22       15        1 </v>
   <v name="usershift">      0.00000000       0.00000000       0.00000000 </v>
   <v name="genvec1">      0.04545455       0.00000000       0.00000000 </v>
   <v name="genvec2">      0.00000000       0.06666667       0.00000000 </v>
   <v name="genvec3">      0.00000000       0.00000000       1.00000000 </v>
   <v name="shift">      0.00000000       0.00000000       0.00000000 </v>
  </generation>
  <varray name="kpointlist" >
   <v>       0.00000000       0.00000000       0.00000000 </v>
   <v>       0.04545455       0.00000000       0.00000000 </v>
   <v>       0.09090909       0.00000000       0.00000000 </v>
   <v>       0.13636364       0.00000000       0.00000000 </v>
   <v>       0.18181818       0.00000000       0.00000000 </v>
   <v>       0.22727273       0.00000000       0.00000000 </v>
   <v>       0.27272727       0.00000000       0.00000000 </v>
   <v>       0.31818182       0.00000000       0.00000000 </v>
   <v>       0.36363636       0.00000000       0.00000000 </v>
   <v>       0.40909091       0.00000000       0.00000000 </v>
   <v>       0.45454545       0.00000000       0.00000000 </v>
   <v>       0.50000000       0.00000000       0.00000000 </v>
   <v>       0.00000000       0.06666667       0.00000000 </v>
   <v>       0.04545455       0.06666667       0.00000000 </v>
   <v>       0.09090909       0.06666667       0.00000000 </v>
   <v>       0.13636364       0.06666667       0.00000000 </v>
   <v>       0.18181818       0.06666667       0.00000000 </v>
   <v>       0.22727273       0.06666667       0.00000000 </v>
   <v>       0.27272727       0.06666667       0.00000000 </v>
   <v>       0.31818182       0.06666667       0.00000000 </v>
   <v>       0.36363636       0.06666667       0.00000000 </v>
   <v>       0.40909091       0.06666667       0.00000000 </v>
   <v>       0.45454545       0.06666667       0.00000000 </v>
   <v>       0.50000000       0.06666667       0.00000000 </v>
   <v>      -0.45454545       0.06666667       0.00000000 </v>
   <v>      -0.40909091       0.06666667       0.00000000 </v>
   <v>      -0.36363636       0.06666667       0.00000000 </v>
   <v>      -0.31818182       0.06666667       0.00000000 </v>
   <v>      -0.27272727       0.06666667       0.00000000 </v>
   <v>      -0.22727273       0.06666667       0.00000000 </v>
   <v>      -0.18181818       0.06666667       0.00000000 </v>
   <v>      -0.13636364       0.06666667       0.00000000 </v>
   <v>      -0.09090909       0.06666667       0.00000000 </v>
   <v>      -0.04545455       0.06666667       0.00000000 </v>
   <v>       0.00000000       0.13333333       0.00000000 </v>
   <v>       0.04545455       0.13333333       0.00000000 </v>
   <v>       0.09090909       0.13333333       0.00000000 </v>
   <v>       0.13636364       0.13333333       0.00000000 </v>
   <v>       0.18181818       0.13333333       0.00000000 </v>
   <v>       0.22727273       0.13333333       0.00000000 </v>
   <v>       0.27272727       0.13333333       0.00000000 </v>
   <v>       0.31818182       0.13333333       0.00000000 </v>
   <v>       0.36363636       0.13333333       0.00000000 </v>
   <v>       0.40909091       0.13333333       0.00000000 </v>
   <v>       0.45454545       0.13333333       0.00000000 </v>
   <v>       0.50000000       0.13333333       0.00000000 </v>
   <v>      -0.45454545       0.13333333       0.00000000 </v>
   <v>      -0.40909091       0.13333333       0.00000000 </v>
   <v>      -0.36363636       0.13333333       0.00000000 </v>
   <v>      -0.31818182       0.13333333       0.00000000 </v>
   <v>      -0.27272727       0.13333333       0.00000000 </v>
   <v>      -0.22727273       0.13333333       0.00000000 </v>
   <v>      -0.18181818       0.13333333       0.00000000 </v>
   <v>      -0.13636364       0.13333333       0.00000000 </v>
   <v>      -0.09090909       0.13333333       0.00000000 </v>
   <v>      -0.04545455       0.13333333       0.00000000 </v>
   <v>       0.00000000       0.20000000       0.00000000 </v>
   <v>       0.04545455       0.20000000       0.00000000 </v>
   <v>       0.09090909       0.20000000       0.00000000 </v>
   <v>       0.13636364       0.20000000       0.00000000 </v>
   <v>       0.18181818       0.20000000       0.00000000 </v>
   <v>       0.22727273       0.20000000       0.00000000 </v>
   <v>       0.27272727       0.20000000       0.00000000 </v>
   <v>       0.31818182       0.20000000       0.00000000 </v>
   <v>       0.36363636       0.20000000       0.00000000 </v>
   <v>       0.40909091       0.20000000       0.00000000 </v>
   <v>       0.45454545       0.20000000       0.00000000 </v>
   <v>       0.50000000       0.20000000       0.00000000 </v>
   <v>      -0.45454545       0.20000000       0.00000000 </v>
   <v>      -0.40909091       0.20000000       0.00000000 </v>
   <v>      -0.36363636       0.20000000       0.00000000 </v>
   <v>      -0.31818182       0.20000000       0.00000000 </v>
   <v>      -0.27272727       0.20000000       0.00000000 </v>
   <v>      -0.22727273       0.20000000       0.00000000 </v>
   <v>      -0.18181818       0.20000000       0.00000000 </v>
   <v>      -0.13636364       0.20000000       0.00000000 </v>
   <v>      -0.09090909       0.20000000       0.00000000 </v>
   <v>      -0.04545455       0.20000000       0.00000000 </v>
   <v>       0.00000000       0.26666667       0.00000000 </v>
   <v>       0.04545455       0.26666667       0.00000000 </v>
   <v>       0.09090909       0.26666667       0.00000000 </v>
   <v>       0.13636364       0.26666667       0.00000000 </v>
   <v>       0.18181818       0.26666667       0.00000000 </v>
   <v>       0.22727273       0.26666667       0.00000000 </v>
   <v>       0.27272727       0.26666667       0.00000000 </v>
   <v>       0.31818182       0.26666667       0.00000000 </v>
   <v>       0.36363636       0.26666667       0.00000000 </v>
   <v>       0.40909091       0.26666667       0.00000000 </v>
   <v>       0.45454545       0.26666667       0.00000000 </v>
   <v>       0.50000000       0.26666667       0.00000000 </v>
   <v>      -0.45454545       0.26666667       0.00000000 </v>
   <v>      -0.40909091       0.26666667       0.00000000 </v>
   <v>      -0.36363636       0.26666667       0.00000000 </v>
   <v>      -0.31818182       0.26666667       0.00000000 </v>
   <v>      -0.27272727       0.26666667       0.00000000 </v>
   <v>      -0.22727273       0.26666667       0.00000000 </v>
   <v>      -0.18181818       0.26666667       0.00000000 </v>
   <v>      -0.13636364       0.26666667       0.00000000 </v>
   <v>      -0.09090909       0.26666667       0.00000000 </v>
   <v>      -0.04545455       0.26666667       0.00000000 </v>
   <v>       0.00000000       0.33333333       0.00000000 </v>
   <v>       0.04545455       0.33333333       0.00000000 </v>
   <v>       0.09090909       0.33333333       0.00000000 </v>
   <v>       0.13636364       0.33333333       0.00000000 </v>
   <v>       0.18181818       0.33333333       0.00000000 </v>
   <v>       0.22727273       0.33333333       0.00000000 </v>
   <v>       0.27272727       0.33333333       0.00000000 </v>
   <v>       0.31818182       0.33333333       0.00000000 </v>
   <v>       0.36363636       0.33333333       0.00000000 </v>
   <v>       0.40909091       0.33333333       0.00000000 </v>
   <v>       0.45454545       0.33333333       0.00000000 </v>
   <v>       0.50000000       0.33333333       0.00000000 </v>
   <v>      -0.45454545       0.33333333       0.00000000 </v>
   <v>      -0.40909091       0.33333333       0.00000000 </v>
   <v>      -0.36363636       0.33333333       0.00000000 </v>
   <v>      -0.31818182       0.33333333       0.00000000 </v>
   <v>      -0.27272727       0.33333333       0.00000000 </v>
   <v>      -0.22727273       0.33333333       0.00000000 </v>
   <v>      -0.18181818       0.33333333       0.00000000 </v>
   <v>      -0.13636364       0.33333333       0.00000000 </v>
   <v>      -0.09090909       0.33333333       0.00000000 </v>
   <v>      -0.04545455       0.33333333       0.00000000 </v>
   <v>       0.00000000       0.40000000       0.00000000 </v>
   <v>       0.04545455       0.40000000       0.00000000 </v>
   <v>       0.09090909       0.40000000       0.00000000 </v>
   <v>       0.13636364       0.40000000       0.00000000 </v>
   <v>       0.18181818       0.40000000       0.00000000 </v>
   <v>       0.22727273       0.40000000       0.00000000 </v>
   <v>       0.27272727       0.40000000       0.00000000 </v>
   <v>       0.31818182       0.40000000       0.00000000 </v>
   <v>       0.36363636       0.40000000       0.00000000 </v>
   <v>       0.40909091       0.40000000       0.00000000 </v>
   <v>       0.45454545       0.40000000       0.00000000 </v>
   <v>       0.50000000       0.40000000       0.00000000 </v>
   <v>      -0.45454545       0.40000000       0.00000000 </v>
   <v>      -0.40909091       0.40000000       0.00000000 </v>
   <v>      -0.36363636       0.40000000       0.00000000 </v>
   <v>      -0.31818182       0.40000000       0.00000000 </v>
   <v>      -0.27272727       0.40000000       0.00000000 </v>
   <v>      -0.22727273       0.40000000       0.00000000 </v>
   <v>      -0.18181818       0.40000000       0.00000000 </v>
   <v>      -0.13636364       0.40000000       0.00000000 </v>
   <v>      -0.09090909       0.40000000       0.00000000 </v>
   <v>      -0.04545455       0.40000000       0.00000000 </v>
   <v>       0.00000000       0.46666667       0.00000000 </v>
   <v>       0.04545455       0.46666667       0.00000000 </v>
   <v>       0.09090909       0.46666667       0.00000000 </v>
   <v>       0.13636364       0.46666667       0.00000000 </v>
   <v>       0.18181818       0.46666667       0.00000000 </v>
   <v>       0.22727273       0.46666667       0.00000000 </v>
   <v>       0.27272727       0.46666667       0.00000000 </v>
   <v>       0.31818182       0.46666667       0.00000000 </v>
   <v>       0.36363636       0.46666667       0.00000000 </v>
   <v>       0.40909091       0.46666667       0.00000000 </v>
   <v>       0.45454545       0.46666667       0.00000000 </v>
   <v>       0.50000000       0.46666667       0.00000000 </v>
   <v>      -0.45454545       0.46666667       0.00000000 </v>
   <v>      -0.40909091       0.46666667       0.00000000 </v>
   <v>      -0.36363636       0.46666667       0.00000000 </v>
   <v>      -0.31818182       0.46666667       0.00000000 </v>
   <v>      -0.27272727       0.46666667       0.00000000 </v>
   <v>      -0.22727273       0.46666667       0.00000000 </v>
   <v>      -0.18181818       0.46666667       0.00000000 </v>
   <v>      -0.13636364       0.46666667       0.00000000 </v>
   <v>      -0.09090909       0.46666667       0.00000000 </v>
   <v>      -0.04545455       0.46666667       0.00000000 </v>
  </varray>
  <varray name="weights" >
   <v>       0.00303030 </v>
   <v>       0.00606061 </v>
   <v>       0.00606061 </v>
   <v>       0.00606061 </v>
   <v>       0.00606061 </v>
   <v>       0.00606061 </v>
   <v>       0.00606061 </v>
   <v>       0.00606061 </v>
   <v>       0.00606061 </v>
   <v>       0.00606061 </v>
   <v>       0.00606061 </v>
   <v>       0.00303030 </v>
   <v>       0.00606061 </v>
   <v>       0.00606061 </v>
   <v>       0.00606061 </v>
   <v>       0.00606061 </v>
   <v>       0.00606061 </v>
   <v>       0.00606061 </v>
   <v>       0.00606061 </v>
   <v>       0.00606061 </v>
   <v>       0.00606061 </v>
   <v>       0.00606061 </v>
   <v>       0.00606061 </v>
   <v>       0.00606061 </v>
   <v>       0.00606061 </v>
   <v>       0.00606061 </v>
   <v>       0.00606061 </v>
   <v>       0.00606061 </v>
   <v>       0.00606061 </v>
   <v>       0.00606061 </v>
   <v>       0.00606061 </v>
   <v>       0.00606061 </v>
   <v>       0.00606061 </v>
   <v>       0.00606061 </v>
   <v>       0.00606061 </v>
   <v>       0.00606061 </v>
   <v>       0.00606061 </v>
   <v>       0.00606061 </v>
   <v>       0.00606061 </v>
   <v>       0.00606061 </v>
   <v>       0.00606061 </v>
   <v>       0.00606061 </v>
   <v>       0.00606061 </v>
   <v>       0.00606061 </v>
   <v>       0.00606061 </v>
   <v>       0.00606061 </v>
   <v>       0.00606061 </v>
   <v>       0.00606061 </v>
   <v>       0.00606061 </v>
   <v>       0.00606061 </v>
   <v>       0.00606061 </v>
   <v>       0.00606061 </v>
   <v>       0.00606061 </v>
   <v>       0.00606061 </v>
   <v>       0.00606061 </v>
   <v>       0.00606061 </v>
   <v>       0.00606061 </v>
   <v>       0.00606061 </v>
   <v>       0.00606061 </v>
   <v>       0.00606061 </v>
   <v>       0.00606061 </v>
   <v>       0.00606061 </v>
   <v>       0.00606061 </v>
   <v>       0.00606061 </v>
   <v>       0.00606061 </v>
   <v>       0.00606061 </v>
   <v>       0.00606061 </v>
   <v>       0.00606061 </v>
   <v>       0.00606061 </v>
   <v>       0.00606061 </v>
   <v>       0.00606061 </v>
   <v>       0.00606061 </v>
   <v>       0.00606061 </v>
   <v>       0.00606061 </v>
   <v>       0.00606061 </v>
   <v>       0.00606061 </v>
   <v>       0.00606061 </v>
   <v>       0.00606061 </v>
   <v>       0.00606061 </v>
   <v>       0.00606061 </v>
   <v>       0.00606061 </v>
   <v>       0.00606061 </v>
   <v>       0.00606061 </v>
   <v>       0.00606061 </v>
   <v>       0.00606061 </v>
   <v>       0.00606061 </v>
   <v>       0.00606061 </v>
   <v>       0.00606061 </v>
   <v>       0.00606061 </v>
   <v>       0.00606061 </v>
   <v>       0.00606061 </v>
   <v>       0.00606061 </v>
   <v>       0.00606061 </v>
   <v>       0.00606061 </v>
   <v>       0.00606061 </v>
   <v>       0.00606061 </v>
   <v>       0.00606061 </v>
   <v>       0.00606061 </v>
   <v>       0.00606061 </v>
   <v>       0.00606061 </v>
   <v>       0.00606061 </v>
   <v>       0.00606061 </v>
   <v>       0.00606061 </v>
   <v>       0.00606061 </v>
   <v>       0.00606061 </v>
   <v>       0.00606061 </v>
   <v>       0.00606061 </v>
   <v>       0.00606061 </v>
   <v>       0.00606061 </v>
   <v>       0.00606061 </v>
   <v>       0.00606061 </v>
   <v>       0.00606061 </v>
   <v>       0.00606061 </v>
   <v>       0.00606061 </v>
   <v>       0.00606061 </v>
   <v>       0.00606061 </v>
   <v>       0.00606061 </v>
   <v>       0.00606061 </v>
   <v>       0.00606061 </v>
   <v>       0.00606061 </v>
   <v>       0.00606061 </v>
   <v>       0.00606061 </v>
   <v>       0.00606061 </v>
   <v>       0.00606061 </v>
   <v>       0.00606061 </v>
   <v>       0.00606061 </v>
   <v>       0.00606061 </v>
   <v>       0.00606061 </v>
   <v>       0.00606061 </v>
   <v>       0.00606061 </v>
   <v>       0.00606061 </v>
   <v>       0.00606061 </v>
   <v>       0.00606061 </v>
   <v>       0.00606061 </v>
   <v>       0.00606061 </v>
   <v>       0.00606061 </v>
   <v>       0.00606061 </v>
   <v>       0.00606061 </v>
   <v>       0.00606061 </v>
   <v>       0.00606061 </v>
   <v>       0.00606061 </v>
   <v>       0.00606061 </v>
   <v>       0.00606061 </v>
   <v>       0.00606061 </v>
   <v>       0.00606061 </v>
   <v>       0.00606061 </v>
   <v>       0.00606061 </v>
   <v>       0.00606061 </v>
   <v>       0.00606061 </v>
   <v>       0.00606061 </v>
   <v>       0.00606061 </v>
   <v>       0.00606061 </v>
   <v>       0.00606061 </v>
   <v>       0.00606061 </v>
   <v>       0.00606061 </v>
   <v>       0.00606061 </v>
   <v>       0.00606061 </v>
   <v>       0.00606061 </v>
   <v>       0.00606061 </v>
   <v>       0.00606061 </v>
   <v>       0.00606061 </v>
   <v>       0.00606061 </v>
   <v>       0.00606061 </v>
   <v>       0.00606061 </v>
   <v>       0.00606061 </v>
   <v>       0.00606061 </v>
  </varray>
 </kpoints>
 <parameters>
  <separator name="general" >
   <i type="string" name="SYSTEM">unknown system</i>
   <i type="logical" name="LCOMPAT"> F  </i>
  </separator>
  <separator name="electronic" >
   <i type="string" name="PREC">a</i>
   <i name="ENMAX">    520.00000000</i>
   <i name="ENAUG">    342.92400000</i>
   <i name="EDIFF">      0.00001000</i>
   <i type="int" name="IALGO">    38</i>
   <i type="int" name="IWAVPR">    11</i>
   <i type="int" name="NBANDS">    16</i>
   <i name="NELECT">     20.00000000</i>
   <i type="int" name="TURBO">     0</i>
   <i type="int" name="IRESTART">     0</i>
   <i type="int" name="NREBOOT">     0</i>
   <i type="int" name="NMIN">     0</i>
   <i name="EREF">      0.00000000</i>
   <separator name="electronic smearing" >
    <i type="int" name="ISMEAR">     0</i>
    <i name="SIGMA">      0.02000000</i>
    <i name="KSPACING">      0.50000000</i>
    <i type="logical" name="KGAMMA"> T  </i>
   </separator>
   <separator name="electronic projectors" >
    <i type="logical" name="LREAL"> F  </i>
    <v name="ROPT">      0.00000000</v>
    <i type="int" name="LMAXPAW">  -100</i>
    <i type="int" name="LMAXMIX">     2</i>
    <i type="logical" name="NLSPLINE"> F  </i>
   </separator>
   <separator name="electronic startup" >
    <i type="int" name="ISTART">     0</i>
    <i type="int" name="ICHARG">     2</i>
    <i type="int" name="INIWAV">     1</i>
   </separator>
   <separator name="electronic spin" >
    <i type="int" name="ISPIN">     1</i>
    <i type="logical" name="LNONCOLLINEAR"> F  </i>
    <v name="MAGMOM">      1.00000000      1.00000000      1.00000000      1.00000000</v>
    <i name="NUPDOWN">     -1.00000000</i>
    <i type="logical" name="LSORBIT"> F  </i>
    <v name="SAXIS">      0.00000000      0.00000000      1.00000000</v>
    <i type="logical" name="LSPIRAL"> F  </i>
    <v name="QSPIRAL">      0.00000000      0.00000000      0.00000000</v>
    <i type="logical" name="LZEROZ"> F  </i>
   </separator>
   <separator name="electronic exchange-correlation" >
    <i type="logical" name="LASPH"> F  </i>
    <i type="logical" name="LMETAGGA"> F  </i>
   </separator>
   <separator name="electronic convergence" >
    <i type="int" name="NELM">   250</i>
    <i type="int" name="NELMDL">    -5</i>
    <i type="int" name="NELMIN">     6</i>
    <i name="ENINI">    520.00000000</i>
    <separator name="electronic convergence detail" >
     <i type="logical" name="LDIAG"> T  </i>
     <i type="logical" name="LSUBROT"> F  </i>
     <i name="WEIMIN">      0.00100000</i>
     <i name="EBREAK">      0.00000016</i>
     <i name="DEPER">      0.30000000</i>
     <i type="int" name="NRMM">     4</i>
     <i name="TIME">      0.40000000</i>
    </separator>
   </separator>
   <separator name="electronic mixer" >
    <i name="AMIX">      0.40000000</i>
    <i name="BMIX">      1.00000000</i>
    <i name="AMIN">      0.10000000</i>
    <i name="AMIX_MAG">      1.60000000</i>
    <i name="BMIX_MAG">      1.00000000</i>
    <separator name="electronic mixer details" >
     <i type="int" name="IMIX">     4</i>
     <i type="logical" name="MIXFIRST"> F  </i>
     <i type="int" name="MAXMIX">   -45</i>
     <i name="WC">    100.00000000</i>
     <i type="int" name="INIMIX">     1</i>
     <i type="int" name="MIXPRE">     1</i>
     <i type="int" name="MREMOVE">     5</i>
    </separator>
   </separator>
   <separator name="electronic dipolcorrection" >
    <i type="logical" name="LDIPOL"> F  </i>
    <i type="logical" name="LMONO"> F  </i>
    <i type="int" name="IDIPOL">     0</i>
    <i name="EPSILON">      1.00000000</i>
    <v name="DIPOL">   -100.00000000   -100.00000000   -100.00000000</v>
    <i name="EFIELD">      0.00000000</i>
   </separator>
  </separator>
  <separator name="grids" >
   <i type="int" name="NGX">    28</i>
   <i type="int" name="NGY">    36</i>
   <i type="int" name="NGZ">   150</i>
   <i type="int" name="NGXF">    56</i>
   <i type="int" name="NGYF">    72</i>
   <i type="int" name="NGZF">   300</i>
   <i type="logical" name="ADDGRID"> F  </i>
  </separator>
  <separator name="ionic" >
   <i type="int" name="NSW">   200</i>
   <i type="int" name="IBRION">     2</i>
   <i type="int" name="ISIF">     2</i>
   <i name="PSTRESS">      0.00000000</i>
   <i name="EDIFFG">     -0.01000000</i>
   <i type="int" name="NFREE">     1</i>
   <i name="POTIM">      0.30000000</i>
   <i name="SMASS">     -3.00000000</i>
   <i name="SCALEE">      1.00000000</i>
  </separator>
  <separator name="ionic md" >
   <i name="TEBEG">      0.00010000</i>
   <i name="TEEND">      0.00010000</i>
   <i type="int" name="NBLOCK">     1</i>
   <i type="int" name="KBLOCK">   200</i>
   <i type="int" name="NPACO">   256</i>
   <i name="APACO">     16.00000000</i>
  </separator>
  <separator name="symmetry" >
   <i type="int" name="ISYM">     2</i>
   <i name="SYMPREC">      0.00001000</i>
  </separator>
  <separator name="dos" >
   <i type="logical" name="LORBIT"> F  </i>
   <v name="RWIGS">     -1.00000000</v>
   <i type="int" name="NEDOS">   301</i>
   <i name="EMIN">     10.00000000</i>
   <i name="EMAX">    -10.00000000</i>
   <i name="EFERMI">      0.00000000</i>
  </separator>
  <separator name="writing" >
   <i type="int" name="NWRITE">     2</i>
   <i type="logical" name="LWAVE"> F  </i>
   <i type="logical" name="LCHARG"> F  </i>
   <i type="logical" name="LPARD"> F  </i>
   <i type="logical" name="LVTOT"> F  </i>
   <i type="logical" name="LVHAR"> F  </i>
   <i type="logical" name="LELF"> F  </i>
   <i type="logical" name="LOPTICS"> F  </i>
   <v name="STM">      0.00000000      0.00000000      0.00000000      0.00000000      0.00000000      0.00000000      0.00000000</v>
  </separator>
  <separator name="performance" >
   <i type="int" name="NPAR">     4</i>
   <i type="int" name="NSIM">     4</i>
   <i type="int" name="NBLK">    -1</i>
   <i type="logical" name="LPLANE"> T  </i>
   <i type="logical" name="LSCALAPACK"> T  </i>
   <i type="logical" name="LSCAAWARE"> F  </i>
   <i type="logical" name="LSCALU"> F  </i>
   <i type="logical" name="LASYNC"> F  </i>
   <i type="logical" name="LORBITALREAL"> F  </i>
  </separator>
  <separator name="miscellaneous" >
   <i type="int" name="IDIOT">     3</i>
   <i type="logical" name="LMUSIC"> F  </i>
   <v name="POMASS">     30.97400000</v>
   <v name="DARWINR">      0.00000000</v>
   <v name="DARWINV">      1.00000000</v>
   <i type="logical" name="LCORR"> T  </i>
  </separator>
  <i type="logical" name="GGA_COMPAT"> T  </i>
  <i type="logical" name="LBERRY"> F  </i>
  <i type="int" name="ICORELEVEL">     0</i>
  <i type="logical" name="LDAU"> F  </i>
  <i type="int" name="I_CONSTRAINED_M">     0</i>
  <separator name="electronic exchange-correlation" >
   <i type="string" name="GGA">--</i>
   <i type="int" name="VOSKOWN">     0</i>
   <i type="logical" name="LHFCALC"> F  </i>
   <i type="string" name="PRECFOCK"></i>
   <i type="logical" name="LSYMGRAD"> F  </i>
   <i type="logical" name="LHFONE"> F  </i>
   <i type="logical" name="LRHFCALC"> F  </i>
   <i type="logical" name="LTHOMAS"> F  </i>
   <i type="logical" name="LMODELHF"> F  </i>
   <i name="ENCUT4O">     -1.00000000</i>
   <i type="int" name="EXXOEP">     0</i>
   <i type="int" name="FOURORBIT">     0</i>
   <i name="AEXX">      0.00000000</i>
   <i name="HFALPHA">      0.00000000</i>
   <i name="MCALPHA">      0.00000000</i>
   <i name="ALDAX">      1.00000000</i>
   <i name="AGGAX">      1.00000000</i>
   <i name="ALDAC">      1.00000000</i>
   <i name="AGGAC">      1.00000000</i>
   <i type="int" name="NKREDX">     1</i>
   <i type="int" name="NKREDY">     1</i>
   <i type="int" name="NKREDZ">     1</i>
   <i type="logical" name="SHIFTRED"> F  </i>
   <i type="logical" name="ODDONLY"> F  </i>
   <i type="logical" name="EVENONLY"> F  </i>
   <i type="int" name="LMAXFOCK">     0</i>
   <i type="int" name="NMAXFOCKAE">     0</i>
   <i type="logical" name="LFOCKAEDFT"> F  </i>
   <i name="HFSCREEN">      0.00000000</i>
   <i name="HFSCREENC">      0.00000000</i>
   <i type="int" name="NBANDSGWLOW">     0</i>
  </separator>
  <separator name="vdW DFT" >
   <i type="logical" name="LUSE_VDW"> F  </i>
   <i name="Zab_VDW">     -0.84910000</i>
   <i name="PARAM1">      0.12340000</i>
   <i name="PARAM2">      1.00000000</i>
   <i name="PARAM3">      0.00000000</i>
  </separator>
  <separator name="model GW" >
   <i type="int" name="MODEL_GW">     0</i>
   <i name="MODEL_EPS0">     48.45764101</i>
   <i name="MODEL_ALPHA">      1.00000000</i>
  </separator>
  <separator name="linear response parameters" >
   <i type="logical" name="LEPSILON"> F  </i>
   <i type="logical" name="LRPA"> F  </i>
   <i type="logical" name="LNABLA"> F  </i>
   <i type="logical" name="LVEL"> F  </i>
   <i type="int" name="KINTER">     0</i>
   <i name="CSHIFT">      0.10000000</i>
   <i name="OMEGAMAX">     -1.00000000</i>
   <i name="DEG_THRESHOLD">      0.00200000</i>
  </separator>
  <separator name="orbital magnetization" >
   <i type="logical" name="NUCIND"> F  </i>
   <v name="MAGPOS">      0.00000000      0.00000000      0.00000000</v>
   <i type="logical" name="LNICSALL"> T  </i>
   <i type="logical" name="ORBITALMAG"> F  </i>
   <i type="logical" name="LMAGBLOCH"> F  </i>
   <i type="logical" name="LCHIMAG"> F  </i>
   <i type="logical" name="LGAUGE"> T  </i>
   <i type="int" name="MAGATOM">     0</i>
   <v name="MAGDIPOL">      0.00000000      0.00000000      0.00000000</v>
   <v name="AVECCONST">      0.00000000      0.00000000      0.00000000</v>
  </separator>
  <separator name="response functions" >
   <i type="logical" name="LADDER"> F  </i>
   <i type="logical" name="LFXC"> F  </i>
   <i type="logical" name="LHARTREE"> T  </i>
   <i type="int" name="IBSE">     0</i>
   <v type="int" name="KPOINT">    -1     0     0     0</v>
   <i type="logical" name="LTCTE"> F  </i>
   <i type="logical" name="LTETE"> F  </i>
   <i type="logical" name="LTRIPLET"> F  </i>
   <i type="logical" name="LFXCEPS"> F  </i>
   <i type="logical" name="LFXHEG"> F  </i>
   <i type="int" name="NATURALO">     0</i>
   <i type="logical" name="L2ORDER"> F  </i>
   <i type="logical" name="LUSEW"> F  </i>
   <i name="ENCUTGW">     -2.00000000</i>
   <i name="ENCUTGWSOFT">     -2.00000000</i>
   <i name="ENCUTLF">     -1.00000000</i>
   <i type="int" name="LMAXMP2">    -1</i>
   <i name="SCISSOR">      0.00000000</i>
   <i type="int" name="NOMEGA">     0</i>
   <i type="int" name="NOMEGAR">     0</i>
   <i type="int" name="NBANDSGW">    -1</i>
   <i type="int" name="NBANDSO">    -1</i>
   <i type="int" name="NBANDSV">    -1</i>
   <i type="int" name="NELM">   250</i>
   <i type="int" name="NELMHF">     1</i>
   <i type="int" name="DIM">     3</i>
   <i type="int" name="ANTIRES">     0</i>
   <i name="OMEGAMAX">    -30.00000000</i>
   <i name="OMEGAMIN">    -30.00000000</i>
   <i name="OMEGATL">   -200.00000000</i>
   <i type="int" name="OMEGAGRID">     0</i>
   <i name="CSHIFT">     -0.10000000</i>
   <i type="logical" name="SELFENERGY"> F  </i>
   <i type="logical" name="LSPECTRAL"> F  </i>
   <i type="logical" name="LSPECTRALGW"> F  </i>
   <i type="logical" name="LSINGLES"> F  </i>
   <i type="logical" name="LFERMIGW"> F  </i>
   <i type="logical" name="ODDONLYGW"> F  </i>
   <i type="logical" name="EVENONLYGW"> F  </i>
   <i type="int" name="NKREDLFX">     1</i>
   <i type="int" name="NKREDLFY">     1</i>
   <i type="int" name="NKREDLFZ">     1</i>
   <i type="int" name="MAXMEM">  1800</i>
   <i type="int" name="TELESCOPE">     0</i>
   <i type="int" name="TAUPAR">     1</i>
   <i type="int" name="OMEGAPAR">    -1</i>
   <i name="LAMBDA">      1.00000000</i>
  </separator>
  <separator name="External order field" >
   <i name="OFIELD_KAPPA">      0.00000000</i>
   <v name="OFIELD_K">      0.00000000      0.00000000      0.00000000</v>
   <i name="OFIELD_Q6_NEAR">      0.00000000</i>
   <i name="OFIELD_Q6_FAR">      0.00000000</i>
   <i name="OFIELD_A">      0.00000000</i>
  </separator>
 </parameters>
 <atominfo>
  <atoms>       4 </atoms>
  <types>       1 </types>
  <array name="atoms" >
   <dimension dim="1">ion</dimension>
   <field type="string">element</field>
   <field type="int">atomtype</field>
   <set>
    <rc><c>P </c><c>   1</c></rc>
    <rc><c>P </c><c>   1</c></rc>
    <rc><c>P </c><c>   1</c></rc>
    <rc><c>P </c><c>   1</c></rc>
   </set>
  </array>
  <array name="atomtypes" >
   <dimension dim="1">type</dimension>
   <field type="int">atomspertype</field>
   <field type="string">element</field>
   <field>mass</field>
   <field>valence</field>
   <field type="string">pseudopotential</field>
   <set>
    <rc><c>   4</c><c>P </c><c>     30.97400000</c><c>      5.00000000</c><c>  PAW_PBE P 06Sep2000                   </c></rc>
   </set>
  </array>
 </atominfo>
 <structure name="initialpos" >
  <crystal>
   <varray name="basis" >
    <v>       3.29720400       0.00000000       0.00000000 </v>
    <v>       0.00000000       4.89289500      -0.00005300 </v>
    <v>       0.00000000       0.00000000      20.02439000 </v>
   </varray>
   <i name="volume">    323.05094008 </i>
   <varray name="rec_basis" >
    <v>       0.30328727       0.00000000       0.00000000 </v>
    <v>       0.00000000       0.20437798       0.00000000 </v>
    <v>       0.00000000       0.00000054       0.04993910 </v>
   </varray>
  </crystal>
  <varray name="positions" >
   <v>       0.50000000       0.91077300       0.55252100 </v>
   <v>       0.50000000       0.08922700       0.44747900 </v>
   <v>       0.00000000       0.41076900       0.44747900 </v>
   <v>       0.00000000       0.58923100       0.55252100 </v>
  </varray>
 </structure>
 <calculation>
  <scstep>
   <time name="dav">    1.59    1.59</time>
   <time name="total">    1.62    1.62</time>
   <energy>
    <i name="alphaZ">      4.96565972 </i>
    <i name="ewald">   1735.18958219 </i>
    <i name="hartreedc">  -2329.57723303 </i>
    <i name="XCdc">     12.55188794 </i>
    <i name="pawpsdc">    559.04011960 </i>
    <i name="pawaedc">   -526.39432044 </i>
    <i name="eentropy">     -0.00039927 </i>
    <i name="bandstr">    -29.41153279 </i>
    <i name="atom">    704.16778566 </i>
    <i name="e_fr_energy">    130.53154958 </i>
    <i name="e_wo_entrp">    130.53194885 </i>
    <i name="e_0_energy">    130.53174921 </i>
   </energy>
  </scstep>
  <scstep>
   <time name="dav">    2.12    2.12</time>
   <time name="total">    2.12    2.12</time>
   <energy>
    <i name="e_fr_energy">     -5.93599439 </i>
    <i name="e_wo_entrp">     -5.93599439 </i>
    <i name="e_0_energy">     -5.93599439 </i>
   </energy>
  </scstep>
  <scstep>
   <time name="dav">    1.96    1.96</time>
   <time name="total">    1.96    1.96</time>
   <energy>
    <i name="e_fr_energy">    -21.20867113 </i>
    <i name="e_wo_entrp">    -21.20867113 </i>
    <i name="e_0_energy">    -21.20867113 </i>
   </energy>
  </scstep>
  <scstep>
   <time name="dav">    1.96    1.96</time>
   <time name="total">    1.97    1.97</time>
   <energy>
    <i name="e_fr_energy">    -21.52362912 </i>
    <i name="e_wo_entrp">    -21.52362912 </i>
    <i name="e_0_energy">    -21.52362912 </i>
   </energy>
  </scstep>
  <scstep>
   <time name="dav">    2.13    2.13</time>
   <time name="total">    2.23    2.23</time>
   <energy>
    <i name="e_fr_energy">    -21.53375073 </i>
    <i name="e_wo_entrp">    -21.53375073 </i>
    <i name="e_0_energy">    -21.53375073 </i>
   </energy>
  </scstep>
  <scstep>
   <time name="dav">    1.93    1.93</time>
   <time name="total">    2.05    2.05</time>
   <energy>
    <i name="e_fr_energy">    -21.40958641 </i>
    <i name="e_wo_entrp">    -21.40958641 </i>
    <i name="e_0_energy">    -21.40958641 </i>
   </energy>
  </scstep>
  <scstep>
   <time name="dav">    1.84    1.84</time>
   <time name="total">    1.96    1.96</time>
   <energy>
    <i name="e_fr_energy">    -21.35089044 </i>
    <i name="e_wo_entrp">    -21.35089044 </i>
    <i name="e_0_energy">    -21.35089044 </i>
   </energy>
  </scstep>
  <scstep>
   <time name="dav">    1.94    1.94</time>
   <time name="total">    2.05    2.06</time>
   <energy>
    <i name="e_fr_energy">    -21.35053334 </i>
    <i name="e_wo_entrp">    -21.35053334 </i>
    <i name="e_0_energy">    -21.35053334 </i>
   </energy>
  </scstep>
  <scstep>
   <time name="dav">    2.23    2.23</time>
   <time name="total">    2.35    2.35</time>
   <energy>
    <i name="e_fr_energy">    -21.35044347 </i>
    <i name="e_wo_entrp">    -21.35044347 </i>
    <i name="e_0_energy">    -21.35044347 </i>
   </energy>
  </scstep>
  <scstep>
   <time name="dav">    1.91    1.91</time>
   <time name="total">    2.03    2.03</time>
   <energy>
    <i name="e_fr_energy">    -21.35030893 </i>
    <i name="e_wo_entrp">    -21.35030893 </i>
    <i name="e_0_energy">    -21.35030893 </i>
   </energy>
  </scstep>
  <scstep>
   <time name="dav">    1.93    1.93</time>
   <time name="total">    2.04    2.05</time>
   <energy>
    <i name="e_fr_energy">    -21.35026592 </i>
    <i name="e_wo_entrp">    -21.35026592 </i>
    <i name="e_0_energy">    -21.35026592 </i>
   </energy>
  </scstep>
  <scstep>
   <time name="dav">    1.66    1.66</time>
   <time name="total">    1.78    1.78</time>
   <energy>
    <i name="e_fr_energy">    -21.35054501 </i>
    <i name="e_wo_entrp">    -21.35054501 </i>
    <i name="e_0_energy">    -21.35054501 </i>
   </energy>
  </scstep>
  <scstep>
   <time name="dav">    1.72    1.72</time>
   <time name="total">    1.83    1.83</time>
   <energy>
    <i name="e_fr_energy">    -21.35063276 </i>
    <i name="e_wo_entrp">    -21.35063276 </i>
    <i name="e_0_energy">    -21.35063276 </i>
   </energy>
  </scstep>
  <scstep>
   <time name="dav">    1.62    1.62</time>
   <time name="total">    1.73    1.73</time>
   <energy>
    <i name="e_fr_energy">    -21.35078980 </i>
    <i name="e_wo_entrp">    -21.35078980 </i>
    <i name="e_0_energy">    -21.35078980 </i>
   </energy>
  </scstep>
  <scstep>
   <time name="dav">    1.64    1.64</time>
   <time name="total">    1.75    1.76</time>
   <energy>
    <i name="e_fr_energy">    -21.35080825 </i>
    <i name="e_wo_entrp">    -21.35080825 </i>
    <i name="e_0_energy">    -21.35080825 </i>
   </energy>
  </scstep>
  <scstep>
   <time name="dav">    1.54    1.54</time>
   <time name="total">    1.66    1.66</time>
   <energy>
    <i name="e_fr_energy">    -21.35084275 </i>
    <i name="e_wo_entrp">    -21.35084275 </i>
    <i name="e_0_energy">    -21.35084275 </i>
   </energy>
  </scstep>
  <scstep>
   <time name="dav">    1.56    1.56</time>
   <time name="total">    1.58    1.59</time>
   <energy>
    <i name="alphaZ">      4.96565972 </i>
    <i name="ewald">   1735.18958219 </i>
    <i name="hartreedc">  -2343.16181240 </i>
    <i name="XCdc">     13.53754810 </i>
    <i name="pawpsdc">   1876.89552447 </i>
    <i name="pawaedc">  -1844.50754995 </i>
    <i name="eentropy">     -0.00000000 </i>
    <i name="bandstr">   -168.43758422 </i>
    <i name="atom">    704.16778566 </i>
    <i name="e_fr_energy">    -21.35084643 </i>
    <i name="e_wo_entrp">    -21.35084643 </i>
    <i name="e_0_energy">    -21.35084643 </i>
   </energy>
  </scstep>
  <structure>
   <crystal>
    <varray name="basis" >
     <v>       3.29720400       0.00000000       0.00000000 </v>
     <v>       0.00000000       4.89289500      -0.00005300 </v>
     <v>       0.00000000       0.00000000      20.02439000 </v>
    </varray>
    <i name="volume">    323.05094008 </i>
    <varray name="rec_basis" >
     <v>       0.30328727       0.00000000       0.00000000 </v>
     <v>       0.00000000       0.20437798       0.00000000 </v>
     <v>       0.00000000       0.00000054       0.04993910 </v>
    </varray>
   </crystal>
   <varray name="positions" >
    <v>       0.50000000       0.91077300       0.55252100 </v>
    <v>       0.50000000       0.08922700       0.44747900 </v>
    <v>       0.00000000       0.41076900       0.44747900 </v>
    <v>       0.00000000       0.58923100       0.55252100 </v>
   </varray>
  </structure>
  <varray name="forces" >
   <v>       0.00000003      -0.76531870      -0.15158457 </v>
   <v>      -0.00000003       0.76531870       0.15158457 </v>
   <v>       0.00000016      -0.76533276       0.15160392 </v>
   <v>      -0.00000016       0.76533276      -0.15160392 </v>
  </varray>
  <varray name="stress" >
   <v>      -6.45314371      -0.00000236      -0.00000004 </v>
   <v>      -0.00000241     -18.80006131       0.00034719 </v>
   <v>      -0.00000003       0.00034722      -3.22524573 </v>
  </varray>
  <energy>
   <i name="e_fr_energy">    -21.35084643 </i>
   <i name="e_wo_entrp">    -21.35084643 </i>
   <i name="e_0_energy">     -0.00000000 </i>
  </energy>
  <time name="totalsc">   33.55   33.60</time>
 </calculation>
 <calculation>
  <scstep>
   <time name="dav">    1.67    1.67</time>
   <time name="total">    1.79    1.79</time>
   <energy>
    <i name="alphaZ">      4.96565972 </i>
    <i name="ewald">   1742.32405822 </i>
    <i name="hartreedc">  -2349.11808342 </i>
    <i name="XCdc">     13.66734674 </i>
    <i name="pawpsdc">   1876.52930029 </i>
    <i name="pawaedc">  -1844.14137104 </i>
    <i name="eentropy">     -0.00000000 </i>
    <i name="bandstr">   -169.79152216 </i>
    <i name="atom">    704.16778566 </i>
    <i name="e_fr_energy">    -21.39682599 </i>
    <i name="e_wo_entrp">    -21.39682599 </i>
    <i name="e_0_energy">    -21.39682599 </i>
   </energy>
  </scstep>
  <scstep>
   <time name="dav">    1.93    1.94</time>
   <time name="total">    2.05    2.06</time>
   <energy>
    <i name="e_fr_energy">    -21.40342857 </i>
    <i name="e_wo_entrp">    -21.40342857 </i>
    <i name="e_0_energy">    -21.40342857 </i>
   </energy>
  </scstep>
  <scstep>
   <time name="dav">    2.14    2.14</time>
   <time name="total">    2.26    2.26</time>
   <energy>
    <i name="e_fr_energy">    -21.40340093 </i>
    <i name="e_wo_entrp">    -21.40340093 </i>
    <i name="e_0_energy">    -21.40340093 </i>
   </energy>
  </scstep>
  <scstep>
   <time name="dav">    2.09    2.09</time>
   <time name="total">    2.21    2.21</time>
   <energy>
    <i name="e_fr_energy">    -21.40337824 </i>
    <i name="e_wo_entrp">    -21.40337824 </i>
    <i name="e_0_energy">    -21.40337824 </i>
   </energy>
  </scstep>
  <scstep>
   <time name="dav">    1.78    1.78</time>
   <time name="total">    1.90    1.90</time>
   <energy>
    <i name="e_fr_energy">    -21.40338512 </i>
    <i name="e_wo_entrp">    -21.40338512 </i>
    <i name="e_0_energy">    -21.40338512 </i>
   </energy>
  </scstep>
  <scstep>
   <time name="dav">    1.43    1.43</time>
   <time name="total">    1.45    1.45</time>
   <energy>
    <i name="alphaZ">      4.96565972 </i>
    <i name="ewald">   1742.32405822 </i>
    <i name="hartreedc">  -2349.14273430 </i>
    <i name="XCdc">     13.68096524 </i>
    <i name="pawpsdc">   1951.84267097 </i>
    <i name="pawaedc">  -1919.48236479 </i>
    <i name="eentropy">     -0.00000000 </i>
    <i name="bandstr">   -169.75942622 </i>
    <i name="atom">    704.16778566 </i>
    <i name="e_fr_energy">    -21.40338550 </i>
    <i name="e_wo_entrp">    -21.40338550 </i>
    <i name="e_0_energy">    -21.40338550 </i>
   </energy>
  </scstep>
  <structure>
   <crystal>
    <varray name="basis" >
     <v>       3.29720400       0.00000000       0.00000000 </v>
     <v>       0.00000000       4.89289500      -0.00005300 </v>
     <v>       0.00000000       0.00000000      20.02439000 </v>
    </varray>
    <i name="volume">    323.05094008 </i>
    <varray name="rec_basis" >
     <v>       0.30328727       0.00000000       0.00000000 </v>
     <v>       0.00000000       0.20437798       0.00000000 </v>
     <v>       0.00000000       0.00000054       0.04993910 </v>
    </varray>
   </crystal>
   <varray name="positions" >
    <v>       0.50000000       0.90624550       0.55230187 </v>
    <v>       0.50000000       0.09375450       0.44769813 </v>
    <v>       0.00000000       0.40624141       0.44769813 </v>
    <v>      -0.00000000       0.59375859       0.55230187 </v>
   </varray>
  </structure>
  <varray name="forces" >
   <v>       0.00000002      -0.35223411      -0.15118034 </v>
   <v>      -0.00000002       0.35223411       0.15118034 </v>
   <v>       0.00000016      -0.35224535       0.15118704 </v>
   <v>      -0.00000016       0.35224535      -0.15118704 </v>
  </varray>
  <varray name="stress" >
   <v>      -5.37704349       0.00000242      -0.00000011 </v>
   <v>       0.00000236     -12.55893641       0.00025792 </v>
   <v>      -0.00000005       0.00025788      -3.29348302 </v>
  </varray>
  <energy>
   <i name="e_fr_energy">    -21.40338550 </i>
   <i name="e_wo_entrp">    -21.40338550 </i>
   <i name="e_0_energy">     -0.00000000 </i>
  </energy>
  <time name="totalsc">   12.49   12.51</time>
 </calculation>
 <calculation>
  <scstep>
   <time name="dav">    1.68    1.68</time>
   <time name="total">    1.80    1.80</time>
   <energy>
    <i name="alphaZ">      4.96565972 </i>
    <i name="ewald">   1748.37451030 </i>
    <i name="hartreedc">  -2354.10268589 </i>
    <i name="XCdc">     13.79001663 </i>
    <i name="pawpsdc">   1952.18584548 </i>
    <i name="pawaedc">  -1919.82519767 </i>
    <i name="eentropy">     -0.00000000 </i>
    <i name="bandstr">   -170.96921564 </i>
    <i name="atom">    704.16778566 </i>
    <i name="e_fr_energy">    -21.41328140 </i>
    <i name="e_wo_entrp">    -21.41328140 </i>
    <i name="e_0_energy">    -21.41328140 </i>
   </energy>
  </scstep>
  <scstep>
   <time name="dav">    1.97    1.97</time>
   <time name="total">    2.09    2.09</time>
   <energy>
    <i name="e_fr_energy">    -21.41796796 </i>
    <i name="e_wo_entrp">    -21.41796796 </i>
    <i name="e_0_energy">    -21.41796796 </i>
   </energy>
  </scstep>
  <scstep>
   <time name="dav">    2.14    2.14</time>
   <time name="total">    2.25    2.26</time>
   <energy>
    <i name="e_fr_energy">    -21.41794385 </i>
    <i name="e_wo_entrp">    -21.41794385 </i>
    <i name="e_0_energy">    -21.41794385 </i>
   </energy>
  </scstep>
  <scstep>
   <time name="dav">    2.07    2.07</time>
   <time name="total">    2.19    2.19</time>
   <energy>
    <i name="e_fr_energy">    -21.41792834 </i>
    <i name="e_wo_entrp">    -21.41792834 </i>
    <i name="e_0_energy">    -21.41792834 </i>
   </energy>
  </scstep>
  <scstep>
   <time name="dav">    1.68    1.68</time>
   <time name="total">    1.79    1.80</time>
   <energy>
    <i name="e_fr_energy">    -21.41793501 </i>
    <i name="e_wo_entrp">    -21.41793501 </i>
    <i name="e_0_energy">    -21.41793501 </i>
   </energy>
  </scstep>
  <scstep>
   <time name="dav">    1.41    1.42</time>
   <time name="total">    1.43    1.44</time>
   <energy>
    <i name="alphaZ">      4.96565972 </i>
    <i name="ewald">   1748.37451030 </i>
    <i name="hartreedc">  -2354.13447631 </i>
    <i name="XCdc">     13.80210415 </i>
    <i name="pawpsdc">   2019.27248376 </i>
    <i name="pawaedc">  -1986.93676178 </i>
    <i name="eentropy">     -0.00000000 </i>
    <i name="bandstr">   -170.92924157 </i>
    <i name="atom">    704.16778566 </i>
    <i name="e_fr_energy">    -21.41793606 </i>
    <i name="e_wo_entrp">    -21.41793606 </i>
    <i name="e_0_energy">    -21.41793606 </i>
   </energy>
  </scstep>
  <structure>
   <crystal>
    <varray name="basis" >
     <v>       3.29720400       0.00000000       0.00000000 </v>
     <v>       0.00000000       4.89289500      -0.00005300 </v>
     <v>       0.00000000       0.00000000      20.02439000 </v>
    </varray>
    <i name="volume">    323.05094008 </i>
    <varray name="rec_basis" >
     <v>       0.30328727       0.00000000       0.00000000 </v>
     <v>       0.00000000       0.20437798       0.00000000 </v>
     <v>       0.00000000       0.00000054       0.04993910 </v>
    </varray>
   </crystal>
   <varray name="positions" >
    <v>       0.50000000       0.90247385       0.55211932 </v>
    <v>       0.50000000       0.09752615       0.44788068 </v>
    <v>       0.00000000       0.40246970       0.44788068 </v>
    <v>      -0.00000000       0.59753030       0.55211932 </v>
   </varray>
  </structure>
  <varray name="forces" >
   <v>       0.00000017       0.02544819      -0.15530058 </v>
   <v>      -0.00000017      -0.02544819       0.15530058 </v>
   <v>       0.00000021       0.02543906       0.15529881 </v>
   <v>      -0.00000021      -0.02543906      -0.15529881 </v>
  </varray>
  <varray name="stress" >
   <v>      -3.98005866      -0.00000114       0.00000075 </v>
   <v>      -0.00000121      -7.11969624       0.00017327 </v>
   <v>       0.00000079       0.00017327      -3.35739252 </v>
  </varray>
  <energy>
   <i name="e_fr_energy">    -21.41793606 </i>
   <i name="e_wo_entrp">    -21.41793606 </i>
   <i name="e_0_energy">     -0.00000000 </i>
  </energy>
  <time name="totalsc">   12.39   12.41</time>
 </calculation>
 <calculation>
  <scstep>
   <time name="dav">    1.55    1.55</time>
   <time name="total">    1.66    1.66</time>
   <energy>
    <i name="alphaZ">      4.96565972 </i>
    <i name="ewald">   1753.02783844 </i>
    <i name="hartreedc">  -2358.51133721 </i>
    <i name="XCdc">     13.83341229 </i>
    <i name="pawpsdc">   2019.58932803 </i>
    <i name="pawaedc">  -1987.25331882 </i>
    <i name="eentropy">     -0.00000000 </i>
    <i name="bandstr">   -171.23946927 </i>
    <i name="atom">    704.16778566 </i>
    <i name="e_fr_energy">    -21.42010116 </i>
    <i name="e_wo_entrp">    -21.42010116 </i>
    <i name="e_0_energy">    -21.42010116 </i>
   </energy>
  </scstep>
  <scstep>
   <time name="dav">    1.98    1.98</time>
   <time name="total">    2.10    2.10</time>
   <energy>
    <i name="e_fr_energy">    -21.42061066 </i>
    <i name="e_wo_entrp">    -21.42061066 </i>
    <i name="e_0_energy">    -21.42061066 </i>
   </energy>
  </scstep>
  <scstep>
   <time name="dav">    2.14    2.14</time>
   <time name="total">    2.25    2.25</time>
   <energy>
    <i name="e_fr_energy">    -21.42060155 </i>
    <i name="e_wo_entrp">    -21.42060155 </i>
    <i name="e_0_energy">    -21.42060155 </i>
   </energy>
  </scstep>
  <scstep>
   <time name="dav">    1.78    1.78</time>
   <time name="total">    1.89    1.90</time>
   <energy>
    <i name="e_fr_energy">    -21.42060188 </i>
    <i name="e_wo_entrp">    -21.42060188 </i>
    <i name="e_0_energy">    -21.42060188 </i>
   </energy>
  </scstep>
  <scstep>
   <time name="dav">    1.31    1.31</time>
   <time name="total">    1.43    1.43</time>
   <energy>
    <i name="e_fr_energy">    -21.42060222 </i>
    <i name="e_wo_entrp">    -21.42060222 </i>
    <i name="e_0_energy">    -21.42060222 </i>
   </energy>
  </scstep>
  <scstep>
   <time name="dav">    1.31    1.31</time>
   <time name="total">    1.33    1.33</time>
   <energy>
    <i name="alphaZ">      4.96565972 </i>
    <i name="ewald">   1753.02783844 </i>
    <i name="hartreedc">  -2358.49572492 </i>
    <i name="XCdc">     13.83504016 </i>
    <i name="pawpsdc">   2034.18853678 </i>
    <i name="pawaedc">  -2001.85748085 </i>
    <i name="eentropy">     -0.00000000 </i>
    <i name="bandstr">   -171.25225806 </i>
    <i name="atom">    704.16778566 </i>
    <i name="e_fr_energy">    -21.42060308 </i>
    <i name="e_wo_entrp">    -21.42060308 </i>
    <i name="e_0_energy">    -21.42060308 </i>
   </energy>
  </scstep>
  <structure>
   <crystal>
    <varray name="basis" >
     <v>       3.29720400       0.00000000       0.00000000 </v>
     <v>       0.00000000       4.89289500      -0.00005300 </v>
     <v>       0.00000000       0.00000000      20.02439000 </v>
    </varray>
    <i name="volume">    323.05094008 </i>
    <varray name="rec_basis" >
     <v>       0.30328727       0.00000000       0.00000000 </v>
     <v>       0.00000000       0.20437798       0.00000000 </v>
     <v>       0.00000000       0.00000054       0.04993910 </v>
    </varray>
   </crystal>
   <varray name="positions" >
    <v>       0.50000000       0.90246990       0.55184874 </v>
    <v>       0.50000000       0.09753010       0.44815126 </v>
    <v>       0.00000000       0.40246568       0.44815127 </v>
    <v>      -0.00000000       0.59753432       0.55184873 </v>
   </varray>
  </structure>
  <varray name="forces" >
   <v>      -0.00000013       0.00995763      -0.08887713 </v>
   <v>       0.00000013      -0.00995763       0.08887713 </v>
   <v>      -0.00000012       0.00994946       0.08887567 </v>
   <v>       0.00000012      -0.00994946      -0.08887567 </v>
  </varray>
  <varray name="stress" >
   <v>      -3.85961846      -0.00000041       0.00000097 </v>
   <v>      -0.00000045      -6.83325058       0.00015794 </v>
   <v>       0.00000098       0.00015793      -1.93289982 </v>
  </varray>
  <energy>
   <i name="e_fr_energy">    -21.42060308 </i>
   <i name="e_wo_entrp">    -21.42060308 </i>
   <i name="e_0_energy">     -0.00000000 </i>
  </energy>
  <time name="totalsc">   11.49   11.51</time>
 </calculation>
 <calculation>
  <scstep>
   <time name="dav">    1.55    1.55</time>
   <time name="total">    1.67    1.67</time>
   <energy>
    <i name="alphaZ">      4.96565972 </i>
    <i name="ewald">   1759.26503642 </i>
    <i name="hartreedc">  -2364.37605018 </i>
    <i name="XCdc">     13.87763759 </i>
    <i name="pawpsdc">   2034.20645124 </i>
    <i name="pawaedc">  -2001.87530058 </i>
    <i name="eentropy">     -0.00000000 </i>
    <i name="bandstr">   -171.65219350 </i>
    <i name="atom">    704.16778566 </i>
    <i name="e_fr_energy">    -21.42097364 </i>
    <i name="e_wo_entrp">    -21.42097364 </i>
    <i name="e_0_energy">    -21.42097364 </i>
   </energy>
  </scstep>
  <scstep>
   <time name="dav">    1.98    1.98</time>
   <time name="total">    2.10    2.10</time>
   <energy>
    <i name="e_fr_energy">    -21.42188964 </i>
    <i name="e_wo_entrp">    -21.42188964 </i>
    <i name="e_0_energy">    -21.42188964 </i>
   </energy>
  </scstep>
  <scstep>
   <time name="dav">    2.13    2.13</time>
   <time name="total">    2.24    2.25</time>
   <energy>
    <i name="e_fr_energy">    -21.42186951 </i>
    <i name="e_wo_entrp">    -21.42186951 </i>
    <i name="e_0_energy">    -21.42186951 </i>
   </energy>
  </scstep>
  <scstep>
   <time name="dav">    1.89    1.89</time>
   <time name="total">    2.00    2.00</time>
   <energy>
    <i name="e_fr_energy">    -21.42186761 </i>
    <i name="e_wo_entrp">    -21.42186761 </i>
    <i name="e_0_energy">    -21.42186761 </i>
   </energy>
  </scstep>
  <scstep>
   <time name="dav">    1.42    1.42</time>
   <time name="total">    1.53    1.53</time>
   <energy>
    <i name="e_fr_energy">    -21.42186692 </i>
    <i name="e_wo_entrp">    -21.42186692 </i>
    <i name="e_0_energy">    -21.42186692 </i>
   </energy>
  </scstep>
  <scstep>
   <time name="dav">    1.26    1.26</time>
   <time name="total">    1.28    1.28</time>
   <energy>
    <i name="alphaZ">      4.96565972 </i>
    <i name="ewald">   1759.26503642 </i>
    <i name="hartreedc">  -2364.37377344 </i>
    <i name="XCdc">     13.88014535 </i>
    <i name="pawpsdc">   2054.42966778 </i>
    <i name="pawaedc">  -2022.10532281 </i>
    <i name="eentropy">     -0.00000000 </i>
    <i name="bandstr">   -171.65106591 </i>
    <i name="atom">    704.16778566 </i>
    <i name="e_fr_energy">    -21.42186724 </i>
    <i name="e_wo_entrp">    -21.42186724 </i>
    <i name="e_0_energy">    -21.42186724 </i>
   </energy>
  </scstep>
  <structure>
   <crystal>
    <varray name="basis" >
     <v>       3.29720400       0.00000000       0.00000000 </v>
     <v>       0.00000000       4.89289500      -0.00005300 </v>
     <v>       0.00000000       0.00000000      20.02439000 </v>
    </varray>
    <i name="volume">    323.05094008 </i>
    <varray name="rec_basis" >
     <v>       0.30328727       0.00000000       0.00000000 </v>
     <v>       0.00000000       0.20437798       0.00000000 </v>
     <v>       0.00000000       0.00000054       0.04993910 </v>
    </varray>
   </crystal>
   <varray name="positions" >
    <v>       0.50000000       0.90246462       0.55148653 </v>
    <v>       0.50000000       0.09753538       0.44851347 </v>
    <v>       0.00000001       0.40246031       0.44851347 </v>
    <v>      -0.00000001       0.59753969       0.55148653 </v>
   </varray>
  </structure>
  <varray name="forces" >
   <v>      -0.00000029      -0.01261325       0.00427466 </v>
   <v>       0.00000029       0.01261325      -0.00427466 </v>
   <v>      -0.00000032      -0.01262040      -0.00427533 </v>
   <v>       0.00000032       0.01262040       0.00427533 </v>
  </varray>
  <varray name="stress" >
   <v>      -3.67533017      -0.00000215       0.00000055 </v>
   <v>      -0.00000217      -6.44176233       0.00014225 </v>
   <v>       0.00000056       0.00014225      -0.02426946 </v>
  </varray>
  <energy>
   <i name="e_fr_energy">    -21.42186724 </i>
   <i name="e_wo_entrp">    -21.42186724 </i>
   <i name="e_0_energy">     -0.00000000 </i>
  </energy>
  <time name="totalsc">   11.66   11.68</time>
 </calculation>
 <calculation>
  <scstep>
   <time name="dav">    1.59    1.59</time>
   <time name="total">    1.71    1.71</time>
   <energy>
    <i name="alphaZ">      4.96565972 </i>
    <i name="ewald">   1758.98137985 </i>
    <i name="hartreedc">  -2364.09087348 </i>
    <i name="XCdc">     13.87796641 </i>
    <i name="pawpsdc">   2054.44739029 </i>
    <i name="pawaedc">  -2022.12291049 </i>
    <i name="eentropy">     -0.00000000 </i>
    <i name="bandstr">   -171.64826656 </i>
    <i name="atom">    704.16778566 </i>
    <i name="e_fr_energy">    -21.42186859 </i>
    <i name="e_wo_entrp">    -21.42186859 </i>
    <i name="e_0_energy">    -21.42186859 </i>
   </energy>
  </scstep>
  <scstep>
   <time name="dav">    1.41    1.41</time>
   <time name="total">    1.53    1.53</time>
   <energy>
    <i name="e_fr_energy">    -21.42187044 </i>
    <i name="e_wo_entrp">    -21.42187044 </i>
    <i name="e_0_energy">    -21.42187044 </i>
   </energy>
  </scstep>
  <scstep>
   <time name="dav">    1.29    1.29</time>
   <time name="total">    1.40    1.41</time>
   <energy>
    <i name="e_fr_energy">    -21.42187121 </i>
    <i name="e_wo_entrp">    -21.42187121 </i>
    <i name="e_0_energy">    -21.42187121 </i>
   </energy>
  </scstep>
  <scstep>
   <time name="dav">    1.35    1.35</time>
   <time name="total">    1.47    1.47</time>
   <energy>
    <i name="e_fr_energy">    -21.42187192 </i>
    <i name="e_wo_entrp">    -21.42187192 </i>
    <i name="e_0_energy">    -21.42187192 </i>
   </energy>
  </scstep>
  <scstep>
   <time name="dav">    1.45    1.45</time>
   <time name="total">    1.56    1.56</time>
   <energy>
    <i name="e_fr_energy">    -21.42187285 </i>
    <i name="e_wo_entrp">    -21.42187285 </i>
    <i name="e_0_energy">    -21.42187285 </i>
   </energy>
  </scstep>
  <scstep>
   <time name="dav">    1.32    1.32</time>
   <time name="total">    1.34    1.34</time>
   <energy>
    <i name="alphaZ">      4.96565972 </i>
    <i name="ewald">   1758.98137985 </i>
    <i name="hartreedc">  -2364.07229591 </i>
    <i name="XCdc">     13.87768177 </i>
    <i name="pawpsdc">   2053.52065316 </i>
    <i name="pawaedc">  -2021.19588610 </i>
    <i name="eentropy">     -0.00000000 </i>
    <i name="bandstr">   -171.66685137 </i>
    <i name="atom">    704.16778566 </i>
    <i name="e_fr_energy">    -21.42187321 </i>
    <i name="e_wo_entrp">    -21.42187321 </i>
    <i name="e_0_energy">    -21.42187321 </i>
   </energy>
  </scstep>
  <structure>
   <crystal>
    <varray name="basis" >
     <v>       3.29720400       0.00000000       0.00000000 </v>
     <v>       0.00000000       4.89289500      -0.00005300 </v>
     <v>       0.00000000       0.00000000      20.02439000 </v>
    </varray>
    <i name="volume">    323.05094008 </i>
    <varray name="rec_basis" >
     <v>       0.30328727       0.00000000       0.00000000 </v>
     <v>       0.00000000       0.20437798       0.00000000 </v>
     <v>       0.00000000       0.00000054       0.04993910 </v>
    </varray>
   </crystal>
   <varray name="positions" >
    <v>       0.50000000       0.90246486       0.55150299 </v>
    <v>       0.50000000       0.09753514       0.44849701 </v>
    <v>       0.00000001       0.40246055       0.44849701 </v>
    <v>      -0.00000001       0.59753945       0.55150299 </v>
   </varray>
  </structure>
  <varray name="forces" >
   <v>      -0.00000037      -0.01133862      -0.00080031 </v>
   <v>       0.00000037       0.01133862       0.00080031 </v>
   <v>      -0.00000041      -0.01134608       0.00079967 </v>
   <v>       0.00000041       0.01134608      -0.00079967 </v>
  </varray>
  <varray name="stress" >
   <v>      -3.66692462      -0.00000574       0.00000040 </v>
   <v>      -0.00000580      -6.45169438       0.00014463 </v>
   <v>       0.00000040       0.00014468      -0.08833421 </v>
  </varray>
  <energy>
   <i name="e_fr_energy">    -21.42187321 </i>
   <i name="e_wo_entrp">    -21.42187321 </i>
   <i name="e_0_energy">     -0.00000000 </i>
  </energy>
  <time name="totalsc">    9.85    9.86</time>
 </calculation>
 <calculation>
  <scstep>
   <time name="dav">    1.45    1.45</time>
   <time name="total">    1.57    1.57</time>
   <energy>
    <i name="alphaZ">      4.96565972 </i>
    <i name="ewald">   1759.02841436 </i>
    <i name="hartreedc">  -2364.11203402 </i>
    <i name="XCdc">     13.87796673 </i>
    <i name="pawpsdc">   2053.47177033 </i>
    <i name="pawaedc">  -2021.14701423 </i>
    <i name="eentropy">     -0.00000000 </i>
    <i name="bandstr">   -171.67442240 </i>
    <i name="atom">    704.16778566 </i>
    <i name="e_fr_energy">    -21.42187386 </i>
    <i name="e_wo_entrp">    -21.42187386 </i>
    <i name="e_0_energy">    -21.42187386 </i>
   </energy>
  </scstep>
  <scstep>
   <time name="dav">    1.31    1.31</time>
   <time name="total">    1.42    1.42</time>
   <energy>
    <i name="e_fr_energy">    -21.42187400 </i>
    <i name="e_wo_entrp">    -21.42187400 </i>
    <i name="e_0_energy">    -21.42187400 </i>
   </energy>
  </scstep>
  <scstep>
   <time name="dav">    1.21    1.21</time>
   <time name="total">    1.32    1.32</time>
   <energy>
    <i name="e_fr_energy">    -21.42187407 </i>
    <i name="e_wo_entrp">    -21.42187407 </i>
    <i name="e_0_energy">    -21.42187407 </i>
   </energy>
  </scstep>
  <scstep>
   <time name="dav">    1.30    1.30</time>
   <time name="total">    1.41    1.41</time>
   <energy>
    <i name="e_fr_energy">    -21.42187414 </i>
    <i name="e_wo_entrp">    -21.42187414 </i>
    <i name="e_0_energy">    -21.42187414 </i>
   </energy>
  </scstep>
  <scstep>
   <time name="dav">    1.21    1.21</time>
   <time name="total">    1.32    1.32</time>
   <energy>
    <i name="e_fr_energy">    -21.42187417 </i>
    <i name="e_wo_entrp">    -21.42187417 </i>
    <i name="e_0_energy">    -21.42187417 </i>
   </energy>
  </scstep>
  <scstep>
   <time name="dav">    1.23    1.23</time>
   <time name="total">    1.25    1.25</time>
   <energy>
    <i name="alphaZ">      4.96565972 </i>
    <i name="ewald">   1759.02841436 </i>
    <i name="hartreedc">  -2364.10940879 </i>
    <i name="XCdc">     13.87796600 </i>
    <i name="pawpsdc">   2053.62645693 </i>
    <i name="pawaedc">  -2021.30175505 </i>
    <i name="eentropy">     -0.00000000 </i>
    <i name="bandstr">   -171.67699301 </i>
    <i name="atom">    704.16778566 </i>
    <i name="e_fr_energy">    -21.42187419 </i>
    <i name="e_wo_entrp">    -21.42187419 </i>
    <i name="e_0_energy">    -21.42187419 </i>
   </energy>
  </scstep>
  <structure>
   <crystal>
    <varray name="basis" >
     <v>       3.29720400       0.00000000       0.00000000 </v>
     <v>       0.00000000       4.89289500      -0.00005300 </v>
     <v>       0.00000000       0.00000000      20.02439000 </v>
    </varray>
    <i name="volume">    323.05094008 </i>
    <varray name="rec_basis" >
     <v>       0.30328727       0.00000000       0.00000000 </v>
     <v>       0.00000000       0.20437798       0.00000000 </v>
     <v>       0.00000000       0.00000054       0.04993910 </v>
    </varray>
   </crystal>
   <varray name="positions" >
    <v>       0.50000000       0.90246482       0.55150027 </v>
    <v>       0.50000000       0.09753518       0.44849973 </v>
    <v>       0.00000001       0.40246051       0.44849974 </v>
    <v>      -0.00000001       0.59753949       0.55150026 </v>
   </varray>
  </structure>
  <varray name="forces" >
   <v>      -0.00000038      -0.01151477       0.00009842 </v>
   <v>       0.00000038       0.01151477      -0.00009842 </v>
   <v>      -0.00000041      -0.01152220      -0.00009903 </v>
   <v>       0.00000041       0.01152220       0.00009903 </v>
  </varray>
  <varray name="stress" >
   <v>      -3.66543245      -0.00000494       0.00000038 </v>
   <v>      -0.00000496      -6.44841085       0.00014447 </v>
   <v>       0.00000039       0.00014452      -0.07023735 </v>
  </varray>
  <energy>
   <i name="e_fr_energy">    -21.42187419 </i>
   <i name="e_wo_entrp">    -21.42187419 </i>
   <i name="e_0_energy">     -0.00000000 </i>
  </energy>
  <time name="totalsc">    9.13    9.14</time>
 </calculation>
 <calculation>
  <scstep>
   <time name="dav">    1.69    1.69</time>
   <time name="total">    1.80    1.81</time>
   <energy>
    <i name="alphaZ">      4.96565972 </i>
    <i name="ewald">   1759.20623741 </i>
    <i name="hartreedc">  -2364.25714972 </i>
    <i name="XCdc">     13.88097971 </i>
    <i name="pawpsdc">   2053.63116338 </i>
    <i name="pawaedc">  -2021.30645999 </i>
    <i name="eentropy">     -0.00000000 </i>
    <i name="bandstr">   -171.71009949 </i>
    <i name="atom">    704.16778566 </i>
    <i name="e_fr_energy">    -21.42188331 </i>
    <i name="e_wo_entrp">    -21.42188331 </i>
    <i name="e_0_energy">    -21.42188331 </i>
   </energy>
  </scstep>
  <scstep>
   <time name="dav">    1.84    1.84</time>
   <time name="total">    1.96    1.96</time>
   <energy>
    <i name="e_fr_energy">    -21.42188701 </i>
    <i name="e_wo_entrp">    -21.42188701 </i>
    <i name="e_0_energy">    -21.42188701 </i>
   </energy>
  </scstep>
  <scstep>
   <time name="dav">    1.17    1.17</time>
   <time name="total">    1.29    1.29</time>
   <energy>
    <i name="e_fr_energy">    -21.42188715 </i>
    <i name="e_wo_entrp">    -21.42188715 </i>
    <i name="e_0_energy">    -21.42188715 </i>
   </energy>
  </scstep>
  <scstep>
   <time name="dav">    1.13    1.13</time>
   <time name="total">    1.24    1.25</time>
   <energy>
    <i name="e_fr_energy">    -21.42188740 </i>
    <i name="e_wo_entrp">    -21.42188740 </i>
    <i name="e_0_energy">    -21.42188740 </i>
   </energy>
  </scstep>
  <scstep>
   <time name="dav">    1.14    1.14</time>
   <time name="total">    1.26    1.26</time>
   <energy>
    <i name="e_fr_energy">    -21.42188735 </i>
    <i name="e_wo_entrp">    -21.42188735 </i>
    <i name="e_0_energy">    -21.42188735 </i>
   </energy>
  </scstep>
  <scstep>
   <time name="dav">    1.14    1.14</time>
   <time name="total">    1.16    1.17</time>
   <energy>
    <i name="alphaZ">      4.96565972 </i>
    <i name="ewald">   1759.20623741 </i>
    <i name="hartreedc">  -2364.25822147 </i>
    <i name="XCdc">     13.88129113 </i>
    <i name="pawpsdc">   2055.40459957 </i>
    <i name="pawaedc">  -2023.08057959 </i>
    <i name="eentropy">     -0.00000000 </i>
    <i name="bandstr">   -171.70865978 </i>
    <i name="atom">    704.16778566 </i>
    <i name="e_fr_energy">    -21.42188735 </i>
    <i name="e_wo_entrp">    -21.42188735 </i>
    <i name="e_0_energy">    -21.42188735 </i>
   </energy>
  </scstep>
  <structure>
   <crystal>
    <varray name="basis" >
     <v>       3.29720400       0.00000000       0.00000000 </v>
     <v>       0.00000000       4.89289500      -0.00005300 </v>
     <v>       0.00000000       0.00000000      20.02439000 </v>
    </varray>
    <i name="volume">    323.05094008 </i>
    <varray name="rec_basis" >
     <v>       0.30328727       0.00000000       0.00000000 </v>
     <v>       0.00000000       0.20437798       0.00000000 </v>
     <v>       0.00000000       0.00000054       0.04993910 </v>
    </varray>
   </crystal>
   <varray name="positions" >
    <v>       0.50000000       0.90236479       0.55149441 </v>
    <v>       0.50000000       0.09763521       0.44850559 </v>
    <v>       0.00000000       0.40236042       0.44850559 </v>
    <v>      -0.00000000       0.59763958       0.55149441 </v>
   </varray>
  </structure>
  <varray name="forces" >
   <v>      -0.00000011      -0.00108852      -0.00003549 </v>
   <v>       0.00000011       0.00108852       0.00003549 </v>
   <v>      -0.00000013      -0.00109405       0.00003543 </v>
   <v>       0.00000013       0.00109405      -0.00003543 </v>
  </varray>
  <varray name="stress" >
   <v>      -3.61985391      -0.00000171       0.00000031 </v>
   <v>      -0.00000177      -6.30134607       0.00012402 </v>
   <v>       0.00000034       0.00012404      -0.07369935 </v>
  </varray>
  <energy>
   <i name="e_fr_energy">    -21.42188735 </i>
   <i name="e_wo_entrp">    -21.42188735 </i>
   <i name="e_0_energy">     -0.00000000 </i>
  </energy>
  <time name="totalsc">    9.49    9.51</time>
  <eigenvalues>
   <array>
    <dimension dim="1">band</dimension>
    <dimension dim="2">kpoint</dimension>
    <dimension dim="3">spin</dimension>
    <field>eigene</field>
    <field>occ</field>
    <set>
     <set comment="spin 1">
      <set comment="kpoint 1">
       <r>  -17.2653    1.0000 </r>
       <r>  -14.9911    1.0000 </r>
       <r>  -11.8973    1.0000 </r>
       <r>   -8.0496    1.0000 </r>
       <r>   -7.3903    1.0000 </r>
       <r>   -6.8023    1.0000 </r>
       <r>   -5.6645    1.0000 </r>
       <r>   -4.2239    1.0000 </r>
       <r>   -3.9430    1.0000 </r>
       <r>   -2.5160    1.0000 </r>
       <r>   -1.4057    0.0000 </r>
       <r>   -0.7708    0.0000 </r>
       <r>    0.1032    0.0000 </r>
       <r>    0.6149    0.0000 </r>
       <r>    1.9366    0.0000 </r>
       <r>    2.2211    0.0000 </r>
      </set>
      <set comment="kpoint 2">
       <r>  -17.2409    1.0000 </r>
       <r>  -14.9654    1.0000 </r>
       <r>  -11.9005    1.0000 </r>
       <r>   -8.0319    1.0000 </r>
       <r>   -7.4011    1.0000 </r>
       <r>   -6.7810    1.0000 </r>
       <r>   -5.8344    1.0000 </r>
       <r>   -4.4026    1.0000 </r>
       <r>   -3.9366    1.0000 </r>
       <r>   -2.5162    1.0000 </r>
       <r>   -1.3840    0.0000 </r>
       <r>   -0.5406    0.0000 </r>
       <r>    0.3289    0.0000 </r>
       <r>    0.4681    0.0000 </r>
       <r>    1.9616    0.0000 </r>
       <r>    2.2490    0.0000 </r>
      </set>
      <set comment="kpoint 3">
       <r>  -17.1675    1.0000 </r>
       <r>  -14.8883    1.0000 </r>
       <r>  -11.9138    1.0000 </r>
       <r>   -7.9798    1.0000 </r>
       <r>   -7.4476    1.0000 </r>
       <r>   -6.7172    1.0000 </r>
       <r>   -6.2569    1.0000 </r>
       <r>   -4.8263    1.0000 </r>
       <r>   -3.9213    1.0000 </r>
       <r>   -2.5288    1.0000 </r>
       <r>   -1.3195    0.0000 </r>
       <r>    0.0743    0.0000 </r>
       <r>    0.1029    0.0000 </r>
       <r>    0.8872    0.0000 </r>
       <r>    2.0310    0.0000 </r>
       <r>    2.3319    0.0000 </r>
      </set>
      <set comment="kpoint 4">
       <r>  -17.0456    1.0000 </r>
       <r>  -14.7600    1.0000 </r>
       <r>  -11.9490    1.0000 </r>
       <r>   -7.8956    1.0000 </r>
       <r>   -7.5769    1.0000 </r>
       <r>   -6.7784    1.0000 </r>
       <r>   -6.6124    1.0000 </r>
       <r>   -5.2904    1.0000 </r>
       <r>   -3.9095    1.0000 </r>
       <r>   -2.5691    1.0000 </r>
       <r>   -1.2146    0.0000 </r>
       <r>   -0.3465    0.0000 </r>
       <r>    0.9331    0.0000 </r>
       <r>    1.5085    0.0000 </r>
       <r>    2.0778    0.0000 </r>
       <r>    2.4534    0.0000 </r>
      </set>
      <set comment="kpoint 5">
       <r>  -16.8757    1.0000 </r>
       <r>  -14.5806    1.0000 </r>
       <r>  -12.0258    1.0000 </r>
       <r>   -7.8600    1.0000 </r>
       <r>   -7.7843    1.0000 </r>
       <r>   -7.2843    1.0000 </r>
       <r>   -6.4689    1.0000 </r>
       <r>   -5.6271    1.0000 </r>
       <r>   -3.9234    1.0000 </r>
       <r>   -2.6479    1.0000 </r>
       <r>   -1.0744    0.0000 </r>
       <r>   -0.7716    0.0000 </r>
       <r>    1.6505    0.0000 </r>
       <r>    1.7110    0.0000 </r>
       <r>    1.9074    0.0000 </r>
       <r>    2.4527    0.0000 </r>
      </set>
      <set comment="kpoint 6">
       <r>  -16.6588    1.0000 </r>
       <r>  -14.3507    1.0000 </r>
       <r>  -12.1691    1.0000 </r>
       <r>   -8.3223    1.0000 </r>
       <r>   -7.7009    1.0000 </r>
       <r>   -7.6542    1.0000 </r>
       <r>   -6.2905    1.0000 </r>
       <r>   -5.7654    1.0000 </r>
       <r>   -3.9922    1.0000 </r>
       <r>   -2.7756    1.0000 </r>
       <r>   -1.0909    0.0000 </r>
       <r>   -0.9119    0.0000 </r>
       <r>    1.1816    0.0000 </r>
       <r>    1.1880    0.0000 </r>
       <r>    2.5086    0.0000 </r>
       <r>    2.6788    0.0000 </r>
      </set>
      <set comment="kpoint 7">
       <r>  -16.3960    1.0000 </r>
       <r>  -14.0706    1.0000 </r>
       <r>  -12.3996    1.0000 </r>
       <r>   -8.9054    1.0000 </r>
       <r>   -7.9835    1.0000 </r>
       <r>   -7.5193    1.0000 </r>
       <r>   -6.0834    1.0000 </r>
       <r>   -5.7453    1.0000 </r>
       <r>   -4.1320    1.0000 </r>
       <r>   -2.9598    1.0000 </r>
       <r>   -1.2504    0.0000 </r>
       <r>   -0.7632    0.0000 </r>
       <r>    0.5930    0.0000 </r>
       <r>    0.7103    0.0000 </r>
       <r>    2.1478    0.0000 </r>
       <r>    2.9772    0.0000 </r>
      </set>
      <set comment="kpoint 8">
       <r>  -16.0892    1.0000 </r>
       <r>  -13.7410    1.0000 </r>
       <r>  -12.7214    1.0000 </r>
       <r>   -9.5382    1.0000 </r>
       <r>   -8.1169    1.0000 </r>
       <r>   -7.4021    1.0000 </r>
       <r>   -5.8577    1.0000 </r>
       <r>   -5.6338    1.0000 </r>
       <r>   -4.3180    1.0000 </r>
       <r>   -3.1997    1.0000 </r>
       <r>   -1.2397    0.0000 </r>
       <r>   -0.7293    0.0000 </r>
       <r>    0.0078    0.0000 </r>
       <r>    0.4346    0.0000 </r>
       <r>    1.6962    0.0000 </r>
       <r>    3.0808    0.0000 </r>
      </set>
      <set comment="kpoint 9">
       <r>  -15.7408    1.0000 </r>
       <r>  -13.3627    1.0000 </r>
       <r>  -13.1180    1.0000 </r>
       <r>  -10.1773    1.0000 </r>
       <r>   -8.1148    1.0000 </r>
       <r>   -7.3350    1.0000 </r>
       <r>   -5.6289    1.0000 </r>
       <r>   -5.4821    1.0000 </r>
       <r>   -4.4850    1.0000 </r>
       <r>   -3.4832    1.0000 </r>
       <r>   -1.0853    0.0000 </r>
       <r>   -0.9047    0.0000 </r>
       <r>   -0.5187    0.0000 </r>
       <r>    0.4750    0.0000 </r>
       <r>    1.2456    0.0000 </r>
       <r>    2.7454    0.0000 </r>
      </set>
      <set comment="kpoint 10">
       <r>  -15.3542    1.0000 </r>
       <r>  -13.5616    1.0000 </r>
       <r>  -12.9369    1.0000 </r>
       <r>  -10.7996    1.0000 </r>
       <r>   -8.0084    1.0000 </r>
       <r>   -7.3511    1.0000 </r>
       <r>   -5.4209    1.0000 </r>
       <r>   -5.3318    1.0000 </r>
       <r>   -4.5618    1.0000 </r>
       <r>   -3.7883    1.0000 </r>
       <r>   -1.1604    0.0000 </r>
       <r>   -0.9505    0.0000 </r>
       <r>   -0.8233    0.0000 </r>
       <r>    0.7305    0.0000 </r>
       <r>    0.7926    0.0000 </r>
       <r>    2.3418    0.0000 </r>
      </set>
      <set comment="kpoint 11">
       <r>  -14.9342    1.0000 </r>
       <r>  -14.0253    1.0000 </r>
       <r>  -12.4651    1.0000 </r>
       <r>  -11.3927    1.0000 </r>
       <r>   -7.8356    1.0000 </r>
       <r>   -7.4607    1.0000 </r>
       <r>   -5.2659    1.0000 </r>
       <r>   -5.2238    1.0000 </r>
       <r>   -4.5101    1.0000 </r>
       <r>   -4.0852    1.0000 </r>
       <r>   -1.3462    0.0000 </r>
       <r>   -1.2505    0.0000 </r>
       <r>   -0.4836    0.0000 </r>
       <r>    0.3428    0.0000 </r>
       <r>    1.0832    0.0000 </r>
       <r>    1.9122    0.0000 </r>
      </set>
      <set comment="kpoint 12">
       <r>  -14.4878    1.0000 </r>
       <r>  -14.4878    1.0000 </r>
       <r>  -11.9494    1.0000 </r>
       <r>  -11.9494    1.0000 </r>
       <r>   -7.6376    1.0000 </r>
       <r>   -7.6376    1.0000 </r>
       <r>   -5.1959    1.0000 </r>
       <r>   -5.1959    1.0000 </r>
       <r>   -4.3391    1.0000 </r>
       <r>   -4.3391    1.0000 </r>
       <r>   -1.3859    0.0000 </r>
       <r>   -1.3859    0.0000 </r>
       <r>   -0.0885    0.0000 </r>
       <r>   -0.0885    0.0000 </r>
       <r>    1.4853    0.0000 </r>
       <r>    1.4853    0.0000 </r>
      </set>
      <set comment="kpoint 13">
       <r>  -17.2469    1.0000 </r>
       <r>  -15.0266    1.0000 </r>
       <r>  -11.8789    1.0000 </r>
       <r>   -8.2516    1.0000 </r>
       <r>   -7.2173    1.0000 </r>
       <r>   -6.7348    1.0000 </r>
       <r>   -5.6506    1.0000 </r>
       <r>   -4.2410    1.0000 </r>
       <r>   -3.8896    1.0000 </r>
       <r>   -2.6870    1.0000 </r>
       <r>   -1.2402    0.0000 </r>
       <r>   -0.7565    0.0000 </r>
       <r>    0.0591    0.0000 </r>
       <r>    0.6207    0.0000 </r>
       <r>    1.9845    0.0000 </r>
       <r>    2.2462    0.0000 </r>
      </set>
      <set comment="kpoint 14">
       <r>  -17.2224    1.0000 </r>
       <r>  -15.0010    1.0000 </r>
       <r>  -11.8814    1.0000 </r>
       <r>   -8.2387    1.0000 </r>
       <r>   -7.2227    1.0000 </r>
       <r>   -6.7180    1.0000 </r>
       <r>   -5.8161    1.0000 </r>
       <r>   -4.4218    1.0000 </r>
       <r>   -3.8848    1.0000 </r>
       <r>   -2.6842    1.0000 </r>
       <r>   -1.2212    0.0000 </r>
       <r>   -0.5271    0.0000 </r>
       <r>    0.2786    0.0000 </r>
       <r>    0.4837    0.0000 </r>
       <r>    2.0087    0.0000 </r>
       <r>    2.2743    0.0000 </r>
      </set>
      <set comment="kpoint 15">
       <r>  -17.1491    1.0000 </r>
       <r>  -14.9244    1.0000 </r>
       <r>  -11.8927    1.0000 </r>
       <r>   -8.2042    1.0000 </r>
       <r>   -7.2495    1.0000 </r>
       <r>   -6.6824    1.0000 </r>
       <r>   -6.2117    1.0000 </r>
       <r>   -4.8497    1.0000 </r>
       <r>   -3.8747    1.0000 </r>
       <r>   -2.6863    1.0000 </r>
       <r>   -1.1675    0.0000 </r>
       <r>    0.0866    0.0000 </r>
       <r>    0.1118    0.0000 </r>
       <r>    0.8545    0.0000 </r>
       <r>    2.0755    0.0000 </r>
       <r>    2.3574    0.0000 </r>
      </set>
      <set comment="kpoint 16">
       <r>  -17.0273    1.0000 </r>
       <r>  -14.7971    1.0000 </r>
       <r>  -11.9244    1.0000 </r>
       <r>   -8.1674    1.0000 </r>
       <r>   -7.3299    1.0000 </r>
       <r>   -6.8534    1.0000 </r>
       <r>   -6.4603    1.0000 </r>
       <r>   -5.3171    1.0000 </r>
       <r>   -3.8724    1.0000 </r>
       <r>   -2.7084    1.0000 </r>
       <r>   -1.0807    0.0000 </r>
       <r>   -0.3225    0.0000 </r>
       <r>    0.9410    0.0000 </r>
       <r>    1.4846    0.0000 </r>
       <r>    2.0814    0.0000 </r>
       <r>    2.3627    0.0000 </r>
      </set>
      <set comment="kpoint 17">
       <r>  -16.8576    1.0000 </r>
       <r>  -14.6194    1.0000 </r>
       <r>  -11.9963    1.0000 </r>
       <r>   -8.1990    1.0000 </r>
       <r>   -7.4737    1.0000 </r>
       <r>   -7.3180    1.0000 </r>
       <r>   -6.3633    1.0000 </r>
       <r>   -5.6518    1.0000 </r>
       <r>   -3.9003    1.0000 </r>
       <r>   -2.7639    1.0000 </r>
       <r>   -0.9633    0.0000 </r>
       <r>   -0.7289    0.0000 </r>
       <r>    1.5647    0.0000 </r>
       <r>    1.6716    0.0000 </r>
       <r>    1.9704    0.0000 </r>
       <r>    2.4359    0.0000 </r>
      </set>
      <set comment="kpoint 18">
       <r>  -16.6408    1.0000 </r>
       <r>  -14.3924    1.0000 </r>
       <r>  -12.1331    1.0000 </r>
       <r>   -8.4660    1.0000 </r>
       <r>   -7.7277    1.0000 </r>
       <r>   -7.5472    1.0000 </r>
       <r>   -6.1989    1.0000 </r>
       <r>   -5.7846    1.0000 </r>
       <r>   -3.9845    1.0000 </r>
       <r>   -2.8666    1.0000 </r>
       <r>   -1.0269    0.0000 </r>
       <r>   -0.8252    0.0000 </r>
       <r>    1.0485    0.0000 </r>
       <r>    1.2420    0.0000 </r>
       <r>    2.5098    0.0000 </r>
       <r>    2.7999    0.0000 </r>
      </set>
      <set comment="kpoint 19">
       <r>  -16.3783    1.0000 </r>
       <r>  -14.1177    1.0000 </r>
       <r>  -12.3552    1.0000 </r>
       <r>   -8.9752    1.0000 </r>
       <r>   -8.0081    1.0000 </r>
       <r>   -7.4907    1.0000 </r>
       <r>   -6.0033    1.0000 </r>
       <r>   -5.7661    1.0000 </r>
       <r>   -4.1334    1.0000 </r>
       <r>   -3.0263    1.0000 </r>
       <r>   -1.1680    0.0000 </r>
       <r>   -0.7016    0.0000 </r>
       <r>    0.5784    0.0000 </r>
       <r>    0.6581    0.0000 </r>
       <r>    2.2681    0.0000 </r>
       <r>    3.0368    0.0000 </r>
      </set>
      <set comment="kpoint 20">
       <r>  -16.0720    1.0000 </r>
       <r>  -13.8013    1.0000 </r>
       <r>  -12.6620    1.0000 </r>
       <r>   -9.5818    1.0000 </r>
       <r>   -8.1395    1.0000 </r>
       <r>   -7.3967    1.0000 </r>
       <r>   -5.7919    1.0000 </r>
       <r>   -5.6723    1.0000 </r>
       <r>   -4.3122    1.0000 </r>
       <r>   -3.2428    1.0000 </r>
       <r>   -1.1475    0.0000 </r>
       <r>   -0.7010    0.0000 </r>
       <r>    0.0771    0.0000 </r>
       <r>    0.3135    0.0000 </r>
       <r>    1.8622    0.0000 </r>
       <r>    3.0209    0.0000 </r>
      </set>
      <set comment="kpoint 21">
       <r>  -15.7242    1.0000 </r>
       <r>  -13.4863    1.0000 </r>
       <r>  -12.9950    1.0000 </r>
       <r>  -10.2093    1.0000 </r>
       <r>   -8.1344    1.0000 </r>
       <r>   -7.3330    1.0000 </r>
       <r>   -5.5849    1.0000 </r>
       <r>   -5.5582    1.0000 </r>
       <r>   -4.4480    1.0000 </r>
       <r>   -3.5014    1.0000 </r>
       <r>   -1.0010    0.0000 </r>
       <r>   -0.9111    0.0000 </r>
       <r>   -0.4406    0.0000 </r>
       <r>    0.3572    0.0000 </r>
       <r>    1.4492    0.0000 </r>
       <r>    2.6936    0.0000 </r>
      </set>
[...]
       <r>    2.9900    0.0000 </r>
       <r>    3.2083    0.0000 </r>
      </set>
      <set comment="kpoint 161">
       <r>  -15.5866    1.0000 </r>
       <r>  -15.3648    1.0000 </r>
       <r>  -11.0115    1.0000 </r>
       <r>  -10.6992    1.0000 </r>
       <r>   -7.9437    1.0000 </r>
       <r>   -7.8097    1.0000 </r>
       <r>   -5.2892    1.0000 </r>
       <r>   -5.0787    1.0000 </r>
       <r>   -4.0373    1.0000 </r>
       <r>   -4.0358    1.0000 </r>
       <r>   -0.1672    0.0000 </r>
       <r>    0.0687    0.0000 </r>
       <r>    0.9386    0.0000 </r>
       <r>    1.1900    0.0000 </r>
       <r>    2.9178    0.0000 </r>
       <r>    3.1485    0.0000 </r>
      </set>
      <set comment="kpoint 162">
       <r>  -15.8363    1.0000 </r>
       <r>  -15.6114    1.0000 </r>
       <r>  -10.8709    1.0000 </r>
       <r>  -10.5494    1.0000 </r>
       <r>   -7.6039    1.0000 </r>
       <r>   -7.4690    1.0000 </r>
       <r>   -5.1882    1.0000 </r>
       <r>   -4.9184    1.0000 </r>
       <r>   -4.1230    1.0000 </r>
       <r>   -4.0020    1.0000 </r>
       <r>   -0.0327    0.0000 </r>
       <r>    0.1174    0.0000 </r>
       <r>    1.0527    0.0000 </r>
       <r>    1.3340    0.0000 </r>
       <r>    2.5825    0.0000 </r>
       <r>    2.8833    0.0000 </r>
      </set>
      <set comment="kpoint 163">
       <r>  -16.0450    1.0000 </r>
       <r>  -15.8184    1.0000 </r>
       <r>  -10.8278    1.0000 </r>
       <r>  -10.5066    1.0000 </r>
       <r>   -7.1010    1.0000 </r>
       <r>   -6.9576    1.0000 </r>
       <r>   -5.2020    1.0000 </r>
       <r>   -4.8897    1.0000 </r>
       <r>   -4.1395    1.0000 </r>
       <r>   -3.9063    1.0000 </r>
       <r>    0.1901    0.0000 </r>
       <r>    0.2479    0.0000 </r>
       <r>    1.0854    0.0000 </r>
       <r>    1.3897    0.0000 </r>
       <r>    2.0086    0.0000 </r>
       <r>    2.2366    0.0000 </r>
      </set>
      <set comment="kpoint 164">
       <r>  -16.2096    1.0000 </r>
       <r>  -15.9822    1.0000 </r>
       <r>  -10.8379    1.0000 </r>
       <r>  -10.5203    1.0000 </r>
       <r>   -6.5015    1.0000 </r>
       <r>   -6.3484    1.0000 </r>
       <r>   -5.2599    1.0000 </r>
       <r>   -4.9341    1.0000 </r>
       <r>   -4.1393    1.0000 </r>
       <r>   -3.8273    1.0000 </r>
       <r>    0.3919    0.0000 </r>
       <r>    0.4150    0.0000 </r>
       <r>    1.0467    0.0000 </r>
       <r>    1.3390    0.0000 </r>
       <r>    1.3954    0.0000 </r>
       <r>    1.5284    0.0000 </r>
      </set>
      <set comment="kpoint 165">
       <r>  -16.3283    1.0000 </r>
       <r>  -16.1004    1.0000 </r>
       <r>  -10.8655    1.0000 </r>
       <r>  -10.5514    1.0000 </r>
       <r>   -5.8802    1.0000 </r>
       <r>   -5.7284    1.0000 </r>
       <r>   -5.3104    1.0000 </r>
       <r>   -4.9918    1.0000 </r>
       <r>   -4.1768    1.0000 </r>
       <r>   -3.8100    1.0000 </r>
       <r>    0.2152    0.0000 </r>
       <r>    0.2522    0.0000 </r>
       <r>    1.0205    0.0000 </r>
       <r>    1.0472    0.0000 </r>
       <r>    1.2603    0.0000 </r>
       <r>    1.3657    0.0000 </r>
      </set>
      <set comment="kpoint 166">
       <r>  -16.4000    1.0000 </r>
       <r>  -16.1718    1.0000 </r>
       <r>  -10.8890    1.0000 </r>
       <r>  -10.5771    1.0000 </r>
       <r>   -5.4015    1.0000 </r>
       <r>   -5.3358    1.0000 </r>
       <r>   -5.1383    1.0000 </r>
       <r>   -5.0339    1.0000 </r>
       <r>   -4.2771    1.0000 </r>
       <r>   -3.8663    1.0000 </r>
       <r>   -0.2279    0.0000 </r>
       <r>   -0.1954    0.0000 </r>
       <r>    1.0431    0.0000 </r>
       <r>    1.1528    0.0000 </r>
       <r>    1.3405    0.0000 </r>
       <r>    1.3788    0.0000 </r>
      </set>
     </set>
    </set>
   </array>
  </eigenvalues>
  <separator name="orbital magnetization" >
   <v name="MAGDIPOLOUT">      0.00000000      0.00000000      0.00000000</v>
  </separator>
  <dos>
   <i name="efermi">     -2.38060980 </i>
   <total>
    <array>
     <dimension dim="1">gridpoints</dimension>
     <dimension dim="2">spin</dimension>
     <field>energy</field>
     <field>total</field>
     <field>integrated</field>
     <set>
      <set comment="spin 1">
       <r>   -18.2931     0.0000     0.0000 </r>
       <r>   -18.2177     0.0000     0.0000 </r>
       <r>   -18.1424     0.0000     0.0000 </r>
       <r>   -18.0670     0.0000     0.0000 </r>
       <r>   -17.9916     0.0000     0.0000 </r>
       <r>   -17.9163     0.0000     0.0000 </r>
       <r>   -17.8409     0.0000     0.0000 </r>
       <r>   -17.7655     0.0000     0.0000 </r>
       <r>   -17.6902     0.0000     0.0000 </r>
       <r>   -17.6148     0.0000     0.0000 </r>
       <r>   -17.5394     0.0000     0.0000 </r>
       <r>   -17.4640     0.0000     0.0000 </r>
       <r>   -17.3887     0.0000     0.0000 </r>
       <r>   -17.3133     0.0000     0.0000 </r>
       <r>   -17.2379     0.3344     0.0252 </r>
       <r>   -17.1626     0.9082     0.0937 </r>
       <r>   -17.0872     0.8768     0.1597 </r>
       <r>   -17.0118     0.9035     0.2278 </r>
       <r>   -16.9365     1.0315     0.3056 </r>
       <r>   -16.8611     0.9028     0.3736 </r>
       <r>   -16.7857     0.9649     0.4464 </r>
       <r>   -16.7103     0.8828     0.5129 </r>
       <r>   -16.6350     0.6469     0.5617 </r>
       <r>   -16.5596     1.4799     0.6732 </r>
       <r>   -16.4842     0.5873     0.7175 </r>
       <r>   -16.4089     0.8637     0.7826 </r>
       <r>   -16.3335     1.3224     0.8822 </r>
       <r>   -16.2581     0.5774     0.9257 </r>
       <r>   -16.1828     1.3386     1.0266 </r>
       <r>   -16.1074     0.6600     1.0764 </r>
       <r>   -16.0320     1.3300     1.1766 </r>
       <r>   -15.9566     1.0714     1.2574 </r>
       <r>   -15.8813     0.7930     1.3172 </r>
       <r>   -15.8059     1.1741     1.4057 </r>
       <r>   -15.7305     0.9296     1.4757 </r>
       <r>   -15.6552     1.3457     1.5771 </r>
       <r>   -15.5798     1.3523     1.6791 </r>
       <r>   -15.5044     0.6158     1.7255 </r>
       <r>   -15.4291     1.1497     1.8121 </r>
       <r>   -15.3537     1.1115     1.8959 </r>
       <r>   -15.2783     1.8395     2.0345 </r>
       <r>   -15.2029     0.9253     2.1043 </r>
       <r>   -15.1276     1.1951     2.1944 </r>
       <r>   -15.0522     1.8185     2.3314 </r>
       <r>   -14.9768     1.4233     2.4387 </r>
       <r>   -14.9015     1.6117     2.5602 </r>
       <r>   -14.8261     1.9045     2.7037 </r>
       <r>   -14.7507     1.1174     2.7879 </r>
       <r>   -14.6754     1.0350     2.8659 </r>
       <r>   -14.6000     1.4906     2.9783 </r>
       <r>   -14.5246     0.6296     3.0257 </r>
       <r>   -14.4492     1.5487     3.1425 </r>
       <r>   -14.3739     1.6178     3.2644 </r>
       <r>   -14.2985     1.3966     3.3697 </r>
       <r>   -14.2231     1.3203     3.4692 </r>
       <r>   -14.1478     0.7773     3.5278 </r>
       <r>   -14.0724     1.3937     3.6328 </r>
       <r>   -13.9970     1.4819     3.7445 </r>
       <r>   -13.9217     0.6799     3.7957 </r>
       <r>   -13.8463     0.3034     3.8186 </r>
       <r>   -13.7709     0.6352     3.8665 </r>
       <r>   -13.6955     0.3464     3.8926 </r>
       <r>   -13.6202     0.4751     3.9284 </r>
       <r>   -13.5448     0.4488     3.9622 </r>
       <r>   -13.4694     0.3028     3.9850 </r>
       <r>   -13.3941     0.0398     3.9880 </r>
       <r>   -13.3187     0.1585     4.0000 </r>
       <r>   -13.2433     0.0001     4.0000 </r>
       <r>   -13.1680     0.0000     4.0000 </r>
       <r>   -13.0926     0.1549     4.0117 </r>
       <r>   -13.0172     0.0245     4.0135 </r>
       <r>   -12.9418     0.3624     4.0408 </r>
       <r>   -12.8665     0.4216     4.0726 </r>
       <r>   -12.7911     0.5061     4.1108 </r>
       <r>   -12.7157     0.2560     4.1301 </r>
       <r>   -12.6404     0.6664     4.1803 </r>
       <r>   -12.5650     0.3086     4.2035 </r>
       <r>   -12.4896     0.7956     4.2635 </r>
       <r>   -12.4143     1.6120     4.3850 </r>
       <r>   -12.3389     1.3799     4.4890 </r>
       <r>   -12.2635     1.1064     4.5724 </r>
       <r>   -12.1881     1.0338     4.6503 </r>
       <r>   -12.1128     1.4442     4.7592 </r>
       <r>   -12.0374     1.2693     4.8548 </r>
       <r>   -11.9620     1.8363     4.9932 </r>
       <r>   -11.8867     1.9530     5.1404 </r>
       <r>   -11.8113     2.8667     5.3565 </r>
       <r>   -11.7359     1.1728     5.4449 </r>
       <r>   -11.6606     1.4226     5.5521 </r>
       <r>   -11.5852     1.0897     5.6342 </r>
       <r>   -11.5098     2.0391     5.7879 </r>
       <r>   -11.4344     0.5133     5.8266 </r>
       <r>   -11.3591     2.2093     5.9931 </r>
       <r>   -11.2837     0.8612     6.0580 </r>
       <r>   -11.2083     0.2792     6.0791 </r>
       <r>   -11.1330     1.4648     6.1895 </r>
       <r>   -11.0576     0.9448     6.2607 </r>
       <r>   -10.9822     0.7875     6.3200 </r>
       <r>   -10.9069     0.3491     6.3463 </r>
       <r>   -10.8315     2.0391     6.5000 </r>
       <r>   -10.7561     0.6830     6.5515 </r>
       <r>   -10.6807     0.5262     6.5912 </r>
       <r>   -10.6054     0.4597     6.6258 </r>
       <r>   -10.5300     1.1516     6.7126 </r>
       <r>   -10.4546     0.7174     6.7667 </r>
       <r>   -10.3793     0.6348     6.8145 </r>
       <r>   -10.3039     0.3590     6.8416 </r>
       <r>   -10.2285     0.5303     6.8816 </r>
       <r>   -10.1531     1.7618     7.0143 </r>
       <r>   -10.0778     0.4579     7.0489 </r>
       <r>   -10.0024     0.3164     7.0727 </r>
       <r>    -9.9270     0.0055     7.0731 </r>
       <r>    -9.8517     0.7410     7.1290 </r>
       <r>    -9.7763     1.2233     7.2212 </r>
       <r>    -9.7009     0.6382     7.2693 </r>
       <r>    -9.6256     0.1265     7.2788 </r>
       <r>    -9.5502     0.3492     7.3051 </r>
       <r>    -9.4748     0.3828     7.3340 </r>
       <r>    -9.3994     1.4095     7.4402 </r>
       <r>    -9.3241     0.4313     7.4727 </r>
       <r>    -9.2487     0.0000     7.4727 </r>
       <r>    -9.1733     0.0648     7.4776 </r>
       <r>    -9.0980     0.5398     7.5183 </r>
       <r>    -9.0226     0.5047     7.5563 </r>
       <r>    -8.9472     1.2935     7.6538 </r>
       <r>    -8.8719     0.1689     7.6666 </r>
       <r>    -8.7965     0.0058     7.6670 </r>
       <r>    -8.7211     0.3170     7.6909 </r>
       <r>    -8.6457     0.0306     7.6932 </r>
       <r>    -8.5704     1.1939     7.7832 </r>
       <r>    -8.4950     0.2296     7.8005 </r>
       <r>    -8.4196     0.3150     7.8242 </r>
       <r>    -8.3443     0.0099     7.8250 </r>
       <r>    -8.2689     0.4123     7.8561 </r>
       <r>    -8.1935     2.9519     8.0785 </r>
       <r>    -8.1182     2.7470     8.2856 </r>
       <r>    -8.0428     2.9531     8.5081 </r>
       <r>    -7.9674     1.8900     8.6506 </r>
       <r>    -7.8920     1.0370     8.7288 </r>
       <r>    -7.8167     2.9337     8.9499 </r>
       <r>    -7.7413     1.7518     9.0819 </r>
       <r>    -7.6659     1.7877     9.2166 </r>
       <r>    -7.5906     2.6104     9.4134 </r>
       <r>    -7.5152     1.8585     9.5535 </r>
       <r>    -7.4398     3.1898     9.7939 </r>
       <r>    -7.3645     5.5102    10.2092 </r>
       <r>    -7.2891     4.1098    10.5189 </r>
       <r>    -7.2137     1.4449    10.6278 </r>
       <r>    -7.1383     1.0669    10.7082 </r>
       <r>    -7.0630     0.3317    10.7332 </r>
       <r>    -6.9876     0.2658    10.7533 </r>
       <r>    -6.9122     1.5453    10.8698 </r>
       <r>    -6.8369     1.2443    10.9635 </r>
       <r>    -6.7615     1.0712    11.0443 </r>
       <r>    -6.6861     1.9053    11.1879 </r>
       <r>    -6.6108     1.8112    11.3244 </r>
       <r>    -6.5354     1.3597    11.4269 </r>
       <r>    -6.4600     1.6974    11.5548 </r>
       <r>    -6.3846     0.6712    11.6054 </r>
       <r>    -6.3093     2.5163    11.7950 </r>
       <r>    -6.2339     2.0642    11.9506 </r>
       <r>    -6.1585     2.0674    12.1064 </r>
       <r>    -6.0832     1.0060    12.1823 </r>
       <r>    -6.0078     2.8826    12.3995 </r>
       <r>    -5.9324     1.7017    12.5278 </r>
       <r>    -5.8571     1.7898    12.6627 </r>
       <r>    -5.7817     5.5107    13.0780 </r>
       <r>    -5.7063     4.7563    13.4365 </r>
       <r>    -5.6309     3.8142    13.7240 </r>
       <r>    -5.5556     2.5107    13.9132 </r>
       <r>    -5.4802     3.3103    14.1627 </r>
       <r>    -5.4048     4.0528    14.4682 </r>
       <r>    -5.3295     3.3480    14.7205 </r>
       <r>    -5.2541     2.8720    14.9370 </r>
       <r>    -5.1787     2.3647    15.1152 </r>
       <r>    -5.1034     1.3776    15.2190 </r>
       <r>    -5.0280     1.2305    15.3118 </r>
       <r>    -4.9526     1.7061    15.4404 </r>
       <r>    -4.8772     2.4539    15.6253 </r>
       <r>    -4.8019     0.8720    15.6910 </r>
       <r>    -4.7265     0.7721    15.7492 </r>
       <r>    -4.6511     0.6466    15.7980 </r>
       <r>    -4.5758     1.4838    15.9098 </r>
       <r>    -4.5004     1.1377    15.9956 </r>
       <r>    -4.4250     1.3995    16.1010 </r>
       <r>    -4.3497     1.6148    16.2227 </r>
       <r>    -4.2743     2.0403    16.3765 </r>
       <r>    -4.1989     2.5881    16.5716 </r>
       <r>    -4.1235     3.6346    16.8455 </r>
       <r>    -4.0482     2.4943    17.0335 </r>
       <r>    -3.9728     3.2860    17.2812 </r>
       <r>    -3.8974     4.0943    17.5898 </r>
       <r>    -3.8221     4.4437    17.9247 </r>
       <r>    -3.7467     4.0457    18.2296 </r>
       <r>    -3.6713     3.1644    18.4681 </r>
       <r>    -3.5960     2.6969    18.6714 </r>
       <r>    -3.5206     4.5257    19.0125 </r>
       <r>    -3.4452     3.2877    19.2603 </r>
       <r>    -3.3698     3.8237    19.5485 </r>
       <r>    -3.2945     0.2817    19.5697 </r>
       <r>    -3.2191     0.3638    19.5971 </r>
       <r>    -3.1437     0.4405    19.6303 </r>
       <r>    -3.0684     0.3503    19.6567 </r>
       <r>    -2.9930     1.7338    19.7874 </r>
       <r>    -2.9176     0.1670    19.8000 </r>
       <r>    -2.8423     0.3081    19.8232 </r>
       <r>    -2.7669     0.2655    19.8432 </r>
       <r>    -2.6915     0.7869    19.9025 </r>
       <r>    -2.6161     0.7285    19.9574 </r>
       <r>    -2.5408     0.2008    19.9726 </r>
       <r>    -2.4654     0.3639    20.0000 </r>
       <r>    -2.3900     0.0000    20.0000 </r>
       <r>    -2.3147     0.0000    20.0000 </r>
       <r>    -2.2393     0.0000    20.0000 </r>
       <r>    -2.1639     0.0000    20.0000 </r>
       <r>    -2.0886     0.0000    20.0000 </r>
       <r>    -2.0132     0.0000    20.0000 </r>
       <r>    -1.9378     0.0000    20.0000 </r>
       <r>    -1.8624     0.0000    20.0000 </r>
       <r>    -1.7871     0.0000    20.0000 </r>
       <r>    -1.7117     0.0000    20.0000 </r>
       <r>    -1.6363     0.0000    20.0000 </r>
       <r>    -1.5610     0.0000    20.0000 </r>
       <r>    -1.4856     0.0000    20.0000 </r>
       <r>    -1.4102     0.0589    20.0044 </r>
       <r>    -1.3348     1.7130    20.1335 </r>
       <r>    -1.2595     0.6990    20.1862 </r>
       <r>    -1.1841     2.3767    20.3654 </r>
       <r>    -1.1087     1.9537    20.5126 </r>
       <r>    -1.0334     1.2668    20.6081 </r>
       <r>    -0.9580     1.5777    20.7270 </r>
       <r>    -0.8826     2.8917    20.9449 </r>
       <r>    -0.8073     2.3177    21.1196 </r>
       <r>    -0.7319     1.7691    21.2530 </r>
       <r>    -0.6565     2.2282    21.4209 </r>
       <r>    -0.5811     2.7624    21.6291 </r>
       <r>    -0.5058     3.0180    21.8566 </r>
       <r>    -0.4304     2.4468    22.0410 </r>
       <r>    -0.3550     3.2320    22.2846 </r>
       <r>    -0.2797     3.6886    22.5626 </r>
       <r>    -0.2043     3.0442    22.7920 </r>
       <r>    -0.1289     2.3978    22.9728 </r>
       <r>    -0.0536     2.7353    23.1789 </r>
       <r>     0.0218     3.3872    23.4342 </r>
       <r>     0.0972     3.4363    23.6932 </r>
       <r>     0.1726     4.9013    24.0626 </r>
       <r>     0.2479     4.7031    24.4171 </r>
       <r>     0.3233     6.0540    24.8734 </r>
       <r>     0.3987     3.9251    25.1692 </r>
       <r>     0.4740     3.9867    25.4697 </r>
       <r>     0.5494     2.9433    25.6915 </r>
       <r>     0.6248     3.4137    25.9488 </r>
       <r>     0.7001     2.6659    26.1497 </r>
       <r>     0.7755     4.5689    26.4941 </r>
       <r>     0.8509     2.8336    26.7077 </r>
       <r>     0.9263     1.6105    26.8291 </r>
       <r>     1.0016     2.5407    27.0205 </r>
       <r>     1.0770     2.9252    27.2410 </r>
       <r>     1.1524     2.1616    27.4039 </r>
       <r>     1.2277     1.0019    27.4794 </r>
       <r>     1.3031     1.5840    27.5988 </r>
       <r>     1.3785     2.9598    27.8219 </r>
       <r>     1.4538     2.0030    27.9729 </r>
       <r>     1.5292     3.5385    28.2396 </r>
       <r>     1.6046     3.0029    28.4659 </r>
       <r>     1.6800     1.7123    28.5950 </r>
       <r>     1.7553     1.9765    28.7439 </r>
       <r>     1.8307     1.3661    28.8469 </r>
       <r>     1.9061     1.9200    28.9916 </r>
       <r>     1.9814     2.4597    29.1770 </r>
       <r>     2.0568     2.4145    29.3590 </r>
       <r>     2.1322     1.8600    29.4992 </r>
       <r>     2.2075     3.4245    29.7573 </r>
       <r>     2.2829     3.1343    29.9935 </r>
       <r>     2.3583     3.6404    30.2679 </r>
       <r>     2.4337     2.9503    30.4902 </r>
       <r>     2.5090     3.2009    30.7315 </r>
       <r>     2.5844     2.9445    30.9534 </r>
       <r>     2.6598     1.9167    31.0979 </r>
       <r>     2.7351     1.7704    31.2313 </r>
       <r>     2.8105     0.9880    31.3058 </r>
       <r>     2.8859     2.2923    31.4785 </r>
       <r>     2.9612     1.2372    31.5718 </r>
       <r>     3.0366     2.3318    31.7475 </r>
       <r>     3.1120     0.8661    31.8128 </r>
       <r>     3.1874     1.7472    31.9445 </r>
       <r>     3.2627     0.4231    31.9764 </r>
       <r>     3.3381     0.3131    32.0000 </r>
       <r>     3.4135     0.0001    32.0000 </r>
       <r>     3.4888     0.0000    32.0000 </r>
       <r>     3.5642     0.0000    32.0000 </r>
       <r>     3.6396     0.0000    32.0000 </r>
       <r>     3.7149     0.0000    32.0000 </r>
       <r>     3.7903     0.0000    32.0000 </r>
       <r>     3.8657     0.0000    32.0000 </r>
       <r>     3.9411     0.0000    32.0000 </r>
       <r>     4.0164     0.0000    32.0000 </r>
       <r>     4.0918     0.0000    32.0000 </r>
       <r>     4.1672     0.0000    32.0000 </r>
       <r>     4.2425     0.0000    32.0000 </r>
       <r>     4.3179     0.0000    32.0000 </r>
      </set>
     </set>
    </array>
   </total>
  </dos>
 </calculation>
 <structure name="finalpos" >
  <crystal>
   <varray name="basis" >
    <v>       3.29720400       0.00000000       0.00000000 </v>
    <v>       0.00000000       4.89289500      -0.00005300 </v>
    <v>       0.00000000       0.00000000      20.02439000 </v>
   </varray>
   <i name="volume">    323.05094008 </i>
   <varray name="rec_basis" >
    <v>       0.30328727       0.00000000       0.00000000 </v>
    <v>       0.00000000       0.20437798       0.00000000 </v>
    <v>       0.00000000       0.00000054       0.04993910 </v>
   </varray>
  </crystal>
  <varray name="positions" >
   <v>       0.50000000       0.90236479       0.55149441 </v>
   <v>       0.50000000       0.09763521       0.44850559 </v>
   <v>       0.00000000       0.40236042       0.44850559 </v>
   <v>      -0.00000000       0.59763958       0.55149441 </v>
  </varray>
 </structure>
</modeling>
