<?xml version="1.0" encoding="ISO-8859-1"?>
<modeling>
 <generator>
  <i name="program" type="string">vasp </i>
  <i name="version" type="string">5.4.1  </i>
  <i name="subversion" type="string">24Jun15 (build Nov 20 2020 10:29:34) complex                          parallel </i>
  <i name="platform" type="string">IFC91_ompi </i>
  <i name="date" type="string">2021 09 09 </i>
  <i name="time" type="string">15:25:32 </i>
 </generator>
 <incar>
  <i type="string" name="PREC">a</i>
  <i type="string" name="ALGO"> Normal</i>
  <i type="int" name="ISPIN">     1</i>
  <i type="int" name="ICHARG">     2</i>
  <i type="int" name="NELM">   250</i>
  <i type="int" name="NELMDL">    -5</i>
  <i type="int" name="NELMIN">     6</i>
  <i type="int" name="IBRION">     2</i>
  <i name="EDIFF">      0.00001000</i>
  <i name="EDIFFG">     -0.01000000</i>
  <i type="int" name="NSW">   200</i>
  <i type="int" name="ISIF">     2</i>
  <i name="ENCUT">    520.00000000</i>
  <i name="POTIM">      0.30000000</i>
  <i type="logical" name="LREAL"> F  </i>
  <i type="int" name="ISMEAR">     0</i>
  <i name="SIGMA">      0.02000000</i>
  <i type="logical" name="LWAVE"> F  </i>
  <i type="logical" name="LCHARG"> F  </i>
  <i type="logical" name="LAECHG"> F  </i>
  <v type="int" name="KPOINT_BSE">    -1     0     0     0</v>
  <i type="int" name="NELM">   250</i>
 </incar>
 <kpoints>
  <generation param="Gamma">
   <v type="int" name="divisions">      21       16        1 </v>
   <v name="usershift">      0.00000000       0.00000000       0.00000000 </v>
   <v name="genvec1">      0.04761905       0.00000000       0.00000000 </v>
   <v name="genvec2">      0.00000000       0.06250000       0.00000000 </v>
   <v name="genvec3">      0.00000000       0.00000000       1.00000000 </v>
   <v name="shift">      0.00000000       0.00000000       0.00000000 </v>
  </generation>
  <varray name="kpointlist" >
   <v>       0.00000000       0.00000000       0.00000000 </v>
   <v>       0.04761905       0.00000000       0.00000000 </v>
   <v>       0.09523810       0.00000000       0.00000000 </v>
   <v>       0.14285714       0.00000000       0.00000000 </v>
   <v>       0.19047619       0.00000000       0.00000000 </v>
   <v>       0.23809524       0.00000000       0.00000000 </v>
   <v>       0.28571429       0.00000000       0.00000000 </v>
   <v>       0.33333333       0.00000000       0.00000000 </v>
   <v>       0.38095238       0.00000000       0.00000000 </v>
   <v>       0.42857143       0.00000000       0.00000000 </v>
   <v>       0.47619048       0.00000000       0.00000000 </v>
   <v>       0.00000000       0.06250000       0.00000000 </v>
   <v>       0.04761905       0.06250000       0.00000000 </v>
   <v>       0.09523810       0.06250000       0.00000000 </v>
   <v>       0.14285714       0.06250000       0.00000000 </v>
   <v>       0.19047619       0.06250000       0.00000000 </v>
   <v>       0.23809524       0.06250000       0.00000000 </v>
   <v>       0.28571429       0.06250000       0.00000000 </v>
   <v>       0.33333333       0.06250000       0.00000000 </v>
   <v>       0.38095238       0.06250000       0.00000000 </v>
   <v>       0.42857143       0.06250000       0.00000000 </v>
   <v>       0.47619048       0.06250000       0.00000000 </v>
   <v>      -0.47619048       0.06250000       0.00000000 </v>
   <v>      -0.42857143       0.06250000       0.00000000 </v>
   <v>      -0.38095238       0.06250000       0.00000000 </v>
   <v>      -0.33333333       0.06250000       0.00000000 </v>
   <v>      -0.28571429       0.06250000       0.00000000 </v>
   <v>      -0.23809524       0.06250000       0.00000000 </v>
   <v>      -0.19047619       0.06250000       0.00000000 </v>
   <v>      -0.14285714       0.06250000       0.00000000 </v>
   <v>      -0.09523810       0.06250000       0.00000000 </v>
   <v>      -0.04761905       0.06250000       0.00000000 </v>
   <v>       0.00000000       0.12500000       0.00000000 </v>
   <v>       0.04761905       0.12500000       0.00000000 </v>
   <v>       0.09523810       0.12500000       0.00000000 </v>
   <v>       0.14285714       0.12500000       0.00000000 </v>
   <v>       0.19047619       0.12500000       0.00000000 </v>
   <v>       0.23809524       0.12500000       0.00000000 </v>
   <v>       0.28571429       0.12500000       0.00000000 </v>
   <v>       0.33333333       0.12500000       0.00000000 </v>
   <v>       0.38095238       0.12500000       0.00000000 </v>
   <v>       0.42857143       0.12500000       0.00000000 </v>
   <v>       0.47619048       0.12500000       0.00000000 </v>
   <v>      -0.47619048       0.12500000       0.00000000 </v>
   <v>      -0.42857143       0.12500000       0.00000000 </v>
   <v>      -0.38095238       0.12500000       0.00000000 </v>
   <v>      -0.33333333       0.12500000       0.00000000 </v>
   <v>      -0.28571429       0.12500000       0.00000000 </v>
   <v>      -0.23809524       0.12500000       0.00000000 </v>
   <v>      -0.19047619       0.12500000       0.00000000 </v>
   <v>      -0.14285714       0.12500000       0.00000000 </v>
   <v>      -0.09523810       0.12500000       0.00000000 </v>
   <v>      -0.04761905       0.12500000       0.00000000 </v>
   <v>       0.00000000       0.18750000       0.00000000 </v>
   <v>       0.04761905       0.18750000       0.00000000 </v>
   <v>       0.09523810       0.18750000       0.00000000 </v>
   <v>       0.14285714       0.18750000       0.00000000 </v>
   <v>       0.19047619       0.18750000       0.00000000 </v>
   <v>       0.23809524       0.18750000       0.00000000 </v>
   <v>       0.28571429       0.18750000       0.00000000 </v>
   <v>       0.33333333       0.18750000       0.00000000 </v>
   <v>       0.38095238       0.18750000       0.00000000 </v>
   <v>       0.42857143       0.18750000       0.00000000 </v>
   <v>       0.47619048       0.18750000       0.00000000 </v>
   <v>      -0.47619048       0.18750000       0.00000000 </v>
   <v>      -0.42857143       0.18750000       0.00000000 </v>
   <v>      -0.38095238       0.18750000       0.00000000 </v>
   <v>      -0.33333333       0.18750000       0.00000000 </v>
   <v>      -0.28571429       0.18750000       0.00000000 </v>
   <v>      -0.23809524       0.18750000       0.00000000 </v>
   <v>      -0.19047619       0.18750000       0.00000000 </v>
   <v>      -0.14285714       0.18750000       0.00000000 </v>
   <v>      -0.09523810       0.18750000       0.00000000 </v>
   <v>      -0.04761905       0.18750000       0.00000000 </v>
   <v>       0.00000000       0.25000000       0.00000000 </v>
   <v>       0.04761905       0.25000000       0.00000000 </v>
   <v>       0.09523810       0.25000000       0.00000000 </v>
   <v>       0.14285714       0.25000000       0.00000000 </v>
   <v>       0.19047619       0.25000000       0.00000000 </v>
   <v>       0.23809524       0.25000000       0.00000000 </v>
   <v>       0.28571429       0.25000000       0.00000000 </v>
   <v>       0.33333333       0.25000000       0.00000000 </v>
   <v>       0.38095238       0.25000000       0.00000000 </v>
   <v>       0.42857143       0.25000000       0.00000000 </v>
   <v>       0.47619048       0.25000000       0.00000000 </v>
   <v>      -0.47619048       0.25000000       0.00000000 </v>
   <v>      -0.42857143       0.25000000       0.00000000 </v>
   <v>      -0.38095238       0.25000000       0.00000000 </v>
   <v>      -0.33333333       0.25000000       0.00000000 </v>
   <v>      -0.28571429       0.25000000       0.00000000 </v>
   <v>      -0.23809524       0.25000000       0.00000000 </v>
   <v>      -0.19047619       0.25000000       0.00000000 </v>
   <v>      -0.14285714       0.25000000       0.00000000 </v>
   <v>      -0.09523810       0.25000000       0.00000000 </v>
   <v>      -0.04761905       0.25000000       0.00000000 </v>
   <v>       0.00000000       0.31250000       0.00000000 </v>
   <v>       0.04761905       0.31250000       0.00000000 </v>
   <v>       0.09523810       0.31250000       0.00000000 </v>
   <v>       0.14285714       0.31250000       0.00000000 </v>
   <v>       0.19047619       0.31250000       0.00000000 </v>
   <v>       0.23809524       0.31250000       0.00000000 </v>
   <v>       0.28571429       0.31250000       0.00000000 </v>
   <v>       0.33333333       0.31250000       0.00000000 </v>
   <v>       0.38095238       0.31250000       0.00000000 </v>
   <v>       0.42857143       0.31250000       0.00000000 </v>
   <v>       0.47619048       0.31250000       0.00000000 </v>
   <v>      -0.47619048       0.31250000       0.00000000 </v>
   <v>      -0.42857143       0.31250000       0.00000000 </v>
   <v>      -0.38095238       0.31250000       0.00000000 </v>
   <v>      -0.33333333       0.31250000       0.00000000 </v>
   <v>      -0.28571429       0.31250000       0.00000000 </v>
   <v>      -0.23809524       0.31250000       0.00000000 </v>
   <v>      -0.19047619       0.31250000       0.00000000 </v>
   <v>      -0.14285714       0.31250000       0.00000000 </v>
   <v>      -0.09523810       0.31250000       0.00000000 </v>
   <v>      -0.04761905       0.31250000       0.00000000 </v>
   <v>       0.00000000       0.37500000       0.00000000 </v>
   <v>       0.04761905       0.37500000       0.00000000 </v>
   <v>       0.09523810       0.37500000       0.00000000 </v>
   <v>       0.14285714       0.37500000       0.00000000 </v>
   <v>       0.19047619       0.37500000       0.00000000 </v>
   <v>       0.23809524       0.37500000       0.00000000 </v>
   <v>       0.28571429       0.37500000       0.00000000 </v>
   <v>       0.33333333       0.37500000       0.00000000 </v>
   <v>       0.38095238       0.37500000       0.00000000 </v>
   <v>       0.42857143       0.37500000       0.00000000 </v>
   <v>       0.47619048       0.37500000       0.00000000 </v>
   <v>      -0.47619048       0.37500000       0.00000000 </v>
   <v>      -0.42857143       0.37500000       0.00000000 </v>
   <v>      -0.38095238       0.37500000       0.00000000 </v>
   <v>      -0.33333333       0.37500000       0.00000000 </v>
   <v>      -0.28571429       0.37500000       0.00000000 </v>
   <v>      -0.23809524       0.37500000       0.00000000 </v>
   <v>      -0.19047619       0.37500000       0.00000000 </v>
   <v>      -0.14285714       0.37500000       0.00000000 </v>
   <v>      -0.09523810       0.37500000       0.00000000 </v>
   <v>      -0.04761905       0.37500000       0.00000000 </v>
   <v>       0.00000000       0.43750000       0.00000000 </v>
   <v>       0.04761905       0.43750000       0.00000000 </v>
   <v>       0.09523810       0.43750000       0.00000000 </v>
   <v>       0.14285714       0.43750000       0.00000000 </v>
   <v>       0.19047619       0.43750000       0.00000000 </v>
   <v>       0.23809524       0.43750000       0.00000000 </v>
   <v>       0.28571429       0.43750000       0.00000000 </v>
   <v>       0.33333333       0.43750000       0.00000000 </v>
   <v>       0.38095238       0.43750000       0.00000000 </v>
   <v>       0.42857143       0.43750000       0.00000000 </v>
   <v>       0.47619048       0.43750000       0.00000000 </v>
   <v>      -0.47619048       0.43750000       0.00000000 </v>
   <v>      -0.42857143       0.43750000       0.00000000 </v>
   <v>      -0.38095238       0.43750000       0.00000000 </v>
   <v>      -0.33333333       0.43750000       0.00000000 </v>
   <v>      -0.28571429       0.43750000       0.00000000 </v>
   <v>      -0.23809524       0.43750000       0.00000000 </v>
   <v>      -0.19047619       0.43750000       0.00000000 </v>
   <v>      -0.14285714       0.43750000       0.00000000 </v>
   <v>      -0.09523810       0.43750000       0.00000000 </v>
   <v>      -0.04761905       0.43750000       0.00000000 </v>
   <v>       0.00000000       0.50000000       0.00000000 </v>
   <v>       0.04761905       0.50000000       0.00000000 </v>
   <v>       0.09523810       0.50000000       0.00000000 </v>
   <v>       0.14285714       0.50000000       0.00000000 </v>
   <v>       0.19047619       0.50000000       0.00000000 </v>
   <v>       0.23809524       0.50000000       0.00000000 </v>
   <v>       0.28571429       0.50000000       0.00000000 </v>
   <v>       0.33333333       0.50000000       0.00000000 </v>
   <v>       0.38095238       0.50000000       0.00000000 </v>
   <v>       0.42857143       0.50000000       0.00000000 </v>
   <v>       0.47619048       0.50000000       0.00000000 </v>
  </varray>
  <varray name="weights" >
   <v>       0.00297619 </v>
   <v>       0.00595238 </v>
   <v>       0.00595238 </v>
   <v>       0.00595238 </v>
   <v>       0.00595238 </v>
   <v>       0.00595238 </v>
   <v>       0.00595238 </v>
   <v>       0.00595238 </v>
   <v>       0.00595238 </v>
   <v>       0.00595238 </v>
   <v>       0.00595238 </v>
   <v>       0.00595238 </v>
   <v>       0.00595238 </v>
   <v>       0.00595238 </v>
   <v>       0.00595238 </v>
   <v>       0.00595238 </v>
   <v>       0.00595238 </v>
   <v>       0.00595238 </v>
   <v>       0.00595238 </v>
   <v>       0.00595238 </v>
   <v>       0.00595238 </v>
   <v>       0.00595238 </v>
   <v>       0.00595238 </v>
   <v>       0.00595238 </v>
   <v>       0.00595238 </v>
   <v>       0.00595238 </v>
   <v>       0.00595238 </v>
   <v>       0.00595238 </v>
   <v>       0.00595238 </v>
   <v>       0.00595238 </v>
   <v>       0.00595238 </v>
   <v>       0.00595238 </v>
   <v>       0.00595238 </v>
   <v>       0.00595238 </v>
   <v>       0.00595238 </v>
   <v>       0.00595238 </v>
   <v>       0.00595238 </v>
   <v>       0.00595238 </v>
   <v>       0.00595238 </v>
   <v>       0.00595238 </v>
   <v>       0.00595238 </v>
   <v>       0.00595238 </v>
   <v>       0.00595238 </v>
   <v>       0.00595238 </v>
   <v>       0.00595238 </v>
   <v>       0.00595238 </v>
   <v>       0.00595238 </v>
   <v>       0.00595238 </v>
   <v>       0.00595238 </v>
   <v>       0.00595238 </v>
   <v>       0.00595238 </v>
   <v>       0.00595238 </v>
   <v>       0.00595238 </v>
   <v>       0.00595238 </v>
   <v>       0.00595238 </v>
   <v>       0.00595238 </v>
   <v>       0.00595238 </v>
   <v>       0.00595238 </v>
   <v>       0.00595238 </v>
   <v>       0.00595238 </v>
   <v>       0.00595238 </v>
   <v>       0.00595238 </v>
   <v>       0.00595238 </v>
   <v>       0.00595238 </v>
   <v>       0.00595238 </v>
   <v>       0.00595238 </v>
   <v>       0.00595238 </v>
   <v>       0.00595238 </v>
   <v>       0.00595238 </v>
   <v>       0.00595238 </v>
   <v>       0.00595238 </v>
   <v>       0.00595238 </v>
   <v>       0.00595238 </v>
   <v>       0.00595238 </v>
   <v>       0.00595238 </v>
   <v>       0.00595238 </v>
   <v>       0.00595238 </v>
   <v>       0.00595238 </v>
   <v>       0.00595238 </v>
   <v>       0.00595238 </v>
   <v>       0.00595238 </v>
   <v>       0.00595238 </v>
   <v>       0.00595238 </v>
   <v>       0.00595238 </v>
   <v>       0.00595238 </v>
   <v>       0.00595238 </v>
   <v>       0.00595238 </v>
   <v>       0.00595238 </v>
   <v>       0.00595238 </v>
   <v>       0.00595238 </v>
   <v>       0.00595238 </v>
   <v>       0.00595238 </v>
   <v>       0.00595238 </v>
   <v>       0.00595238 </v>
   <v>       0.00595238 </v>
   <v>       0.00595238 </v>
   <v>       0.00595238 </v>
   <v>       0.00595238 </v>
   <v>       0.00595238 </v>
   <v>       0.00595238 </v>
   <v>       0.00595238 </v>
   <v>       0.00595238 </v>
   <v>       0.00595238 </v>
   <v>       0.00595238 </v>
   <v>       0.00595238 </v>
   <v>       0.00595238 </v>
   <v>       0.00595238 </v>
   <v>       0.00595238 </v>
   <v>       0.00595238 </v>
   <v>       0.00595238 </v>
   <v>       0.00595238 </v>
   <v>       0.00595238 </v>
   <v>       0.00595238 </v>
   <v>       0.00595238 </v>
   <v>       0.00595238 </v>
   <v>       0.00595238 </v>
   <v>       0.00595238 </v>
   <v>       0.00595238 </v>
   <v>       0.00595238 </v>
   <v>       0.00595238 </v>
   <v>       0.00595238 </v>
   <v>       0.00595238 </v>
   <v>       0.00595238 </v>
   <v>       0.00595238 </v>
   <v>       0.00595238 </v>
   <v>       0.00595238 </v>
   <v>       0.00595238 </v>
   <v>       0.00595238 </v>
   <v>       0.00595238 </v>
   <v>       0.00595238 </v>
   <v>       0.00595238 </v>
   <v>       0.00595238 </v>
   <v>       0.00595238 </v>
   <v>       0.00595238 </v>
   <v>       0.00595238 </v>
   <v>       0.00595238 </v>
   <v>       0.00595238 </v>
   <v>       0.00595238 </v>
   <v>       0.00595238 </v>
   <v>       0.00595238 </v>
   <v>       0.00595238 </v>
   <v>       0.00595238 </v>
   <v>       0.00595238 </v>
   <v>       0.00595238 </v>
   <v>       0.00595238 </v>
   <v>       0.00595238 </v>
   <v>       0.00595238 </v>
   <v>       0.00595238 </v>
   <v>       0.00595238 </v>
   <v>       0.00595238 </v>
   <v>       0.00595238 </v>
   <v>       0.00595238 </v>
   <v>       0.00595238 </v>
   <v>       0.00595238 </v>
   <v>       0.00595238 </v>
   <v>       0.00595238 </v>
   <v>       0.00595238 </v>
   <v>       0.00595238 </v>
   <v>       0.00297619 </v>
   <v>       0.00595238 </v>
   <v>       0.00595238 </v>
   <v>       0.00595238 </v>
   <v>       0.00595238 </v>
   <v>       0.00595238 </v>
   <v>       0.00595238 </v>
   <v>       0.00595238 </v>
   <v>       0.00595238 </v>
   <v>       0.00595238 </v>
   <v>       0.00595238 </v>
  </varray>
 </kpoints>
 <parameters>
  <separator name="general" >
   <i type="string" name="SYSTEM">unknown system</i>
   <i type="logical" name="LCOMPAT"> F  </i>
  </separator>
  <separator name="electronic" >
   <i type="string" name="PREC">a</i>
   <i name="ENMAX">    520.00000000</i>
   <i name="ENAUG">    342.92400000</i>
   <i name="EDIFF">      0.00001000</i>
   <i type="int" name="IALGO">    38</i>
   <i type="int" name="IWAVPR">    11</i>
   <i type="int" name="NBANDS">    16</i>
   <i name="NELECT">     20.00000000</i>
   <i type="int" name="TURBO">     0</i>
   <i type="int" name="IRESTART">     0</i>
   <i type="int" name="NREBOOT">     0</i>
   <i type="int" name="NMIN">     0</i>
   <i name="EREF">      0.00000000</i>
   <separator name="electronic smearing" >
    <i type="int" name="ISMEAR">     0</i>
    <i name="SIGMA">      0.02000000</i>
    <i name="KSPACING">      0.50000000</i>
    <i type="logical" name="KGAMMA"> T  </i>
   </separator>
   <separator name="electronic projectors" >
    <i type="logical" name="LREAL"> F  </i>
    <v name="ROPT">      0.00000000</v>
    <i type="int" name="LMAXPAW">  -100</i>
    <i type="int" name="LMAXMIX">     2</i>
    <i type="logical" name="NLSPLINE"> F  </i>
   </separator>
   <separator name="electronic startup" >
    <i type="int" name="ISTART">     0</i>
    <i type="int" name="ICHARG">     2</i>
    <i type="int" name="INIWAV">     1</i>
   </separator>
   <separator name="electronic spin" >
    <i type="int" name="ISPIN">     1</i>
    <i type="logical" name="LNONCOLLINEAR"> F  </i>
    <v name="MAGMOM">      1.00000000      1.00000000      1.00000000      1.00000000</v>
    <i name="NUPDOWN">     -1.00000000</i>
    <i type="logical" name="LSORBIT"> F  </i>
    <v name="SAXIS">      0.00000000      0.00000000      1.00000000</v>
    <i type="logical" name="LSPIRAL"> F  </i>
    <v name="QSPIRAL">      0.00000000      0.00000000      0.00000000</v>
    <i type="logical" name="LZEROZ"> F  </i>
   </separator>
   <separator name="electronic exchange-correlation" >
    <i type="logical" name="LASPH"> F  </i>
    <i type="logical" name="LMETAGGA"> F  </i>
   </separator>
   <separator name="electronic convergence" >
    <i type="int" name="NELM">   250</i>
    <i type="int" name="NELMDL">    -5</i>
    <i type="int" name="NELMIN">     6</i>
    <i name="ENINI">    520.00000000</i>
    <separator name="electronic convergence detail" >
     <i type="logical" name="LDIAG"> T  </i>
     <i type="logical" name="LSUBROT"> F  </i>
     <i name="WEIMIN">      0.00100000</i>
     <i name="EBREAK">      0.00000016</i>
     <i name="DEPER">      0.30000000</i>
     <i type="int" name="NRMM">     4</i>
     <i name="TIME">      0.40000000</i>
    </separator>
   </separator>
   <separator name="electronic mixer" >
    <i name="AMIX">      0.40000000</i>
    <i name="BMIX">      1.00000000</i>
    <i name="AMIN">      0.10000000</i>
    <i name="AMIX_MAG">      1.60000000</i>
    <i name="BMIX_MAG">      1.00000000</i>
    <separator name="electronic mixer details" >
     <i type="int" name="IMIX">     4</i>
     <i type="logical" name="MIXFIRST"> F  </i>
     <i type="int" name="MAXMIX">   -45</i>
     <i name="WC">    100.00000000</i>
     <i type="int" name="INIMIX">     1</i>
     <i type="int" name="MIXPRE">     1</i>
     <i type="int" name="MREMOVE">     5</i>
    </separator>
   </separator>
   <separator name="electronic dipolcorrection" >
    <i type="logical" name="LDIPOL"> F  </i>
    <i type="logical" name="LMONO"> F  </i>
    <i type="int" name="IDIPOL">     0</i>
    <i name="EPSILON">      1.00000000</i>
    <v name="DIPOL">   -100.00000000   -100.00000000   -100.00000000</v>
    <i name="EFIELD">      0.00000000</i>
   </separator>
  </separator>
  <separator name="grids" >
   <i type="int" name="NGX">    28</i>
   <i type="int" name="NGY">    36</i>
   <i type="int" name="NGZ">   150</i>
   <i type="int" name="NGXF">    56</i>
   <i type="int" name="NGYF">    72</i>
   <i type="int" name="NGZF">   300</i>
   <i type="logical" name="ADDGRID"> F  </i>
  </separator>
  <separator name="ionic" >
   <i type="int" name="NSW">   200</i>
   <i type="int" name="IBRION">     2</i>
   <i type="int" name="ISIF">     2</i>
   <i name="PSTRESS">      0.00000000</i>
   <i name="EDIFFG">     -0.01000000</i>
   <i type="int" name="NFREE">     1</i>
   <i name="POTIM">      0.30000000</i>
   <i name="SMASS">     -3.00000000</i>
   <i name="SCALEE">      1.00000000</i>
  </separator>
  <separator name="ionic md" >
   <i name="TEBEG">      0.00010000</i>
   <i name="TEEND">      0.00010000</i>
   <i type="int" name="NBLOCK">     1</i>
   <i type="int" name="KBLOCK">   200</i>
   <i type="int" name="NPACO">   256</i>
   <i name="APACO">     16.00000000</i>
  </separator>
  <separator name="symmetry" >
   <i type="int" name="ISYM">     2</i>
   <i name="SYMPREC">      0.00001000</i>
  </separator>
  <separator name="dos" >
   <i type="logical" name="LORBIT"> F  </i>
   <v name="RWIGS">     -1.00000000</v>
   <i type="int" name="NEDOS">   301</i>
   <i name="EMIN">     10.00000000</i>
   <i name="EMAX">    -10.00000000</i>
   <i name="EFERMI">      0.00000000</i>
  </separator>
  <separator name="writing" >
   <i type="int" name="NWRITE">     2</i>
   <i type="logical" name="LWAVE"> F  </i>
   <i type="logical" name="LCHARG"> F  </i>
   <i type="logical" name="LPARD"> F  </i>
   <i type="logical" name="LVTOT"> F  </i>
   <i type="logical" name="LVHAR"> F  </i>
   <i type="logical" name="LELF"> F  </i>
   <i type="logical" name="LOPTICS"> F  </i>
   <v name="STM">      0.00000000      0.00000000      0.00000000      0.00000000      0.00000000      0.00000000      0.00000000</v>
  </separator>
  <separator name="performance" >
   <i type="int" name="NPAR">     4</i>
   <i type="int" name="NSIM">     4</i>
   <i type="int" name="NBLK">    -1</i>
   <i type="logical" name="LPLANE"> T  </i>
   <i type="logical" name="LSCALAPACK"> T  </i>
   <i type="logical" name="LSCAAWARE"> F  </i>
   <i type="logical" name="LSCALU"> F  </i>
   <i type="logical" name="LASYNC"> F  </i>
   <i type="logical" name="LORBITALREAL"> F  </i>
  </separator>
  <separator name="miscellaneous" >
   <i type="int" name="IDIOT">     3</i>
   <i type="logical" name="LMUSIC"> F  </i>
   <v name="POMASS">     30.97400000</v>
   <v name="DARWINR">      0.00000000</v>
   <v name="DARWINV">      1.00000000</v>
   <i type="logical" name="LCORR"> T  </i>
  </separator>
  <i type="logical" name="GGA_COMPAT"> T  </i>
  <i type="logical" name="LBERRY"> F  </i>
  <i type="int" name="ICORELEVEL">     0</i>
  <i type="logical" name="LDAU"> F  </i>
  <i type="int" name="I_CONSTRAINED_M">     0</i>
  <separator name="electronic exchange-correlation" >
   <i type="string" name="GGA">--</i>
   <i type="int" name="VOSKOWN">     0</i>
   <i type="logical" name="LHFCALC"> F  </i>
   <i type="string" name="PRECFOCK"></i>
   <i type="logical" name="LSYMGRAD"> F  </i>
   <i type="logical" name="LHFONE"> F  </i>
   <i type="logical" name="LRHFCALC"> F  </i>
   <i type="logical" name="LTHOMAS"> F  </i>
   <i type="logical" name="LMODELHF"> F  </i>
   <i name="ENCUT4O">     -1.00000000</i>
   <i type="int" name="EXXOEP">     0</i>
   <i type="int" name="FOURORBIT">     0</i>
   <i name="AEXX">      0.00000000</i>
   <i name="HFALPHA">      0.00000000</i>
   <i name="MCALPHA">      0.00000000</i>
   <i name="ALDAX">      1.00000000</i>
   <i name="AGGAX">      1.00000000</i>
   <i name="ALDAC">      1.00000000</i>
   <i name="AGGAC">      1.00000000</i>
   <i type="int" name="NKREDX">     1</i>
   <i type="int" name="NKREDY">     1</i>
   <i type="int" name="NKREDZ">     1</i>
   <i type="logical" name="SHIFTRED"> F  </i>
   <i type="logical" name="ODDONLY"> F  </i>
   <i type="logical" name="EVENONLY"> F  </i>
   <i type="int" name="LMAXFOCK">     0</i>
   <i type="int" name="NMAXFOCKAE">     0</i>
   <i type="logical" name="LFOCKAEDFT"> F  </i>
   <i name="HFSCREEN">      0.00000000</i>
   <i name="HFSCREENC">      0.00000000</i>
   <i type="int" name="NBANDSGWLOW">     0</i>
  </separator>
  <separator name="vdW DFT" >
   <i type="logical" name="LUSE_VDW"> F  </i>
   <i name="Zab_VDW">     -0.84910000</i>
   <i name="PARAM1">      0.12340000</i>
   <i name="PARAM2">      1.00000000</i>
   <i name="PARAM3">      0.00000000</i>
  </separator>
  <separator name="model GW" >
   <i type="int" name="MODEL_GW">     0</i>
   <i name="MODEL_EPS0">     48.88838873</i>
   <i name="MODEL_ALPHA">      1.00000000</i>
  </separator>
  <separator name="linear response parameters" >
   <i type="logical" name="LEPSILON"> F  </i>
   <i type="logical" name="LRPA"> F  </i>
   <i type="logical" name="LNABLA"> F  </i>
   <i type="logical" name="LVEL"> F  </i>
   <i type="int" name="KINTER">     0</i>
   <i name="CSHIFT">      0.10000000</i>
   <i name="OMEGAMAX">     -1.00000000</i>
   <i name="DEG_THRESHOLD">      0.00200000</i>
  </separator>
  <separator name="orbital magnetization" >
   <i type="logical" name="NUCIND"> F  </i>
   <v name="MAGPOS">      0.00000000      0.00000000      0.00000000</v>
   <i type="logical" name="LNICSALL"> T  </i>
   <i type="logical" name="ORBITALMAG"> F  </i>
   <i type="logical" name="LMAGBLOCH"> F  </i>
   <i type="logical" name="LCHIMAG"> F  </i>
   <i type="logical" name="LGAUGE"> T  </i>
   <i type="int" name="MAGATOM">     0</i>
   <v name="MAGDIPOL">      0.00000000      0.00000000      0.00000000</v>
   <v name="AVECCONST">      0.00000000      0.00000000      0.00000000</v>
  </separator>
  <separator name="response functions" >
   <i type="logical" name="LADDER"> F  </i>
   <i type="logical" name="LFXC"> F  </i>
   <i type="logical" name="LHARTREE"> T  </i>
   <i type="int" name="IBSE">     0</i>
   <v type="int" name="KPOINT">    -1     0     0     0</v>
   <i type="logical" name="LTCTE"> F  </i>
   <i type="logical" name="LTETE"> F  </i>
   <i type="logical" name="LTRIPLET"> F  </i>
   <i type="logical" name="LFXCEPS"> F  </i>
   <i type="logical" name="LFXHEG"> F  </i>
   <i type="int" name="NATURALO">     0</i>
   <i type="logical" name="L2ORDER"> F  </i>
   <i type="logical" name="LUSEW"> F  </i>
   <i name="ENCUTGW">     -2.00000000</i>
   <i name="ENCUTGWSOFT">     -2.00000000</i>
   <i name="ENCUTLF">     -1.00000000</i>
   <i type="int" name="LMAXMP2">    -1</i>
   <i name="SCISSOR">      0.00000000</i>
   <i type="int" name="NOMEGA">     0</i>
   <i type="int" name="NOMEGAR">     0</i>
   <i type="int" name="NBANDSGW">    -1</i>
   <i type="int" name="NBANDSO">    -1</i>
   <i type="int" name="NBANDSV">    -1</i>
   <i type="int" name="NELM">   250</i>
   <i type="int" name="NELMHF">     1</i>
   <i type="int" name="DIM">     3</i>
   <i type="int" name="ANTIRES">     0</i>
   <i name="OMEGAMAX">    -30.00000000</i>
   <i name="OMEGAMIN">    -30.00000000</i>
   <i name="OMEGATL">   -200.00000000</i>
   <i type="int" name="OMEGAGRID">     0</i>
   <i name="CSHIFT">     -0.10000000</i>
   <i type="logical" name="SELFENERGY"> F  </i>
   <i type="logical" name="LSPECTRAL"> F  </i>
   <i type="logical" name="LSPECTRALGW"> F  </i>
   <i type="logical" name="LSINGLES"> F  </i>
   <i type="logical" name="LFERMIGW"> F  </i>
   <i type="logical" name="ODDONLYGW"> F  </i>
   <i type="logical" name="EVENONLYGW"> F  </i>
   <i type="int" name="NKREDLFX">     1</i>
   <i type="int" name="NKREDLFY">     1</i>
   <i type="int" name="NKREDLFZ">     1</i>
   <i type="int" name="MAXMEM">  1800</i>
   <i type="int" name="TELESCOPE">     0</i>
   <i type="int" name="TAUPAR">     1</i>
   <i type="int" name="OMEGAPAR">    -1</i>
   <i name="LAMBDA">      1.00000000</i>
  </separator>
  <separator name="External order field" >
   <i name="OFIELD_KAPPA">      0.00000000</i>
   <v name="OFIELD_K">      0.00000000      0.00000000      0.00000000</v>
   <i name="OFIELD_Q6_NEAR">      0.00000000</i>
   <i name="OFIELD_Q6_FAR">      0.00000000</i>
   <i name="OFIELD_A">      0.00000000</i>
  </separator>
 </parameters>
 <atominfo>
  <atoms>       4 </atoms>
  <types>       1 </types>
  <array name="atoms" >
   <dimension dim="1">ion</dimension>
   <field type="string">element</field>
   <field type="int">atomtype</field>
   <set>
    <rc><c>P </c><c>   1</c></rc>
    <rc><c>P </c><c>   1</c></rc>
    <rc><c>P </c><c>   1</c></rc>
    <rc><c>P </c><c>   1</c></rc>
   </set>
  </array>
  <array name="atomtypes" >
   <dimension dim="1">type</dimension>
   <field type="int">atomspertype</field>
   <field type="string">element</field>
   <field>mass</field>
   <field>valence</field>
   <field type="string">pseudopotential</field>
   <set>
    <rc><c>   4</c><c>P </c><c>     30.97400000</c><c>      5.00000000</c><c>  PAW_PBE P 06Sep2000                   </c></rc>
   </set>
  </array>
 </atominfo>
 <structure name="initialpos" >
  <crystal>
   <varray name="basis" >
    <v>       3.52045100       0.00000000       0.00000000 </v>
    <v>       0.00000000       4.62335100      -0.00005300 </v>
    <v>       0.00000000       0.00000000      20.02439000 </v>
   </varray>
   <i name="volume">    325.92259151 </i>
   <varray name="rec_basis" >
    <v>       0.28405451       0.00000000       0.00000000 </v>
    <v>       0.00000000       0.21629333       0.00000000 </v>
    <v>       0.00000000       0.00000057       0.04993910 </v>
   </varray>
  </crystal>
  <varray name="positions" >
   <v>       0.50000000       0.91077300       0.55252100 </v>
   <v>       0.50000000       0.08922700       0.44747900 </v>
   <v>       0.00000000       0.41076900       0.44747900 </v>
   <v>       0.00000000       0.58923100       0.55252100 </v>
  </varray>
 </structure>
 <calculation>
  <scstep>
   <time name="dav">    1.60    1.60</time>
   <time name="total">    1.63    1.63</time>
   <energy>
    <i name="alphaZ">      4.92190809 </i>
    <i name="ewald">   1711.60901888 </i>
    <i name="hartreedc">  -2306.57108161 </i>
    <i name="XCdc">     12.41090557 </i>
    <i name="pawpsdc">    559.04011960 </i>
    <i name="pawaedc">   -526.39432044 </i>
    <i name="eentropy">     -0.00054391 </i>
    <i name="bandstr">    -29.44954137 </i>
    <i name="atom">    704.16778566 </i>
    <i name="e_fr_energy">    129.73425047 </i>
    <i name="e_wo_entrp">    129.73479439 </i>
    <i name="e_0_energy">    129.73452243 </i>
   </energy>
  </scstep>
  <scstep>
   <time name="dav">    2.16    2.16</time>
   <time name="total">    2.16    2.16</time>
   <energy>
    <i name="e_fr_energy">     -5.78265576 </i>
    <i name="e_wo_entrp">     -5.78265576 </i>
    <i name="e_0_energy">     -5.78265576 </i>
   </energy>
  </scstep>
  <scstep>
   <time name="dav">    1.98    1.98</time>
   <time name="total">    1.98    1.98</time>
   <energy>
    <i name="e_fr_energy">    -21.09699240 </i>
    <i name="e_wo_entrp">    -21.09699240 </i>
    <i name="e_0_energy">    -21.09699240 </i>
   </energy>
  </scstep>
  <scstep>
   <time name="dav">    1.98    1.98</time>
   <time name="total">    1.98    1.98</time>
   <energy>
    <i name="e_fr_energy">    -21.41787117 </i>
    <i name="e_wo_entrp">    -21.41787117 </i>
    <i name="e_0_energy">    -21.41787117 </i>
   </energy>
  </scstep>
  <scstep>
   <time name="dav">    2.13    2.13</time>
   <time name="total">    2.23    2.23</time>
   <energy>
    <i name="e_fr_energy">    -21.42811700 </i>
    <i name="e_wo_entrp">    -21.42811700 </i>
    <i name="e_0_energy">    -21.42811700 </i>
   </energy>
  </scstep>
  <scstep>
   <time name="dav">    1.96    1.96</time>
   <time name="total">    2.08    2.08</time>
   <energy>
    <i name="e_fr_energy">    -21.31864953 </i>
    <i name="e_wo_entrp">    -21.31864953 </i>
    <i name="e_0_energy">    -21.31864953 </i>
   </energy>
  </scstep>
  <scstep>
   <time name="dav">    1.89    1.89</time>
   <time name="total">    2.00    2.01</time>
   <energy>
    <i name="e_fr_energy">    -21.26254279 </i>
    <i name="e_wo_entrp">    -21.26254279 </i>
    <i name="e_0_energy">    -21.26254279 </i>
   </energy>
  </scstep>
  <scstep>
   <time name="dav">    2.00    2.00</time>
   <time name="total">    2.12    2.12</time>
   <energy>
    <i name="e_fr_energy">    -21.26271138 </i>
    <i name="e_wo_entrp">    -21.26271138 </i>
    <i name="e_0_energy">    -21.26271138 </i>
   </energy>
  </scstep>
  <scstep>
   <time name="dav">    2.28    2.28</time>
   <time name="total">    2.39    2.40</time>
   <energy>
    <i name="e_fr_energy">    -21.26266492 </i>
    <i name="e_wo_entrp">    -21.26266492 </i>
    <i name="e_0_energy">    -21.26266492 </i>
   </energy>
  </scstep>
  <scstep>
   <time name="dav">    1.99    1.99</time>
   <time name="total">    2.11    2.11</time>
   <energy>
    <i name="e_fr_energy">    -21.26257757 </i>
    <i name="e_wo_entrp">    -21.26257757 </i>
    <i name="e_0_energy">    -21.26257757 </i>
   </energy>
  </scstep>
  <scstep>
   <time name="dav">    1.93    1.93</time>
   <time name="total">    2.04    2.04</time>
   <energy>
    <i name="e_fr_energy">    -21.26255635 </i>
    <i name="e_wo_entrp">    -21.26255635 </i>
    <i name="e_0_energy">    -21.26255635 </i>
   </energy>
  </scstep>
  <scstep>
   <time name="dav">    1.78    1.78</time>
   <time name="total">    1.89    1.90</time>
   <energy>
    <i name="e_fr_energy">    -21.26285950 </i>
    <i name="e_wo_entrp">    -21.26285950 </i>
    <i name="e_0_energy">    -21.26285950 </i>
   </energy>
  </scstep>
  <scstep>
   <time name="dav">    1.71    1.71</time>
   <time name="total">    1.82    1.82</time>
   <energy>
    <i name="e_fr_energy">    -21.26297764 </i>
    <i name="e_wo_entrp">    -21.26297764 </i>
    <i name="e_0_energy">    -21.26297764 </i>
   </energy>
  </scstep>
  <scstep>
   <time name="dav">    1.64    1.64</time>
   <time name="total">    1.76    1.76</time>
   <energy>
    <i name="e_fr_energy">    -21.26305590 </i>
    <i name="e_wo_entrp">    -21.26305590 </i>
    <i name="e_0_energy">    -21.26305590 </i>
   </energy>
  </scstep>
  <scstep>
   <time name="dav">    1.64    1.64</time>
   <time name="total">    1.76    1.76</time>
   <energy>
    <i name="e_fr_energy">    -21.26307926 </i>
    <i name="e_wo_entrp">    -21.26307926 </i>
    <i name="e_0_energy">    -21.26307926 </i>
   </energy>
  </scstep>
  <scstep>
   <time name="dav">    1.62    1.62</time>
   <time name="total">    1.75    1.75</time>
   <energy>
    <i name="e_fr_energy">    -21.26309520 </i>
    <i name="e_wo_entrp">    -21.26309520 </i>
    <i name="e_0_energy">    -21.26309520 </i>
   </energy>
  </scstep>
  <scstep>
   <time name="dav">    1.54    1.54</time>
   <time name="total">    1.56    1.56</time>
   <energy>
    <i name="alphaZ">      4.92190809 </i>
    <i name="ewald">   1711.60901888 </i>
    <i name="hartreedc">  -2319.02582024 </i>
    <i name="XCdc">     13.37083403 </i>
    <i name="pawpsdc">   1833.00149440 </i>
    <i name="pawaedc">  -1800.59745459 </i>
    <i name="eentropy">     -0.00000000 </i>
    <i name="bandstr">   -168.71086544 </i>
    <i name="atom">    704.16778566 </i>
    <i name="e_fr_energy">    -21.26309921 </i>
    <i name="e_wo_entrp">    -21.26309921 </i>
    <i name="e_0_energy">    -21.26309921 </i>
   </energy>
  </scstep>
  <structure>
   <crystal>
    <varray name="basis" >
     <v>       3.52045100       0.00000000       0.00000000 </v>
     <v>       0.00000000       4.62335100      -0.00005300 </v>
     <v>       0.00000000       0.00000000      20.02439000 </v>
    </varray>
    <i name="volume">    325.92259151 </i>
    <varray name="rec_basis" >
     <v>       0.28405451       0.00000000       0.00000000 </v>
     <v>       0.00000000       0.21629333       0.00000000 </v>
     <v>       0.00000000       0.00000057       0.04993910 </v>
    </varray>
   </crystal>
   <varray name="positions" >
    <v>       0.50000000       0.91077300       0.55252100 </v>
    <v>       0.50000000       0.08922700       0.44747900 </v>
    <v>       0.00000000       0.41076900       0.44747900 </v>
    <v>       0.00000000       0.58923100       0.55252100 </v>
   </varray>
  </structure>
  <varray name="forces" >
   <v>       0.00000004      -0.17392673      -0.09396826 </v>
   <v>      -0.00000004       0.17392673       0.09396826 </v>
   <v>       0.00000002      -0.17395403       0.09397284 </v>
   <v>      -0.00000002       0.17395403      -0.09397284 </v>
  </varray>
  <varray name="stress" >
   <v>     -27.58674315       0.00000048       0.00000139 </v>
   <v>       0.00000048      -8.17711721       0.00036689 </v>
   <v>       0.00000142       0.00036688      -2.00376449 </v>
  </varray>
  <energy>
   <i name="e_fr_energy">    -21.26309921 </i>
   <i name="e_wo_entrp">    -21.26309921 </i>
   <i name="e_0_energy">     -0.00000000 </i>
  </energy>
  <time name="totalsc">   34.12   34.16</time>
 </calculation>
 <calculation>
  <scstep>
   <time name="dav">    1.65    1.65</time>
   <time name="total">    1.77    1.77</time>
   <energy>
    <i name="alphaZ">      4.92190809 </i>
    <i name="ewald">   1714.57274006 </i>
    <i name="hartreedc">  -2321.67404076 </i>
    <i name="XCdc">     13.40744862 </i>
    <i name="pawpsdc">   1832.78597992 </i>
    <i name="pawaedc">  -1800.38194927 </i>
    <i name="eentropy">     -0.00000000 </i>
    <i name="bandstr">   -169.06616888 </i>
    <i name="atom">    704.16778566 </i>
    <i name="e_fr_energy">    -21.26629656 </i>
    <i name="e_wo_entrp">    -21.26629656 </i>
    <i name="e_0_energy">    -21.26629656 </i>
   </energy>
  </scstep>
  <scstep>
   <time name="dav">    1.96    1.96</time>
   <time name="total">    2.07    2.08</time>
   <energy>
    <i name="e_fr_energy">    -21.26669470 </i>
    <i name="e_wo_entrp">    -21.26669470 </i>
    <i name="e_0_energy">    -21.26669470 </i>
   </energy>
  </scstep>
  <scstep>
   <time name="dav">    2.16    2.16</time>
   <time name="total">    2.28    2.28</time>
   <energy>
    <i name="e_fr_energy">    -21.26670027 </i>
    <i name="e_wo_entrp">    -21.26670027 </i>
    <i name="e_0_energy">    -21.26670027 </i>
   </energy>
  </scstep>
  <scstep>
   <time name="dav">    1.57    1.57</time>
   <time name="total">    1.69    1.69</time>
   <energy>
    <i name="e_fr_energy">    -21.26670016 </i>
    <i name="e_wo_entrp">    -21.26670016 </i>
    <i name="e_0_energy">    -21.26670016 </i>
   </energy>
  </scstep>
  <scstep>
   <time name="dav">    1.39    1.39</time>
   <time name="total">    1.51    1.51</time>
   <energy>
    <i name="e_fr_energy">    -21.26670227 </i>
    <i name="e_wo_entrp">    -21.26670227 </i>
    <i name="e_0_energy">    -21.26670227 </i>
   </energy>
  </scstep>
  <scstep>
   <time name="dav">    1.31    1.31</time>
   <time name="total">    1.33    1.33</time>
   <energy>
    <i name="alphaZ">      4.92190809 </i>
    <i name="ewald">   1714.57274006 </i>
    <i name="hartreedc">  -2321.67635680 </i>
    <i name="XCdc">     13.41026727 </i>
    <i name="pawpsdc">   1851.25522668 </i>
    <i name="pawaedc">  -1818.85811300 </i>
    <i name="eentropy">     -0.00000000 </i>
    <i name="bandstr">   -169.06016050 </i>
    <i name="atom">    704.16778566 </i>
    <i name="e_fr_energy">    -21.26670253 </i>
    <i name="e_wo_entrp">    -21.26670253 </i>
    <i name="e_0_energy">    -21.26670253 </i>
   </energy>
  </scstep>
  <structure>
   <crystal>
    <varray name="basis" >
     <v>       3.52045100       0.00000000       0.00000000 </v>
     <v>       0.00000000       4.62335100      -0.00005300 </v>
     <v>       0.00000000       0.00000000      20.02439000 </v>
    </varray>
    <i name="volume">    325.92259151 </i>
    <varray name="rec_basis" >
     <v>       0.28405451       0.00000000       0.00000000 </v>
     <v>       0.00000000       0.21629333       0.00000000 </v>
     <v>       0.00000000       0.00000057       0.04993910 </v>
    </varray>
   </crystal>
   <varray name="positions" >
    <v>       0.50000000       0.90968409       0.55238516 </v>
    <v>       0.50000000       0.09031591       0.44761484 </v>
    <v>       0.00000000       0.40967992       0.44761484 </v>
    <v>      -0.00000000       0.59032008       0.55238516 </v>
   </varray>
  </structure>
  <varray name="forces" >
   <v>       0.00000003      -0.09359745      -0.07122551 </v>
   <v>      -0.00000003       0.09359745       0.07122551 </v>
   <v>      -0.00000005      -0.09362104       0.07122748 </v>
   <v>       0.00000005       0.09362104      -0.07122748 </v>
  </varray>
  <varray name="stress" >
   <v>     -27.36277727      -0.00000191       0.00000040 </v>
   <v>      -0.00000195      -6.91863164       0.00031593 </v>
   <v>       0.00000034       0.00031596      -1.56438260 </v>
  </varray>
  <energy>
   <i name="e_fr_energy">    -21.26670253 </i>
   <i name="e_wo_entrp">    -21.26670253 </i>
   <i name="e_0_energy">     -0.00000000 </i>
  </energy>
  <time name="totalsc">   11.51   11.53</time>
 </calculation>
 <calculation>
  <scstep>
   <time name="dav">    1.66    1.66</time>
   <time name="total">    1.77    1.78</time>
   <energy>
    <i name="alphaZ">      4.92190809 </i>
    <i name="ewald">   1718.80431038 </i>
    <i name="hartreedc">  -2325.43009018 </i>
    <i name="XCdc">     13.46236957 </i>
    <i name="pawpsdc">   1851.46831931 </i>
    <i name="pawaedc">  -1819.07113465 </i>
    <i name="eentropy">     -0.00000000 </i>
    <i name="bandstr">   -169.59122682 </i>
    <i name="atom">    704.16778566 </i>
    <i name="e_fr_energy">    -21.26775864 </i>
    <i name="e_wo_entrp">    -21.26775864 </i>
    <i name="e_0_energy">    -21.26775864 </i>
   </energy>
  </scstep>
  <scstep>
   <time name="dav">    1.99    1.99</time>
   <time name="total">    2.10    2.10</time>
   <energy>
    <i name="e_fr_energy">    -21.26856566 </i>
    <i name="e_wo_entrp">    -21.26856566 </i>
    <i name="e_0_energy">    -21.26856566 </i>
   </energy>
  </scstep>
  <scstep>
   <time name="dav">    2.14    2.14</time>
   <time name="total">    2.26    2.26</time>
   <energy>
    <i name="e_fr_energy">    -21.26857382 </i>
    <i name="e_wo_entrp">    -21.26857382 </i>
    <i name="e_0_energy">    -21.26857382 </i>
   </energy>
  </scstep>
  <scstep>
   <time name="dav">    1.63    1.63</time>
   <time name="total">    1.75    1.75</time>
   <energy>
    <i name="e_fr_energy">    -21.26857231 </i>
    <i name="e_wo_entrp">    -21.26857231 </i>
    <i name="e_0_energy">    -21.26857231 </i>
   </energy>
  </scstep>
  <scstep>
   <time name="dav">    1.53    1.53</time>
   <time name="total">    1.65    1.65</time>
   <energy>
    <i name="e_fr_energy">    -21.26857315 </i>
    <i name="e_wo_entrp">    -21.26857315 </i>
    <i name="e_0_energy">    -21.26857315 </i>
   </energy>
  </scstep>
  <scstep>
   <time name="dav">    1.32    1.32</time>
   <time name="total">    1.34    1.34</time>
   <energy>
    <i name="alphaZ">      4.92190809 </i>
    <i name="ewald">   1718.80431038 </i>
    <i name="hartreedc">  -2325.41939631 </i>
    <i name="XCdc">     13.46628788 </i>
    <i name="pawpsdc">   1878.22551512 </i>
    <i name="pawaedc">  -1845.83830948 </i>
    <i name="eentropy">     -0.00000000 </i>
    <i name="bandstr">   -169.59667486 </i>
    <i name="atom">    704.16778566 </i>
    <i name="e_fr_energy">    -21.26857351 </i>
    <i name="e_wo_entrp">    -21.26857351 </i>
    <i name="e_0_energy">    -21.26857351 </i>
   </energy>
  </scstep>
  <structure>
   <crystal>
    <varray name="basis" >
     <v>       3.52045100       0.00000000       0.00000000 </v>
     <v>       0.00000000       4.62335100      -0.00005300 </v>
     <v>       0.00000000       0.00000000      20.02439000 </v>
    </varray>
    <i name="volume">    325.92259151 </i>
    <varray name="rec_basis" >
     <v>       0.28405451       0.00000000       0.00000000 </v>
     <v>       0.00000000       0.21629333       0.00000000 </v>
     <v>       0.00000000       0.00000057       0.04993910 </v>
    </varray>
   </crystal>
   <varray name="positions" >
    <v>       0.50000000       0.90813113       0.55219144 </v>
    <v>       0.50000000       0.09186887       0.44780856 </v>
    <v>       0.00000000       0.40812671       0.44780856 </v>
    <v>      -0.00000000       0.59187329       0.55219144 </v>
   </varray>
  </structure>
  <varray name="forces" >
   <v>       0.00000004       0.02333456      -0.03960492 </v>
   <v>      -0.00000004      -0.02333456       0.03960492 </v>
   <v>      -0.00000004       0.02331643       0.03960227 </v>
   <v>       0.00000004      -0.02331643      -0.03960227 </v>
  </varray>
  <varray name="stress" >
   <v>     -26.99459236      -0.00000149       0.00000027 </v>
   <v>      -0.00000151      -5.11469208       0.00023772 </v>
   <v>       0.00000027       0.00023770      -0.92847974 </v>
  </varray>
  <energy>
   <i name="e_fr_energy">    -21.26857351 </i>
   <i name="e_wo_entrp">    -21.26857351 </i>
   <i name="e_0_energy">     -0.00000000 </i>
  </energy>
  <time name="totalsc">   11.73   11.74</time>
 </calculation>
 <calculation>
  <scstep>
   <time name="dav">    1.58    1.58</time>
   <time name="total">    1.70    1.70</time>
   <energy>
    <i name="alphaZ">      4.92190809 </i>
    <i name="ewald">   1720.21642994 </i>
    <i name="hartreedc">  -2326.74246875 </i>
    <i name="XCdc">     13.47464724 </i>
    <i name="pawpsdc">   1878.54449274 </i>
    <i name="pawaedc">  -1846.15719265 </i>
    <i name="eentropy">     -0.00000000 </i>
    <i name="bandstr">   -169.69432815 </i>
    <i name="atom">    704.16778566 </i>
    <i name="e_fr_energy">    -21.26872589 </i>
    <i name="e_wo_entrp">    -21.26872589 </i>
    <i name="e_0_energy">    -21.26872589 </i>
   </energy>
  </scstep>
  <scstep>
   <time name="dav">    1.95    1.95</time>
   <time name="total">    2.07    2.07</time>
   <energy>
    <i name="e_fr_energy">    -21.26878310 </i>
    <i name="e_wo_entrp">    -21.26878310 </i>
    <i name="e_0_energy">    -21.26878310 </i>
   </energy>
  </scstep>
  <scstep>
   <time name="dav">    1.51    1.51</time>
   <time name="total">    1.63    1.63</time>
   <energy>
    <i name="e_fr_energy">    -21.26878267 </i>
    <i name="e_wo_entrp">    -21.26878267 </i>
    <i name="e_0_energy">    -21.26878267 </i>
   </energy>
  </scstep>
  <scstep>
   <time name="dav">    1.38    1.38</time>
   <time name="total">    1.50    1.50</time>
   <energy>
    <i name="e_fr_energy">    -21.26878440 </i>
    <i name="e_wo_entrp">    -21.26878440 </i>
    <i name="e_0_energy">    -21.26878440 </i>
   </energy>
  </scstep>
  <scstep>
   <time name="dav">    1.30    1.30</time>
   <time name="total">    1.42    1.42</time>
   <energy>
    <i name="e_fr_energy">    -21.26878530 </i>
    <i name="e_wo_entrp">    -21.26878530 </i>
    <i name="e_0_energy">    -21.26878530 </i>
   </energy>
  </scstep>
  <scstep>
   <time name="dav">    1.27    1.27</time>
   <time name="total">    1.29    1.29</time>
   <energy>
    <i name="alphaZ">      4.92190809 </i>
    <i name="ewald">   1720.21642994 </i>
    <i name="hartreedc">  -2326.72767118 </i>
    <i name="XCdc">     13.47515851 </i>
    <i name="pawpsdc">   1882.66880124 </i>
    <i name="pawaedc">  -1850.28292117 </i>
    <i name="eentropy">     -0.00000000 </i>
    <i name="bandstr">   -169.70827694 </i>
    <i name="atom">    704.16778566 </i>
    <i name="e_fr_energy">    -21.26878585 </i>
    <i name="e_wo_entrp">    -21.26878585 </i>
    <i name="e_0_energy">    -21.26878585 </i>
   </energy>
  </scstep>
  <structure>
   <crystal>
    <varray name="basis" >
     <v>       3.52045100       0.00000000       0.00000000 </v>
     <v>       0.00000000       4.62335100      -0.00005300 </v>
     <v>       0.00000000       0.00000000      20.02439000 </v>
    </varray>
    <i name="volume">    325.92259151 </i>
    <varray name="rec_basis" >
     <v>       0.28405451       0.00000000       0.00000000 </v>
     <v>       0.00000000       0.21629333       0.00000000 </v>
     <v>       0.00000000       0.00000057       0.04993910 </v>
    </varray>
   </crystal>
   <varray name="positions" >
    <v>       0.50000000       0.90823123       0.55210693 </v>
    <v>       0.50000000       0.09176877       0.44789307 </v>
    <v>      -0.00000000       0.40822665       0.44789307 </v>
    <v>       0.00000000       0.59177335       0.55210693 </v>
   </varray>
  </structure>
  <varray name="forces" >
   <v>      -0.00000003       0.00866262      -0.01200800 </v>
   <v>       0.00000003      -0.00866262       0.01200800 </v>
   <v>       0.00000002       0.00864808       0.01200760 </v>
   <v>      -0.00000002      -0.00864808      -0.01200760 </v>
  </varray>
  <varray name="stress" >
   <v>     -26.96668152      -0.00000108      -0.00000020 </v>
   <v>      -0.00000108      -5.12415581       0.00020103 </v>
   <v>      -0.00000023       0.00020100      -0.32594510 </v>
  </varray>
  <energy>
   <i name="e_fr_energy">    -21.26878585 </i>
   <i name="e_wo_entrp">    -21.26878585 </i>
   <i name="e_0_energy">     -0.00000000 </i>
  </energy>
  <time name="totalsc">   10.47   10.48</time>
 </calculation>
 <calculation>
  <scstep>
   <time name="dav">    1.59    1.59</time>
   <time name="total">    1.71    1.71</time>
   <energy>
    <i name="alphaZ">      4.92190809 </i>
    <i name="ewald">   1720.85898781 </i>
    <i name="hartreedc">  -2327.32724243 </i>
    <i name="XCdc">     13.47891924 </i>
    <i name="pawpsdc">   1882.78568621 </i>
    <i name="pawaedc">  -1850.39978357 </i>
    <i name="eentropy">     -0.00000000 </i>
    <i name="bandstr">   -169.75506000 </i>
    <i name="atom">    704.16778566 </i>
    <i name="e_fr_energy">    -21.26879899 </i>
    <i name="e_wo_entrp">    -21.26879899 </i>
    <i name="e_0_energy">    -21.26879899 </i>
   </energy>
  </scstep>
  <scstep>
   <time name="dav">    1.99    2.00</time>
   <time name="total">    2.11    2.11</time>
   <energy>
    <i name="e_fr_energy">    -21.26881132 </i>
    <i name="e_wo_entrp">    -21.26881132 </i>
    <i name="e_0_energy">    -21.26881132 </i>
   </energy>
  </scstep>
  <scstep>
   <time name="dav">    1.33    1.33</time>
   <time name="total">    1.45    1.45</time>
   <energy>
    <i name="e_fr_energy">    -21.26881135 </i>
    <i name="e_wo_entrp">    -21.26881135 </i>
    <i name="e_0_energy">    -21.26881135 </i>
   </energy>
  </scstep>
  <scstep>
   <time name="dav">    1.30    1.30</time>
   <time name="total">    1.41    1.42</time>
   <energy>
    <i name="e_fr_energy">    -21.26881180 </i>
    <i name="e_wo_entrp">    -21.26881180 </i>
    <i name="e_0_energy">    -21.26881180 </i>
   </energy>
  </scstep>
  <scstep>
   <time name="dav">    1.26    1.26</time>
   <time name="total">    1.37    1.38</time>
   <energy>
    <i name="e_fr_energy">    -21.26881194 </i>
    <i name="e_wo_entrp">    -21.26881194 </i>
    <i name="e_0_energy">    -21.26881194 </i>
   </energy>
  </scstep>
  <scstep>
   <time name="dav">    1.25    1.25</time>
   <time name="total">    1.27    1.27</time>
   <energy>
    <i name="alphaZ">      4.92190809 </i>
    <i name="ewald">   1720.85898781 </i>
    <i name="hartreedc">  -2327.32550484 </i>
    <i name="XCdc">     13.47924224 </i>
    <i name="pawpsdc">   1884.48410809 </i>
    <i name="pawaedc">  -1852.09886304 </i>
    <i name="eentropy">     -0.00000000 </i>
    <i name="bandstr">   -169.75647604 </i>
    <i name="atom">    704.16778566 </i>
    <i name="e_fr_energy">    -21.26881202 </i>
    <i name="e_wo_entrp">    -21.26881202 </i>
    <i name="e_0_energy">    -21.26881202 </i>
   </energy>
  </scstep>
  <structure>
   <crystal>
    <varray name="basis" >
     <v>       3.52045100       0.00000000       0.00000000 </v>
     <v>       0.00000000       4.62335100      -0.00005300 </v>
     <v>       0.00000000       0.00000000      20.02439000 </v>
    </varray>
    <i name="volume">    325.92259151 </i>
    <varray name="rec_basis" >
     <v>       0.28405451       0.00000000       0.00000000 </v>
     <v>       0.00000000       0.21629333       0.00000000 </v>
     <v>       0.00000000       0.00000057       0.04993910 </v>
    </varray>
   </crystal>
   <varray name="positions" >
    <v>       0.50000000       0.90827675       0.55206849 </v>
    <v>       0.50000000       0.09172325       0.44793151 </v>
    <v>      -0.00000000       0.40827211       0.44793150 </v>
    <v>       0.00000000       0.59172789       0.55206850 </v>
   </varray>
  </structure>
  <varray name="forces" >
   <v>      -0.00000004       0.00180261       0.00044795 </v>
   <v>       0.00000004      -0.00180261      -0.00044795 </v>
   <v>      -0.00000001       0.00178967      -0.00044742 </v>
   <v>       0.00000001      -0.00178967       0.00044742 </v>
  </varray>
  <varray name="stress" >
   <v>     -26.94874196      -0.00000057      -0.00000021 </v>
   <v>      -0.00000053      -5.13095885       0.00018561 </v>
   <v>      -0.00000024       0.00018554      -0.06122558 </v>
  </varray>
  <energy>
   <i name="e_fr_energy">    -21.26881202 </i>
   <i name="e_wo_entrp">    -21.26881202 </i>
   <i name="e_0_energy">     -0.00000000 </i>
  </energy>
  <time name="totalsc">   10.11   10.13</time>
  <eigenvalues>
   <array>
    <dimension dim="1">band</dimension>
    <dimension dim="2">kpoint</dimension>
    <dimension dim="3">spin</dimension>
    <field>eigene</field>
    <field>occ</field>
    <set>
     <set comment="spin 1">
      <set comment="kpoint 1">
       <r>  -16.9916    1.0000 </r>
       <r>  -14.4141    1.0000 </r>
       <r>  -11.6977    1.0000 </r>
       <r>   -7.7607    1.0000 </r>
       <r>   -7.1236    1.0000 </r>
       <r>   -6.5727    1.0000 </r>
       <r>   -6.3746    1.0000 </r>
       <r>   -4.7012    1.0000 </r>
       <r>   -3.7132    1.0000 </r>
       <r>   -2.4608    1.0000 </r>
       <r>   -1.5711    0.0000 </r>
       <r>   -1.1653    0.0000 </r>
       <r>   -0.7649    0.0000 </r>
       <r>    0.1996    0.0000 </r>
       <r>    2.1147    0.0000 </r>
       <r>    2.1958    0.0000 </r>
      </set>
      <set comment="kpoint 2">
       <r>  -16.9685    1.0000 </r>
       <r>  -14.3896    1.0000 </r>
       <r>  -11.7196    1.0000 </r>
       <r>   -7.7441    1.0000 </r>
       <r>   -7.1773    1.0000 </r>
       <r>   -6.5529    1.0000 </r>
       <r>   -6.4822    1.0000 </r>
       <r>   -4.8037    1.0000 </r>
       <r>   -3.7114    1.0000 </r>
       <r>   -2.4752    1.0000 </r>
       <r>   -1.3851    0.0000 </r>
       <r>   -1.1444    0.0000 </r>
       <r>   -0.5783    0.0000 </r>
       <r>    0.0858    0.0000 </r>
       <r>    2.1382    0.0000 </r>
       <r>    2.2220    0.0000 </r>
      </set>
      <set comment="kpoint 3">
       <r>  -16.8995    1.0000 </r>
       <r>  -14.3162    1.0000 </r>
       <r>  -11.7888    1.0000 </r>
       <r>   -7.6951    1.0000 </r>
       <r>   -7.3533    1.0000 </r>
       <r>   -6.7496    1.0000 </r>
       <r>   -6.4938    1.0000 </r>
       <r>   -5.0247    1.0000 </r>
       <r>   -3.7105    1.0000 </r>
       <r>   -2.5268    1.0000 </r>
       <r>   -1.0821    0.0000 </r>
       <r>   -0.8743    0.0000 </r>
       <r>   -0.2008    0.0000 </r>
       <r>   -0.1082    0.0000 </r>
       <r>    2.1964    0.0000 </r>
       <r>    2.3004    0.0000 </r>
      </set>
      <set comment="kpoint 4">
       <r>  -16.7849    1.0000 </r>
       <r>  -14.1939    1.0000 </r>
       <r>  -11.9151    1.0000 </r>
       <r>   -7.6754    1.0000 </r>
       <r>   -7.6161    1.0000 </r>
       <r>   -7.0688    1.0000 </r>
       <r>   -6.3969    1.0000 </r>
       <r>   -5.2178    1.0000 </r>
       <r>   -3.7240    1.0000 </r>
       <r>   -2.6240    1.0000 </r>
       <r>   -0.9806    0.0000 </r>
       <r>   -0.5519    0.0000 </r>
       <r>   -0.1409    0.0000 </r>
       <r>    0.4425    0.0000 </r>
       <r>    2.0471    0.0000 </r>
       <r>    2.4175    0.0000 </r>
      </set>
      <set comment="kpoint 5">
       <r>  -16.6253    1.0000 </r>
       <r>  -14.0231    1.0000 </r>
       <r>  -12.1097    1.0000 </r>
       <r>   -8.1334    1.0000 </r>
       <r>   -7.5116    1.0000 </r>
       <r>   -7.3529    1.0000 </r>
       <r>   -6.2643    1.0000 </r>
       <r>   -5.3112    1.0000 </r>
       <r>   -3.7738    1.0000 </r>
       <r>   -2.7705    1.0000 </r>
       <r>   -0.8700    0.0000 </r>
       <r>   -0.8442    0.0000 </r>
       <r>    0.7111    0.0000 </r>
       <r>    0.7531    0.0000 </r>
       <r>    1.5822    0.0000 </r>
       <r>    2.5416    0.0000 </r>
      </set>
      <set comment="kpoint 6">
       <r>  -16.4216    1.0000 </r>
       <r>  -13.8041    1.0000 </r>
       <r>  -12.3782    1.0000 </r>
       <r>   -8.6803    1.0000 </r>
       <r>   -7.5517    1.0000 </r>
       <r>   -7.3891    1.0000 </r>
       <r>   -6.1002    1.0000 </r>
       <r>   -5.3115    1.0000 </r>
       <r>   -3.8819    1.0000 </r>
       <r>   -2.9668    1.0000 </r>
       <r>   -1.0836    0.0000 </r>
       <r>   -0.6846    0.0000 </r>
       <r>    0.5728    0.0000 </r>
       <r>    1.1016    0.0000 </r>
       <r>    1.5012    0.0000 </r>
       <r>    2.6740    0.0000 </r>
      </set>
      <set comment="kpoint 7">
       <r>  -16.1752    1.0000 </r>
       <r>  -13.5375    1.0000 </r>
       <r>  -12.7153    1.0000 </r>
       <r>   -9.2677    1.0000 </r>
       <r>   -7.6476    1.0000 </r>
       <r>   -7.2612    1.0000 </r>
       <r>   -5.9103    1.0000 </r>
       <r>   -5.2518    1.0000 </r>
       <r>   -4.0497    1.0000 </r>
       <r>   -3.2077    1.0000 </r>
       <r>   -1.1554    0.0000 </r>
       <r>   -0.5353    0.0000 </r>
       <r>    0.1519    0.0000 </r>
       <r>    0.6872    0.0000 </r>
       <r>    1.6859    0.0000 </r>
       <r>    2.7420    0.0000 </r>
      </set>
      <set comment="kpoint 8">
       <r>  -15.8878    1.0000 </r>
       <r>  -13.2241    1.0000 </r>
       <r>  -13.1051    1.0000 </r>
       <r>   -9.8624    1.0000 </r>
       <r>   -7.6460    1.0000 </r>
       <r>   -7.1477    1.0000 </r>
       <r>   -5.7038    1.0000 </r>
       <r>   -5.1657    1.0000 </r>
       <r>   -4.2432    1.0000 </r>
       <r>   -3.4809    1.0000 </r>
       <r>   -1.0871    0.0000 </r>
       <r>   -0.4962    0.0000 </r>
       <r>   -0.2877    0.0000 </r>
       <r>    0.4635    0.0000 </r>
       <r>    1.3667    0.0000 </r>
       <r>    2.5713    0.0000 </r>
      </set>
      <set comment="kpoint 9">
       <r>  -15.5619    1.0000 </r>
       <r>  -13.5272    1.0000 </r>
       <r>  -12.8647    1.0000 </r>
       <r>  -10.4444    1.0000 </r>
       <r>   -7.5661    1.0000 </r>
       <r>   -7.0760    1.0000 </r>
       <r>   -5.4943    1.0000 </r>
       <r>   -5.0849    1.0000 </r>
       <r>   -4.4040    1.0000 </r>
       <r>   -3.7671    1.0000 </r>
       <r>   -0.9034    0.0000 </r>
       <r>   -0.6612    0.0000 </r>
       <r>   -0.6540    0.0000 </r>
       <r>    0.5382    0.0000 </r>
       <r>    0.9477    0.0000 </r>
       <r>    2.2605    0.0000 </r>
      </set>
      <set comment="kpoint 10">
       <r>  -15.2008    1.0000 </r>
       <r>  -13.9619    1.0000 </r>
       <r>  -12.4607    1.0000 </r>
       <r>  -11.0015    1.0000 </r>
       <r>   -7.4343    1.0000 </r>
       <r>   -7.0739    1.0000 </r>
       <r>   -5.3011    1.0000 </r>
       <r>   -5.0403    1.0000 </r>
       <r>   -4.4754    1.0000 </r>
       <r>   -4.0413    1.0000 </r>
       <r>   -0.9234    0.0000 </r>
       <r>   -0.8721    0.0000 </r>
       <r>   -0.6314    0.0000 </r>
       <r>    0.5141    0.0000 </r>
       <r>    0.7969    0.0000 </r>
       <r>    1.8906    0.0000 </r>
      </set>
      <set comment="kpoint 11">
       <r>  -14.8091    1.0000 </r>
       <r>  -14.3932    1.0000 </r>
       <r>  -12.0138    1.0000 </r>
       <r>  -11.5263    1.0000 </r>
       <r>   -7.2829    1.0000 </r>
       <r>   -7.1499    1.0000 </r>
       <r>   -5.1481    1.0000 </r>
       <r>   -5.0580    1.0000 </r>
       <r>   -4.4288    1.0000 </r>
       <r>   -4.2734    1.0000 </r>
       <r>   -1.0460    0.0000 </r>
       <r>   -1.0219    0.0000 </r>
       <r>   -0.2930    0.0000 </r>
       <r>    0.0943    0.0000 </r>
       <r>    1.1330    0.0000 </r>
       <r>    1.5057    0.0000 </r>
      </set>
      <set comment="kpoint 12">
       <r>  -16.9729    1.0000 </r>
       <r>  -14.4465    1.0000 </r>
       <r>  -11.6892    1.0000 </r>
       <r>   -7.9399    1.0000 </r>
       <r>   -6.9857    1.0000 </r>
       <r>   -6.5090    1.0000 </r>
       <r>   -6.3595    1.0000 </r>
       <r>   -4.7157    1.0000 </r>
       <r>   -3.6483    1.0000 </r>
       <r>   -2.5888    1.0000 </r>
       <r>   -1.5519    0.0000 </r>
       <r>   -1.0468    0.0000 </r>
       <r>   -0.8140    0.0000 </r>
       <r>    0.1873    0.0000 </r>
       <r>    2.1573    0.0000 </r>
       <r>    2.2218    0.0000 </r>
      </set>
      <set comment="kpoint 13">
       <r>  -16.9498    1.0000 </r>
       <r>  -14.4223    1.0000 </r>
       <r>  -11.7097    1.0000 </r>
       <r>   -7.9340    1.0000 </r>
       <r>   -7.0266    1.0000 </r>
       <r>   -6.5669    1.0000 </r>
       <r>   -6.3896    1.0000 </r>
       <r>   -4.8236    1.0000 </r>
       <r>   -3.6479    1.0000 </r>
       <r>   -2.5998    1.0000 </r>
       <r>   -1.3670    0.0000 </r>
       <r>   -1.0291    0.0000 </r>
       <r>   -0.6290    0.0000 </r>
       <r>    0.0828    0.0000 </r>
       <r>    2.1797    0.0000 </r>
       <r>    2.2480    0.0000 </r>
      </set>
      <set comment="kpoint 14">
       <r>  -16.8809    1.0000 </r>
       <r>  -14.3497    1.0000 </r>
       <r>  -11.7751    1.0000 </r>
       <r>   -7.9295    1.0000 </r>
       <r>   -7.1536    1.0000 </r>
       <r>   -6.8075    1.0000 </r>
       <r>   -6.3591    1.0000 </r>
       <r>   -5.0549    1.0000 </r>
       <r>   -3.6540    1.0000 </r>
       <r>   -2.6402    1.0000 </r>
       <r>   -0.9848    0.0000 </r>
       <r>   -0.8520    0.0000 </r>
       <r>   -0.2757    0.0000 </r>
       <r>   -0.0647    0.0000 </r>
       <r>    2.2299    0.0000 </r>
       <r>    2.3263    0.0000 </r>
      </set>
      <set comment="kpoint 15">
       <r>  -16.7664    1.0000 </r>
       <r>  -14.2292    1.0000 </r>
       <r>  -11.8952    1.0000 </r>
       <r>   -7.9931    1.0000 </r>
       <r>   -7.3299    1.0000 </r>
       <r>   -7.1218    1.0000 </r>
       <r>   -6.2716    1.0000 </r>
       <r>   -5.2557    1.0000 </r>
       <r>   -3.6829    1.0000 </r>
       <r>   -2.7199    1.0000 </r>
       <r>   -0.8948    0.0000 </r>
       <r>   -0.5414    0.0000 </r>
       <r>   -0.1291    0.0000 </r>
       <r>    0.4411    0.0000 </r>
       <r>    1.9477    0.0000 </r>
       <r>    2.3977    0.0000 </r>
      </set>
      <set comment="kpoint 16">
       <r>  -16.6070    1.0000 </r>
       <r>  -14.0617    1.0000 </r>
       <r>  -12.0813    1.0000 </r>
       <r>   -8.2698    1.0000 </r>
       <r>   -7.4063    1.0000 </r>
       <r>   -7.4056    1.0000 </r>
       <r>   -6.1467    1.0000 </r>
       <r>   -5.3527    1.0000 </r>
       <r>   -3.7552    1.0000 </r>
       <r>   -2.8458    1.0000 </r>
       <r>   -0.8244    0.0000 </r>
       <r>   -0.7761    0.0000 </r>
       <r>    0.6911    0.0000 </r>
       <r>    0.7881    0.0000 </r>
       <r>    1.4942    0.0000 </r>
       <r>    2.5437    0.0000 </r>
      </set>
      <set comment="kpoint 17">
       <r>  -16.4036    1.0000 </r>
       <r>  -13.8493    1.0000 </r>
       <r>  -12.3384    1.0000 </r>
       <r>   -8.7475    1.0000 </r>
       <r>   -7.6049    1.0000 </r>
       <r>   -7.3533    1.0000 </r>
       <r>   -5.9921    1.0000 </r>
       <r>   -5.3569    1.0000 </r>
       <r>   -3.8855    1.0000 </r>
       <r>   -3.0210    1.0000 </r>
       <r>   -1.0044    0.0000 </r>
       <r>   -0.6346    0.0000 </r>
       <r>    0.6448    0.0000 </r>
       <r>    0.8804    0.0000 </r>
       <r>    1.6479    0.0000 </r>
       <r>    2.6538    0.0000 </r>
      </set>
      <set comment="kpoint 18">
       <r>  -16.1576    1.0000 </r>
       <r>  -13.5998    1.0000 </r>
       <r>  -12.6548    1.0000 </r>
       <r>   -9.3085    1.0000 </r>
       <r>   -7.7001    1.0000 </r>
       <r>   -7.2504    1.0000 </r>
       <r>   -5.8161    1.0000 </r>
       <r>   -5.3084    1.0000 </r>
       <r>   -4.0622    1.0000 </r>
       <r>   -3.2412    1.0000 </r>
       <r>   -1.0510    0.0000 </r>
       <r>   -0.5063    0.0000 </r>
       <r>    0.2347    0.0000 </r>
       <r>    0.5079    0.0000 </r>
       <r>    1.8731    0.0000 </r>
       <r>    2.7068    0.0000 </r>
      </set>
      <set comment="kpoint 19">
       <r>  -15.8709    1.0000 </r>
       <r>  -13.3755    1.0000 </r>
       <r>  -12.9531    1.0000 </r>
       <r>   -9.8909    1.0000 </r>
       <r>   -7.6957    1.0000 </r>
       <r>   -7.1456    1.0000 </r>
       <r>   -5.6309    1.0000 </r>
       <r>   -5.2489    1.0000 </r>
       <r>   -4.2373    1.0000 </r>
       <r>   -3.4926    1.0000 </r>
       <r>   -0.9758    0.0000 </r>
       <r>   -0.5089    0.0000 </r>
       <r>   -0.2004    0.0000 </r>
       <r>    0.3174    0.0000 </r>
       <r>    1.5885    0.0000 </r>
       <r>    2.5352    0.0000 </r>
      </set>
      <set comment="kpoint 20">
       <r>  -15.5459    1.0000 </r>
       <r>  -13.5612    1.0000 </r>
       <r>  -12.8291    1.0000 </r>
       <r>  -10.4659    1.0000 </r>
       <r>   -7.6105    1.0000 </r>
       <r>   -7.0773    1.0000 </r>
       <r>   -5.4548    1.0000 </r>
       <r>   -5.2133    1.0000 </r>
       <r>   -4.3472    1.0000 </r>
       <r>   -3.7525    1.0000 </r>
       <r>   -0.8510    0.0000 </r>
       <r>   -0.7086    0.0000 </r>
       <r>   -0.5222    0.0000 </r>
       <r>    0.4054    0.0000 </r>
       <r>    1.2120    0.0000 </r>
       <r>    2.2289    0.0000 </r>
      </set>
      <set comment="kpoint 21">
       <r>  -15.1863    1.0000 </r>
       <r>  -13.9644    1.0000 </r>
       <r>  -12.4565    1.0000 </r>
       <r>  -11.0181    1.0000 </r>
       <r>   -7.4708    1.0000 </r>
       <r>   -7.0797    1.0000 </r>
       <r>   -5.3129    1.0000 </r>
       <r>   -5.2044    1.0000 </r>
       <r>   -4.3629    1.0000 </r>
       <r>   -3.9915    1.0000 </r>
       <r>   -0.9560    0.0000 </r>
       <r>   -0.9349    0.0000 </r>
       <r>   -0.4292    0.0000 </r>
       <r>    0.5007    0.0000 </r>
       <r>    0.9623    0.0000 </r>
       <r>    1.8666    0.0000 </r>
      </set>
      <set comment="kpoint 22">
       <r>  -14.7972    1.0000 </r>
       <r>  -14.3859    1.0000 </r>
       <r>  -12.0200    1.0000 </r>
       <r>  -11.5383    1.0000 </r>
       <r>   -7.3091    1.0000 </r>
       <r>   -7.1648    1.0000 </r>
       <r>   -5.2294    1.0000 </r>
       <r>   -5.2042    1.0000 </r>
       <r>   -4.3030    1.0000 </r>
       <r>   -4.1799    1.0000 </r>
       <r>   -1.0822    0.0000 </r>
       <r>   -1.0746    0.0000 </r>
       <r>   -0.1203    0.0000 </r>
       <r>    0.2338    0.0000 </r>
       <r>    1.1513    0.0000 </r>
       <r>    1.4944    0.0000 </r>
      </set>
      <set comment="kpoint 23">
       <r>  -14.7972    1.0000 </r>
       <r>  -14.3859    1.0000 </r>
       <r>  -12.0200    1.0000 </r>
       <r>  -11.5383    1.0000 </r>
       <r>   -7.3091    1.0000 </r>
       <r>   -7.1648    1.0000 </r>
       <r>   -5.2294    1.0000 </r>
       <r>   -5.2042    1.0000 </r>
       <r>   -4.3030    1.0000 </r>
       <r>   -4.1799    1.0000 </r>
       <r>   -1.0822    0.0000 </r>
       <r>   -1.0746    0.0000 </r>
       <r>   -0.1203    0.0000 </r>
       <r>    0.2338    0.0000 </r>
       <r>    1.1513    0.0000 </r>
       <r>    1.4944    0.0000 </r>
      </set>
      <set comment="kpoint 24">
       <r>  -15.1863    1.0000 </r>
       <r>  -13.9644    1.0000 </r>
       <r>  -12.4565    1.0000 </r>
       <r>  -11.0181    1.0000 </r>
       <r>   -7.4708    1.0000 </r>
       <r>   -7.0797    1.0000 </r>
       <r>   -5.3129    1.0000 </r>
       <r>   -5.2044    1.0000 </r>
       <r>   -4.3629    1.0000 </r>
       <r>   -3.9915    1.0000 </r>
       <r>   -0.9560    0.0000 </r>
       <r>   -0.9349    0.0000 </r>
       <r>   -0.4292    0.0000 </r>
       <r>    0.5007    0.0000 </r>
       <r>    0.9623    0.0000 </r>
       <r>    1.8666    0.0000 </r>
      </set>
      <set comment="kpoint 25">
       <r>  -15.5459    1.0000 </r>
       <r>  -13.5612    1.0000 </r>
       <r>  -12.8291    1.0000 </r>
       <r>  -10.4659    1.0000 </r>
       <r>   -7.6105    1.0000 </r>
       <r>   -7.0773    1.0000 </r>
       <r>   -5.4548    1.0000 </r>
       <r>   -5.2133    1.0000 </r>
       <r>   -4.3472    1.0000 </r>
       <r>   -3.7525    1.0000 </r>
       <r>   -0.8510    0.0000 </r>
       <r>   -0.7086    0.0000 </r>
       <r>   -0.5222    0.0000 </r>
       <r>    0.4054    0.0000 </r>
       <r>    1.2120    0.0000 </r>
       <r>    2.2289    0.0000 </r>
      </set>
      <set comment="kpoint 26">
       <r>  -15.8709    1.0000 </r>
       <r>  -13.3755    1.0000 </r>
       <r>  -12.9531    1.0000 </r>
       <r>   -9.8909    1.0000 </r>
       <r>   -7.6957    1.0000 </r>
       <r>   -7.1456    1.0000 </r>
       <r>   -5.6309    1.0000 </r>
       <r>   -5.2489    1.0000 </r>
       <r>   -4.2373    1.0000 </r>
       <r>   -3.4926    1.0000 </r>
       <r>   -0.9758    0.0000 </r>
       <r>   -0.5089    0.0000 </r>
       <r>   -0.2004    0.0000 </r>
       <r>    0.3174    0.0000 </r>
       <r>    1.5885    0.0000 </r>
       <r>    2.5352    0.0000 </r>
      </set>
      <set comment="kpoint 27">
       <r>  -16.1576    1.0000 </r>
       <r>  -13.5998    1.0000 </r>
       <r>  -12.6548    1.0000 </r>
       <r>   -9.3085    1.0000 </r>
       <r>   -7.7001    1.0000 </r>
       <r>   -7.2504    1.0000 </r>
       <r>   -5.8161    1.0000 </r>
       <r>   -5.3084    1.0000 </r>
       <r>   -4.0622    1.0000 </r>
       <r>   -3.2412    1.0000 </r>
       <r>   -1.0510    0.0000 </r>
       <r>   -0.5063    0.0000 </r>
       <r>    0.2347    0.0000 </r>
       <r>    0.5079    0.0000 </r>
       <r>    1.8731    0.0000 </r>
       <r>    2.7068    0.0000 </r>
      </set>
      <set comment="kpoint 28">
       <r>  -16.4036    1.0000 </r>
       <r>  -13.8493    1.0000 </r>
       <r>  -12.3384    1.0000 </r>
       <r>   -8.7475    1.0000 </r>
       <r>   -7.6049    1.0000 </r>
       <r>   -7.3533    1.0000 </r>
       <r>   -5.9921    1.0000 </r>
       <r>   -5.3569    1.0000 </r>
       <r>   -3.8855    1.0000 </r>
       <r>   -3.0210    1.0000 </r>
       <r>   -1.0044    0.0000 </r>
       <r>   -0.6346    0.0000 </r>
       <r>    0.6448    0.0000 </r>
       <r>    0.8804    0.0000 </r>
       <r>    1.6479    0.0000 </r>
       <r>    2.6536    0.0000 </r>
      </set>
      <set comment="kpoint 29">
       <r>  -16.6070    1.0000 </r>
       <r>  -14.0617    1.0000 </r>
       <r>  -12.0813    1.0000 </r>
       <r>   -8.2698    1.0000 </r>
       <r>   -7.4063    1.0000 </r>
       <r>   -7.4056    1.0000 </r>
       <r>   -6.1467    1.0000 </r>
       <r>   -5.3527    1.0000 </r>
       <r>   -3.7552    1.0000 </r>
       <r>   -2.8458    1.0000 </r>
       <r>   -0.8244    0.0000 </r>
       <r>   -0.7761    0.0000 </r>
       <r>    0.6911    0.0000 </r>
       <r>    0.7881    0.0000 </r>
       <r>    1.4942    0.0000 </r>
       <r>    2.5437    0.0000 </r>
      </set>
      <set comment="kpoint 30">
       <r>  -16.7664    1.0000 </r>
       <r>  -14.2292    1.0000 </r>
       <r>  -11.8952    1.0000 </r>
       <r>   -7.9931    1.0000 </r>
       <r>   -7.3299    1.0000 </r>
       <r>   -7.1218    1.0000 </r>
       <r>   -6.2716    1.0000 </r>
       <r>   -5.2557    1.0000 </r>
       <r>   -3.6829    1.0000 </r>
       <r>   -2.7199    1.0000 </r>
       <r>   -0.8948    0.0000 </r>
       <r>   -0.5414    0.0000 </r>
       <r>   -0.1291    0.0000 </r>
       <r>    0.4411    0.0000 </r>
       <r>    1.9477    0.0000 </r>
       <r>    2.3977    0.0000 </r>
      </set>
      <set comment="kpoint 31">
       <r>  -16.8809    1.0000 </r>
       <r>  -14.3497    1.0000 </r>
       <r>  -11.7751    1.0000 </r>
       <r>   -7.9295    1.0000 </r>
       <r>   -7.1536    1.0000 </r>
       <r>   -6.8075    1.0000 </r>
       <r>   -6.3591    1.0000 </r>
       <r>   -5.0549    1.0000 </r>
       <r>   -3.6540    1.0000 </r>
       <r>   -2.6402    1.0000 </r>
       <r>   -0.9848    0.0000 </r>
       <r>   -0.8520    0.0000 </r>
       <r>   -0.2757    0.0000 </r>
       <r>   -0.0647    0.0000 </r>
       <r>    2.2299    0.0000 </r>
       <r>    2.3263    0.0000 </r>
      </set>
      <set comment="kpoint 32">
       <r>  -16.9498    1.0000 </r>
       <r>  -14.4223    1.0000 </r>
       <r>  -11.7097    1.0000 </r>
       <r>   -7.9340    1.0000 </r>
       <r>   -7.0266    1.0000 </r>
       <r>   -6.5669    1.0000 </r>
       <r>   -6.3896    1.0000 </r>
       <r>   -4.8236    1.0000 </r>
       <r>   -3.6479    1.0000 </r>
       <r>   -2.5998    1.0000 </r>
       <r>   -1.3670    0.0000 </r>
       <r>   -1.0291    0.0000 </r>
       <r>   -0.6290    0.0000 </r>
       <r>    0.0828    0.0000 </r>
       <r>    2.1797    0.0000 </r>
       <r>    2.2480    0.0000 </r>
      </set>
      <set comment="kpoint 33">
       <r>  -16.9169    1.0000 </r>
       <r>  -14.5418    1.0000 </r>
       <r>  -11.6590    1.0000 </r>
       <r>   -8.2943    1.0000 </r>
       <r>   -6.7441    1.0000 </r>
       <r>   -6.3249    1.0000 </r>
       <r>   -6.3146    1.0000 </r>
       <r>   -4.7595    1.0000 </r>
       <r>   -3.4710    1.0000 </r>
       <r>   -2.8872    1.0000 </r>
       <r>   -1.4953    0.0000 </r>
       <r>   -0.9538    0.0000 </r>
       <r>   -0.7748    0.0000 </r>
       <r>    0.1577    0.0000 </r>
       <r>    2.2815    0.0000 </r>
       <r>    2.2995    0.0000 </r>
      </set>
      <set comment="kpoint 34">
       <r>  -16.8940    1.0000 </r>
       <r>  -14.5183    1.0000 </r>
       <r>  -11.6761    1.0000 </r>
       <r>   -8.2942    1.0000 </r>
       <r>   -6.7742    1.0000 </r>
       <r>   -6.5452    1.0000 </r>
       <r>   -6.1829    1.0000 </r>
       <r>   -4.8797    1.0000 </r>
       <r>   -3.4778    1.0000 </r>
       <r>   -2.8927    1.0000 </r>
       <r>   -1.3151    0.0000 </r>
       <r>   -0.7672    0.0000 </r>
       <r>   -0.7612    0.0000 </r>
       <r>    0.0756    0.0000 </r>
       <r>    2.3007    0.0000 </r>
       <r>    2.3256    0.0000 </r>
      </set>
      <set comment="kpoint 35">
       <r>  -16.8253    1.0000 </r>
       <r>  -14.4480    1.0000 </r>
       <r>  -11.7313    1.0000 </r>
       <r>   -8.3044    1.0000 </r>
       <r>   -6.8752    1.0000 </r>
       <r>   -6.8614    1.0000 </r>
       <r>   -6.0815    1.0000 </r>
       <r>   -5.1357    1.0000 </r>
       <r>   -3.5094    1.0000 </r>
       <r>   -2.9143    1.0000 </r>
       <r>   -0.8500    0.0000 </r>
       <r>   -0.6934    0.0000 </r>
       <r>   -0.3900    0.0000 </r>
       <r>   -0.0299    0.0000 </r>
       <r>    2.1187    0.0000 </r>
       <r>    2.3603    0.0000 </r>
      </set>
      <set comment="kpoint 36">
       <r>  -16.7112    1.0000 </r>
       <r>  -14.3320    1.0000 </r>
       <r>  -11.8349    1.0000 </r>
       <r>   -8.3651    1.0000 </r>
       <r>   -7.2060    1.0000 </r>
       <r>   -7.0480    1.0000 </r>
       <r>   -5.9768    1.0000 </r>
       <r>   -5.3540    1.0000 </r>
       <r>   -3.5844    1.0000 </r>
       <r>   -2.9615    1.0000 </r>
       <r>   -0.6841    0.0000 </r>
       <r>   -0.4880    0.0000 </r>
       <r>   -0.0951    0.0000 </r>
       <r>    0.4191    0.0000 </r>
       <r>    1.6723    0.0000 </r>
       <r>    2.4484    0.0000 </r>
      </set>
      <set comment="kpoint 37">
       <r>  -16.5524    1.0000 </r>
       <r>  -14.1723    1.0000 </r>
       <r>  -11.9990    1.0000 </r>
       <r>   -8.5560    1.0000 </r>
       <r>   -7.5079    1.0000 </r>
       <r>   -7.2132    1.0000 </r>
       <r>   -5.8561    1.0000 </r>
       <r>   -5.4574    1.0000 </r>
       <r>   -3.7160    1.0000 </r>
       <r>   -3.0441    1.0000 </r>
       <r>   -0.6769    0.0000 </r>
       <r>   -0.5968    0.0000 </r>
       <r>    0.5968    0.0000 </r>
       <r>    0.8595    0.0000 </r>
       <r>    1.3422    0.0000 </r>
       <r>    2.5520    0.0000 </r>
      </set>
      <set comment="kpoint 38">
       <r>  -16.3499    1.0000 </r>
       <r>  -13.9742    1.0000 </r>
       <r>  -12.2284    1.0000 </r>
       <r>   -8.9279    1.0000 </r>
       <r>   -7.7188    1.0000 </r>
       <r>   -7.2693    1.0000 </r>
       <r>   -5.7211    1.0000 </r>
       <r>   -5.4711    1.0000 </r>
       <r>   -3.8981    1.0000 </r>
       <r>   -3.1685    1.0000 </r>
       <r>   -0.7739    0.0000 </r>
       <r>   -0.4960    0.0000 </r>
       <r>    0.5153    0.0000 </r>
       <r>    0.8340    0.0000 </r>
       <r>    1.8347    0.0000 </r>
       <r>    2.5930    0.0000 </r>
      </set>
      <set comment="kpoint 39">
       <r>  -16.1053    1.0000 </r>
       <r>  -13.7536    1.0000 </r>
       <r>  -12.5056    1.0000 </r>
       <r>   -9.4262    1.0000 </r>
       <r>   -7.8191    1.0000 </r>
       <r>   -7.2255    1.0000 </r>
       <r>   -5.5822    1.0000 </r>
       <r>   -5.4522    1.0000 </r>
       <r>   -4.0909    1.0000 </r>
       <r>   -3.3321    1.0000 </r>
       <r>   -0.7612    0.0000 </r>
       <r>   -0.4292    0.0000 </r>
       <r>    0.1891    0.0000 </r>
       <r>    0.4655    0.0000 </r>
       <r>    2.2108    0.0000 </r>
       <r>    2.6068    0.0000 </r>
      </set>
      <set comment="kpoint 40">
       <r>  -15.8205    1.0000 </r>
       <r>  -13.5771    1.0000 </r>
       <r>  -12.7498    1.0000 </r>
       <r>   -9.9753    1.0000 </r>
       <r>   -7.8126    1.0000 </r>
       <r>   -7.1429    1.0000 </r>
       <r>   -5.4584    1.0000 </r>
       <r>   -5.4547    1.0000 </r>
       <r>   -4.2268    1.0000 </r>
       <r>   -3.5189    1.0000 </r>
       <r>   -0.6692    0.0000 </r>
       <r>   -0.5625    0.0000 </r>
       <r>    0.0462    0.0000 </r>
       <r>    0.1198    0.0000 </r>
       <r>    2.0203    0.0000 </r>
       <r>    2.4328    0.0000 </r>
      </set>
      <set comment="kpoint 41">
       <r>  -15.4985    1.0000 </r>
       <r>  -13.6511    1.0000 </r>
       <r>  -12.7347    1.0000 </r>
       <r>  -10.5303    1.0000 </r>
       <r>   -7.7180    1.0000 </r>
[...]
       <r>    1.6366    0.0000 </r>
       <r>    1.6366    0.0000 </r>
      </set>
      <set comment="kpoint 164">
       <r>  -15.3658    1.0000 </r>
       <r>  -15.3658    1.0000 </r>
       <r>  -10.7880    1.0000 </r>
       <r>  -10.7880    1.0000 </r>
       <r>   -7.6212    1.0000 </r>
       <r>   -7.6212    1.0000 </r>
       <r>   -5.1781    1.0000 </r>
       <r>   -5.1781    1.0000 </r>
       <r>   -3.8041    1.0000 </r>
       <r>   -3.8041    1.0000 </r>
       <r>    0.0479    0.0000 </r>
       <r>    0.0479    0.0000 </r>
       <r>    1.1573    0.0000 </r>
       <r>    1.1573    0.0000 </r>
       <r>    2.1900    0.0000 </r>
       <r>    2.1900    0.0000 </r>
      </set>
      <set comment="kpoint 165">
       <r>  -15.1498    1.0000 </r>
       <r>  -15.1498    1.0000 </r>
       <r>  -11.0002    1.0000 </r>
       <r>  -11.0002    1.0000 </r>
       <r>   -7.8144    1.0000 </r>
       <r>   -7.8144    1.0000 </r>
       <r>   -5.3946    1.0000 </r>
       <r>   -5.3946    1.0000 </r>
       <r>   -3.8280    1.0000 </r>
       <r>   -3.8280    1.0000 </r>
       <r>    0.2110    0.0000 </r>
       <r>    0.2110    0.0000 </r>
       <r>    1.0429    0.0000 </r>
       <r>    1.0429    0.0000 </r>
       <r>    2.7723    0.0000 </r>
       <r>    2.7723    0.0000 </r>
      </set>
      <set comment="kpoint 166">
       <r>  -14.9115    1.0000 </r>
       <r>  -14.9115    1.0000 </r>
       <r>  -11.2909    1.0000 </r>
       <r>  -11.2909    1.0000 </r>
       <r>   -7.8405    1.0000 </r>
       <r>   -7.8405    1.0000 </r>
       <r>   -5.7136    1.0000 </r>
       <r>   -5.7136    1.0000 </r>
       <r>   -3.7745    1.0000 </r>
       <r>   -3.7745    1.0000 </r>
       <r>    0.3095    0.0000 </r>
       <r>    0.3095    0.0000 </r>
       <r>    0.9390    0.0000 </r>
       <r>    0.9390    0.0000 </r>
       <r>    3.0844    0.0000 </r>
       <r>    3.0844    0.0000 </r>
      </set>
      <set comment="kpoint 167">
       <r>  -14.6679    1.0000 </r>
       <r>  -14.6679    1.0000 </r>
       <r>  -11.6128    1.0000 </r>
       <r>  -11.6128    1.0000 </r>
       <r>   -7.7281    1.0000 </r>
       <r>   -7.7281    1.0000 </r>
       <r>   -6.0872    1.0000 </r>
       <r>   -6.0872    1.0000 </r>
       <r>   -3.6807    1.0000 </r>
       <r>   -3.6807    1.0000 </r>
       <r>    0.2480    0.0000 </r>
       <r>    0.2480    0.0000 </r>
       <r>    1.0000    0.0000 </r>
       <r>    1.0000    0.0000 </r>
       <r>    3.1699    0.0000 </r>
       <r>    3.1699    0.0000 </r>
      </set>
      <set comment="kpoint 168">
       <r>  -14.4512    1.0000 </r>
       <r>  -14.4512    1.0000 </r>
       <r>  -11.9007    1.0000 </r>
       <r>  -11.9007    1.0000 </r>
       <r>   -7.5148    1.0000 </r>
       <r>   -7.5148    1.0000 </r>
       <r>   -6.4731    1.0000 </r>
       <r>   -6.4731    1.0000 </r>
       <r>   -3.5880    1.0000 </r>
       <r>   -3.5880    1.0000 </r>
       <r>    0.1070    0.0000 </r>
       <r>    0.1070    0.0000 </r>
       <r>    1.1728    0.0000 </r>
       <r>    1.1728    0.0000 </r>
       <r>    3.1071    0.0000 </r>
       <r>    3.1071    0.0000 </r>
      </set>
      <set comment="kpoint 169">
       <r>  -14.3149    1.0000 </r>
       <r>  -14.3149    1.0000 </r>
       <r>  -12.0780    1.0000 </r>
       <r>  -12.0780    1.0000 </r>
       <r>   -7.2440    1.0000 </r>
       <r>   -7.2440    1.0000 </r>
       <r>   -6.8295    1.0000 </r>
       <r>   -6.8295    1.0000 </r>
       <r>   -3.5311    1.0000 </r>
       <r>   -3.5311    1.0000 </r>
       <r>    0.0114    0.0000 </r>
       <r>    0.0114    0.0000 </r>
       <r>    1.3127    0.0000 </r>
       <r>    1.3127    0.0000 </r>
       <r>    2.9930    0.0000 </r>
       <r>    2.9930    0.0000 </r>
      </set>
     </set>
    </set>
   </array>
  </eigenvalues>
  <separator name="orbital magnetization" >
   <v name="MAGDIPOLOUT">      0.00000000      0.00000000      0.00000000</v>
  </separator>
  <dos>
   <i name="efermi">     -2.34611922 </i>
   <total>
    <array>
     <dimension dim="1">gridpoints</dimension>
     <dimension dim="2">spin</dimension>
     <field>energy</field>
     <field>total</field>
     <field>integrated</field>
     <set>
      <set comment="spin 1">
       <r>   -18.0132     0.0000     0.0000 </r>
       <r>   -17.9383     0.0000     0.0000 </r>
       <r>   -17.8633     0.0000     0.0000 </r>
       <r>   -17.7884     0.0000     0.0000 </r>
       <r>   -17.7135     0.0000     0.0000 </r>
       <r>   -17.6386     0.0000     0.0000 </r>
       <r>   -17.5637     0.0000     0.0000 </r>
       <r>   -17.4887     0.0000     0.0000 </r>
       <r>   -17.4138     0.0000     0.0000 </r>
       <r>   -17.3389     0.0000     0.0000 </r>
       <r>   -17.2640     0.0000     0.0000 </r>
       <r>   -17.1891     0.0000     0.0000 </r>
       <r>   -17.1142     0.0000     0.0000 </r>
       <r>   -17.0392     0.0000     0.0000 </r>
       <r>   -16.9643     0.3394     0.0254 </r>
       <r>   -16.8894     0.9379     0.0957 </r>
       <r>   -16.8145     0.8210     0.1572 </r>
       <r>   -16.7396     0.9451     0.2280 </r>
       <r>   -16.6647     0.9305     0.2977 </r>
       <r>   -16.5897     1.1139     0.3812 </r>
       <r>   -16.5148     0.7194     0.4351 </r>
       <r>   -16.4399     1.0070     0.5105 </r>
       <r>   -16.3650     0.6492     0.5591 </r>
       <r>   -16.2901     1.3627     0.6612 </r>
       <r>   -16.2152     0.6311     0.7085 </r>
       <r>   -16.1402     1.1637     0.7957 </r>
       <r>   -16.0653     1.0718     0.8760 </r>
       <r>   -15.9904     0.9302     0.9457 </r>
       <r>   -15.9155     0.6647     0.9955 </r>
       <r>   -15.8406     1.2672     1.0904 </r>
       <r>   -15.7657     1.2712     1.1856 </r>
       <r>   -15.6907     0.8355     1.2482 </r>
       <r>   -15.6158     0.6619     1.2978 </r>
       <r>   -15.5409     1.7054     1.4256 </r>
       <r>   -15.4660     0.8885     1.4922 </r>
       <r>   -15.3911     0.7298     1.5468 </r>
       <r>   -15.3162     1.3696     1.6494 </r>
       <r>   -15.2412     0.9454     1.7203 </r>
       <r>   -15.1663     1.0816     1.8013 </r>
       <r>   -15.0914     1.7516     1.9325 </r>
       <r>   -15.0165     1.2056     2.0228 </r>
       <r>   -14.9416     0.5358     2.0630 </r>
       <r>   -14.8666     1.5719     2.1808 </r>
       <r>   -14.7917     1.4838     2.2919 </r>
       <r>   -14.7168     1.0386     2.3697 </r>
       <r>   -14.6419     2.0545     2.5236 </r>
       <r>   -14.5670     1.2763     2.6193 </r>
       <r>   -14.4921     1.2408     2.7122 </r>
       <r>   -14.4171     2.3065     2.8850 </r>
       <r>   -14.3422     2.4014     3.0649 </r>
       <r>   -14.2673     2.6636     3.2645 </r>
       <r>   -14.1924     1.4745     3.3749 </r>
       <r>   -14.1175     1.1259     3.4593 </r>
       <r>   -14.0426     0.9617     3.5313 </r>
       <r>   -13.9676     1.6769     3.6569 </r>
       <r>   -13.8927     1.0821     3.7380 </r>
       <r>   -13.8178     0.3474     3.7640 </r>
       <r>   -13.7429     1.0100     3.8397 </r>
       <r>   -13.6680     0.1108     3.8480 </r>
       <r>   -13.5931     0.5428     3.8887 </r>
       <r>   -13.5181     0.9538     3.9601 </r>
       <r>   -13.4432     0.0554     3.9643 </r>
       <r>   -13.3683     0.2211     3.9809 </r>
       <r>   -13.2934     0.0967     3.9881 </r>
       <r>   -13.2185     0.1040     3.9959 </r>
       <r>   -13.1436     0.0554     4.0000 </r>
       <r>   -13.0686     0.1576     4.0118 </r>
       <r>   -12.9937     0.0014     4.0120 </r>
       <r>   -12.9188     0.3148     4.0355 </r>
       <r>   -12.8439     0.1972     4.0503 </r>
       <r>   -12.7690     0.3123     4.0737 </r>
       <r>   -12.6941     0.7538     4.1302 </r>
       <r>   -12.6191     0.3580     4.1570 </r>
       <r>   -12.5442     0.3735     4.1850 </r>
       <r>   -12.4693     0.6644     4.2348 </r>
       <r>   -12.3944     1.3149     4.3333 </r>
       <r>   -12.3195     0.9218     4.4023 </r>
       <r>   -12.2445     1.1167     4.4860 </r>
       <r>   -12.1696     0.6275     4.5330 </r>
       <r>   -12.0947     1.4896     4.6446 </r>
       <r>   -12.0198     3.0771     4.8751 </r>
       <r>   -11.9449     0.8775     4.9409 </r>
       <r>   -11.8700     1.3687     5.0434 </r>
       <r>   -11.7950     1.9744     5.1913 </r>
       <r>   -11.7201     1.5232     5.3054 </r>
       <r>   -11.6452     2.0383     5.4581 </r>
       <r>   -11.5703     2.2866     5.6294 </r>
       <r>   -11.4954     1.9093     5.7725 </r>
       <r>   -11.4205     0.5082     5.8105 </r>
       <r>   -11.3455     1.6881     5.9370 </r>
       <r>   -11.2706     1.0002     6.0119 </r>
       <r>   -11.1957     0.6001     6.0569 </r>
       <r>   -11.1208     1.6743     6.1823 </r>
       <r>   -11.0459     0.6686     6.2324 </r>
       <r>   -10.9710     1.3363     6.3325 </r>
       <r>   -10.8960     1.1083     6.4156 </r>
       <r>   -10.8211     0.4159     6.4467 </r>
       <r>   -10.7462     0.8956     6.5138 </r>
       <r>   -10.6713     0.4873     6.5503 </r>
       <r>   -10.5964     1.3762     6.6534 </r>
       <r>   -10.5215     0.5848     6.6973 </r>
       <r>   -10.4465     0.9650     6.7695 </r>
       <r>   -10.3716     0.4508     6.8033 </r>
       <r>   -10.2967     0.5660     6.8457 </r>
       <r>   -10.2218     1.1853     6.9345 </r>
       <r>   -10.1469     0.0870     6.9410 </r>
       <r>   -10.0720     0.8649     7.0058 </r>
       <r>    -9.9970     0.1031     7.0136 </r>
       <r>    -9.9221     0.9088     7.0816 </r>
       <r>    -9.8472     1.3112     7.1799 </r>
       <r>    -9.7723     0.5358     7.2200 </r>
       <r>    -9.6974     0.0030     7.2202 </r>
       <r>    -9.6224     0.2341     7.2378 </r>
       <r>    -9.5475     0.5745     7.2808 </r>
       <r>    -9.4726     1.1788     7.3691 </r>
       <r>    -9.3977     0.3893     7.3983 </r>
       <r>    -9.3228     0.0564     7.4025 </r>
       <r>    -9.2479     0.6468     7.4510 </r>
       <r>    -9.1729     0.3627     7.4781 </r>
       <r>    -9.0980     1.0787     7.5590 </r>
       <r>    -9.0231     0.0870     7.5655 </r>
       <r>    -8.9482     0.0240     7.5673 </r>
       <r>    -8.8733     0.5921     7.6116 </r>
       <r>    -8.7984     0.0200     7.6131 </r>
       <r>    -8.7234     0.6798     7.6641 </r>
       <r>    -8.6485     0.9068     7.7320 </r>
       <r>    -8.5736     0.0357     7.7347 </r>
       <r>    -8.4987     0.2841     7.7560 </r>
       <r>    -8.4238     0.0000     7.7560 </r>
       <r>    -8.3489     0.2785     7.7768 </r>
       <r>    -8.2739     0.9150     7.8454 </r>
       <r>    -8.1990     0.2367     7.8631 </r>
       <r>    -8.1241     0.1182     7.8720 </r>
       <r>    -8.0492     0.8824     7.9381 </r>
       <r>    -7.9743     1.6881     8.0645 </r>
       <r>    -7.8994     2.9537     8.2858 </r>
       <r>    -7.8244     1.9928     8.4351 </r>
       <r>    -7.7495     1.9070     8.5780 </r>
       <r>    -7.6746     2.5741     8.7708 </r>
       <r>    -7.5997     2.9061     8.9885 </r>
       <r>    -7.5248     2.0558     9.1425 </r>
       <r>    -7.4499     2.9655     9.3647 </r>
       <r>    -7.3749     1.9046     9.5074 </r>
       <r>    -7.3000     2.8215     9.7188 </r>
       <r>    -7.2251     3.9125    10.0119 </r>
       <r>    -7.1502     5.0990    10.3939 </r>
       <r>    -7.0753     4.8099    10.7542 </r>
       <r>    -7.0003     1.7821    10.8878 </r>
       <r>    -6.9254     0.7943    10.9473 </r>
       <r>    -6.8505     1.7524    11.0785 </r>
       <r>    -6.7756     1.7761    11.2116 </r>
       <r>    -6.7007     0.9001    11.2790 </r>
       <r>    -6.6258     1.1020    11.3616 </r>
       <r>    -6.5508     1.9983    11.5113 </r>
       <r>    -6.4759     2.2323    11.6785 </r>
       <r>    -6.4010     1.5927    11.7979 </r>
       <r>    -6.3261     1.8328    11.9352 </r>
       <r>    -6.2512     2.3177    12.1088 </r>
       <r>    -6.1763     1.4051    12.2141 </r>
       <r>    -6.1013     1.9678    12.3615 </r>
       <r>    -6.0264     1.9001    12.5038 </r>
       <r>    -5.9515     2.1413    12.6643 </r>
       <r>    -5.8766     1.8687    12.8043 </r>
       <r>    -5.8017     1.9458    12.9500 </r>
       <r>    -5.7268     2.0758    13.1055 </r>
       <r>    -5.6518     3.3784    13.3587 </r>
       <r>    -5.5769     3.3910    13.6127 </r>
       <r>    -5.5020     3.4493    13.8711 </r>
       <r>    -5.4271     3.6939    14.1478 </r>
       <r>    -5.3522     4.3988    14.4774 </r>
       <r>    -5.2773     3.4954    14.7393 </r>
       <r>    -5.2023     3.4598    14.9985 </r>
       <r>    -5.1274     2.0275    15.1503 </r>
       <r>    -5.0525     3.4723    15.4105 </r>
       <r>    -4.9776     1.3348    15.5105 </r>
       <r>    -4.9027     0.9488    15.5816 </r>
       <r>    -4.8278     0.9711    15.6543 </r>
       <r>    -4.7528     2.8228    15.8658 </r>
       <r>    -4.6779     0.7917    15.9251 </r>
       <r>    -4.6030     0.3650    15.9524 </r>
       <r>    -4.5281     0.6302    15.9997 </r>
       <r>    -4.4532     0.1610    16.0117 </r>
       <r>    -4.3782     0.6649    16.0615 </r>
       <r>    -4.3033     1.0860    16.1429 </r>
       <r>    -4.2284     1.5072    16.2558 </r>
       <r>    -4.1535     2.1216    16.4148 </r>
       <r>    -4.0786     2.4324    16.5970 </r>
       <r>    -4.0037     2.7259    16.8012 </r>
       <r>    -3.9287     2.5904    16.9953 </r>
       <r>    -3.8538     4.0352    17.2976 </r>
       <r>    -3.7789     3.3657    17.5497 </r>
       <r>    -3.7040     3.4670    17.8095 </r>
       <r>    -3.6291     6.2661    18.2789 </r>
       <r>    -3.5542     4.0706    18.5839 </r>
       <r>    -3.4792     4.8109    18.9443 </r>
       <r>    -3.4043     2.6190    19.1405 </r>
       <r>    -3.3294     2.1007    19.2979 </r>
       <r>    -3.2545     1.5120    19.4111 </r>
       <r>    -3.1796     1.5370    19.5263 </r>
       <r>    -3.1047     1.1496    19.6124 </r>
       <r>    -3.0297     0.8505    19.6761 </r>
       <r>    -2.9548     1.1351    19.7612 </r>
       <r>    -2.8799     0.9366    19.8313 </r>
       <r>    -2.8050     0.4245    19.8631 </r>
       <r>    -2.7301     0.2328    19.8806 </r>
       <r>    -2.6552     0.2917    19.9024 </r>
       <r>    -2.5802     0.8351    19.9650 </r>
       <r>    -2.5053     0.2213    19.9816 </r>
       <r>    -2.4304     0.2445    19.9999 </r>
       <r>    -2.3555     0.0014    20.0000 </r>
       <r>    -2.2806     0.0000    20.0000 </r>
       <r>    -2.2056     0.0000    20.0000 </r>
       <r>    -2.1307     0.0000    20.0000 </r>
       <r>    -2.0558     0.0000    20.0000 </r>
       <r>    -1.9809     0.0000    20.0000 </r>
       <r>    -1.9060     0.0000    20.0000 </r>
       <r>    -1.8311     0.0000    20.0000 </r>
       <r>    -1.7561     0.0000    20.0000 </r>
       <r>    -1.6812     0.0000    20.0000 </r>
       <r>    -1.6063     0.0005    20.0000 </r>
       <r>    -1.5314     0.2268    20.0170 </r>
       <r>    -1.4565     0.2871    20.0385 </r>
       <r>    -1.3816     0.4975    20.0758 </r>
       <r>    -1.3066     0.7843    20.1346 </r>
       <r>    -1.2317     1.0200    20.2110 </r>
       <r>    -1.1568     0.8211    20.2725 </r>
       <r>    -1.0819     2.4594    20.4567 </r>
       <r>    -1.0070     3.7411    20.7370 </r>
       <r>    -0.9321     2.7206    20.9408 </r>
       <r>    -0.8571     2.9325    21.1605 </r>
       <r>    -0.7822     2.8153    21.3715 </r>
       <r>    -0.7073     3.2939    21.6182 </r>
       <r>    -0.6324     4.8158    21.9790 </r>
       <r>    -0.5575     2.2312    22.1462 </r>
       <r>    -0.4826     2.9975    22.3707 </r>
       <r>    -0.4076     3.1827    22.6092 </r>
       <r>    -0.3327     3.4575    22.8682 </r>
       <r>    -0.2578     2.9495    23.0892 </r>
       <r>    -0.1829     2.9460    23.3099 </r>
       <r>    -0.1080     2.9178    23.5285 </r>
       <r>    -0.0331     4.0400    23.8311 </r>
       <r>     0.0419     3.4620    24.0905 </r>
       <r>     0.1168     4.3161    24.4138 </r>
       <r>     0.1917     3.3779    24.6669 </r>
       <r>     0.2666     5.4033    25.0717 </r>
       <r>     0.3415     4.1307    25.3812 </r>
       <r>     0.4165     2.3614    25.5581 </r>
       <r>     0.4914     4.2504    25.8765 </r>
       <r>     0.5663     4.2678    26.1962 </r>
       <r>     0.6412     3.6016    26.4661 </r>
       <r>     0.7161     2.8104    26.6766 </r>
       <r>     0.7910     3.0419    26.9045 </r>
       <r>     0.8660     4.2286    27.2213 </r>
       <r>     0.9409     1.1417    27.3068 </r>
       <r>     1.0158     1.9176    27.4505 </r>
       <r>     1.0907     2.3878    27.6294 </r>
       <r>     1.1656     3.6736    27.9046 </r>
       <r>     1.2405     2.4041    28.0847 </r>
       <r>     1.3155     2.3204    28.2585 </r>
       <r>     1.3904     2.8220    28.4699 </r>
       <r>     1.4653     1.8971    28.6121 </r>
       <r>     1.5402     2.0022    28.7621 </r>
       <r>     1.6151     1.4342    28.8695 </r>
       <r>     1.6900     2.8844    29.0856 </r>
       <r>     1.7650     1.1934    29.1750 </r>
       <r>     1.8399     1.3056    29.2728 </r>
       <r>     1.9148     2.4363    29.4553 </r>
       <r>     1.9897     1.6973    29.5825 </r>
       <r>     2.0646     1.5417    29.6980 </r>
       <r>     2.1395     2.6682    29.8979 </r>
       <r>     2.2145     3.0120    30.1235 </r>
       <r>     2.2894     3.6391    30.3962 </r>
       <r>     2.3643     2.7232    30.6002 </r>
       <r>     2.4392     2.1089    30.7582 </r>
       <r>     2.5141     3.3722    31.0108 </r>
       <r>     2.5890     2.7164    31.2143 </r>
       <r>     2.6640     0.9362    31.2845 </r>
       <r>     2.7389     1.6459    31.4078 </r>
       <r>     2.8138     1.4316    31.5150 </r>
       <r>     2.8887     0.7717    31.5728 </r>
       <r>     2.9636     1.2511    31.6666 </r>
       <r>     3.0386     0.6840    31.7178 </r>
       <r>     3.1135     1.3523    31.8191 </r>
       <r>     3.1884     1.1132    31.9025 </r>
       <r>     3.2633     0.3554    31.9291 </r>
       <r>     3.3382     0.3338    31.9541 </r>
       <r>     3.4131     0.3029    31.9768 </r>
       <r>     3.4881     0.3090    32.0000 </r>
       <r>     3.5630     0.0001    32.0000 </r>
       <r>     3.6379     0.0000    32.0000 </r>
       <r>     3.7128     0.0000    32.0000 </r>
       <r>     3.7877     0.0000    32.0000 </r>
       <r>     3.8626     0.0000    32.0000 </r>
       <r>     3.9376     0.0000    32.0000 </r>
       <r>     4.0125     0.0000    32.0000 </r>
       <r>     4.0874     0.0000    32.0000 </r>
       <r>     4.1623     0.0000    32.0000 </r>
       <r>     4.2372     0.0000    32.0000 </r>
       <r>     4.3121     0.0000    32.0000 </r>
       <r>     4.3871     0.0000    32.0000 </r>
       <r>     4.4620     0.0000    32.0000 </r>
      </set>
     </set>
    </array>
   </total>
  </dos>
 </calculation>
 <structure name="finalpos" >
  <crystal>
   <varray name="basis" >
    <v>       3.52045100       0.00000000       0.00000000 </v>
    <v>       0.00000000       4.62335100      -0.00005300 </v>
    <v>       0.00000000       0.00000000      20.02439000 </v>
   </varray>
   <i name="volume">    325.92259151 </i>
   <varray name="rec_basis" >
    <v>       0.28405451       0.00000000       0.00000000 </v>
    <v>       0.00000000       0.21629333       0.00000000 </v>
    <v>       0.00000000       0.00000057       0.04993910 </v>
   </varray>
  </crystal>
  <varray name="positions" >
   <v>       0.50000000       0.90827675       0.55206849 </v>
   <v>       0.50000000       0.09172325       0.44793151 </v>
   <v>      -0.00000000       0.40827211       0.44793150 </v>
   <v>       0.00000000       0.59172789       0.55206850 </v>
  </varray>
 </structure>
</modeling>
