<?xml version="1.0" encoding="ISO-8859-1"?>
<modeling>
 <generator>
  <i name="program" type="string">vasp </i>
  <i name="version" type="string">5.4.1  </i>
  <i name="subversion" type="string">24Jun15 (build Nov 20 2020 10:29:34) complex                          parallel </i>
  <i name="platform" type="string">IFC91_ompi </i>
  <i name="date" type="string">2021 09 09 </i>
  <i name="time" type="string">13:43:24 </i>
 </generator>
 <incar>
  <i type="string" name="PREC">a</i>
  <i type="string" name="ALGO"> Normal</i>
  <i type="int" name="ISPIN">     1</i>
  <i type="int" name="ICHARG">     2</i>
  <i type="int" name="NELM">   250</i>
  <i type="int" name="NELMDL">    -5</i>
  <i type="int" name="NELMIN">     6</i>
  <i type="int" name="IBRION">     2</i>
  <i name="EDIFF">      0.00001000</i>
  <i name="EDIFFG">     -0.01000000</i>
  <i type="int" name="NSW">   200</i>
  <i type="int" name="ISIF">     2</i>
  <i name="ENCUT">    520.00000000</i>
  <i name="POTIM">      0.30000000</i>
  <i type="logical" name="LREAL"> F  </i>
  <i type="int" name="ISMEAR">     0</i>
  <i name="SIGMA">      0.02000000</i>
  <i type="logical" name="LWAVE"> F  </i>
  <i type="logical" name="LCHARG"> F  </i>
  <i type="logical" name="LAECHG"> F  </i>
  <v type="int" name="KPOINT_BSE">    -1     0     0     0</v>
  <i type="int" name="NELM">   250</i>
 </incar>
 <kpoints>
  <generation param="Gamma">
   <v type="int" name="divisions">      22       15        1 </v>
   <v name="usershift">      0.00000000       0.00000000       0.00000000 </v>
   <v name="genvec1">      0.04545455       0.00000000       0.00000000 </v>
   <v name="genvec2">      0.00000000       0.06666667       0.00000000 </v>
   <v name="genvec3">      0.00000000       0.00000000       1.00000000 </v>
   <v name="shift">      0.00000000       0.00000000       0.00000000 </v>
  </generation>
  <varray name="kpointlist" >
   <v>       0.00000000       0.00000000       0.00000000 </v>
   <v>       0.04545455       0.00000000       0.00000000 </v>
   <v>       0.09090909       0.00000000       0.00000000 </v>
   <v>       0.13636364       0.00000000       0.00000000 </v>
   <v>       0.18181818       0.00000000       0.00000000 </v>
   <v>       0.22727273       0.00000000       0.00000000 </v>
   <v>       0.27272727       0.00000000       0.00000000 </v>
   <v>       0.31818182       0.00000000       0.00000000 </v>
   <v>       0.36363636       0.00000000       0.00000000 </v>
   <v>       0.40909091       0.00000000       0.00000000 </v>
   <v>       0.45454545       0.00000000       0.00000000 </v>
   <v>       0.50000000       0.00000000       0.00000000 </v>
   <v>       0.00000000       0.06666667       0.00000000 </v>
   <v>       0.04545455       0.06666667       0.00000000 </v>
   <v>       0.09090909       0.06666667       0.00000000 </v>
   <v>       0.13636364       0.06666667       0.00000000 </v>
   <v>       0.18181818       0.06666667       0.00000000 </v>
   <v>       0.22727273       0.06666667       0.00000000 </v>
   <v>       0.27272727       0.06666667       0.00000000 </v>
   <v>       0.31818182       0.06666667       0.00000000 </v>
   <v>       0.36363636       0.06666667       0.00000000 </v>
   <v>       0.40909091       0.06666667       0.00000000 </v>
   <v>       0.45454545       0.06666667       0.00000000 </v>
   <v>       0.50000000       0.06666667       0.00000000 </v>
   <v>      -0.45454545       0.06666667       0.00000000 </v>
   <v>      -0.40909091       0.06666667       0.00000000 </v>
   <v>      -0.36363636       0.06666667       0.00000000 </v>
   <v>      -0.31818182       0.06666667       0.00000000 </v>
   <v>      -0.27272727       0.06666667       0.00000000 </v>
   <v>      -0.22727273       0.06666667       0.00000000 </v>
   <v>      -0.18181818       0.06666667       0.00000000 </v>
   <v>      -0.13636364       0.06666667       0.00000000 </v>
   <v>      -0.09090909       0.06666667       0.00000000 </v>
   <v>      -0.04545455       0.06666667       0.00000000 </v>
   <v>       0.00000000       0.13333333       0.00000000 </v>
   <v>       0.04545455       0.13333333       0.00000000 </v>
   <v>       0.09090909       0.13333333       0.00000000 </v>
   <v>       0.13636364       0.13333333       0.00000000 </v>
   <v>       0.18181818       0.13333333       0.00000000 </v>
   <v>       0.22727273       0.13333333       0.00000000 </v>
   <v>       0.27272727       0.13333333       0.00000000 </v>
   <v>       0.31818182       0.13333333       0.00000000 </v>
   <v>       0.36363636       0.13333333       0.00000000 </v>
   <v>       0.40909091       0.13333333       0.00000000 </v>
   <v>       0.45454545       0.13333333       0.00000000 </v>
   <v>       0.50000000       0.13333333       0.00000000 </v>
   <v>      -0.45454545       0.13333333       0.00000000 </v>
   <v>      -0.40909091       0.13333333       0.00000000 </v>
   <v>      -0.36363636       0.13333333       0.00000000 </v>
   <v>      -0.31818182       0.13333333       0.00000000 </v>
   <v>      -0.27272727       0.13333333       0.00000000 </v>
   <v>      -0.22727273       0.13333333       0.00000000 </v>
   <v>      -0.18181818       0.13333333       0.00000000 </v>
   <v>      -0.13636364       0.13333333       0.00000000 </v>
   <v>      -0.09090909       0.13333333       0.00000000 </v>
   <v>      -0.04545455       0.13333333       0.00000000 </v>
   <v>       0.00000000       0.20000000       0.00000000 </v>
   <v>       0.04545455       0.20000000       0.00000000 </v>
   <v>       0.09090909       0.20000000       0.00000000 </v>
   <v>       0.13636364       0.20000000       0.00000000 </v>
   <v>       0.18181818       0.20000000       0.00000000 </v>
   <v>       0.22727273       0.20000000       0.00000000 </v>
   <v>       0.27272727       0.20000000       0.00000000 </v>
   <v>       0.31818182       0.20000000       0.00000000 </v>
   <v>       0.36363636       0.20000000       0.00000000 </v>
   <v>       0.40909091       0.20000000       0.00000000 </v>
   <v>       0.45454545       0.20000000       0.00000000 </v>
   <v>       0.50000000       0.20000000       0.00000000 </v>
   <v>      -0.45454545       0.20000000       0.00000000 </v>
   <v>      -0.40909091       0.20000000       0.00000000 </v>
   <v>      -0.36363636       0.20000000       0.00000000 </v>
   <v>      -0.31818182       0.20000000       0.00000000 </v>
   <v>      -0.27272727       0.20000000       0.00000000 </v>
   <v>      -0.22727273       0.20000000       0.00000000 </v>
   <v>      -0.18181818       0.20000000       0.00000000 </v>
   <v>      -0.13636364       0.20000000       0.00000000 </v>
   <v>      -0.09090909       0.20000000       0.00000000 </v>
   <v>      -0.04545455       0.20000000       0.00000000 </v>
   <v>       0.00000000       0.26666667       0.00000000 </v>
   <v>       0.04545455       0.26666667       0.00000000 </v>
   <v>       0.09090909       0.26666667       0.00000000 </v>
   <v>       0.13636364       0.26666667       0.00000000 </v>
   <v>       0.18181818       0.26666667       0.00000000 </v>
   <v>       0.22727273       0.26666667       0.00000000 </v>
   <v>       0.27272727       0.26666667       0.00000000 </v>
   <v>       0.31818182       0.26666667       0.00000000 </v>
   <v>       0.36363636       0.26666667       0.00000000 </v>
   <v>       0.40909091       0.26666667       0.00000000 </v>
   <v>       0.45454545       0.26666667       0.00000000 </v>
   <v>       0.50000000       0.26666667       0.00000000 </v>
   <v>      -0.45454545       0.26666667       0.00000000 </v>
   <v>      -0.40909091       0.26666667       0.00000000 </v>
   <v>      -0.36363636       0.26666667       0.00000000 </v>
   <v>      -0.31818182       0.26666667       0.00000000 </v>
   <v>      -0.27272727       0.26666667       0.00000000 </v>
   <v>      -0.22727273       0.26666667       0.00000000 </v>
   <v>      -0.18181818       0.26666667       0.00000000 </v>
   <v>      -0.13636364       0.26666667       0.00000000 </v>
   <v>      -0.09090909       0.26666667       0.00000000 </v>
   <v>      -0.04545455       0.26666667       0.00000000 </v>
   <v>       0.00000000       0.33333333       0.00000000 </v>
   <v>       0.04545455       0.33333333       0.00000000 </v>
   <v>       0.09090909       0.33333333       0.00000000 </v>
   <v>       0.13636364       0.33333333       0.00000000 </v>
   <v>       0.18181818       0.33333333       0.00000000 </v>
   <v>       0.22727273       0.33333333       0.00000000 </v>
   <v>       0.27272727       0.33333333       0.00000000 </v>
   <v>       0.31818182       0.33333333       0.00000000 </v>
   <v>       0.36363636       0.33333333       0.00000000 </v>
   <v>       0.40909091       0.33333333       0.00000000 </v>
   <v>       0.45454545       0.33333333       0.00000000 </v>
   <v>       0.50000000       0.33333333       0.00000000 </v>
   <v>      -0.45454545       0.33333333       0.00000000 </v>
   <v>      -0.40909091       0.33333333       0.00000000 </v>
   <v>      -0.36363636       0.33333333       0.00000000 </v>
   <v>      -0.31818182       0.33333333       0.00000000 </v>
   <v>      -0.27272727       0.33333333       0.00000000 </v>
   <v>      -0.22727273       0.33333333       0.00000000 </v>
   <v>      -0.18181818       0.33333333       0.00000000 </v>
   <v>      -0.13636364       0.33333333       0.00000000 </v>
   <v>      -0.09090909       0.33333333       0.00000000 </v>
   <v>      -0.04545455       0.33333333       0.00000000 </v>
   <v>       0.00000000       0.40000000       0.00000000 </v>
   <v>       0.04545455       0.40000000       0.00000000 </v>
   <v>       0.09090909       0.40000000       0.00000000 </v>
   <v>       0.13636364       0.40000000       0.00000000 </v>
   <v>       0.18181818       0.40000000       0.00000000 </v>
   <v>       0.22727273       0.40000000       0.00000000 </v>
   <v>       0.27272727       0.40000000       0.00000000 </v>
   <v>       0.31818182       0.40000000       0.00000000 </v>
   <v>       0.36363636       0.40000000       0.00000000 </v>
   <v>       0.40909091       0.40000000       0.00000000 </v>
   <v>       0.45454545       0.40000000       0.00000000 </v>
   <v>       0.50000000       0.40000000       0.00000000 </v>
   <v>      -0.45454545       0.40000000       0.00000000 </v>
   <v>      -0.40909091       0.40000000       0.00000000 </v>
   <v>      -0.36363636       0.40000000       0.00000000 </v>
   <v>      -0.31818182       0.40000000       0.00000000 </v>
   <v>      -0.27272727       0.40000000       0.00000000 </v>
   <v>      -0.22727273       0.40000000       0.00000000 </v>
   <v>      -0.18181818       0.40000000       0.00000000 </v>
   <v>      -0.13636364       0.40000000       0.00000000 </v>
   <v>      -0.09090909       0.40000000       0.00000000 </v>
   <v>      -0.04545455       0.40000000       0.00000000 </v>
   <v>       0.00000000       0.46666667       0.00000000 </v>
   <v>       0.04545455       0.46666667       0.00000000 </v>
   <v>       0.09090909       0.46666667       0.00000000 </v>
   <v>       0.13636364       0.46666667       0.00000000 </v>
   <v>       0.18181818       0.46666667       0.00000000 </v>
   <v>       0.22727273       0.46666667       0.00000000 </v>
   <v>       0.27272727       0.46666667       0.00000000 </v>
   <v>       0.31818182       0.46666667       0.00000000 </v>
   <v>       0.36363636       0.46666667       0.00000000 </v>
   <v>       0.40909091       0.46666667       0.00000000 </v>
   <v>       0.45454545       0.46666667       0.00000000 </v>
   <v>       0.50000000       0.46666667       0.00000000 </v>
   <v>      -0.45454545       0.46666667       0.00000000 </v>
   <v>      -0.40909091       0.46666667       0.00000000 </v>
   <v>      -0.36363636       0.46666667       0.00000000 </v>
   <v>      -0.31818182       0.46666667       0.00000000 </v>
   <v>      -0.27272727       0.46666667       0.00000000 </v>
   <v>      -0.22727273       0.46666667       0.00000000 </v>
   <v>      -0.18181818       0.46666667       0.00000000 </v>
   <v>      -0.13636364       0.46666667       0.00000000 </v>
   <v>      -0.09090909       0.46666667       0.00000000 </v>
   <v>      -0.04545455       0.46666667       0.00000000 </v>
  </varray>
  <varray name="weights" >
   <v>       0.00303030 </v>
   <v>       0.00606061 </v>
   <v>       0.00606061 </v>
   <v>       0.00606061 </v>
   <v>       0.00606061 </v>
   <v>       0.00606061 </v>
   <v>       0.00606061 </v>
   <v>       0.00606061 </v>
   <v>       0.00606061 </v>
   <v>       0.00606061 </v>
   <v>       0.00606061 </v>
   <v>       0.00303030 </v>
   <v>       0.00606061 </v>
   <v>       0.00606061 </v>
   <v>       0.00606061 </v>
   <v>       0.00606061 </v>
   <v>       0.00606061 </v>
   <v>       0.00606061 </v>
   <v>       0.00606061 </v>
   <v>       0.00606061 </v>
   <v>       0.00606061 </v>
   <v>       0.00606061 </v>
   <v>       0.00606061 </v>
   <v>       0.00606061 </v>
   <v>       0.00606061 </v>
   <v>       0.00606061 </v>
   <v>       0.00606061 </v>
   <v>       0.00606061 </v>
   <v>       0.00606061 </v>
   <v>       0.00606061 </v>
   <v>       0.00606061 </v>
   <v>       0.00606061 </v>
   <v>       0.00606061 </v>
   <v>       0.00606061 </v>
   <v>       0.00606061 </v>
   <v>       0.00606061 </v>
   <v>       0.00606061 </v>
   <v>       0.00606061 </v>
   <v>       0.00606061 </v>
   <v>       0.00606061 </v>
   <v>       0.00606061 </v>
   <v>       0.00606061 </v>
   <v>       0.00606061 </v>
   <v>       0.00606061 </v>
   <v>       0.00606061 </v>
   <v>       0.00606061 </v>
   <v>       0.00606061 </v>
   <v>       0.00606061 </v>
   <v>       0.00606061 </v>
   <v>       0.00606061 </v>
   <v>       0.00606061 </v>
   <v>       0.00606061 </v>
   <v>       0.00606061 </v>
   <v>       0.00606061 </v>
   <v>       0.00606061 </v>
   <v>       0.00606061 </v>
   <v>       0.00606061 </v>
   <v>       0.00606061 </v>
   <v>       0.00606061 </v>
   <v>       0.00606061 </v>
   <v>       0.00606061 </v>
   <v>       0.00606061 </v>
   <v>       0.00606061 </v>
   <v>       0.00606061 </v>
   <v>       0.00606061 </v>
   <v>       0.00606061 </v>
   <v>       0.00606061 </v>
   <v>       0.00606061 </v>
   <v>       0.00606061 </v>
   <v>       0.00606061 </v>
   <v>       0.00606061 </v>
   <v>       0.00606061 </v>
   <v>       0.00606061 </v>
   <v>       0.00606061 </v>
   <v>       0.00606061 </v>
   <v>       0.00606061 </v>
   <v>       0.00606061 </v>
   <v>       0.00606061 </v>
   <v>       0.00606061 </v>
   <v>       0.00606061 </v>
   <v>       0.00606061 </v>
   <v>       0.00606061 </v>
   <v>       0.00606061 </v>
   <v>       0.00606061 </v>
   <v>       0.00606061 </v>
   <v>       0.00606061 </v>
   <v>       0.00606061 </v>
   <v>       0.00606061 </v>
   <v>       0.00606061 </v>
   <v>       0.00606061 </v>
   <v>       0.00606061 </v>
   <v>       0.00606061 </v>
   <v>       0.00606061 </v>
   <v>       0.00606061 </v>
   <v>       0.00606061 </v>
   <v>       0.00606061 </v>
   <v>       0.00606061 </v>
   <v>       0.00606061 </v>
   <v>       0.00606061 </v>
   <v>       0.00606061 </v>
   <v>       0.00606061 </v>
   <v>       0.00606061 </v>
   <v>       0.00606061 </v>
   <v>       0.00606061 </v>
   <v>       0.00606061 </v>
   <v>       0.00606061 </v>
   <v>       0.00606061 </v>
   <v>       0.00606061 </v>
   <v>       0.00606061 </v>
   <v>       0.00606061 </v>
   <v>       0.00606061 </v>
   <v>       0.00606061 </v>
   <v>       0.00606061 </v>
   <v>       0.00606061 </v>
   <v>       0.00606061 </v>
   <v>       0.00606061 </v>
   <v>       0.00606061 </v>
   <v>       0.00606061 </v>
   <v>       0.00606061 </v>
   <v>       0.00606061 </v>
   <v>       0.00606061 </v>
   <v>       0.00606061 </v>
   <v>       0.00606061 </v>
   <v>       0.00606061 </v>
   <v>       0.00606061 </v>
   <v>       0.00606061 </v>
   <v>       0.00606061 </v>
   <v>       0.00606061 </v>
   <v>       0.00606061 </v>
   <v>       0.00606061 </v>
   <v>       0.00606061 </v>
   <v>       0.00606061 </v>
   <v>       0.00606061 </v>
   <v>       0.00606061 </v>
   <v>       0.00606061 </v>
   <v>       0.00606061 </v>
   <v>       0.00606061 </v>
   <v>       0.00606061 </v>
   <v>       0.00606061 </v>
   <v>       0.00606061 </v>
   <v>       0.00606061 </v>
   <v>       0.00606061 </v>
   <v>       0.00606061 </v>
   <v>       0.00606061 </v>
   <v>       0.00606061 </v>
   <v>       0.00606061 </v>
   <v>       0.00606061 </v>
   <v>       0.00606061 </v>
   <v>       0.00606061 </v>
   <v>       0.00606061 </v>
   <v>       0.00606061 </v>
   <v>       0.00606061 </v>
   <v>       0.00606061 </v>
   <v>       0.00606061 </v>
   <v>       0.00606061 </v>
   <v>       0.00606061 </v>
   <v>       0.00606061 </v>
   <v>       0.00606061 </v>
   <v>       0.00606061 </v>
   <v>       0.00606061 </v>
   <v>       0.00606061 </v>
   <v>       0.00606061 </v>
   <v>       0.00606061 </v>
   <v>       0.00606061 </v>
   <v>       0.00606061 </v>
   <v>       0.00606061 </v>
  </varray>
 </kpoints>
 <parameters>
  <separator name="general" >
   <i type="string" name="SYSTEM">unknown system</i>
   <i type="logical" name="LCOMPAT"> F  </i>
  </separator>
  <separator name="electronic" >
   <i type="string" name="PREC">a</i>
   <i name="ENMAX">    520.00000000</i>
   <i name="ENAUG">    342.92400000</i>
   <i name="EDIFF">      0.00001000</i>
   <i type="int" name="IALGO">    38</i>
   <i type="int" name="IWAVPR">    11</i>
   <i type="int" name="NBANDS">    16</i>
   <i name="NELECT">     20.00000000</i>
   <i type="int" name="TURBO">     0</i>
   <i type="int" name="IRESTART">     0</i>
   <i type="int" name="NREBOOT">     0</i>
   <i type="int" name="NMIN">     0</i>
   <i name="EREF">      0.00000000</i>
   <separator name="electronic smearing" >
    <i type="int" name="ISMEAR">     0</i>
    <i name="SIGMA">      0.02000000</i>
    <i name="KSPACING">      0.50000000</i>
    <i type="logical" name="KGAMMA"> T  </i>
   </separator>
   <separator name="electronic projectors" >
    <i type="logical" name="LREAL"> F  </i>
    <v name="ROPT">      0.00000000</v>
    <i type="int" name="LMAXPAW">  -100</i>
    <i type="int" name="LMAXMIX">     2</i>
    <i type="logical" name="NLSPLINE"> F  </i>
   </separator>
   <separator name="electronic startup" >
    <i type="int" name="ISTART">     0</i>
    <i type="int" name="ICHARG">     2</i>
    <i type="int" name="INIWAV">     1</i>
   </separator>
   <separator name="electronic spin" >
    <i type="int" name="ISPIN">     1</i>
    <i type="logical" name="LNONCOLLINEAR"> F  </i>
    <v name="MAGMOM">      1.00000000      1.00000000      1.00000000      1.00000000</v>
    <i name="NUPDOWN">     -1.00000000</i>
    <i type="logical" name="LSORBIT"> F  </i>
    <v name="SAXIS">      0.00000000      0.00000000      1.00000000</v>
    <i type="logical" name="LSPIRAL"> F  </i>
    <v name="QSPIRAL">      0.00000000      0.00000000      0.00000000</v>
    <i type="logical" name="LZEROZ"> F  </i>
   </separator>
   <separator name="electronic exchange-correlation" >
    <i type="logical" name="LASPH"> F  </i>
    <i type="logical" name="LMETAGGA"> F  </i>
   </separator>
   <separator name="electronic convergence" >
    <i type="int" name="NELM">   250</i>
    <i type="int" name="NELMDL">    -5</i>
    <i type="int" name="NELMIN">     6</i>
    <i name="ENINI">    520.00000000</i>
    <separator name="electronic convergence detail" >
     <i type="logical" name="LDIAG"> T  </i>
     <i type="logical" name="LSUBROT"> F  </i>
     <i name="WEIMIN">      0.00100000</i>
     <i name="EBREAK">      0.00000016</i>
     <i name="DEPER">      0.30000000</i>
     <i type="int" name="NRMM">     4</i>
     <i name="TIME">      0.40000000</i>
    </separator>
   </separator>
   <separator name="electronic mixer" >
    <i name="AMIX">      0.40000000</i>
    <i name="BMIX">      1.00000000</i>
    <i name="AMIN">      0.10000000</i>
    <i name="AMIX_MAG">      1.60000000</i>
    <i name="BMIX_MAG">      1.00000000</i>
    <separator name="electronic mixer details" >
     <i type="int" name="IMIX">     4</i>
     <i type="logical" name="MIXFIRST"> F  </i>
     <i type="int" name="MAXMIX">   -45</i>
     <i name="WC">    100.00000000</i>
     <i type="int" name="INIMIX">     1</i>
     <i type="int" name="MIXPRE">     1</i>
     <i type="int" name="MREMOVE">     5</i>
    </separator>
   </separator>
   <separator name="electronic dipolcorrection" >
    <i type="logical" name="LDIPOL"> F  </i>
    <i type="logical" name="LMONO"> F  </i>
    <i type="int" name="IDIPOL">     0</i>
    <i name="EPSILON">      1.00000000</i>
    <v name="DIPOL">   -100.00000000   -100.00000000   -100.00000000</v>
    <i name="EFIELD">      0.00000000</i>
   </separator>
  </separator>
  <separator name="grids" >
   <i type="int" name="NGX">    24</i>
   <i type="int" name="NGY">    36</i>
   <i type="int" name="NGZ">   150</i>
   <i type="int" name="NGXF">    48</i>
   <i type="int" name="NGYF">    72</i>
   <i type="int" name="NGZF">   300</i>
   <i type="logical" name="ADDGRID"> F  </i>
  </separator>
  <separator name="ionic" >
   <i type="int" name="NSW">   200</i>
   <i type="int" name="IBRION">     2</i>
   <i type="int" name="ISIF">     2</i>
   <i name="PSTRESS">      0.00000000</i>
   <i name="EDIFFG">     -0.01000000</i>
   <i type="int" name="NFREE">     1</i>
   <i name="POTIM">      0.30000000</i>
   <i name="SMASS">     -3.00000000</i>
   <i name="SCALEE">      1.00000000</i>
  </separator>
  <separator name="ionic md" >
   <i name="TEBEG">      0.00010000</i>
   <i name="TEEND">      0.00010000</i>
   <i type="int" name="NBLOCK">     1</i>
   <i type="int" name="KBLOCK">   200</i>
   <i type="int" name="NPACO">   256</i>
   <i name="APACO">     16.00000000</i>
  </separator>
  <separator name="symmetry" >
   <i type="int" name="ISYM">     2</i>
   <i name="SYMPREC">      0.00001000</i>
  </separator>
  <separator name="dos" >
   <i type="logical" name="LORBIT"> F  </i>
   <v name="RWIGS">     -1.00000000</v>
   <i type="int" name="NEDOS">   301</i>
   <i name="EMIN">     10.00000000</i>
   <i name="EMAX">    -10.00000000</i>
   <i name="EFERMI">      0.00000000</i>
  </separator>
  <separator name="writing" >
   <i type="int" name="NWRITE">     2</i>
   <i type="logical" name="LWAVE"> F  </i>
   <i type="logical" name="LCHARG"> F  </i>
   <i type="logical" name="LPARD"> F  </i>
   <i type="logical" name="LVTOT"> F  </i>
   <i type="logical" name="LVHAR"> F  </i>
   <i type="logical" name="LELF"> F  </i>
   <i type="logical" name="LOPTICS"> F  </i>
   <v name="STM">      0.00000000      0.00000000      0.00000000      0.00000000      0.00000000      0.00000000      0.00000000</v>
  </separator>
  <separator name="performance" >
   <i type="int" name="NPAR">     4</i>
   <i type="int" name="NSIM">     4</i>
   <i type="int" name="NBLK">    -1</i>
   <i type="logical" name="LPLANE"> T  </i>
   <i type="logical" name="LSCALAPACK"> T  </i>
   <i type="logical" name="LSCAAWARE"> F  </i>
   <i type="logical" name="LSCALU"> F  </i>
   <i type="logical" name="LASYNC"> F  </i>
   <i type="logical" name="LORBITALREAL"> F  </i>
  </separator>
  <separator name="miscellaneous" >
   <i type="int" name="IDIOT">     3</i>
   <i type="logical" name="LMUSIC"> F  </i>
   <v name="POMASS">     30.97400000</v>
   <v name="DARWINR">      0.00000000</v>
   <v name="DARWINV">      1.00000000</v>
   <i type="logical" name="LCORR"> T  </i>
  </separator>
  <i type="logical" name="GGA_COMPAT"> T  </i>
  <i type="logical" name="LBERRY"> F  </i>
  <i type="int" name="ICORELEVEL">     0</i>
  <i type="logical" name="LDAU"> F  </i>
  <i type="int" name="I_CONSTRAINED_M">     0</i>
  <separator name="electronic exchange-correlation" >
   <i type="string" name="GGA">--</i>
   <i type="int" name="VOSKOWN">     0</i>
   <i type="logical" name="LHFCALC"> F  </i>
   <i type="string" name="PRECFOCK"></i>
   <i type="logical" name="LSYMGRAD"> F  </i>
   <i type="logical" name="LHFONE"> F  </i>
   <i type="logical" name="LRHFCALC"> F  </i>
   <i type="logical" name="LTHOMAS"> F  </i>
   <i type="logical" name="LMODELHF"> F  </i>
   <i name="ENCUT4O">     -1.00000000</i>
   <i type="int" name="EXXOEP">     0</i>
   <i type="int" name="FOURORBIT">     0</i>
   <i name="AEXX">      0.00000000</i>
   <i name="HFALPHA">      0.00000000</i>
   <i name="MCALPHA">      0.00000000</i>
   <i name="ALDAX">      1.00000000</i>
   <i name="AGGAX">      1.00000000</i>
   <i name="ALDAC">      1.00000000</i>
   <i name="AGGAC">      1.00000000</i>
   <i type="int" name="NKREDX">     1</i>
   <i type="int" name="NKREDY">     1</i>
   <i type="int" name="NKREDZ">     1</i>
   <i type="logical" name="SHIFTRED"> F  </i>
   <i type="logical" name="ODDONLY"> F  </i>
   <i type="logical" name="EVENONLY"> F  </i>
   <i type="int" name="LMAXFOCK">     0</i>
   <i type="int" name="NMAXFOCKAE">     0</i>
   <i type="logical" name="LFOCKAEDFT"> F  </i>
   <i name="HFSCREEN">      0.00000000</i>
   <i name="HFSCREENC">      0.00000000</i>
   <i type="int" name="NBANDSGWLOW">     0</i>
  </separator>
  <separator name="vdW DFT" >
   <i type="logical" name="LUSE_VDW"> F  </i>
   <i name="Zab_VDW">     -0.84910000</i>
   <i name="PARAM1">      0.12340000</i>
   <i name="PARAM2">      1.00000000</i>
   <i name="PARAM3">      0.00000000</i>
  </separator>
  <separator name="model GW" >
   <i type="int" name="MODEL_GW">     0</i>
   <i name="MODEL_EPS0">     44.75792154</i>
   <i name="MODEL_ALPHA">      1.00000000</i>
  </separator>
  <separator name="linear response parameters" >
   <i type="logical" name="LEPSILON"> F  </i>
   <i type="logical" name="LRPA"> F  </i>
   <i type="logical" name="LNABLA"> F  </i>
   <i type="logical" name="LVEL"> F  </i>
   <i type="int" name="KINTER">     0</i>
   <i name="CSHIFT">      0.10000000</i>
   <i name="OMEGAMAX">     -1.00000000</i>
   <i name="DEG_THRESHOLD">      0.00200000</i>
  </separator>
  <separator name="orbital magnetization" >
   <i type="logical" name="NUCIND"> F  </i>
   <v name="MAGPOS">      0.00000000      0.00000000      0.00000000</v>
   <i type="logical" name="LNICSALL"> T  </i>
   <i type="logical" name="ORBITALMAG"> F  </i>
   <i type="logical" name="LMAGBLOCH"> F  </i>
   <i type="logical" name="LCHIMAG"> F  </i>
   <i type="logical" name="LGAUGE"> T  </i>
   <i type="int" name="MAGATOM">     0</i>
   <v name="MAGDIPOL">      0.00000000      0.00000000      0.00000000</v>
   <v name="AVECCONST">      0.00000000      0.00000000      0.00000000</v>
  </separator>
  <separator name="response functions" >
   <i type="logical" name="LADDER"> F  </i>
   <i type="logical" name="LFXC"> F  </i>
   <i type="logical" name="LHARTREE"> T  </i>
   <i type="int" name="IBSE">     0</i>
   <v type="int" name="KPOINT">    -1     0     0     0</v>
   <i type="logical" name="LTCTE"> F  </i>
   <i type="logical" name="LTETE"> F  </i>
   <i type="logical" name="LTRIPLET"> F  </i>
   <i type="logical" name="LFXCEPS"> F  </i>
   <i type="logical" name="LFXHEG"> F  </i>
   <i type="int" name="NATURALO">     0</i>
   <i type="logical" name="L2ORDER"> F  </i>
   <i type="logical" name="LUSEW"> F  </i>
   <i name="ENCUTGW">     -2.00000000</i>
   <i name="ENCUTGWSOFT">     -2.00000000</i>
   <i name="ENCUTLF">     -1.00000000</i>
   <i type="int" name="LMAXMP2">    -1</i>
   <i name="SCISSOR">      0.00000000</i>
   <i type="int" name="NOMEGA">     0</i>
   <i type="int" name="NOMEGAR">     0</i>
   <i type="int" name="NBANDSGW">    -1</i>
   <i type="int" name="NBANDSO">    -1</i>
   <i type="int" name="NBANDSV">    -1</i>
   <i type="int" name="NELM">   250</i>
   <i type="int" name="NELMHF">     1</i>
   <i type="int" name="DIM">     3</i>
   <i type="int" name="ANTIRES">     0</i>
   <i name="OMEGAMAX">    -30.00000000</i>
   <i name="OMEGAMIN">    -30.00000000</i>
   <i name="OMEGATL">   -200.00000000</i>
   <i type="int" name="OMEGAGRID">     0</i>
   <i name="CSHIFT">     -0.10000000</i>
   <i type="logical" name="SELFENERGY"> F  </i>
   <i type="logical" name="LSPECTRAL"> F  </i>
   <i type="logical" name="LSPECTRALGW"> F  </i>
   <i type="logical" name="LSINGLES"> F  </i>
   <i type="logical" name="LFERMIGW"> F  </i>
   <i type="logical" name="ODDONLYGW"> F  </i>
   <i type="logical" name="EVENONLYGW"> F  </i>
   <i type="int" name="NKREDLFX">     1</i>
   <i type="int" name="NKREDLFY">     1</i>
   <i type="int" name="NKREDLFZ">     1</i>
   <i type="int" name="MAXMEM">  1800</i>
   <i type="int" name="TELESCOPE">     0</i>
   <i type="int" name="TAUPAR">     1</i>
   <i type="int" name="OMEGAPAR">    -1</i>
   <i name="LAMBDA">      1.00000000</i>
  </separator>
  <separator name="External order field" >
   <i name="OFIELD_KAPPA">      0.00000000</i>
   <v name="OFIELD_K">      0.00000000      0.00000000      0.00000000</v>
   <i name="OFIELD_Q6_NEAR">      0.00000000</i>
   <i name="OFIELD_Q6_FAR">      0.00000000</i>
   <i name="OFIELD_A">      0.00000000</i>
  </separator>
 </parameters>
 <atominfo>
  <atoms>       4 </atoms>
  <types>       1 </types>
  <array name="atoms" >
   <dimension dim="1">ion</dimension>
   <field type="string">element</field>
   <field type="int">atomtype</field>
   <set>
    <rc><c>P </c><c>   1</c></rc>
    <rc><c>P </c><c>   1</c></rc>
    <rc><c>P </c><c>   1</c></rc>
    <rc><c>P </c><c>   1</c></rc>
   </set>
  </array>
  <array name="atomtypes" >
   <dimension dim="1">type</dimension>
   <field type="int">atomspertype</field>
   <field type="string">element</field>
   <field>mass</field>
   <field>valence</field>
   <field type="string">pseudopotential</field>
   <set>
    <rc><c>   4</c><c>P </c><c>     30.97400000</c><c>      5.00000000</c><c>  PAW_PBE P 06Sep2000                   </c></rc>
   </set>
  </array>
 </atominfo>
 <structure name="initialpos" >
  <crystal>
   <varray name="basis" >
    <v>       3.25989900       0.00000000       0.00000000 </v>
    <v>       0.00000000       4.57104200      -0.00005300 </v>
    <v>       0.00000000       0.00000000      20.02439000 </v>
   </varray>
   <i name="volume">    298.38614358 </i>
   <varray name="rec_basis" >
    <v>       0.30675797       0.00000000       0.00000000 </v>
    <v>       0.00000000       0.21876850       0.00000000 </v>
    <v>       0.00000000       0.00000058       0.04993910 </v>
   </varray>
  </crystal>
  <varray name="positions" >
   <v>       0.50000000       0.91077300       0.55252100 </v>
   <v>       0.50000000       0.08922700       0.44747900 </v>
   <v>       0.00000000       0.41076900       0.44747900 </v>
   <v>       0.00000000       0.58923100       0.55252100 </v>
  </varray>
 </structure>
 <calculation>
  <scstep>
   <time name="dav">    1.30    1.30</time>
   <time name="total">    1.32    1.32</time>
   <energy>
    <i name="alphaZ">      5.37612444 </i>
    <i name="ewald">   1917.49775463 </i>
    <i name="hartreedc">  -2510.80750983 </i>
    <i name="XCdc">     13.24090936 </i>
    <i name="pawpsdc">    559.04011960 </i>
    <i name="pawaedc">   -526.39432044 </i>
    <i name="eentropy">     -0.00051700 </i>
    <i name="bandstr">    -27.76451853 </i>
    <i name="atom">    704.16778566 </i>
    <i name="e_fr_energy">    134.35582790 </i>
    <i name="e_wo_entrp">    134.35634490 </i>
    <i name="e_0_energy">    134.35608640 </i>
   </energy>
  </scstep>
  <scstep>
   <time name="dav">    1.75    1.75</time>
   <time name="total">    1.75    1.76</time>
   <energy>
    <i name="e_fr_energy">     -6.52125369 </i>
    <i name="e_wo_entrp">     -6.52119630 </i>
    <i name="e_0_energy">     -6.52122500 </i>
   </energy>
  </scstep>
  <scstep>
   <time name="dav">    1.59    1.59</time>
   <time name="total">    1.59    1.60</time>
   <energy>
    <i name="e_fr_energy">    -21.36686920 </i>
    <i name="e_wo_entrp">    -21.36686920 </i>
    <i name="e_0_energy">    -21.36686920 </i>
   </energy>
  </scstep>
  <scstep>
   <time name="dav">    1.62    1.62</time>
   <time name="total">    1.62    1.62</time>
   <energy>
    <i name="e_fr_energy">    -21.66602223 </i>
    <i name="e_wo_entrp">    -21.66602223 </i>
    <i name="e_0_energy">    -21.66602223 </i>
   </energy>
  </scstep>
  <scstep>
   <time name="dav">    1.71    1.71</time>
   <time name="total">    1.79    1.79</time>
   <energy>
    <i name="e_fr_energy">    -21.67578750 </i>
    <i name="e_wo_entrp">    -21.67578750 </i>
    <i name="e_0_energy">    -21.67578750 </i>
   </energy>
  </scstep>
  <scstep>
   <time name="dav">    1.53    1.53</time>
   <time name="total">    1.62    1.62</time>
   <energy>
    <i name="e_fr_energy">    -21.51524035 </i>
    <i name="e_wo_entrp">    -21.51524035 </i>
    <i name="e_0_energy">    -21.51524035 </i>
   </energy>
  </scstep>
  <scstep>
   <time name="dav">    1.53    1.53</time>
   <time name="total">    1.61    1.61</time>
   <energy>
    <i name="e_fr_energy">    -21.44202490 </i>
    <i name="e_wo_entrp">    -21.44202490 </i>
    <i name="e_0_energy">    -21.44202490 </i>
   </energy>
  </scstep>
  <scstep>
   <time name="dav">    1.57    1.57</time>
   <time name="total">    1.65    1.65</time>
   <energy>
    <i name="e_fr_energy">    -21.44096660 </i>
    <i name="e_wo_entrp">    -21.44096660 </i>
    <i name="e_0_energy">    -21.44096660 </i>
   </energy>
  </scstep>
  <scstep>
   <time name="dav">    1.84    1.84</time>
   <time name="total">    1.92    1.92</time>
   <energy>
    <i name="e_fr_energy">    -21.44080640 </i>
    <i name="e_wo_entrp">    -21.44080640 </i>
    <i name="e_0_energy">    -21.44080640 </i>
   </energy>
  </scstep>
  <scstep>
   <time name="dav">    1.54    1.54</time>
   <time name="total">    1.63    1.63</time>
   <energy>
    <i name="e_fr_energy">    -21.44056063 </i>
    <i name="e_wo_entrp">    -21.44056063 </i>
    <i name="e_0_energy">    -21.44056063 </i>
   </energy>
  </scstep>
  <scstep>
   <time name="dav">    1.58    1.58</time>
   <time name="total">    1.67    1.67</time>
   <energy>
    <i name="e_fr_energy">    -21.44043522 </i>
    <i name="e_wo_entrp">    -21.44043522 </i>
    <i name="e_0_energy">    -21.44043522 </i>
   </energy>
  </scstep>
  <scstep>
   <time name="dav">    1.39    1.39</time>
   <time name="total">    1.48    1.48</time>
   <energy>
    <i name="e_fr_energy">    -21.44084957 </i>
    <i name="e_wo_entrp">    -21.44084957 </i>
    <i name="e_0_energy">    -21.44084957 </i>
   </energy>
  </scstep>
  <scstep>
   <time name="dav">    1.40    1.40</time>
   <time name="total">    1.48    1.49</time>
   <energy>
    <i name="e_fr_energy">    -21.44094407 </i>
    <i name="e_wo_entrp">    -21.44094407 </i>
    <i name="e_0_energy">    -21.44094407 </i>
   </energy>
  </scstep>
  <scstep>
   <time name="dav">    1.30    1.30</time>
   <time name="total">    1.38    1.38</time>
   <energy>
    <i name="e_fr_energy">    -21.44109069 </i>
    <i name="e_wo_entrp">    -21.44109069 </i>
    <i name="e_0_energy">    -21.44109069 </i>
   </energy>
  </scstep>
  <scstep>
   <time name="dav">    1.33    1.33</time>
   <time name="total">    1.42    1.42</time>
   <energy>
    <i name="e_fr_energy">    -21.44114230 </i>
    <i name="e_wo_entrp">    -21.44114230 </i>
    <i name="e_0_energy">    -21.44114230 </i>
   </energy>
  </scstep>
  <scstep>
   <time name="dav">    1.27    1.27</time>
   <time name="total">    1.36    1.36</time>
   <energy>
    <i name="e_fr_energy">    -21.44117772 </i>
    <i name="e_wo_entrp">    -21.44117772 </i>
    <i name="e_0_energy">    -21.44117772 </i>
   </energy>
  </scstep>
  <scstep>
   <time name="dav">    1.29    1.29</time>
   <time name="total">    1.30    1.30</time>
   <energy>
    <i name="alphaZ">      5.37612444 </i>
    <i name="ewald">   1917.49775463 </i>
    <i name="hartreedc">  -2527.21508463 </i>
    <i name="XCdc">     14.34348095 </i>
    <i name="pawpsdc">   2205.49426193 </i>
    <i name="pawaedc">  -2173.22337233 </i>
    <i name="eentropy">     -0.00000000 </i>
    <i name="bandstr">   -167.88213020 </i>
    <i name="atom">    704.16778566 </i>
    <i name="e_fr_energy">    -21.44117953 </i>
    <i name="e_wo_entrp">    -21.44117953 </i>
    <i name="e_0_energy">    -21.44117953 </i>
   </energy>
  </scstep>
  <structure>
   <crystal>
    <varray name="basis" >
     <v>       3.25989900       0.00000000       0.00000000 </v>
     <v>       0.00000000       4.57104200      -0.00005300 </v>
     <v>       0.00000000       0.00000000      20.02439000 </v>
    </varray>
    <i name="volume">    298.38614358 </i>
    <varray name="rec_basis" >
     <v>       0.30675797       0.00000000       0.00000000 </v>
     <v>       0.00000000       0.21876850       0.00000000 </v>
     <v>       0.00000000       0.00000058       0.04993910 </v>
    </varray>
   </crystal>
   <varray name="positions" >
    <v>       0.50000000       0.91077300       0.55252100 </v>
    <v>       0.50000000       0.08922700       0.44747900 </v>
    <v>       0.00000000       0.41076900       0.44747900 </v>
    <v>       0.00000000       0.58923100       0.55252100 </v>
   </varray>
  </structure>
  <varray name="forces" >
   <v>       0.00000008       0.23303498       0.04116962 </v>
   <v>      -0.00000008      -0.23303498      -0.04116962 </v>
   <v>       0.00000016       0.23299776      -0.04117389 </v>
   <v>      -0.00000016      -0.23299776       0.04117389 </v>
  </varray>
  <varray name="stress" >
   <v>       8.69367920       0.00001340      -0.00000107 </v>
   <v>       0.00001339       6.22473872       0.00033885 </v>
   <v>      -0.00000107       0.00033877       0.86369484 </v>
  </varray>
  <energy>
   <i name="e_fr_energy">    -21.44117953 </i>
   <i name="e_wo_entrp">    -21.44117953 </i>
   <i name="e_0_energy">     -0.00000000 </i>
  </energy>
  <time name="totalsc">   27.34   27.38</time>
 </calculation>
 <calculation>
  <scstep>
   <time name="dav">    1.37    1.37</time>
   <time name="total">    1.46    1.46</time>
   <energy>
    <i name="alphaZ">      5.37612444 </i>
    <i name="ewald">   1915.32097752 </i>
    <i name="hartreedc">  -2525.47677391 </i>
    <i name="XCdc">     14.30404057 </i>
    <i name="pawpsdc">   2205.09664772 </i>
    <i name="pawaedc">  -2172.82581173 </i>
    <i name="eentropy">     -0.00000000 </i>
    <i name="bandstr">   -167.40797098 </i>
    <i name="atom">    704.16778566 </i>
    <i name="e_fr_energy">    -21.44498070 </i>
    <i name="e_wo_entrp">    -21.44498070 </i>
    <i name="e_0_energy">    -21.44498070 </i>
   </energy>
  </scstep>
  <scstep>
   <time name="dav">    1.65    1.65</time>
   <time name="total">    1.73    1.73</time>
   <energy>
    <i name="e_fr_energy">    -21.44560141 </i>
    <i name="e_wo_entrp">    -21.44560141 </i>
    <i name="e_0_energy">    -21.44560141 </i>
   </energy>
  </scstep>
  <scstep>
   <time name="dav">    1.72    1.72</time>
   <time name="total">    1.80    1.80</time>
   <energy>
    <i name="e_fr_energy">    -21.44558938 </i>
    <i name="e_wo_entrp">    -21.44558938 </i>
    <i name="e_0_energy">    -21.44558938 </i>
   </energy>
  </scstep>
  <scstep>
   <time name="dav">    1.44    1.44</time>
   <time name="total">    1.53    1.53</time>
   <energy>
    <i name="e_fr_energy">    -21.44558660 </i>
    <i name="e_wo_entrp">    -21.44558660 </i>
    <i name="e_0_energy">    -21.44558660 </i>
   </energy>
  </scstep>
  <scstep>
   <time name="dav">    1.22    1.22</time>
   <time name="total">    1.31    1.31</time>
   <energy>
    <i name="e_fr_energy">    -21.44558640 </i>
    <i name="e_wo_entrp">    -21.44558640 </i>
    <i name="e_0_energy">    -21.44558640 </i>
   </energy>
  </scstep>
  <scstep>
   <time name="dav">    1.14    1.14</time>
   <time name="total">    1.15    1.16</time>
   <energy>
    <i name="alphaZ">      5.37612444 </i>
    <i name="ewald">   1915.32097752 </i>
    <i name="hartreedc">  -2525.46267160 </i>
    <i name="XCdc">     14.29886149 </i>
    <i name="pawpsdc">   2177.19386491 </i>
    <i name="pawaedc">  -2144.91269224 </i>
    <i name="eentropy">     -0.00000000 </i>
    <i name="bandstr">   -167.42783687 </i>
    <i name="atom">    704.16778566 </i>
    <i name="e_fr_energy">    -21.44558668 </i>
    <i name="e_wo_entrp">    -21.44558668 </i>
    <i name="e_0_energy">    -21.44558668 </i>
   </energy>
  </scstep>
  <structure>
   <crystal>
    <varray name="basis" >
     <v>       3.25989900       0.00000000       0.00000000 </v>
     <v>       0.00000000       4.57104200      -0.00005300 </v>
     <v>       0.00000000       0.00000000      20.02439000 </v>
    </varray>
    <i name="volume">    298.38614358 </i>
    <varray name="rec_basis" >
     <v>       0.30675797       0.00000000       0.00000000 </v>
     <v>       0.00000000       0.21876850       0.00000000 </v>
     <v>       0.00000000       0.00000058       0.04993910 </v>
    </varray>
   </crystal>
   <varray name="positions" >
    <v>       0.50000000       0.91224867       0.55258052 </v>
    <v>       0.50000000       0.08775133       0.44741948 </v>
    <v>       0.00000000       0.41224443       0.44741949 </v>
    <v>      -0.00000000       0.58775557       0.55258051 </v>
   </varray>
  </structure>
  <varray name="forces" >
   <v>      -0.00000006       0.07814701       0.04465696 </v>
   <v>       0.00000006      -0.07814701      -0.04465696 </v>
   <v>      -0.00000004       0.07811639      -0.04465763 </v>
   <v>       0.00000004      -0.07811639       0.04465763 </v>
  </varray>
  <varray name="stress" >
   <v>       7.85181757      -0.00000096       0.00000051 </v>
   <v>      -0.00000102       3.97681870       0.00029607 </v>
   <v>       0.00000042       0.00029606       0.96882337 </v>
  </varray>
  <energy>
   <i name="e_fr_energy">    -21.44558668 </i>
   <i name="e_wo_entrp">    -21.44558668 </i>
   <i name="e_0_energy">     -0.00000000 </i>
  </energy>
  <time name="totalsc">    9.74    9.77</time>
 </calculation>
 <calculation>
  <scstep>
   <time name="dav">    1.36    1.36</time>
   <time name="total">    1.44    1.44</time>
   <energy>
    <i name="alphaZ">      5.37612444 </i>
    <i name="ewald">   1914.11351513 </i>
    <i name="hartreedc">  -2524.49433304 </i>
    <i name="XCdc">     14.27699198 </i>
    <i name="pawpsdc">   2176.97156197 </i>
    <i name="pawaedc">  -2144.69041665 </i>
    <i name="eentropy">     -0.00000000 </i>
    <i name="bandstr">   -167.16729284 </i>
    <i name="atom">    704.16778566 </i>
    <i name="e_fr_energy">    -21.44606335 </i>
    <i name="e_wo_entrp">    -21.44606335 </i>
    <i name="e_0_energy">    -21.44606335 </i>
   </energy>
  </scstep>
  <scstep>
   <time name="dav">    1.65    1.65</time>
   <time name="total">    1.73    1.73</time>
   <energy>
    <i name="e_fr_energy">    -21.44625592 </i>
    <i name="e_wo_entrp">    -21.44625592 </i>
    <i name="e_0_energy">    -21.44625592 </i>
   </energy>
  </scstep>
  <scstep>
   <time name="dav">    1.63    1.63</time>
   <time name="total">    1.71    1.71</time>
   <energy>
    <i name="e_fr_energy">    -21.44625107 </i>
    <i name="e_wo_entrp">    -21.44625107 </i>
    <i name="e_0_energy">    -21.44625107 </i>
   </energy>
  </scstep>
  <scstep>
   <time name="dav">    1.19    1.19</time>
   <time name="total">    1.27    1.27</time>
   <energy>
    <i name="e_fr_energy">    -21.44624852 </i>
    <i name="e_wo_entrp">    -21.44624852 </i>
    <i name="e_0_energy">    -21.44624852 </i>
   </energy>
  </scstep>
  <scstep>
   <time name="dav">    1.05    1.05</time>
   <time name="total">    1.13    1.13</time>
   <energy>
    <i name="e_fr_energy">    -21.44624862 </i>
    <i name="e_wo_entrp">    -21.44624862 </i>
    <i name="e_0_energy">    -21.44624862 </i>
   </energy>
  </scstep>
  <scstep>
   <time name="dav">    1.02    1.02</time>
   <time name="total">    1.03    1.03</time>
   <energy>
    <i name="alphaZ">      5.37612444 </i>
    <i name="ewald">   1914.11351513 </i>
    <i name="hartreedc">  -2524.49877087 </i>
    <i name="XCdc">     14.27430193 </i>
    <i name="pawpsdc">   2161.60931106 </i>
    <i name="pawaedc">  -2129.32256719 </i>
    <i name="eentropy">     -0.00000000 </i>
    <i name="bandstr">   -167.16594874 </i>
    <i name="atom">    704.16778566 </i>
    <i name="e_fr_energy">    -21.44624859 </i>
    <i name="e_wo_entrp">    -21.44624859 </i>
    <i name="e_0_energy">    -21.44624859 </i>
   </energy>
  </scstep>
  <structure>
   <crystal>
    <varray name="basis" >
     <v>       3.25989900       0.00000000       0.00000000 </v>
     <v>       0.00000000       4.57104200      -0.00005300 </v>
     <v>       0.00000000       0.00000000      20.02439000 </v>
    </varray>
    <i name="volume">    298.38614358 </i>
    <varray name="rec_basis" >
     <v>       0.30675797       0.00000000       0.00000000 </v>
     <v>       0.00000000       0.21876850       0.00000000 </v>
     <v>       0.00000000       0.00000058       0.04993910 </v>
    </varray>
   </crystal>
   <varray name="positions" >
    <v>       0.50000000       0.91307152       0.55261370 </v>
    <v>       0.50000000       0.08692848       0.44738630 </v>
    <v>       0.00000000       0.41306715       0.44738630 </v>
    <v>      -0.00000000       0.58693285       0.55261370 </v>
   </varray>
  </structure>
  <varray name="forces" >
   <v>      -0.00000008      -0.00578530       0.04622784 </v>
   <v>       0.00000008       0.00578530      -0.04622784 </v>
   <v>      -0.00000008      -0.00581237      -0.04622712 </v>
   <v>       0.00000008       0.00581237       0.04622712 </v>
  </varray>
  <varray name="stress" >
   <v>       7.42737479      -0.00000107      -0.00000004 </v>
   <v>      -0.00000110       2.72758337       0.00027353 </v>
   <v>      -0.00000011       0.00027347       0.99505659 </v>
  </varray>
  <energy>
   <i name="e_fr_energy">    -21.44624859 </i>
   <i name="e_wo_entrp">    -21.44624859 </i>
   <i name="e_0_energy">     -0.00000000 </i>
  </energy>
  <time name="totalsc">    9.08    9.09</time>
 </calculation>
 <calculation>
  <scstep>
   <time name="dav">    1.36    1.36</time>
   <time name="total">    1.44    1.44</time>
   <energy>
    <i name="alphaZ">      5.37612444 </i>
    <i name="ewald">   1914.07938530 </i>
    <i name="hartreedc">  -2524.47709904 </i>
    <i name="XCdc">     14.27373418 </i>
    <i name="pawpsdc">   2161.45673627 </i>
    <i name="pawaedc">  -2129.17001535 </i>
    <i name="eentropy">     -0.00000000 </i>
    <i name="bandstr">   -167.15290053 </i>
    <i name="atom">    704.16778566 </i>
    <i name="e_fr_energy">    -21.44624907 </i>
    <i name="e_wo_entrp">    -21.44624907 </i>
    <i name="e_0_energy">    -21.44624907 </i>
   </energy>
  </scstep>
  <scstep>
   <time name="dav">    0.96    0.96</time>
   <time name="total">    1.04    1.05</time>
   <energy>
    <i name="e_fr_energy">    -21.44624922 </i>
    <i name="e_wo_entrp">    -21.44624922 </i>
    <i name="e_0_energy">    -21.44624922 </i>
   </energy>
  </scstep>
  <scstep>
   <time name="dav">    1.02    1.02</time>
   <time name="total">    1.11    1.11</time>
   <energy>
    <i name="e_fr_energy">    -21.44624928 </i>
    <i name="e_wo_entrp">    -21.44624928 </i>
    <i name="e_0_energy">    -21.44624928 </i>
   </energy>
  </scstep>
  <scstep>
   <time name="dav">    1.02    1.02</time>
   <time name="total">    1.11    1.11</time>
   <energy>
    <i name="e_fr_energy">    -21.44624939 </i>
    <i name="e_wo_entrp">    -21.44624939 </i>
    <i name="e_0_energy">    -21.44624939 </i>
   </energy>
  </scstep>
  <scstep>
   <time name="dav">    1.04    1.04</time>
   <time name="total">    1.13    1.13</time>
   <energy>
    <i name="e_fr_energy">    -21.44624954 </i>
    <i name="e_wo_entrp">    -21.44624954 </i>
    <i name="e_0_energy">    -21.44624954 </i>
   </energy>
  </scstep>
  <scstep>
   <time name="dav">    1.04    1.04</time>
   <time name="total">    1.05    1.05</time>
   <energy>
    <i name="alphaZ">      5.37612444 </i>
    <i name="ewald">   1914.07938530 </i>
    <i name="hartreedc">  -2524.48958886 </i>
    <i name="XCdc">     14.27375739 </i>
    <i name="pawpsdc">   2160.93251355 </i>
    <i name="pawaedc">  -2128.64564172 </i>
    <i name="eentropy">     -0.00000000 </i>
    <i name="bandstr">   -167.14058541 </i>
    <i name="atom">    704.16778566 </i>
    <i name="e_fr_energy">    -21.44624964 </i>
    <i name="e_wo_entrp">    -21.44624964 </i>
    <i name="e_0_energy">    -21.44624964 </i>
   </energy>
  </scstep>
  <structure>
   <crystal>
    <varray name="basis" >
     <v>       3.25989900       0.00000000       0.00000000 </v>
     <v>       0.00000000       4.57104200      -0.00005300 </v>
     <v>       0.00000000       0.00000000      20.02439000 </v>
    </varray>
    <i name="volume">    298.38614358 </i>
    <varray name="rec_basis" >
     <v>       0.30675797       0.00000000       0.00000000 </v>
     <v>       0.00000000       0.21876850       0.00000000 </v>
     <v>       0.00000000       0.00000058       0.04993910 </v>
    </varray>
   </crystal>
   <varray name="positions" >
    <v>       0.50000000       0.91309482       0.55261464 </v>
    <v>       0.50000000       0.08690518       0.44738536 </v>
    <v>       0.00000000       0.41309045       0.44738536 </v>
    <v>      -0.00000000       0.58690955       0.55261464 </v>
   </varray>
  </structure>
  <varray name="forces" >
   <v>      -0.00000012      -0.00808280       0.04626398 </v>
   <v>       0.00000012       0.00808280      -0.04626398 </v>
   <v>      -0.00000013      -0.00810979      -0.04626319 </v>
   <v>       0.00000013       0.00810979       0.04626319 </v>
  </varray>
  <varray name="stress" >
   <v>       7.41995575      -0.00000162       0.00000018 </v>
   <v>      -0.00000162       2.68762809       0.00027235 </v>
   <v>       0.00000017       0.00027237       0.97458433 </v>
  </varray>
  <energy>
   <i name="e_fr_energy">    -21.44624964 </i>
   <i name="e_wo_entrp">    -21.44624964 </i>
   <i name="e_0_energy">     -0.00000000 </i>
  </energy>
  <time name="totalsc">    7.64    7.65</time>
 </calculation>
 <calculation>
  <scstep>
   <time name="dav">    1.26    1.26</time>
   <time name="total">    1.34    1.34</time>
   <energy>
    <i name="alphaZ">      5.37612444 </i>
    <i name="ewald">   1912.61467757 </i>
    <i name="hartreedc">  -2523.10898712 </i>
    <i name="XCdc">     14.26397550 </i>
    <i name="pawpsdc">   2160.90854927 </i>
    <i name="pawaedc">  -2128.62167564 </i>
    <i name="eentropy">     -0.00000000 </i>
    <i name="bandstr">   -167.04687251 </i>
    <i name="atom">    704.16778566 </i>
    <i name="e_fr_energy">    -21.44642283 </i>
    <i name="e_wo_entrp">    -21.44642283 </i>
    <i name="e_0_energy">    -21.44642283 </i>
   </energy>
  </scstep>
  <scstep>
   <time name="dav">    1.57    1.57</time>
   <time name="total">    1.66    1.66</time>
   <energy>
    <i name="e_fr_energy">    -21.44646359 </i>
    <i name="e_wo_entrp">    -21.44646359 </i>
    <i name="e_0_energy">    -21.44646359 </i>
   </energy>
  </scstep>
  <scstep>
   <time name="dav">    1.13    1.13</time>
   <time name="total">    1.21    1.22</time>
   <energy>
    <i name="e_fr_energy">    -21.44646159 </i>
    <i name="e_wo_entrp">    -21.44646159 </i>
    <i name="e_0_energy">    -21.44646159 </i>
   </energy>
  </scstep>
  <scstep>
   <time name="dav">    1.03    1.03</time>
   <time name="total">    1.12    1.12</time>
   <energy>
    <i name="e_fr_energy">    -21.44646128 </i>
    <i name="e_wo_entrp">    -21.44646128 </i>
    <i name="e_0_energy">    -21.44646128 </i>
   </energy>
  </scstep>
  <scstep>
   <time name="dav">    1.01    1.01</time>
   <time name="total">    1.09    1.10</time>
   <energy>
    <i name="e_fr_energy">    -21.44646132 </i>
    <i name="e_wo_entrp">    -21.44646132 </i>
    <i name="e_0_energy">    -21.44646132 </i>
   </energy>
  </scstep>
  <scstep>
   <time name="dav">    0.99    0.99</time>
   <time name="total">    1.01    1.01</time>
   <energy>
    <i name="alphaZ">      5.37612444 </i>
    <i name="ewald">   1912.61467757 </i>
    <i name="hartreedc">  -2523.10670534 </i>
    <i name="XCdc">     14.26330001 </i>
    <i name="pawpsdc">   2156.04816086 </i>
    <i name="pawaedc">  -2123.75961390 </i>
    <i name="eentropy">     -0.00000000 </i>
    <i name="bandstr">   -167.05019061 </i>
    <i name="atom">    704.16778566 </i>
    <i name="e_fr_energy">    -21.44646131 </i>
    <i name="e_wo_entrp">    -21.44646131 </i>
    <i name="e_0_energy">    -21.44646131 </i>
   </energy>
  </scstep>
  <structure>
   <crystal>
    <varray name="basis" >
     <v>       3.25989900       0.00000000       0.00000000 </v>
     <v>       0.00000000       4.57104200      -0.00005300 </v>
     <v>       0.00000000       0.00000000      20.02439000 </v>
    </varray>
    <i name="volume">    298.38614358 </i>
    <varray name="rec_basis" >
     <v>       0.30675797       0.00000000       0.00000000 </v>
     <v>       0.00000000       0.21876850       0.00000000 </v>
     <v>       0.00000000       0.00000058       0.04993910 </v>
    </varray>
   </crystal>
   <varray name="positions" >
    <v>       0.50000000       0.91310204       0.55269178 </v>
    <v>       0.50000000       0.08689796       0.44730822 </v>
    <v>       0.00000000       0.41309746       0.44730823 </v>
    <v>      -0.00000000       0.58690254       0.55269177 </v>
   </varray>
  </structure>
  <varray name="forces" >
   <v>      -0.00000001      -0.00416783       0.02300253 </v>
   <v>       0.00000001       0.00416783      -0.02300253 </v>
   <v>      -0.00000002      -0.00418893      -0.02300244 </v>
   <v>       0.00000002       0.00418893       0.02300244 </v>
  </varray>
  <varray name="stress" >
   <v>       7.37621349      -0.00000042       0.00000011 </v>
   <v>      -0.00000032       2.59415863       0.00020841 </v>
   <v>       0.00000009       0.00020840       0.45627673 </v>
  </varray>
  <energy>
   <i name="e_fr_energy">    -21.44646131 </i>
   <i name="e_wo_entrp">    -21.44646131 </i>
   <i name="e_0_energy">     -0.00000000 </i>
  </energy>
  <time name="totalsc">    8.19    8.21</time>
 </calculation>
 <calculation>
  <scstep>
   <time name="dav">    1.25    1.25</time>
   <time name="total">    1.33    1.34</time>
   <energy>
    <i name="alphaZ">      5.37612444 </i>
    <i name="ewald">   1911.16721077 </i>
    <i name="hartreedc">  -2521.74185746 </i>
    <i name="XCdc">     14.25369896 </i>
    <i name="pawpsdc">   2155.92109739 </i>
    <i name="pawaedc">  -2123.63257947 </i>
    <i name="eentropy">     -0.00000000 </i>
    <i name="bandstr">   -166.95797409 </i>
    <i name="atom">    704.16778566 </i>
    <i name="e_fr_energy">    -21.44649379 </i>
    <i name="e_wo_entrp">    -21.44649379 </i>
    <i name="e_0_energy">    -21.44649379 </i>
   </energy>
  </scstep>
  <scstep>
   <time name="dav">    1.59    1.59</time>
   <time name="total">    1.67    1.67</time>
   <energy>
    <i name="e_fr_energy">    -21.44653397 </i>
    <i name="e_wo_entrp">    -21.44653397 </i>
    <i name="e_0_energy">    -21.44653397 </i>
   </energy>
  </scstep>
  <scstep>
   <time name="dav">    1.15    1.15</time>
   <time name="total">    1.24    1.24</time>
   <energy>
    <i name="e_fr_energy">    -21.44653209 </i>
    <i name="e_wo_entrp">    -21.44653209 </i>
    <i name="e_0_energy">    -21.44653209 </i>
   </energy>
  </scstep>
  <scstep>
   <time name="dav">    1.04    1.04</time>
   <time name="total">    1.12    1.13</time>
   <energy>
    <i name="e_fr_energy">    -21.44653175 </i>
    <i name="e_wo_entrp">    -21.44653175 </i>
    <i name="e_0_energy">    -21.44653175 </i>
   </energy>
  </scstep>
  <scstep>
   <time name="dav">    1.02    1.02</time>
   <time name="total">    1.10    1.10</time>
   <energy>
    <i name="e_fr_energy">    -21.44653178 </i>
    <i name="e_wo_entrp">    -21.44653178 </i>
    <i name="e_0_energy">    -21.44653178 </i>
   </energy>
  </scstep>
  <scstep>
   <time name="dav">    0.97    0.97</time>
   <time name="total">    0.98    0.98</time>
   <energy>
    <i name="alphaZ">      5.37612444 </i>
    <i name="ewald">   1911.16721077 </i>
    <i name="hartreedc">  -2521.74174839 </i>
    <i name="XCdc">     14.25304710 </i>
    <i name="pawpsdc">   2151.18256182 </i>
    <i name="pawaedc">  -2118.89240392 </i>
    <i name="eentropy">     -0.00000000 </i>
    <i name="bandstr">   -166.95910927 </i>
    <i name="atom">    704.16778566 </i>
    <i name="e_fr_energy">    -21.44653179 </i>
    <i name="e_wo_entrp">    -21.44653179 </i>
    <i name="e_0_energy">    -21.44653179 </i>
   </energy>
  </scstep>
  <structure>
   <crystal>
    <varray name="basis" >
     <v>       3.25989900       0.00000000       0.00000000 </v>
     <v>       0.00000000       4.57104200      -0.00005300 </v>
     <v>       0.00000000       0.00000000      20.02439000 </v>
    </varray>
    <i name="volume">    298.38614358 </i>
    <varray name="rec_basis" >
     <v>       0.30675797       0.00000000       0.00000000 </v>
     <v>       0.00000000       0.21876850       0.00000000 </v>
     <v>       0.00000000       0.00000058       0.04993910 </v>
    </varray>
   </crystal>
   <varray name="positions" >
    <v>       0.50000000       0.91310917       0.55276804 </v>
    <v>       0.50000000       0.08689083       0.44723196 </v>
    <v>      -0.00000000       0.41310440       0.44723197 </v>
    <v>       0.00000000       0.58689560       0.55276803 </v>
   </varray>
  </structure>
  <varray name="forces" >
   <v>       0.00000006      -0.00045016       0.00048825 </v>
   <v>      -0.00000006       0.00045016      -0.00048825 </v>
   <v>       0.00000005      -0.00046557      -0.00048883 </v>
   <v>      -0.00000005       0.00046557       0.00048883 </v>
  </varray>
  <varray name="stress" >
   <v>       7.32968800       0.00000073       0.00000010 </v>
   <v>       0.00000072       2.50020736       0.00014580 </v>
   <v>       0.00000014       0.00014576      -0.05342609 </v>
  </varray>
  <energy>
   <i name="e_fr_energy">    -21.44653179 </i>
   <i name="e_wo_entrp">    -21.44653179 </i>
   <i name="e_0_energy">     -0.00000000 </i>
  </energy>
  <time name="totalsc">    8.14    8.15</time>
  <eigenvalues>
   <array>
    <dimension dim="1">band</dimension>
    <dimension dim="2">kpoint</dimension>
    <dimension dim="3">spin</dimension>
    <field>eigene</field>
    <field>occ</field>
    <set>
     <set comment="spin 1">
      <set comment="kpoint 1">
       <r>  -17.2638    1.0000 </r>
       <r>  -14.7854    1.0000 </r>
       <r>  -11.3103    1.0000 </r>
       <r>   -7.9410    1.0000 </r>
       <r>   -6.8742    1.0000 </r>
       <r>   -6.7991    1.0000 </r>
       <r>   -5.4023    1.0000 </r>
       <r>   -3.9736    1.0000 </r>
       <r>   -3.8120    1.0000 </r>
       <r>   -2.1959    1.0000 </r>
       <r>   -1.4033    0.0000 </r>
       <r>   -0.4032    0.0000 </r>
       <r>    0.7060    0.0000 </r>
       <r>    1.3048    0.0000 </r>
       <r>    2.1792    0.0000 </r>
       <r>    2.3291    0.0000 </r>
      </set>
      <set comment="kpoint 2">
       <r>  -17.2384    1.0000 </r>
       <r>  -14.7590    1.0000 </r>
       <r>  -11.3173    1.0000 </r>
       <r>   -7.9213    1.0000 </r>
       <r>   -6.8865    1.0000 </r>
       <r>   -6.7765    1.0000 </r>
       <r>   -5.5736    1.0000 </r>
       <r>   -3.9915    1.0000 </r>
       <r>   -3.9613    1.0000 </r>
       <r>   -2.1929    1.0000 </r>
       <r>   -1.3793    0.0000 </r>
       <r>   -0.1712    0.0000 </r>
       <r>    0.9350    0.0000 </r>
       <r>    1.1412    0.0000 </r>
       <r>    2.2057    0.0000 </r>
       <r>    2.3576    0.0000 </r>
      </set>
      <set comment="kpoint 3">
       <r>  -17.1625    1.0000 </r>
       <r>  -14.6800    1.0000 </r>
       <r>  -11.3429    1.0000 </r>
       <r>   -7.8629    1.0000 </r>
       <r>   -6.9394    1.0000 </r>
       <r>   -6.7092    1.0000 </r>
       <r>   -5.9959    1.0000 </r>
       <r>   -4.4166    1.0000 </r>
       <r>   -3.9269    1.0000 </r>
       <r>   -2.2035    1.0000 </r>
       <r>   -1.3074    0.0000 </r>
       <r>    0.4532    0.0000 </r>
       <r>    0.7314    0.0000 </r>
       <r>    1.5024    0.0000 </r>
       <r>    2.2827    0.0000 </r>
       <r>    2.4424    0.0000 </r>
      </set>
      <set comment="kpoint 4">
       <r>  -17.0362    1.0000 </r>
       <r>  -14.5484    1.0000 </r>
       <r>  -11.4019    1.0000 </r>
       <r>   -7.7676    1.0000 </r>
       <r>   -7.0858    1.0000 </r>
       <r>   -6.5982    1.0000 </r>
       <r>   -6.5084    1.0000 </r>
       <r>   -4.8764    1.0000 </r>
       <r>   -3.8791    1.0000 </r>
       <r>   -2.2498    1.0000 </r>
       <r>   -1.1885    0.0000 </r>
       <r>    0.2147    0.0000 </r>
       <r>    1.3318    0.0000 </r>
       <r>    2.1228    0.0000 </r>
       <r>    2.3868    0.0000 </r>
       <r>    2.5827    0.0000 </r>
      </set>
      <set comment="kpoint 5">
       <r>  -16.8602    1.0000 </r>
       <r>  -14.3645    1.0000 </r>
       <r>  -11.5176    1.0000 </r>
       <r>   -7.6391    1.0000 </r>
       <r>   -7.4018    1.0000 </r>
       <r>   -6.9906    1.0000 </r>
       <r>   -6.4454    1.0000 </r>
       <r>   -5.1964    1.0000 </r>
       <r>   -3.8350    1.0000 </r>
       <r>   -2.3431    1.0000 </r>
       <r>   -1.0243    0.0000 </r>
       <r>   -0.3033    0.0000 </r>
       <r>    2.1604    0.0000 </r>
       <r>    2.2130    0.0000 </r>
       <r>    2.3331    0.0000 </r>
       <r>    2.7309    0.0000 </r>
      </set>
      <set comment="kpoint 6">
       <r>  -16.6352    1.0000 </r>
       <r>  -14.1287    1.0000 </r>
       <r>  -11.7166    1.0000 </r>
       <r>   -7.9032    1.0000 </r>
       <r>   -7.4837    1.0000 </r>
       <r>   -7.3663    1.0000 </r>
       <r>   -6.2541    1.0000 </r>
       <r>   -5.3148    1.0000 </r>
       <r>   -3.8229    1.0000 </r>
       <r>   -2.4925    1.0000 </r>
       <r>   -0.8186    0.0000 </r>
       <r>   -0.7425    0.0000 </r>
       <r>    1.5837    0.0000 </r>
       <r>    1.6604    0.0000 </r>
       <r>    2.8150    0.0000 </r>
       <r>    2.9384    0.0000 </r>
      </set>
      <set comment="kpoint 7">
       <r>  -16.3623    1.0000 </r>
       <r>  -13.8415    1.0000 </r>
       <r>  -12.0152    1.0000 </r>
       <r>   -8.5198    1.0000 </r>
       <r>   -7.5951    1.0000 </r>
       <r>   -7.3122    1.0000 </r>
       <r>   -6.0294    1.0000 </r>
       <r>   -5.2836    1.0000 </r>
       <r>   -3.8766    1.0000 </r>
       <r>   -2.7033    1.0000 </r>
       <r>   -1.0345    0.0000 </r>
       <r>   -0.5816    0.0000 </r>
       <r>    0.9258    0.0000 </r>
       <r>    1.0942    0.0000 </r>
       <r>    2.3533    0.0000 </r>
       <r>    3.2405    0.0000 </r>
      </set>
      <set comment="kpoint 8">
       <r>  -16.0430    1.0000 </r>
       <r>  -13.5035    1.0000 </r>
       <r>  -12.4068    1.0000 </r>
       <r>   -9.1795    1.0000 </r>
       <r>   -7.6731    1.0000 </r>
       <r>   -7.1425    1.0000 </r>
       <r>   -5.7795    1.0000 </r>
       <r>   -5.1734    1.0000 </r>
       <r>   -4.0076    1.0000 </r>
       <r>   -2.9714    1.0000 </r>
       <r>   -1.1365    0.0000 </r>
       <r>   -0.3536    0.0000 </r>
       <r>    0.3073    0.0000 </r>
       <r>    0.6106    0.0000 </r>
       <r>    1.8443    0.0000 </r>
       <r>    3.2535    0.0000 </r>
      </set>
      <set comment="kpoint 9">
       <r>  -15.6796    1.0000 </r>
       <r>  -13.1155    1.0000 </r>
       <r>  -12.8656    1.0000 </r>
       <r>   -9.8409    1.0000 </r>
       <r>   -7.6242    1.0000 </r>
       <r>   -7.0043    1.0000 </r>
       <r>   -5.5174    1.0000 </r>
       <r>   -5.0367    1.0000 </r>
       <r>   -4.1739    1.0000 </r>
       <r>   -3.2810    1.0000 </r>
       <r>   -1.0548    0.0000 </r>
       <r>   -0.3289    0.0000 </r>
       <r>   -0.2281    0.0000 </r>
       <r>    0.4302    0.0000 </r>
       <r>    1.3385    0.0000 </r>
       <r>    2.8608    0.0000 </r>
      </set>
      <set comment="kpoint 10">
       <r>  -15.2749    1.0000 </r>
       <r>  -13.3604    1.0000 </r>
       <r>  -12.6786    1.0000 </r>
       <r>  -10.4825    1.0000 </r>
       <r>   -7.4855    1.0000 </r>
       <r>   -6.9377    1.0000 </r>
       <r>   -5.2635    1.0000 </r>
       <r>   -4.9190    1.0000 </r>
       <r>   -4.2931    1.0000 </r>
       <r>   -3.6055    1.0000 </r>
       <r>   -0.8291    0.0000 </r>
       <r>   -0.6430    0.0000 </r>
       <r>   -0.5960    0.0000 </r>
       <r>    0.6679    0.0000 </r>
       <r>    0.8382    0.0000 </r>
       <r>    2.4125    0.0000 </r>
      </set>
      <set comment="kpoint 11">
       <r>  -14.8331    1.0000 </r>
       <r>  -13.8649    1.0000 </r>
       <r>  -12.1944    1.0000 </r>
       <r>  -11.0928    1.0000 </r>
       <r>   -7.2986    1.0000 </r>
       <r>   -6.9754    1.0000 </r>
       <r>   -5.0477    1.0000 </r>
       <r>   -4.8643    1.0000 </r>
       <r>   -4.2933    1.0000 </r>
       <r>   -3.9109    1.0000 </r>
       <r>   -0.8985    0.0000 </r>
       <r>   -0.8504    0.0000 </r>
       <r>   -0.5004    0.0000 </r>
       <r>    0.3537    0.0000 </r>
       <r>    1.0500    0.0000 </r>
       <r>    1.9454    0.0000 </r>
      </set>
      <set comment="kpoint 12">
       <r>  -14.3602    1.0000 </r>
       <r>  -14.3602    1.0000 </r>
       <r>  -11.6649    1.0000 </r>
       <r>  -11.6649    1.0000 </r>
       <r>   -7.1107    1.0000 </r>
       <r>   -7.1107    1.0000 </r>
       <r>   -4.9059    1.0000 </r>
       <r>   -4.9059    1.0000 </r>
       <r>   -4.1556    1.0000 </r>
       <r>   -4.1556    1.0000 </r>
       <r>   -0.9664    0.0000 </r>
       <r>   -0.9664    0.0000 </r>
       <r>   -0.0987    0.0000 </r>
       <r>   -0.0987    0.0000 </r>
       <r>    1.4847    0.0000 </r>
       <r>    1.4847    0.0000 </r>
      </set>
      <set comment="kpoint 13">
       <r>  -17.2417    1.0000 </r>
       <r>  -14.8133    1.0000 </r>
       <r>  -11.3284    1.0000 </r>
       <r>   -8.0859    1.0000 </r>
       <r>   -6.8009    1.0000 </r>
       <r>   -6.6968    1.0000 </r>
       <r>   -5.3854    1.0000 </r>
       <r>   -3.8637    1.0000 </r>
       <r>   -3.8265    1.0000 </r>
       <r>   -2.4166    1.0000 </r>
       <r>   -1.2001    0.0000 </r>
       <r>   -0.3868    0.0000 </r>
       <r>    0.6619    0.0000 </r>
       <r>    1.2857    0.0000 </r>
       <r>    2.2416    0.0000 </r>
       <r>    2.3604    0.0000 </r>
      </set>
      <set comment="kpoint 14">
       <r>  -17.2163    1.0000 </r>
       <r>  -14.7870    1.0000 </r>
       <r>  -11.3340    1.0000 </r>
       <r>   -8.0690    1.0000 </r>
       <r>   -6.8082    1.0000 </r>
       <r>   -6.6815    1.0000 </r>
       <r>   -5.5501    1.0000 </r>
       <r>   -4.0203    1.0000 </r>
       <r>   -3.8428    1.0000 </r>
       <r>   -2.4098    1.0000 </r>
       <r>   -1.1803    0.0000 </r>
       <r>   -0.1550    0.0000 </r>
       <r>    0.8809    0.0000 </r>
       <r>    1.1354    0.0000 </r>
       <r>    2.2669    0.0000 </r>
       <r>    2.3888    0.0000 </r>
      </set>
      <set comment="kpoint 15">
       <r>  -17.1404    1.0000 </r>
       <r>  -14.7084    1.0000 </r>
       <r>  -11.3555    1.0000 </r>
       <r>   -8.0208    1.0000 </r>
       <r>   -6.8439    1.0000 </r>
       <r>   -6.6495    1.0000 </r>
       <r>   -5.9400    1.0000 </r>
       <r>   -4.4527    1.0000 </r>
       <r>   -3.8176    1.0000 </r>
       <r>   -2.4045    1.0000 </r>
       <r>   -1.1244    0.0000 </r>
       <r>    0.4689    0.0000 </r>
       <r>    0.7067    0.0000 </r>
       <r>    1.4797    0.0000 </r>
       <r>    2.3402    0.0000 </r>
       <r>    2.4733    0.0000 </r>
      </set>
      <set comment="kpoint 16">
       <r>  -17.0143    1.0000 </r>
       <r>  -14.5777    1.0000 </r>
       <r>  -11.4072    1.0000 </r>
       <r>   -7.9525    1.0000 </r>
       <r>   -6.9526    1.0000 </r>
       <r>   -6.7278    1.0000 </r>
       <r>   -6.2700    1.0000 </r>
       <r>   -4.9235    1.0000 </r>
       <r>   -3.7850    1.0000 </r>
       <r>   -2.4225    1.0000 </r>
       <r>   -1.0325    0.0000 </r>
       <r>    0.2083    0.0000 </r>
       <r>    1.3436    0.0000 </r>
       <r>    2.1184    0.0000 </r>
       <r>    2.4327    0.0000 </r>
       <r>    2.6131    0.0000 </r>
      </set>
      <set comment="kpoint 17">
       <r>  -16.8384    1.0000 </r>
       <r>  -14.3952    1.0000 </r>
       <r>  -11.5130    1.0000 </r>
       <r>   -7.9100    1.0000 </r>
       <r>   -7.1744    1.0000 </r>
       <r>   -7.0910    1.0000 </r>
       <r>   -6.2470    1.0000 </r>
       <r>   -5.2510    1.0000 </r>
       <r>   -3.7652    1.0000 </r>
       <r>   -2.4804    1.0000 </r>
       <r>   -0.9009    0.0000 </r>
       <r>   -0.2839    0.0000 </r>
       <r>    2.0267    0.0000 </r>
       <r>    2.2338    0.0000 </r>
       <r>    2.4111    0.0000 </r>
       <r>    2.6824    0.0000 </r>
      </set>
      <set comment="kpoint 18">
       <r>  -16.6136    1.0000 </r>
       <r>  -14.1618    1.0000 </r>
       <r>  -11.7000    1.0000 </r>
       <r>   -8.0859    1.0000 </r>
       <r>   -7.4462    1.0000 </r>
       <r>   -7.3439    1.0000 </r>
       <r>   -6.0903    1.0000 </r>
       <r>   -5.3691    1.0000 </r>
       <r>   -3.7870    1.0000 </r>
       <r>   -2.5935    1.0000 </r>
       <r>   -0.7280    0.0000 </r>
       <r>   -0.6866    0.0000 </r>
       <r>    1.4685    0.0000 </r>
       <r>    1.6912    0.0000 </r>
       <r>    2.7652    0.0000 </r>
       <r>    3.0542    0.0000 </r>
      </set>
      <set comment="kpoint 19">
       <r>  -16.3410    1.0000 </r>
       <r>  -13.8792    1.0000 </r>
       <r>  -11.9854    1.0000 </r>
       <r>   -8.5924    1.0000 </r>
       <r>   -7.6698    1.0000 </r>
       <r>   -7.2831    1.0000 </r>
       <r>   -5.8876    1.0000 </r>
       <r>   -5.3385    1.0000 </r>
       <r>   -3.8768    1.0000 </r>
       <r>   -2.7709    1.0000 </r>
       <r>   -0.9359    0.0000 </r>
       <r>   -0.5203    0.0000 </r>
       <r>    0.8998    0.0000 </r>
       <r>    1.0400    0.0000 </r>
       <r>    2.5082    0.0000 </r>
       <r>    3.3182    0.0000 </r>
      </set>
      <set comment="kpoint 20">
       <r>  -16.0223    1.0000 </r>
       <r>  -13.5525    1.0000 </r>
       <r>  -12.3596    1.0000 </r>
       <r>   -9.2203    1.0000 </r>
       <r>   -7.7441    1.0000 </r>
       <r>   -7.1428    1.0000 </r>
       <r>   -5.6614    1.0000 </r>
       <r>   -5.2407    1.0000 </r>
       <r>   -4.0263    1.0000 </r>
       <r>   -3.0090    1.0000 </r>
       <r>   -1.0032    0.0000 </r>
       <r>   -0.3218    0.0000 </r>
       <r>    0.4202    0.0000 </r>
       <r>    0.4248    0.0000 </r>
       <r>    2.0640    0.0000 </r>
       <r>    3.1946    0.0000 </r>
      </set>
      <set comment="kpoint 21">
       <r>  -15.6595    1.0000 </r>
       <r>  -13.2240    1.0000 </r>
       <r>  -12.7555    1.0000 </r>
       <r>   -9.8689    1.0000 </r>
       <r>   -7.6895    1.0000 </r>
       <r>   -7.0115    1.0000 </r>
       <r>   -5.4324    1.0000 </r>
       <r>   -5.1417    1.0000 </r>
       <r>   -4.1683    1.0000 </r>
       <r>   -3.2885    1.0000 </r>
       <r>   -0.9119    0.0000 </r>
       <r>   -0.3769    0.0000 </r>
       <r>   -0.1151    0.0000 </r>
       <r>    0.3060    0.0000 </r>
       <r>    1.5963    0.0000 </r>
       <r>    2.8130    0.0000 </r>
      </set>
      <set comment="kpoint 22">
       <r>  -15.2560    1.0000 </r>
       <r>  -13.3846    1.0000 </r>
       <r>  -12.6514    1.0000 </r>
       <r>  -10.5037    1.0000 </r>
       <r>   -7.5422    1.0000 </r>
       <r>   -6.9470    1.0000 </r>
       <r>   -5.2300    1.0000 </r>
       <r>   -5.0855    1.0000 </r>
       <r>   -4.2166    1.0000 </r>
       <r>   -3.5764    1.0000 </r>
       <r>   -0.7827    0.0000 </r>
       <r>   -0.6829    0.0000 </r>
       <r>   -0.4483    0.0000 </r>
       <r>    0.5347    0.0000 </r>
       <r>    1.1588    0.0000 </r>
       <r>    2.3735    0.0000 </r>
      </set>
      <set comment="kpoint 23">
       <r>  -14.8161    1.0000 </r>
       <r>  -13.8598    1.0000 </r>
       <r>  -12.1964    1.0000 </r>
       <r>  -11.1090    1.0000 </r>
       <r>   -7.3433    1.0000 </r>
       <r>   -6.9918    1.0000 </r>
       <r>   -5.0923    1.0000 </r>
       <r>   -5.0577    1.0000 </r>
       <r>   -4.1566    1.0000 </r>
       <r>   -3.8328    1.0000 </r>
       <r>   -0.9298    0.0000 </r>
       <r>   -0.9276    0.0000 </r>
       <r>   -0.2627    0.0000 </r>
       <r>    0.4994    0.0000 </r>
       <r>    1.1011    0.0000 </r>
       <r>    1.9172    0.0000 </r>
      </set>
      <set comment="kpoint 24">
       <r>  -14.3469    1.0000 </r>
       <r>  -14.3468    1.0000 </r>
       <r>  -11.6758    1.0000 </r>
       <r>  -11.6758    1.0000 </r>
       <r>   -7.1408    1.0000 </r>
       <r>   -7.1408    1.0000 </r>
       <r>   -5.0443    1.0000 </r>
       <r>   -5.0443    1.0000 </r>
       <r>   -4.0267    1.0000 </r>
       <r>   -4.0267    1.0000 </r>
       <r>   -1.0182    0.0000 </r>
       <r>   -1.0181    0.0000 </r>
       <r>    0.1096    0.0000 </r>
       <r>    0.1096    0.0000 </r>
       <r>    1.4749    0.0000 </r>
       <r>    1.4749    0.0000 </r>
      </set>
      <set comment="kpoint 25">
       <r>  -14.8161    1.0000 </r>
       <r>  -13.8598    1.0000 </r>
       <r>  -12.1964    1.0000 </r>
       <r>  -11.1090    1.0000 </r>
       <r>   -7.3433    1.0000 </r>
       <r>   -6.9918    1.0000 </r>
       <r>   -5.0923    1.0000 </r>
       <r>   -5.0577    1.0000 </r>
       <r>   -4.1566    1.0000 </r>
       <r>   -3.8328    1.0000 </r>
       <r>   -0.9298    0.0000 </r>
       <r>   -0.9276    0.0000 </r>
       <r>   -0.2627    0.0000 </r>
       <r>    0.4994    0.0000 </r>
       <r>    1.1011    0.0000 </r>
       <r>    1.9172    0.0000 </r>
      </set>
      <set comment="kpoint 26">
       <r>  -15.2560    1.0000 </r>
       <r>  -13.3846    1.0000 </r>
       <r>  -12.6514    1.0000 </r>
       <r>  -10.5037    1.0000 </r>
       <r>   -7.5422    1.0000 </r>
       <r>   -6.9470    1.0000 </r>
       <r>   -5.2300    1.0000 </r>
       <r>   -5.0855    1.0000 </r>
       <r>   -4.2166    1.0000 </r>
       <r>   -3.5764    1.0000 </r>
       <r>   -0.7827    0.0000 </r>
       <r>   -0.6829    0.0000 </r>
       <r>   -0.4483    0.0000 </r>
       <r>    0.5347    0.0000 </r>
       <r>    1.1588    0.0000 </r>
       <r>    2.3735    0.0000 </r>
      </set>
      <set comment="kpoint 27">
       <r>  -15.6595    1.0000 </r>
       <r>  -13.2240    1.0000 </r>
       <r>  -12.7555    1.0000 </r>
       <r>   -9.8689    1.0000 </r>
       <r>   -7.6895    1.0000 </r>
       <r>   -7.0115    1.0000 </r>
       <r>   -5.4324    1.0000 </r>
       <r>   -5.1417    1.0000 </r>
       <r>   -4.1683    1.0000 </r>
       <r>   -3.2885    1.0000 </r>
       <r>   -0.9119    0.0000 </r>
       <r>   -0.3769    0.0000 </r>
       <r>   -0.1151    0.0000 </r>
       <r>    0.3060    0.0000 </r>
       <r>    1.5963    0.0000 </r>
       <r>    2.8130    0.0000 </r>
      </set>
      <set comment="kpoint 28">
       <r>  -16.0223    1.0000 </r>
       <r>  -13.5525    1.0000 </r>
       <r>  -12.3596    1.0000 </r>
       <r>   -9.2203    1.0000 </r>
       <r>   -7.7441    1.0000 </r>
       <r>   -7.1428    1.0000 </r>
       <r>   -5.6614    1.0000 </r>
       <r>   -5.2407    1.0000 </r>
       <r>   -4.0263    1.0000 </r>
       <r>   -3.0090    1.0000 </r>
       <r>   -1.0032    0.0000 </r>
       <r>   -0.3218    0.0000 </r>
       <r>    0.4202    0.0000 </r>
       <r>    0.4248    0.0000 </r>
       <r>    2.0640    0.0000 </r>
       <r>    3.1946    0.0000 </r>
      </set>
      <set comment="kpoint 29">
       <r>  -16.3410    1.0000 </r>
       <r>  -13.8792    1.0000 </r>
       <r>  -11.9854    1.0000 </r>
       <r>   -8.5924    1.0000 </r>
       <r>   -7.6698    1.0000 </r>
       <r>   -7.2831    1.0000 </r>
       <r>   -5.8876    1.0000 </r>
       <r>   -5.3385    1.0000 </r>
       <r>   -3.8768    1.0000 </r>
       <r>   -2.7709    1.0000 </r>
       <r>   -0.9359    0.0000 </r>
       <r>   -0.5203    0.0000 </r>
       <r>    0.8998    0.0000 </r>
       <r>    1.0400    0.0000 </r>
       <r>    2.5082    0.0000 </r>
       <r>    3.3181    0.0000 </r>
      </set>
      <set comment="kpoint 30">
       <r>  -16.6136    1.0000 </r>
       <r>  -14.1618    1.0000 </r>
       <r>  -11.7000    1.0000 </r>
       <r>   -8.0859    1.0000 </r>
       <r>   -7.4462    1.0000 </r>
       <r>   -7.3439    1.0000 </r>
       <r>   -6.0903    1.0000 </r>
       <r>   -5.3691    1.0000 </r>
       <r>   -3.7870    1.0000 </r>
       <r>   -2.5935    1.0000 </r>
       <r>   -0.7280    0.0000 </r>
       <r>   -0.6866    0.0000 </r>
       <r>    1.4685    0.0000 </r>
       <r>    1.6912    0.0000 </r>
       <r>    2.7652    0.0000 </r>
       <r>    3.0542    0.0000 </r>
      </set>
      <set comment="kpoint 31">
       <r>  -16.8384    1.0000 </r>
       <r>  -14.3952    1.0000 </r>
       <r>  -11.5130    1.0000 </r>
       <r>   -7.9100    1.0000 </r>
       <r>   -7.1744    1.0000 </r>
       <r>   -7.0910    1.0000 </r>
       <r>   -6.2470    1.0000 </r>
       <r>   -5.2510    1.0000 </r>
       <r>   -3.7652    1.0000 </r>
       <r>   -2.4804    1.0000 </r>
       <r>   -0.9009    0.0000 </r>
       <r>   -0.2839    0.0000 </r>
       <r>    2.0267    0.0000 </r>
       <r>    2.2338    0.0000 </r>
       <r>    2.4111    0.0000 </r>
       <r>    2.6824    0.0000 </r>
      </set>
      <set comment="kpoint 32">
       <r>  -17.0143    1.0000 </r>
       <r>  -14.5777    1.0000 </r>
       <r>  -11.4072    1.0000 </r>
       <r>   -7.9525    1.0000 </r>
       <r>   -6.9526    1.0000 </r>
       <r>   -6.7278    1.0000 </r>
       <r>   -6.2700    1.0000 </r>
       <r>   -4.9235    1.0000 </r>
       <r>   -3.7850    1.0000 </r>
       <r>   -2.4225    1.0000 </r>
       <r>   -1.0325    0.0000 </r>
       <r>    0.2083    0.0000 </r>
       <r>    1.3436    0.0000 </r>
       <r>    2.1184    0.0000 </r>
       <r>    2.4327    0.0000 </r>
       <r>    2.6131    0.0000 </r>
      </set>
      <set comment="kpoint 33">
       <r>  -17.1404    1.0000 </r>
       <r>  -14.7084    1.0000 </r>
       <r>  -11.3555    1.0000 </r>
       <r>   -8.0208    1.0000 </r>
       <r>   -6.8439    1.0000 </r>
       <r>   -6.6495    1.0000 </r>
       <r>   -5.9400    1.0000 </r>
       <r>   -4.4527    1.0000 </r>
       <r>   -3.8176    1.0000 </r>
       <r>   -2.4045    1.0000 </r>
       <r>   -1.1244    0.0000 </r>
       <r>    0.4689    0.0000 </r>
       <r>    0.7067    0.0000 </r>
       <r>    1.4797    0.0000 </r>
       <r>    2.3402    0.0000 </r>
       <r>    2.4733    0.0000 </r>
      </set>
      <set comment="kpoint 34">
       <r>  -17.2163    1.0000 </r>
       <r>  -14.7870    1.0000 </r>
       <r>  -11.3340    1.0000 </r>
       <r>   -8.0690    1.0000 </r>
       <r>   -6.8082    1.0000 </r>
       <r>   -6.6815    1.0000 </r>
       <r>   -5.5501    1.0000 </r>
       <r>   -4.0203    1.0000 </r>
       <r>   -3.8428    1.0000 </r>
       <r>   -2.4098    1.0000 </r>
       <r>   -1.1803    0.0000 </r>
       <r>   -0.1550    0.0000 </r>
       <r>    0.8809    0.0000 </r>
       <r>    1.1354    0.0000 </r>
       <r>    2.2669    0.0000 </r>
       <r>    2.3888    0.0000 </r>
      </set>
      <set comment="kpoint 35">
       <r>  -17.1756    1.0000 </r>
       <r>  -14.8978    1.0000 </r>
[...]
       <r>    3.4316    0.0000 </r>
       <r>    3.4926    0.0000 </r>
      </set>
      <set comment="kpoint 161">
       <r>  -15.4025    1.0000 </r>
       <r>  -15.1468    1.0000 </r>
       <r>  -10.7790    1.0000 </r>
       <r>  -10.4510    1.0000 </r>
       <r>   -7.8469    1.0000 </r>
       <r>   -7.6816    1.0000 </r>
       <r>   -5.1611    1.0000 </r>
       <r>   -4.9118    1.0000 </r>
       <r>   -3.7688    1.0000 </r>
       <r>   -3.7003    1.0000 </r>
       <r>    0.4137    0.0000 </r>
       <r>    0.8123    0.0000 </r>
       <r>    1.2394    0.0000 </r>
       <r>    1.5659    0.0000 </r>
       <r>    3.4504    0.0000 </r>
       <r>    3.4597    0.0000 </r>
      </set>
      <set comment="kpoint 162">
       <r>  -15.6596    1.0000 </r>
       <r>  -15.4001    1.0000 </r>
       <r>  -10.6894    1.0000 </r>
       <r>  -10.3602    1.0000 </r>
       <r>   -7.4464    1.0000 </r>
       <r>   -7.2724    1.0000 </r>
       <r>   -5.1118    1.0000 </r>
       <r>   -4.8101    1.0000 </r>
       <r>   -3.6223    1.0000 </r>
       <r>   -3.5708    1.0000 </r>
       <r>    0.4469    0.0000 </r>
       <r>    0.7511    0.0000 </r>
       <r>    1.2952    0.0000 </r>
       <r>    1.6556    0.0000 </r>
       <r>    3.1949    0.0000 </r>
       <r>    3.4331    0.0000 </r>
      </set>
      <set comment="kpoint 163">
       <r>  -15.8745    1.0000 </r>
       <r>  -15.6128    1.0000 </r>
       <r>  -10.6921    1.0000 </r>
       <r>  -10.3681    1.0000 </r>
       <r>   -6.8813    1.0000 </r>
       <r>   -6.6942    1.0000 </r>
       <r>   -5.1639    1.0000 </r>
       <r>   -4.8318    1.0000 </r>
       <r>   -3.4960    1.0000 </r>
       <r>   -3.3229    1.0000 </r>
       <r>    0.5775    0.0000 </r>
       <r>    0.7630    0.0000 </r>
       <r>    1.2642    0.0000 </r>
       <r>    1.6453    0.0000 </r>
       <r>    2.6130    0.0000 </r>
       <r>    2.8568    0.0000 </r>
      </set>
      <set comment="kpoint 164">
       <r>  -16.0439    1.0000 </r>
       <r>  -15.7810    1.0000 </r>
       <r>  -10.7354    1.0000 </r>
       <r>  -10.4171    1.0000 </r>
       <r>   -6.2248    1.0000 </r>
       <r>   -6.0266    1.0000 </r>
       <r>   -5.2428    1.0000 </r>
       <r>   -4.8972    1.0000 </r>
       <r>   -3.4140    1.0000 </r>
       <r>   -3.1271    1.0000 </r>
       <r>    0.7527    0.0000 </r>
       <r>    0.8156    0.0000 </r>
       <r>    1.1684    0.0000 </r>
       <r>    1.5185    0.0000 </r>
       <r>    1.9827    0.0000 </r>
       <r>    2.1146    0.0000 </r>
      </set>
      <set comment="kpoint 165">
       <r>  -16.1660    1.0000 </r>
       <r>  -15.9024    1.0000 </r>
       <r>  -10.7842    1.0000 </r>
       <r>  -10.4701    1.0000 </r>
       <r>   -5.5502    1.0000 </r>
       <r>   -5.3704    1.0000 </r>
       <r>   -5.2900    1.0000 </r>
       <r>   -4.9615    1.0000 </r>
       <r>   -3.4262    1.0000 </r>
       <r>   -3.0398    1.0000 </r>
       <r>    0.6394    0.0000 </r>
       <r>    0.6551    0.0000 </r>
       <r>    1.1693    0.0000 </r>
       <r>    1.3230    0.0000 </r>
       <r>    1.6806    0.0000 </r>
       <r>    1.7077    0.0000 </r>
      </set>
      <set comment="kpoint 166">
       <r>  -16.2397    1.0000 </r>
       <r>  -15.9757    1.0000 </r>
       <r>  -10.8195    1.0000 </r>
       <r>  -10.5078    1.0000 </r>
       <r>   -5.3652    1.0000 </r>
       <r>   -5.0066    1.0000 </r>
       <r>   -4.9579    1.0000 </r>
       <r>   -4.7624    1.0000 </r>
       <r>   -3.5415    1.0000 </r>
       <r>   -3.0726    1.0000 </r>
       <r>    0.2418    0.0000 </r>
       <r>    0.2558    0.0000 </r>
       <r>    1.2355    0.0000 </r>
       <r>    1.3912    0.0000 </r>
       <r>    1.6154    0.0000 </r>
       <r>    1.6473    0.0000 </r>
      </set>
     </set>
    </set>
   </array>
  </eigenvalues>
  <separator name="orbital magnetization" >
   <v name="MAGDIPOLOUT">      0.00000000      0.00000000      0.00000000</v>
  </separator>
  <dos>
   <i name="efermi">     -2.10361750 </i>
   <total>
    <array>
     <dimension dim="1">gridpoints</dimension>
     <dimension dim="2">spin</dimension>
     <field>energy</field>
     <field>total</field>
     <field>integrated</field>
     <set>
      <set comment="spin 1">
       <r>   -18.3099     0.0000     0.0000 </r>
       <r>   -18.2332     0.0000     0.0000 </r>
       <r>   -18.1565     0.0000     0.0000 </r>
       <r>   -18.0798     0.0000     0.0000 </r>
       <r>   -18.0031     0.0000     0.0000 </r>
       <r>   -17.9263     0.0000     0.0000 </r>
       <r>   -17.8496     0.0000     0.0000 </r>
       <r>   -17.7729     0.0000     0.0000 </r>
       <r>   -17.6962     0.0000     0.0000 </r>
       <r>   -17.6195     0.0000     0.0000 </r>
       <r>   -17.5428     0.0000     0.0000 </r>
       <r>   -17.4660     0.0000     0.0000 </r>
       <r>   -17.3893     0.0000     0.0000 </r>
       <r>   -17.3126     0.0000     0.0000 </r>
       <r>   -17.2359     0.2977     0.0228 </r>
       <r>   -17.1592     0.7588     0.0811 </r>
       <r>   -17.0825     0.7159     0.1360 </r>
       <r>   -17.0057     1.0608     0.2174 </r>
       <r>   -16.9290     0.7287     0.2733 </r>
       <r>   -16.8523     0.6981     0.3268 </r>
       <r>   -16.7756     1.0125     0.4045 </r>
       <r>   -16.6989     0.6566     0.4549 </r>
       <r>   -16.6222     1.0746     0.5373 </r>
       <r>   -16.5454     0.5461     0.5792 </r>
       <r>   -16.4687     1.1933     0.6707 </r>
       <r>   -16.3920     0.6348     0.7194 </r>
       <r>   -16.3153     0.8189     0.7823 </r>
       <r>   -16.2386     1.2614     0.8790 </r>
       <r>   -16.1619     0.5992     0.9250 </r>
       <r>   -16.0851     0.8119     0.9873 </r>
       <r>   -16.0084     1.0864     1.0706 </r>
       <r>   -15.9317     0.8207     1.1336 </r>
       <r>   -15.8550     1.2262     1.2277 </r>
       <r>   -15.7783     0.5325     1.2685 </r>
       <r>   -15.7016     0.7745     1.3279 </r>
       <r>   -15.6249     1.5020     1.4432 </r>
       <r>   -15.5481     0.8255     1.5065 </r>
       <r>   -15.4714     0.8960     1.5752 </r>
       <r>   -15.3947     0.8547     1.6408 </r>
       <r>   -15.3180     1.4103     1.7490 </r>
       <r>   -15.2413     0.7335     1.8053 </r>
       <r>   -15.1646     1.2331     1.8999 </r>
       <r>   -15.0878     1.5931     2.0221 </r>
       <r>   -15.0111     0.8721     2.0890 </r>
       <r>   -14.9344     1.0061     2.1662 </r>
       <r>   -14.8577     1.3276     2.2680 </r>
       <r>   -14.7810     2.5801     2.4659 </r>
       <r>   -14.7043     0.9506     2.5389 </r>
       <r>   -14.6275     1.6617     2.6663 </r>
       <r>   -14.5508     1.6544     2.7933 </r>
       <r>   -14.4741     0.5565     2.8360 </r>
       <r>   -14.3974     1.0839     2.9191 </r>
       <r>   -14.3207     1.6144     3.0430 </r>
       <r>   -14.2440     1.5073     3.1586 </r>
       <r>   -14.1672     0.7580     3.2168 </r>
       <r>   -14.0905     1.3342     3.3191 </r>
       <r>   -14.0138     1.4175     3.4279 </r>
       <r>   -13.9371     0.7678     3.4868 </r>
       <r>   -13.8604     1.5250     3.6038 </r>
       <r>   -13.7837     1.8469     3.7454 </r>
       <r>   -13.7069     0.1178     3.7545 </r>
       <r>   -13.6302     0.5572     3.7972 </r>
       <r>   -13.5535     0.6399     3.8463 </r>
       <r>   -13.4768     0.4344     3.8796 </r>
       <r>   -13.4001     0.5811     3.9242 </r>
       <r>   -13.3234     0.5131     3.9636 </r>
       <r>   -13.2466     0.0180     3.9650 </r>
       <r>   -13.1699     0.2987     3.9879 </r>
       <r>   -13.0932     0.1489     3.9993 </r>
       <r>   -13.0165     0.0091     4.0000 </r>
       <r>   -12.9398     0.0000     4.0000 </r>
       <r>   -12.8631     0.0901     4.0069 </r>
       <r>   -12.7864     0.0725     4.0125 </r>
       <r>   -12.7096     0.3135     4.0365 </r>
       <r>   -12.6329     0.4417     4.0704 </r>
       <r>   -12.5562     0.5541     4.1129 </r>
       <r>   -12.4795     0.1235     4.1224 </r>
       <r>   -12.4028     0.3978     4.1529 </r>
       <r>   -12.3261     0.6986     4.2065 </r>
       <r>   -12.2493     0.3483     4.2332 </r>
       <r>   -12.1726     1.6676     4.3611 </r>
       <r>   -12.0959     1.0013     4.4380 </r>
       <r>   -12.0192     0.8773     4.5053 </r>
       <r>   -11.9425     1.1558     4.5939 </r>
       <r>   -11.8658     1.1716     4.6838 </r>
       <r>   -11.7890     1.0522     4.7645 </r>
       <r>   -11.7123     0.9290     4.8358 </r>
       <r>   -11.6356     1.8349     4.9766 </r>
       <r>   -11.5589     1.0452     5.0568 </r>
       <r>   -11.4822     1.3060     5.1569 </r>
       <r>   -11.4055     1.5063     5.2725 </r>
       <r>   -11.3287     4.7909     5.6400 </r>
       <r>   -11.2520     1.5960     5.7625 </r>
       <r>   -11.1753     1.9734     5.9139 </r>
       <r>   -11.0986     0.7532     5.9717 </r>
       <r>   -11.0219     1.6357     6.0971 </r>
       <r>   -10.9452     1.4703     6.2099 </r>
       <r>   -10.8684     0.0299     6.2122 </r>
       <r>   -10.7917     0.9617     6.2860 </r>
       <r>   -10.7150     1.1047     6.3708 </r>
       <r>   -10.6383     1.2489     6.4666 </r>
       <r>   -10.5616     0.2151     6.4831 </r>
       <r>   -10.4849     1.2728     6.5807 </r>
       <r>   -10.4081     0.9598     6.6543 </r>
       <r>   -10.3314     1.0207     6.7326 </r>
       <r>   -10.2547     0.3161     6.7569 </r>
       <r>   -10.1780     0.0199     6.7584 </r>
       <r>   -10.1013     0.8958     6.8271 </r>
       <r>   -10.0246     1.1547     6.9157 </r>
       <r>    -9.9479     0.8274     6.9792 </r>
       <r>    -9.8711     0.2538     6.9987 </r>
       <r>    -9.7944     0.3626     7.0265 </r>
       <r>    -9.7177     1.0377     7.1061 </r>
       <r>    -9.6410     0.5273     7.1466 </r>
       <r>    -9.5643     0.7747     7.2060 </r>
       <r>    -9.4876     0.3165     7.2303 </r>
       <r>    -9.4108     0.0367     7.2331 </r>
       <r>    -9.3341     0.4919     7.2708 </r>
       <r>    -9.2574     0.7296     7.3268 </r>
       <r>    -9.1807     1.2438     7.4222 </r>
       <r>    -9.1040     0.3438     7.4486 </r>
       <r>    -9.0273     0.3139     7.4727 </r>
       <r>    -8.9505     0.0009     7.4727 </r>
       <r>    -8.8738     0.0243     7.4746 </r>
       <r>    -8.7971     0.9925     7.5507 </r>
       <r>    -8.7204     0.9928     7.6269 </r>
       <r>    -8.6437     0.0445     7.6303 </r>
       <r>    -8.5670     0.3047     7.6537 </r>
       <r>    -8.4902     0.1663     7.6664 </r>
       <r>    -8.4135     0.5448     7.7082 </r>
       <r>    -8.3368     0.6536     7.7584 </r>
       <r>    -8.2601     0.5424     7.8000 </r>
       <r>    -8.1834     0.1838     7.8141 </r>
       <r>    -8.1067     1.4310     7.9239 </r>
       <r>    -8.0299     1.9959     8.0770 </r>
       <r>    -7.9532     2.1805     8.2443 </r>
       <r>    -7.8765     2.0823     8.4040 </r>
       <r>    -7.7998     2.0913     8.5645 </r>
       <r>    -7.7231     0.8701     8.6312 </r>
       <r>    -7.6464     3.1035     8.8693 </r>
       <r>    -7.5696     2.2390     9.0411 </r>
       <r>    -7.4929     1.0210     9.1194 </r>
       <r>    -7.4162     1.7299     9.2521 </r>
       <r>    -7.3395     1.9384     9.4008 </r>
       <r>    -7.2628     3.0718     9.6365 </r>
       <r>    -7.1861     2.8309     9.8536 </r>
       <r>    -7.1094     3.1483    10.0952 </r>
       <r>    -7.0326     2.7481    10.3060 </r>
       <r>    -6.9559     2.6358    10.5082 </r>
       <r>    -6.8792     1.8699    10.6516 </r>
       <r>    -6.8025     1.2010    10.7438 </r>
       <r>    -6.7258     1.3633    10.8484 </r>
       <r>    -6.6491     2.5880    11.0469 </r>
       <r>    -6.5723     1.6739    11.1753 </r>
       <r>    -6.4956     0.9536    11.2485 </r>
       <r>    -6.4189     2.5853    11.4468 </r>
       <r>    -6.3422     0.7629    11.5053 </r>
       <r>    -6.2655     1.4824    11.6191 </r>
       <r>    -6.1888     2.4205    11.8048 </r>
       <r>    -6.1120     0.9914    11.8808 </r>
       <r>    -6.0353     0.8233    11.9440 </r>
       <r>    -5.9586     2.2726    12.1183 </r>
       <r>    -5.8819     2.3192    12.2962 </r>
       <r>    -5.8052     1.2566    12.3927 </r>
       <r>    -5.7285     1.8440    12.5341 </r>
       <r>    -5.6517     2.9524    12.7606 </r>
       <r>    -5.5750     2.7486    12.9715 </r>
       <r>    -5.4983     3.4662    13.2374 </r>
       <r>    -5.4216     2.6032    13.4371 </r>
       <r>    -5.3449     5.5546    13.8632 </r>
       <r>    -5.2682     2.2956    14.0393 </r>
       <r>    -5.1914     3.1058    14.2776 </r>
       <r>    -5.1147     3.3284    14.5329 </r>
       <r>    -5.0380     2.9696    14.7607 </r>
       <r>    -4.9613     1.9475    14.9102 </r>
       <r>    -4.8846     2.2776    15.0849 </r>
       <r>    -4.8079     2.0216    15.2400 </r>
       <r>    -4.7311     1.4493    15.3512 </r>
       <r>    -4.6544     0.5223    15.3912 </r>
       <r>    -4.5777     1.6186    15.5154 </r>
       <r>    -4.5010     1.4198    15.6243 </r>
       <r>    -4.4243     1.4062    15.7322 </r>
       <r>    -4.3476     1.0686    15.8142 </r>
       <r>    -4.2709     0.5215    15.8542 </r>
       <r>    -4.1941     0.9007    15.9233 </r>
       <r>    -4.1174     2.8221    16.1398 </r>
       <r>    -4.0407     2.8453    16.3581 </r>
       <r>    -3.9640     2.2930    16.5340 </r>
       <r>    -3.8873     3.1828    16.7782 </r>
       <r>    -3.8106     4.0242    17.0869 </r>
       <r>    -3.7338     3.3386    17.3430 </r>
       <r>    -3.6571     2.6443    17.5459 </r>
       <r>    -3.5804     4.0231    17.8545 </r>
       <r>    -3.5037     3.7154    18.1395 </r>
       <r>    -3.4270     2.5749    18.3371 </r>
       <r>    -3.3503     2.3538    18.5176 </r>
       <r>    -3.2735     4.5552    18.8671 </r>
       <r>    -3.1968     3.3637    19.1252 </r>
       <r>    -3.1201     1.4744    19.2383 </r>
       <r>    -3.0434     1.1244    19.3245 </r>
       <r>    -2.9667     1.2413    19.4198 </r>
       <r>    -2.8900     0.6967    19.4732 </r>
       <r>    -2.8132     1.4675    19.5858 </r>
       <r>    -2.7365     2.1349    19.7496 </r>
       <r>    -2.6598     0.5476    19.7916 </r>
       <r>    -2.5831     0.3525    19.8186 </r>
       <r>    -2.5064     0.1094    19.8270 </r>
       <r>    -2.4297     0.5996    19.8730 </r>
       <r>    -2.3529     0.9826    19.9484 </r>
       <r>    -2.2762     0.1245    19.9580 </r>
       <r>    -2.1995     0.3313    19.9834 </r>
       <r>    -2.1228     0.2168    20.0000 </r>
       <r>    -2.0461     0.0000    20.0000 </r>
       <r>    -1.9694     0.0000    20.0000 </r>
       <r>    -1.8926     0.0000    20.0000 </r>
       <r>    -1.8159     0.0000    20.0000 </r>
       <r>    -1.7392     0.0000    20.0000 </r>
       <r>    -1.6625     0.0000    20.0000 </r>
       <r>    -1.5858     0.0000    20.0000 </r>
       <r>    -1.5091     0.0000    20.0000 </r>
       <r>    -1.4324     0.0016    20.0001 </r>
       <r>    -1.3556     0.2280    20.0176 </r>
       <r>    -1.2789     0.1620    20.0300 </r>
       <r>    -1.2022     0.1186    20.0391 </r>
       <r>    -1.1255     0.7892    20.0997 </r>
       <r>    -1.0488     0.3835    20.1291 </r>
       <r>    -0.9721     1.9190    20.2763 </r>
       <r>    -0.8953     1.9442    20.4255 </r>
       <r>    -0.8186     1.5436    20.5439 </r>
       <r>    -0.7419     1.6574    20.6710 </r>
       <r>    -0.6652     1.6036    20.7941 </r>
       <r>    -0.5885     2.1940    20.9624 </r>
       <r>    -0.5118     1.3046    21.0624 </r>
       <r>    -0.4350     1.8305    21.2029 </r>
       <r>    -0.3583     2.3827    21.3857 </r>
       <r>    -0.2816     2.2775    21.5604 </r>
       <r>    -0.2049     2.1662    21.7266 </r>
       <r>    -0.1282     1.7580    21.8614 </r>
       <r>    -0.0515     2.4578    22.0500 </r>
       <r>     0.0253     3.3315    22.3056 </r>
       <r>     0.1020     2.9657    22.5331 </r>
       <r>     0.1787     1.6433    22.6592 </r>
       <r>     0.2554     5.5142    23.0822 </r>
       <r>     0.3321     2.5443    23.2774 </r>
       <r>     0.4088     2.7051    23.4849 </r>
       <r>     0.4856     5.0168    23.8698 </r>
       <r>     0.5623     4.7376    24.2332 </r>
       <r>     0.6390     2.0526    24.3907 </r>
       <r>     0.7157     3.9782    24.6959 </r>
       <r>     0.7924     4.7719    25.0620 </r>
       <r>     0.8691     3.5672    25.3356 </r>
       <r>     0.9459     3.9809    25.6410 </r>
       <r>     1.0226     1.7946    25.7787 </r>
       <r>     1.0993     3.2765    26.0301 </r>
       <r>     1.1760     3.6818    26.3125 </r>
       <r>     1.2527     3.2573    26.5624 </r>
       <r>     1.3294     2.8047    26.7776 </r>
       <r>     1.4061     2.9328    27.0026 </r>
       <r>     1.4829     2.0769    27.1619 </r>
       <r>     1.5596     1.8018    27.3001 </r>
       <r>     1.6363     2.9028    27.5228 </r>
       <r>     1.7130     3.6280    27.8011 </r>
       <r>     1.7897     1.3030    27.9011 </r>
       <r>     1.8664     2.0522    28.0585 </r>
       <r>     1.9432     1.9743    28.2100 </r>
       <r>     2.0199     2.8345    28.4274 </r>
       <r>     2.0966     1.9782    28.5792 </r>
       <r>     2.1733     2.2711    28.7534 </r>
       <r>     2.2500     2.4811    28.9438 </r>
       <r>     2.3267     2.0354    29.0999 </r>
       <r>     2.4035     3.5203    29.3700 </r>
       <r>     2.4802     3.2911    29.6225 </r>
       <r>     2.5569     3.4098    29.8840 </r>
       <r>     2.6336     3.0069    30.1147 </r>
       <r>     2.7103     2.4518    30.3028 </r>
       <r>     2.7870     2.3715    30.4847 </r>
       <r>     2.8638     3.3165    30.7392 </r>
       <r>     2.9405     3.1895    30.9839 </r>
       <r>     3.0172     1.2143    31.0770 </r>
       <r>     3.0939     1.8974    31.2226 </r>
       <r>     3.1706     1.2142    31.3157 </r>
       <r>     3.2473     2.9986    31.5458 </r>
       <r>     3.3241     1.5912    31.6678 </r>
       <r>     3.4008     0.8281    31.7314 </r>
       <r>     3.4775     1.6518    31.8581 </r>
       <r>     3.5542     1.1250    31.9444 </r>
       <r>     3.6309     0.3820    31.9737 </r>
       <r>     3.7076     0.3427    32.0000 </r>
       <r>     3.7844     0.0001    32.0000 </r>
       <r>     3.8611     0.0000    32.0000 </r>
       <r>     3.9378     0.0000    32.0000 </r>
       <r>     4.0145     0.0000    32.0000 </r>
       <r>     4.0912     0.0000    32.0000 </r>
       <r>     4.1679     0.0000    32.0000 </r>
       <r>     4.2447     0.0000    32.0000 </r>
       <r>     4.3214     0.0000    32.0000 </r>
       <r>     4.3981     0.0000    32.0000 </r>
       <r>     4.4748     0.0000    32.0000 </r>
       <r>     4.5515     0.0000    32.0000 </r>
       <r>     4.6282     0.0000    32.0000 </r>
       <r>     4.7049     0.0000    32.0000 </r>
      </set>
     </set>
    </array>
   </total>
  </dos>
 </calculation>
 <structure name="finalpos" >
  <crystal>
   <varray name="basis" >
    <v>       3.25989900       0.00000000       0.00000000 </v>
    <v>       0.00000000       4.57104200      -0.00005300 </v>
    <v>       0.00000000       0.00000000      20.02439000 </v>
   </varray>
   <i name="volume">    298.38614358 </i>
   <varray name="rec_basis" >
    <v>       0.30675797       0.00000000       0.00000000 </v>
    <v>       0.00000000       0.21876850       0.00000000 </v>
    <v>       0.00000000       0.00000058       0.04993910 </v>
   </varray>
  </crystal>
  <varray name="positions" >
   <v>       0.50000000       0.91310917       0.55276804 </v>
   <v>       0.50000000       0.08689083       0.44723196 </v>
   <v>      -0.00000000       0.41310440       0.44723197 </v>
   <v>       0.00000000       0.58689560       0.55276803 </v>
  </varray>
 </structure>
</modeling>
