<?xml version="1.0" encoding="ISO-8859-1"?>
<modeling>
 <generator>
  <i name="program" type="string">vasp </i>
  <i name="version" type="string">5.4.1  </i>
  <i name="subversion" type="string">24Jun15 (build Nov 20 2020 10:29:34) complex                          parallel </i>
  <i name="platform" type="string">IFC91_ompi </i>
  <i name="date" type="string">2021 09 09 </i>
  <i name="time" type="string">13:43:52 </i>
 </generator>
 <incar>
  <i type="string" name="PREC">a</i>
  <i type="string" name="ALGO"> Normal</i>
  <i type="int" name="ISPIN">     1</i>
  <i type="int" name="ICHARG">     2</i>
  <i type="int" name="NELM">   250</i>
  <i type="int" name="NELMDL">    -5</i>
  <i type="int" name="NELMIN">     6</i>
  <i type="int" name="IBRION">     2</i>
  <i name="EDIFF">      0.00001000</i>
  <i name="EDIFFG">     -0.01000000</i>
  <i type="int" name="NSW">   200</i>
  <i type="int" name="ISIF">     2</i>
  <i name="ENCUT">    520.00000000</i>
  <i name="POTIM">      0.30000000</i>
  <i type="logical" name="LREAL"> F  </i>
  <i type="int" name="ISMEAR">     0</i>
  <i name="SIGMA">      0.02000000</i>
  <i type="logical" name="LWAVE"> F  </i>
  <i type="logical" name="LCHARG"> F  </i>
  <i type="logical" name="LAECHG"> F  </i>
  <v type="int" name="KPOINT_BSE">    -1     0     0     0</v>
  <i type="int" name="NELM">   250</i>
 </incar>
 <kpoints>
  <generation param="Gamma">
   <v type="int" name="divisions">      21       15        1 </v>
   <v name="usershift">      0.00000000       0.00000000       0.00000000 </v>
   <v name="genvec1">      0.04761905       0.00000000       0.00000000 </v>
   <v name="genvec2">      0.00000000       0.06666667       0.00000000 </v>
   <v name="genvec3">      0.00000000       0.00000000       1.00000000 </v>
   <v name="shift">      0.00000000       0.00000000       0.00000000 </v>
  </generation>
  <varray name="kpointlist" >
   <v>       0.00000000       0.00000000       0.00000000 </v>
   <v>       0.04761905       0.00000000       0.00000000 </v>
   <v>       0.09523810       0.00000000       0.00000000 </v>
   <v>       0.14285714       0.00000000       0.00000000 </v>
   <v>       0.19047619       0.00000000       0.00000000 </v>
   <v>       0.23809524       0.00000000       0.00000000 </v>
   <v>       0.28571429       0.00000000       0.00000000 </v>
   <v>       0.33333333       0.00000000       0.00000000 </v>
   <v>       0.38095238       0.00000000       0.00000000 </v>
   <v>       0.42857143       0.00000000       0.00000000 </v>
   <v>       0.47619048       0.00000000       0.00000000 </v>
   <v>       0.00000000       0.06666667       0.00000000 </v>
   <v>       0.04761905       0.06666667       0.00000000 </v>
   <v>       0.09523810       0.06666667       0.00000000 </v>
   <v>       0.14285714       0.06666667       0.00000000 </v>
   <v>       0.19047619       0.06666667       0.00000000 </v>
   <v>       0.23809524       0.06666667       0.00000000 </v>
   <v>       0.28571429       0.06666667       0.00000000 </v>
   <v>       0.33333333       0.06666667       0.00000000 </v>
   <v>       0.38095238       0.06666667       0.00000000 </v>
   <v>       0.42857143       0.06666667       0.00000000 </v>
   <v>       0.47619048       0.06666667       0.00000000 </v>
   <v>      -0.47619048       0.06666667       0.00000000 </v>
   <v>      -0.42857143       0.06666667       0.00000000 </v>
   <v>      -0.38095238       0.06666667       0.00000000 </v>
   <v>      -0.33333333       0.06666667       0.00000000 </v>
   <v>      -0.28571429       0.06666667       0.00000000 </v>
   <v>      -0.23809524       0.06666667       0.00000000 </v>
   <v>      -0.19047619       0.06666667       0.00000000 </v>
   <v>      -0.14285714       0.06666667       0.00000000 </v>
   <v>      -0.09523810       0.06666667       0.00000000 </v>
   <v>      -0.04761905       0.06666667       0.00000000 </v>
   <v>       0.00000000       0.13333333       0.00000000 </v>
   <v>       0.04761905       0.13333333       0.00000000 </v>
   <v>       0.09523810       0.13333333       0.00000000 </v>
   <v>       0.14285714       0.13333333       0.00000000 </v>
   <v>       0.19047619       0.13333333       0.00000000 </v>
   <v>       0.23809524       0.13333333       0.00000000 </v>
   <v>       0.28571429       0.13333333       0.00000000 </v>
   <v>       0.33333333       0.13333333       0.00000000 </v>
   <v>       0.38095238       0.13333333       0.00000000 </v>
   <v>       0.42857143       0.13333333       0.00000000 </v>
   <v>       0.47619048       0.13333333       0.00000000 </v>
   <v>      -0.47619048       0.13333333       0.00000000 </v>
   <v>      -0.42857143       0.13333333       0.00000000 </v>
   <v>      -0.38095238       0.13333333       0.00000000 </v>
   <v>      -0.33333333       0.13333333       0.00000000 </v>
   <v>      -0.28571429       0.13333333       0.00000000 </v>
   <v>      -0.23809524       0.13333333       0.00000000 </v>
   <v>      -0.19047619       0.13333333       0.00000000 </v>
   <v>      -0.14285714       0.13333333       0.00000000 </v>
   <v>      -0.09523810       0.13333333       0.00000000 </v>
   <v>      -0.04761905       0.13333333       0.00000000 </v>
   <v>       0.00000000       0.20000000       0.00000000 </v>
   <v>       0.04761905       0.20000000       0.00000000 </v>
   <v>       0.09523810       0.20000000       0.00000000 </v>
   <v>       0.14285714       0.20000000       0.00000000 </v>
   <v>       0.19047619       0.20000000       0.00000000 </v>
   <v>       0.23809524       0.20000000       0.00000000 </v>
   <v>       0.28571429       0.20000000       0.00000000 </v>
   <v>       0.33333333       0.20000000       0.00000000 </v>
   <v>       0.38095238       0.20000000       0.00000000 </v>
   <v>       0.42857143       0.20000000       0.00000000 </v>
   <v>       0.47619048       0.20000000       0.00000000 </v>
   <v>      -0.47619048       0.20000000       0.00000000 </v>
   <v>      -0.42857143       0.20000000       0.00000000 </v>
   <v>      -0.38095238       0.20000000       0.00000000 </v>
   <v>      -0.33333333       0.20000000       0.00000000 </v>
   <v>      -0.28571429       0.20000000       0.00000000 </v>
   <v>      -0.23809524       0.20000000       0.00000000 </v>
   <v>      -0.19047619       0.20000000       0.00000000 </v>
   <v>      -0.14285714       0.20000000       0.00000000 </v>
   <v>      -0.09523810       0.20000000       0.00000000 </v>
   <v>      -0.04761905       0.20000000       0.00000000 </v>
   <v>       0.00000000       0.26666667       0.00000000 </v>
   <v>       0.04761905       0.26666667       0.00000000 </v>
   <v>       0.09523810       0.26666667       0.00000000 </v>
   <v>       0.14285714       0.26666667       0.00000000 </v>
   <v>       0.19047619       0.26666667       0.00000000 </v>
   <v>       0.23809524       0.26666667       0.00000000 </v>
   <v>       0.28571429       0.26666667       0.00000000 </v>
   <v>       0.33333333       0.26666667       0.00000000 </v>
   <v>       0.38095238       0.26666667       0.00000000 </v>
   <v>       0.42857143       0.26666667       0.00000000 </v>
   <v>       0.47619048       0.26666667       0.00000000 </v>
   <v>      -0.47619048       0.26666667       0.00000000 </v>
   <v>      -0.42857143       0.26666667       0.00000000 </v>
   <v>      -0.38095238       0.26666667       0.00000000 </v>
   <v>      -0.33333333       0.26666667       0.00000000 </v>
   <v>      -0.28571429       0.26666667       0.00000000 </v>
   <v>      -0.23809524       0.26666667       0.00000000 </v>
   <v>      -0.19047619       0.26666667       0.00000000 </v>
   <v>      -0.14285714       0.26666667       0.00000000 </v>
   <v>      -0.09523810       0.26666667       0.00000000 </v>
   <v>      -0.04761905       0.26666667       0.00000000 </v>
   <v>       0.00000000       0.33333333       0.00000000 </v>
   <v>       0.04761905       0.33333333       0.00000000 </v>
   <v>       0.09523810       0.33333333       0.00000000 </v>
   <v>       0.14285714       0.33333333       0.00000000 </v>
   <v>       0.19047619       0.33333333       0.00000000 </v>
   <v>       0.23809524       0.33333333       0.00000000 </v>
   <v>       0.28571429       0.33333333       0.00000000 </v>
   <v>       0.33333333       0.33333333       0.00000000 </v>
   <v>       0.38095238       0.33333333       0.00000000 </v>
   <v>       0.42857143       0.33333333       0.00000000 </v>
   <v>       0.47619048       0.33333333       0.00000000 </v>
   <v>      -0.47619048       0.33333333       0.00000000 </v>
   <v>      -0.42857143       0.33333333       0.00000000 </v>
   <v>      -0.38095238       0.33333333       0.00000000 </v>
   <v>      -0.33333333       0.33333333       0.00000000 </v>
   <v>      -0.28571429       0.33333333       0.00000000 </v>
   <v>      -0.23809524       0.33333333       0.00000000 </v>
   <v>      -0.19047619       0.33333333       0.00000000 </v>
   <v>      -0.14285714       0.33333333       0.00000000 </v>
   <v>      -0.09523810       0.33333333       0.00000000 </v>
   <v>      -0.04761905       0.33333333       0.00000000 </v>
   <v>       0.00000000       0.40000000       0.00000000 </v>
   <v>       0.04761905       0.40000000       0.00000000 </v>
   <v>       0.09523810       0.40000000       0.00000000 </v>
   <v>       0.14285714       0.40000000       0.00000000 </v>
   <v>       0.19047619       0.40000000       0.00000000 </v>
   <v>       0.23809524       0.40000000       0.00000000 </v>
   <v>       0.28571429       0.40000000       0.00000000 </v>
   <v>       0.33333333       0.40000000       0.00000000 </v>
   <v>       0.38095238       0.40000000       0.00000000 </v>
   <v>       0.42857143       0.40000000       0.00000000 </v>
   <v>       0.47619048       0.40000000       0.00000000 </v>
   <v>      -0.47619048       0.40000000       0.00000000 </v>
   <v>      -0.42857143       0.40000000       0.00000000 </v>
   <v>      -0.38095238       0.40000000       0.00000000 </v>
   <v>      -0.33333333       0.40000000       0.00000000 </v>
   <v>      -0.28571429       0.40000000       0.00000000 </v>
   <v>      -0.23809524       0.40000000       0.00000000 </v>
   <v>      -0.19047619       0.40000000       0.00000000 </v>
   <v>      -0.14285714       0.40000000       0.00000000 </v>
   <v>      -0.09523810       0.40000000       0.00000000 </v>
   <v>      -0.04761905       0.40000000       0.00000000 </v>
   <v>       0.00000000       0.46666667       0.00000000 </v>
   <v>       0.04761905       0.46666667       0.00000000 </v>
   <v>       0.09523810       0.46666667       0.00000000 </v>
   <v>       0.14285714       0.46666667       0.00000000 </v>
   <v>       0.19047619       0.46666667       0.00000000 </v>
   <v>       0.23809524       0.46666667       0.00000000 </v>
   <v>       0.28571429       0.46666667       0.00000000 </v>
   <v>       0.33333333       0.46666667       0.00000000 </v>
   <v>       0.38095238       0.46666667       0.00000000 </v>
   <v>       0.42857143       0.46666667       0.00000000 </v>
   <v>       0.47619048       0.46666667       0.00000000 </v>
   <v>      -0.47619048       0.46666667       0.00000000 </v>
   <v>      -0.42857143       0.46666667       0.00000000 </v>
   <v>      -0.38095238       0.46666667       0.00000000 </v>
   <v>      -0.33333333       0.46666667       0.00000000 </v>
   <v>      -0.28571429       0.46666667       0.00000000 </v>
   <v>      -0.23809524       0.46666667       0.00000000 </v>
   <v>      -0.19047619       0.46666667       0.00000000 </v>
   <v>      -0.14285714       0.46666667       0.00000000 </v>
   <v>      -0.09523810       0.46666667       0.00000000 </v>
   <v>      -0.04761905       0.46666667       0.00000000 </v>
  </varray>
  <varray name="weights" >
   <v>       0.00317460 </v>
   <v>       0.00634921 </v>
   <v>       0.00634921 </v>
   <v>       0.00634921 </v>
   <v>       0.00634921 </v>
   <v>       0.00634921 </v>
   <v>       0.00634921 </v>
   <v>       0.00634921 </v>
   <v>       0.00634921 </v>
   <v>       0.00634921 </v>
   <v>       0.00634921 </v>
   <v>       0.00634921 </v>
   <v>       0.00634921 </v>
   <v>       0.00634921 </v>
   <v>       0.00634921 </v>
   <v>       0.00634921 </v>
   <v>       0.00634921 </v>
   <v>       0.00634921 </v>
   <v>       0.00634921 </v>
   <v>       0.00634921 </v>
   <v>       0.00634921 </v>
   <v>       0.00634921 </v>
   <v>       0.00634921 </v>
   <v>       0.00634921 </v>
   <v>       0.00634921 </v>
   <v>       0.00634921 </v>
   <v>       0.00634921 </v>
   <v>       0.00634921 </v>
   <v>       0.00634921 </v>
   <v>       0.00634921 </v>
   <v>       0.00634921 </v>
   <v>       0.00634921 </v>
   <v>       0.00634921 </v>
   <v>       0.00634921 </v>
   <v>       0.00634921 </v>
   <v>       0.00634921 </v>
   <v>       0.00634921 </v>
   <v>       0.00634921 </v>
   <v>       0.00634921 </v>
   <v>       0.00634921 </v>
   <v>       0.00634921 </v>
   <v>       0.00634921 </v>
   <v>       0.00634921 </v>
   <v>       0.00634921 </v>
   <v>       0.00634921 </v>
   <v>       0.00634921 </v>
   <v>       0.00634921 </v>
   <v>       0.00634921 </v>
   <v>       0.00634921 </v>
   <v>       0.00634921 </v>
   <v>       0.00634921 </v>
   <v>       0.00634921 </v>
   <v>       0.00634921 </v>
   <v>       0.00634921 </v>
   <v>       0.00634921 </v>
   <v>       0.00634921 </v>
   <v>       0.00634921 </v>
   <v>       0.00634921 </v>
   <v>       0.00634921 </v>
   <v>       0.00634921 </v>
   <v>       0.00634921 </v>
   <v>       0.00634921 </v>
   <v>       0.00634921 </v>
   <v>       0.00634921 </v>
   <v>       0.00634921 </v>
   <v>       0.00634921 </v>
   <v>       0.00634921 </v>
   <v>       0.00634921 </v>
   <v>       0.00634921 </v>
   <v>       0.00634921 </v>
   <v>       0.00634921 </v>
   <v>       0.00634921 </v>
   <v>       0.00634921 </v>
   <v>       0.00634921 </v>
   <v>       0.00634921 </v>
   <v>       0.00634921 </v>
   <v>       0.00634921 </v>
   <v>       0.00634921 </v>
   <v>       0.00634921 </v>
   <v>       0.00634921 </v>
   <v>       0.00634921 </v>
   <v>       0.00634921 </v>
   <v>       0.00634921 </v>
   <v>       0.00634921 </v>
   <v>       0.00634921 </v>
   <v>       0.00634921 </v>
   <v>       0.00634921 </v>
   <v>       0.00634921 </v>
   <v>       0.00634921 </v>
   <v>       0.00634921 </v>
   <v>       0.00634921 </v>
   <v>       0.00634921 </v>
   <v>       0.00634921 </v>
   <v>       0.00634921 </v>
   <v>       0.00634921 </v>
   <v>       0.00634921 </v>
   <v>       0.00634921 </v>
   <v>       0.00634921 </v>
   <v>       0.00634921 </v>
   <v>       0.00634921 </v>
   <v>       0.00634921 </v>
   <v>       0.00634921 </v>
   <v>       0.00634921 </v>
   <v>       0.00634921 </v>
   <v>       0.00634921 </v>
   <v>       0.00634921 </v>
   <v>       0.00634921 </v>
   <v>       0.00634921 </v>
   <v>       0.00634921 </v>
   <v>       0.00634921 </v>
   <v>       0.00634921 </v>
   <v>       0.00634921 </v>
   <v>       0.00634921 </v>
   <v>       0.00634921 </v>
   <v>       0.00634921 </v>
   <v>       0.00634921 </v>
   <v>       0.00634921 </v>
   <v>       0.00634921 </v>
   <v>       0.00634921 </v>
   <v>       0.00634921 </v>
   <v>       0.00634921 </v>
   <v>       0.00634921 </v>
   <v>       0.00634921 </v>
   <v>       0.00634921 </v>
   <v>       0.00634921 </v>
   <v>       0.00634921 </v>
   <v>       0.00634921 </v>
   <v>       0.00634921 </v>
   <v>       0.00634921 </v>
   <v>       0.00634921 </v>
   <v>       0.00634921 </v>
   <v>       0.00634921 </v>
   <v>       0.00634921 </v>
   <v>       0.00634921 </v>
   <v>       0.00634921 </v>
   <v>       0.00634921 </v>
   <v>       0.00634921 </v>
   <v>       0.00634921 </v>
   <v>       0.00634921 </v>
   <v>       0.00634921 </v>
   <v>       0.00634921 </v>
   <v>       0.00634921 </v>
   <v>       0.00634921 </v>
   <v>       0.00634921 </v>
   <v>       0.00634921 </v>
   <v>       0.00634921 </v>
   <v>       0.00634921 </v>
   <v>       0.00634921 </v>
   <v>       0.00634921 </v>
   <v>       0.00634921 </v>
   <v>       0.00634921 </v>
   <v>       0.00634921 </v>
   <v>       0.00634921 </v>
   <v>       0.00634921 </v>
   <v>       0.00634921 </v>
   <v>       0.00634921 </v>
   <v>       0.00634921 </v>
   <v>       0.00634921 </v>
  </varray>
 </kpoints>
 <parameters>
  <separator name="general" >
   <i type="string" name="SYSTEM">unknown system</i>
   <i type="logical" name="LCOMPAT"> F  </i>
  </separator>
  <separator name="electronic" >
   <i type="string" name="PREC">a</i>
   <i name="ENMAX">    520.00000000</i>
   <i name="ENAUG">    342.92400000</i>
   <i name="EDIFF">      0.00001000</i>
   <i type="int" name="IALGO">    38</i>
   <i type="int" name="IWAVPR">    11</i>
   <i type="int" name="NBANDS">    16</i>
   <i name="NELECT">     20.00000000</i>
   <i type="int" name="TURBO">     0</i>
   <i type="int" name="IRESTART">     0</i>
   <i type="int" name="NREBOOT">     0</i>
   <i type="int" name="NMIN">     0</i>
   <i name="EREF">      0.00000000</i>
   <separator name="electronic smearing" >
    <i type="int" name="ISMEAR">     0</i>
    <i name="SIGMA">      0.02000000</i>
    <i name="KSPACING">      0.50000000</i>
    <i type="logical" name="KGAMMA"> T  </i>
   </separator>
   <separator name="electronic projectors" >
    <i type="logical" name="LREAL"> F  </i>
    <v name="ROPT">      0.00000000</v>
    <i type="int" name="LMAXPAW">  -100</i>
    <i type="int" name="LMAXMIX">     2</i>
    <i type="logical" name="NLSPLINE"> F  </i>
   </separator>
   <separator name="electronic startup" >
    <i type="int" name="ISTART">     0</i>
    <i type="int" name="ICHARG">     2</i>
    <i type="int" name="INIWAV">     1</i>
   </separator>
   <separator name="electronic spin" >
    <i type="int" name="ISPIN">     1</i>
    <i type="logical" name="LNONCOLLINEAR"> F  </i>
    <v name="MAGMOM">      1.00000000      1.00000000      1.00000000      1.00000000</v>
    <i name="NUPDOWN">     -1.00000000</i>
    <i type="logical" name="LSORBIT"> F  </i>
    <v name="SAXIS">      0.00000000      0.00000000      1.00000000</v>
    <i type="logical" name="LSPIRAL"> F  </i>
    <v name="QSPIRAL">      0.00000000      0.00000000      0.00000000</v>
    <i type="logical" name="LZEROZ"> F  </i>
   </separator>
   <separator name="electronic exchange-correlation" >
    <i type="logical" name="LASPH"> F  </i>
    <i type="logical" name="LMETAGGA"> F  </i>
   </separator>
   <separator name="electronic convergence" >
    <i type="int" name="NELM">   250</i>
    <i type="int" name="NELMDL">    -5</i>
    <i type="int" name="NELMIN">     6</i>
    <i name="ENINI">    520.00000000</i>
    <separator name="electronic convergence detail" >
     <i type="logical" name="LDIAG"> T  </i>
     <i type="logical" name="LSUBROT"> F  </i>
     <i name="WEIMIN">      0.00100000</i>
     <i name="EBREAK">      0.00000016</i>
     <i name="DEPER">      0.30000000</i>
     <i type="int" name="NRMM">     4</i>
     <i name="TIME">      0.40000000</i>
    </separator>
   </separator>
   <separator name="electronic mixer" >
    <i name="AMIX">      0.40000000</i>
    <i name="BMIX">      1.00000000</i>
    <i name="AMIN">      0.10000000</i>
    <i name="AMIX_MAG">      1.60000000</i>
    <i name="BMIX_MAG">      1.00000000</i>
    <separator name="electronic mixer details" >
     <i type="int" name="IMIX">     4</i>
     <i type="logical" name="MIXFIRST"> F  </i>
     <i type="int" name="MAXMIX">   -45</i>
     <i name="WC">    100.00000000</i>
     <i type="int" name="INIMIX">     1</i>
     <i type="int" name="MIXPRE">     1</i>
     <i type="int" name="MREMOVE">     5</i>
    </separator>
   </separator>
   <separator name="electronic dipolcorrection" >
    <i type="logical" name="LDIPOL"> F  </i>
    <i type="logical" name="LMONO"> F  </i>
    <i type="int" name="IDIPOL">     0</i>
    <i name="EPSILON">      1.00000000</i>
    <v name="DIPOL">   -100.00000000   -100.00000000   -100.00000000</v>
    <i name="EFIELD">      0.00000000</i>
   </separator>
  </separator>
  <separator name="grids" >
   <i type="int" name="NGX">    28</i>
   <i type="int" name="NGY">    36</i>
   <i type="int" name="NGZ">   150</i>
   <i type="int" name="NGXF">    56</i>
   <i type="int" name="NGYF">    72</i>
   <i type="int" name="NGZF">   300</i>
   <i type="logical" name="ADDGRID"> F  </i>
  </separator>
  <separator name="ionic" >
   <i type="int" name="NSW">   200</i>
   <i type="int" name="IBRION">     2</i>
   <i type="int" name="ISIF">     2</i>
   <i name="PSTRESS">      0.00000000</i>
   <i name="EDIFFG">     -0.01000000</i>
   <i type="int" name="NFREE">     1</i>
   <i name="POTIM">      0.30000000</i>
   <i name="SMASS">     -3.00000000</i>
   <i name="SCALEE">      1.00000000</i>
  </separator>
  <separator name="ionic md" >
   <i name="TEBEG">      0.00010000</i>
   <i name="TEEND">      0.00010000</i>
   <i type="int" name="NBLOCK">     1</i>
   <i type="int" name="KBLOCK">   200</i>
   <i type="int" name="NPACO">   256</i>
   <i name="APACO">     16.00000000</i>
  </separator>
  <separator name="symmetry" >
   <i type="int" name="ISYM">     2</i>
   <i name="SYMPREC">      0.00001000</i>
  </separator>
  <separator name="dos" >
   <i type="logical" name="LORBIT"> F  </i>
   <v name="RWIGS">     -1.00000000</v>
   <i type="int" name="NEDOS">   301</i>
   <i name="EMIN">     10.00000000</i>
   <i name="EMAX">    -10.00000000</i>
   <i name="EFERMI">      0.00000000</i>
  </separator>
  <separator name="writing" >
   <i type="int" name="NWRITE">     2</i>
   <i type="logical" name="LWAVE"> F  </i>
   <i type="logical" name="LCHARG"> F  </i>
   <i type="logical" name="LPARD"> F  </i>
   <i type="logical" name="LVTOT"> F  </i>
   <i type="logical" name="LVHAR"> F  </i>
   <i type="logical" name="LELF"> F  </i>
   <i type="logical" name="LOPTICS"> F  </i>
   <v name="STM">      0.00000000      0.00000000      0.00000000      0.00000000      0.00000000      0.00000000      0.00000000</v>
  </separator>
  <separator name="performance" >
   <i type="int" name="NPAR">     4</i>
   <i type="int" name="NSIM">     4</i>
   <i type="int" name="NBLK">    -1</i>
   <i type="logical" name="LPLANE"> T  </i>
   <i type="logical" name="LSCALAPACK"> T  </i>
   <i type="logical" name="LSCAAWARE"> F  </i>
   <i type="logical" name="LSCALU"> F  </i>
   <i type="logical" name="LASYNC"> F  </i>
   <i type="logical" name="LORBITALREAL"> F  </i>
  </separator>
  <separator name="miscellaneous" >
   <i type="int" name="IDIOT">     3</i>
   <i type="logical" name="LMUSIC"> F  </i>
   <v name="POMASS">     30.97400000</v>
   <v name="DARWINR">      0.00000000</v>
   <v name="DARWINV">      1.00000000</v>
   <i type="logical" name="LCORR"> T  </i>
  </separator>
  <i type="logical" name="GGA_COMPAT"> T  </i>
  <i type="logical" name="LBERRY"> F  </i>
  <i type="int" name="ICORELEVEL">     0</i>
  <i type="logical" name="LDAU"> F  </i>
  <i type="int" name="I_CONSTRAINED_M">     0</i>
  <separator name="electronic exchange-correlation" >
   <i type="string" name="GGA">--</i>
   <i type="int" name="VOSKOWN">     0</i>
   <i type="logical" name="LHFCALC"> F  </i>
   <i type="string" name="PRECFOCK"></i>
   <i type="logical" name="LSYMGRAD"> F  </i>
   <i type="logical" name="LHFONE"> F  </i>
   <i type="logical" name="LRHFCALC"> F  </i>
   <i type="logical" name="LTHOMAS"> F  </i>
   <i type="logical" name="LMODELHF"> F  </i>
   <i name="ENCUT4O">     -1.00000000</i>
   <i type="int" name="EXXOEP">     0</i>
   <i type="int" name="FOURORBIT">     0</i>
   <i name="AEXX">      0.00000000</i>
   <i name="HFALPHA">      0.00000000</i>
   <i name="MCALPHA">      0.00000000</i>
   <i name="ALDAX">      1.00000000</i>
   <i name="AGGAX">      1.00000000</i>
   <i name="ALDAC">      1.00000000</i>
   <i name="AGGAC">      1.00000000</i>
   <i type="int" name="NKREDX">     1</i>
   <i type="int" name="NKREDY">     1</i>
   <i type="int" name="NKREDZ">     1</i>
   <i type="logical" name="SHIFTRED"> F  </i>
   <i type="logical" name="ODDONLY"> F  </i>
   <i type="logical" name="EVENONLY"> F  </i>
   <i type="int" name="LMAXFOCK">     0</i>
   <i type="int" name="NMAXFOCKAE">     0</i>
   <i type="logical" name="LFOCKAEDFT"> F  </i>
   <i name="HFSCREEN">      0.00000000</i>
   <i name="HFSCREENC">      0.00000000</i>
   <i type="int" name="NBANDSGWLOW">     0</i>
  </separator>
  <separator name="vdW DFT" >
   <i type="logical" name="LUSE_VDW"> F  </i>
   <i name="Zab_VDW">     -0.84910000</i>
   <i name="PARAM1">      0.12340000</i>
   <i name="PARAM2">      1.00000000</i>
   <i name="PARAM3">      0.00000000</i>
  </separator>
  <separator name="model GW" >
   <i type="int" name="MODEL_GW">     0</i>
   <i name="MODEL_EPS0">     46.47498690</i>
   <i name="MODEL_ALPHA">      1.00000000</i>
  </separator>
  <separator name="linear response parameters" >
   <i type="logical" name="LEPSILON"> F  </i>
   <i type="logical" name="LRPA"> F  </i>
   <i type="logical" name="LNABLA"> F  </i>
   <i type="logical" name="LVEL"> F  </i>
   <i type="int" name="KINTER">     0</i>
   <i name="CSHIFT">      0.10000000</i>
   <i name="OMEGAMAX">     -1.00000000</i>
   <i name="DEG_THRESHOLD">      0.00200000</i>
  </separator>
  <separator name="orbital magnetization" >
   <i type="logical" name="NUCIND"> F  </i>
   <v name="MAGPOS">      0.00000000      0.00000000      0.00000000</v>
   <i type="logical" name="LNICSALL"> T  </i>
   <i type="logical" name="ORBITALMAG"> F  </i>
   <i type="logical" name="LMAGBLOCH"> F  </i>
   <i type="logical" name="LCHIMAG"> F  </i>
   <i type="logical" name="LGAUGE"> T  </i>
   <i type="int" name="MAGATOM">     0</i>
   <v name="MAGDIPOL">      0.00000000      0.00000000      0.00000000</v>
   <v name="AVECCONST">      0.00000000      0.00000000      0.00000000</v>
  </separator>
  <separator name="response functions" >
   <i type="logical" name="LADDER"> F  </i>
   <i type="logical" name="LFXC"> F  </i>
   <i type="logical" name="LHARTREE"> T  </i>
   <i type="int" name="IBSE">     0</i>
   <v type="int" name="KPOINT">    -1     0     0     0</v>
   <i type="logical" name="LTCTE"> F  </i>
   <i type="logical" name="LTETE"> F  </i>
   <i type="logical" name="LTRIPLET"> F  </i>
   <i type="logical" name="LFXCEPS"> F  </i>
   <i type="logical" name="LFXHEG"> F  </i>
   <i type="int" name="NATURALO">     0</i>
   <i type="logical" name="L2ORDER"> F  </i>
   <i type="logical" name="LUSEW"> F  </i>
   <i name="ENCUTGW">     -2.00000000</i>
   <i name="ENCUTGWSOFT">     -2.00000000</i>
   <i name="ENCUTLF">     -1.00000000</i>
   <i type="int" name="LMAXMP2">    -1</i>
   <i name="SCISSOR">      0.00000000</i>
   <i type="int" name="NOMEGA">     0</i>
   <i type="int" name="NOMEGAR">     0</i>
   <i type="int" name="NBANDSGW">    -1</i>
   <i type="int" name="NBANDSO">    -1</i>
   <i type="int" name="NBANDSV">    -1</i>
   <i type="int" name="NELM">   250</i>
   <i type="int" name="NELMHF">     1</i>
   <i type="int" name="DIM">     3</i>
   <i type="int" name="ANTIRES">     0</i>
   <i name="OMEGAMAX">    -30.00000000</i>
   <i name="OMEGAMIN">    -30.00000000</i>
   <i name="OMEGATL">   -200.00000000</i>
   <i type="int" name="OMEGAGRID">     0</i>
   <i name="CSHIFT">     -0.10000000</i>
   <i type="logical" name="SELFENERGY"> F  </i>
   <i type="logical" name="LSPECTRAL"> F  </i>
   <i type="logical" name="LSPECTRALGW"> F  </i>
   <i type="logical" name="LSINGLES"> F  </i>
   <i type="logical" name="LFERMIGW"> F  </i>
   <i type="logical" name="ODDONLYGW"> F  </i>
   <i type="logical" name="EVENONLYGW"> F  </i>
   <i type="int" name="NKREDLFX">     1</i>
   <i type="int" name="NKREDLFY">     1</i>
   <i type="int" name="NKREDLFZ">     1</i>
   <i type="int" name="MAXMEM">  1800</i>
   <i type="int" name="TELESCOPE">     0</i>
   <i type="int" name="TAUPAR">     1</i>
   <i type="int" name="OMEGAPAR">    -1</i>
   <i name="LAMBDA">      1.00000000</i>
  </separator>
  <separator name="External order field" >
   <i name="OFIELD_KAPPA">      0.00000000</i>
   <v name="OFIELD_K">      0.00000000      0.00000000      0.00000000</v>
   <i name="OFIELD_Q6_NEAR">      0.00000000</i>
   <i name="OFIELD_Q6_FAR">      0.00000000</i>
   <i name="OFIELD_A">      0.00000000</i>
  </separator>
 </parameters>
 <atominfo>
  <atoms>       4 </atoms>
  <types>       1 </types>
  <array name="atoms" >
   <dimension dim="1">ion</dimension>
   <field type="string">element</field>
   <field type="int">atomtype</field>
   <set>
    <rc><c>P </c><c>   1</c></rc>
    <rc><c>P </c><c>   1</c></rc>
    <rc><c>P </c><c>   1</c></rc>
    <rc><c>P </c><c>   1</c></rc>
   </set>
  </array>
  <array name="atomtypes" >
   <dimension dim="1">type</dimension>
   <field type="int">atomspertype</field>
   <field type="string">element</field>
   <field>mass</field>
   <field>valence</field>
   <field type="string">pseudopotential</field>
   <set>
    <rc><c>   4</c><c>P </c><c>     30.97400000</c><c>      5.00000000</c><c>  PAW_PBE P 06Sep2000                   </c></rc>
   </set>
  </array>
 </atominfo>
 <structure name="initialpos" >
  <crystal>
   <varray name="basis" >
    <v>       3.32184100       0.00000000       0.00000000 </v>
    <v>       0.00000000       4.65789700      -0.00005300 </v>
    <v>       0.00000000       0.00000000      20.02439000 </v>
   </varray>
   <i name="volume">    309.83324599 </i>
   <varray name="rec_basis" >
    <v>       0.30103789       0.00000000       0.00000000 </v>
    <v>       0.00000000       0.21468916       0.00000000 </v>
    <v>       0.00000000       0.00000057       0.04993910 </v>
   </varray>
  </crystal>
  <varray name="positions" >
   <v>       0.50000000       0.91077300       0.55252100 </v>
   <v>       0.50000000       0.08922700       0.44747900 </v>
   <v>       0.00000000       0.41076900       0.44747900 </v>
   <v>       0.00000000       0.58923100       0.55252100 </v>
  </varray>
 </structure>
 <calculation>
  <scstep>
   <time name="dav">    1.50    1.50</time>
   <time name="total">    1.52    1.53</time>
   <energy>
    <i name="alphaZ">      5.17749809 </i>
    <i name="ewald">   1828.18601727 </i>
    <i name="hartreedc">  -2422.18616699 </i>
    <i name="XCdc">     12.89372346 </i>
    <i name="pawpsdc">    559.04011960 </i>
    <i name="pawaedc">   -526.39432044 </i>
    <i name="eentropy">     -0.00059398 </i>
    <i name="bandstr">    -28.94490707 </i>
    <i name="atom">    704.16778566 </i>
    <i name="e_fr_energy">    131.93915559 </i>
    <i name="e_wo_entrp">    131.93974958 </i>
    <i name="e_0_energy">    131.93945259 </i>
   </energy>
  </scstep>
  <scstep>
   <time name="dav">    2.01    2.01</time>
   <time name="total">    2.01    2.02</time>
   <energy>
    <i name="e_fr_energy">     -6.22067429 </i>
    <i name="e_wo_entrp">     -6.22067429 </i>
    <i name="e_0_energy">     -6.22067429 </i>
   </energy>
  </scstep>
  <scstep>
   <time name="dav">    1.84    1.84</time>
   <time name="total">    1.84    1.85</time>
   <energy>
    <i name="e_fr_energy">    -21.32927421 </i>
    <i name="e_wo_entrp">    -21.32927421 </i>
    <i name="e_0_energy">    -21.32927421 </i>
   </energy>
  </scstep>
  <scstep>
   <time name="dav">    1.87    1.87</time>
   <time name="total">    1.87    1.88</time>
   <energy>
    <i name="e_fr_energy">    -21.64113367 </i>
    <i name="e_wo_entrp">    -21.64113367 </i>
    <i name="e_0_energy">    -21.64113367 </i>
   </energy>
  </scstep>
  <scstep>
   <time name="dav">    1.98    1.98</time>
   <time name="total">    2.08    2.08</time>
   <energy>
    <i name="e_fr_energy">    -21.65130621 </i>
    <i name="e_wo_entrp">    -21.65130621 </i>
    <i name="e_0_energy">    -21.65130621 </i>
   </energy>
  </scstep>
  <scstep>
   <time name="dav">    1.80    1.80</time>
   <time name="total">    1.91    1.91</time>
   <energy>
    <i name="e_fr_energy">    -21.51670920 </i>
    <i name="e_wo_entrp">    -21.51670920 </i>
    <i name="e_0_energy">    -21.51670920 </i>
   </energy>
  </scstep>
  <scstep>
   <time name="dav">    1.74    1.74</time>
   <time name="total">    1.85    1.86</time>
   <energy>
    <i name="e_fr_energy">    -21.45167534 </i>
    <i name="e_wo_entrp">    -21.45167534 </i>
    <i name="e_0_energy">    -21.45167534 </i>
   </energy>
  </scstep>
  <scstep>
   <time name="dav">    1.81    1.81</time>
   <time name="total">    1.92    1.92</time>
   <energy>
    <i name="e_fr_energy">    -21.45123174 </i>
    <i name="e_wo_entrp">    -21.45123174 </i>
    <i name="e_0_energy">    -21.45123174 </i>
   </energy>
  </scstep>
  <scstep>
   <time name="dav">    2.11    2.11</time>
   <time name="total">    2.22    2.23</time>
   <energy>
    <i name="e_fr_energy">    -21.45109422 </i>
    <i name="e_wo_entrp">    -21.45109422 </i>
    <i name="e_0_energy">    -21.45109422 </i>
   </energy>
  </scstep>
  <scstep>
   <time name="dav">    1.81    1.81</time>
   <time name="total">    1.93    1.93</time>
   <energy>
    <i name="e_fr_energy">    -21.45096318 </i>
    <i name="e_wo_entrp">    -21.45096318 </i>
    <i name="e_0_energy">    -21.45096318 </i>
   </energy>
  </scstep>
  <scstep>
   <time name="dav">    1.82    1.82</time>
   <time name="total">    1.93    1.93</time>
   <energy>
    <i name="e_fr_energy">    -21.45088353 </i>
    <i name="e_wo_entrp">    -21.45088353 </i>
    <i name="e_0_energy">    -21.45088353 </i>
   </energy>
  </scstep>
  <scstep>
   <time name="dav">    1.64    1.64</time>
   <time name="total">    1.75    1.75</time>
   <energy>
    <i name="e_fr_energy">    -21.45125934 </i>
    <i name="e_wo_entrp">    -21.45125934 </i>
    <i name="e_0_energy">    -21.45125934 </i>
   </energy>
  </scstep>
  <scstep>
   <time name="dav">    1.62    1.62</time>
   <time name="total">    1.73    1.73</time>
   <energy>
    <i name="e_fr_energy">    -21.45135429 </i>
    <i name="e_wo_entrp">    -21.45135429 </i>
    <i name="e_0_energy">    -21.45135429 </i>
   </energy>
  </scstep>
  <scstep>
   <time name="dav">    1.51    1.51</time>
   <time name="total">    1.62    1.62</time>
   <energy>
    <i name="e_fr_energy">    -21.45147786 </i>
    <i name="e_wo_entrp">    -21.45147786 </i>
    <i name="e_0_energy">    -21.45147786 </i>
   </energy>
  </scstep>
  <scstep>
   <time name="dav">    1.55    1.55</time>
   <time name="total">    1.67    1.67</time>
   <energy>
    <i name="e_fr_energy">    -21.45150777 </i>
    <i name="e_wo_entrp">    -21.45150777 </i>
    <i name="e_0_energy">    -21.45150777 </i>
   </energy>
  </scstep>
  <scstep>
   <time name="dav">    1.48    1.48</time>
   <time name="total">    1.59    1.59</time>
   <energy>
    <i name="e_fr_energy">    -21.45153746 </i>
    <i name="e_wo_entrp">    -21.45153746 </i>
    <i name="e_0_energy">    -21.45153746 </i>
   </energy>
  </scstep>
  <scstep>
   <time name="dav">    1.47    1.47</time>
   <time name="total">    1.49    1.50</time>
   <energy>
    <i name="alphaZ">      5.17749809 </i>
    <i name="ewald">   1828.18601727 </i>
    <i name="hartreedc">  -2436.93448681 </i>
    <i name="XCdc">     13.93851541 </i>
    <i name="pawpsdc">   2039.03054839 </i>
    <i name="pawaedc">  -2006.70101592 </i>
    <i name="eentropy">     -0.00000000 </i>
    <i name="bandstr">   -168.31640189 </i>
    <i name="atom">    704.16778566 </i>
    <i name="e_fr_energy">    -21.45153980 </i>
    <i name="e_wo_entrp">    -21.45153980 </i>
    <i name="e_0_energy">    -21.45153980 </i>
   </energy>
  </scstep>
  <structure>
   <crystal>
    <varray name="basis" >
     <v>       3.32184100       0.00000000       0.00000000 </v>
     <v>       0.00000000       4.65789700      -0.00005300 </v>
     <v>       0.00000000       0.00000000      20.02439000 </v>
    </varray>
    <i name="volume">    309.83324599 </i>
    <varray name="rec_basis" >
     <v>       0.30103789       0.00000000       0.00000000 </v>
     <v>       0.00000000       0.21468916       0.00000000 </v>
     <v>       0.00000000       0.00000057       0.04993910 </v>
    </varray>
   </crystal>
   <varray name="positions" >
    <v>       0.50000000       0.91077300       0.55252100 </v>
    <v>       0.50000000       0.08922700       0.44747900 </v>
    <v>       0.00000000       0.41076900       0.44747900 </v>
    <v>       0.00000000       0.58923100       0.55252100 </v>
   </varray>
  </structure>
  <varray name="forces" >
   <v>      -0.00000014      -0.13022242      -0.03171706 </v>
   <v>       0.00000014       0.13022242       0.03171706 </v>
   <v>       0.00000006      -0.13025407       0.03172725 </v>
   <v>      -0.00000006       0.13025407      -0.03172725 </v>
  </varray>
  <varray name="stress" >
   <v>      -4.82742080      -0.00000329      -0.00000088 </v>
   <v>      -0.00000328      -3.59782213       0.00035732 </v>
   <v>      -0.00000085       0.00035726      -0.75386160 </v>
  </varray>
  <energy>
   <i name="e_fr_energy">    -21.45153980 </i>
   <i name="e_wo_entrp">    -21.45153980 </i>
   <i name="e_0_energy">     -0.00000000 </i>
  </energy>
  <time name="totalsc">   31.73   31.78</time>
 </calculation>
 <calculation>
  <scstep>
   <time name="dav">    1.60    1.60</time>
   <time name="total">    1.72    1.72</time>
   <energy>
    <i name="alphaZ">      5.17749809 </i>
    <i name="ewald">   1829.57523350 </i>
    <i name="hartreedc">  -2438.10848910 </i>
    <i name="XCdc">     13.96147571 </i>
    <i name="pawpsdc">   2038.75742585 </i>
    <i name="pawaedc">  -2006.42793184 </i>
    <i name="eentropy">     -0.00000000 </i>
    <i name="bandstr">   -168.55585599 </i>
    <i name="atom">    704.16778566 </i>
    <i name="e_fr_energy">    -21.45285812 </i>
    <i name="e_wo_entrp">    -21.45285812 </i>
    <i name="e_0_energy">    -21.45285812 </i>
   </energy>
  </scstep>
  <scstep>
   <time name="dav">    1.92    1.92</time>
   <time name="total">    2.03    2.04</time>
   <energy>
    <i name="e_fr_energy">    -21.45305471 </i>
    <i name="e_wo_entrp">    -21.45305471 </i>
    <i name="e_0_energy">    -21.45305471 </i>
   </energy>
  </scstep>
  <scstep>
   <time name="dav">    1.92    1.92</time>
   <time name="total">    2.03    2.03</time>
   <energy>
    <i name="e_fr_energy">    -21.45305522 </i>
    <i name="e_wo_entrp">    -21.45305522 </i>
    <i name="e_0_energy">    -21.45305522 </i>
   </energy>
  </scstep>
  <scstep>
   <time name="dav">    1.38    1.38</time>
   <time name="total">    1.49    1.50</time>
   <energy>
    <i name="e_fr_energy">    -21.45305787 </i>
    <i name="e_wo_entrp">    -21.45305787 </i>
    <i name="e_0_energy">    -21.45305787 </i>
   </energy>
  </scstep>
  <scstep>
   <time name="dav">    1.25    1.25</time>
   <time name="total">    1.36    1.36</time>
   <energy>
    <i name="e_fr_energy">    -21.45305823 </i>
    <i name="e_wo_entrp">    -21.45305823 </i>
    <i name="e_0_energy">    -21.45305823 </i>
   </energy>
  </scstep>
  <scstep>
   <time name="dav">    1.19    1.19</time>
   <time name="total">    1.21    1.21</time>
   <energy>
    <i name="alphaZ">      5.17749809 </i>
    <i name="ewald">   1829.57523350 </i>
    <i name="hartreedc">  -2438.11853035 </i>
    <i name="XCdc">     13.96393242 </i>
    <i name="pawpsdc">   2052.95373972 </i>
    <i name="pawaedc">  -2020.62951870 </i>
    <i name="eentropy">     -0.00000000 </i>
    <i name="bandstr">   -168.54319916 </i>
    <i name="atom">    704.16778566 </i>
    <i name="e_fr_energy">    -21.45305882 </i>
    <i name="e_wo_entrp">    -21.45305882 </i>
    <i name="e_0_energy">    -21.45305882 </i>
   </energy>
  </scstep>
  <structure>
   <crystal>
    <varray name="basis" >
     <v>       3.32184100       0.00000000       0.00000000 </v>
     <v>       0.00000000       4.65789700      -0.00005300 </v>
     <v>       0.00000000       0.00000000      20.02439000 </v>
    </varray>
    <i name="volume">    309.83324599 </i>
    <varray name="rec_basis" >
     <v>       0.30103789       0.00000000       0.00000000 </v>
     <v>       0.00000000       0.21468916       0.00000000 </v>
     <v>       0.00000000       0.00000057       0.04993910 </v>
    </varray>
   </crystal>
   <varray name="positions" >
    <v>       0.50000000       0.90996376       0.55247515 </v>
    <v>       0.50000000       0.09003624       0.44752485 </v>
    <v>       0.00000000       0.40995956       0.44752486 </v>
    <v>      -0.00000000       0.59004044       0.55247514 </v>
   </varray>
  </structure>
  <varray name="forces" >
   <v>      -0.00000005      -0.05324722      -0.03017689 </v>
   <v>       0.00000005       0.05324722       0.03017689 </v>
   <v>      -0.00000001      -0.05327378       0.03017966 </v>
   <v>       0.00000001       0.05327378      -0.03017966 </v>
  </varray>
  <varray name="stress" >
   <v>      -4.50672032      -0.00000116      -0.00000024 </v>
   <v>      -0.00000116      -2.46605844       0.00028838 </v>
   <v>      -0.00000029       0.00028838      -0.74515062 </v>
  </varray>
  <energy>
   <i name="e_fr_energy">    -21.45305882 </i>
   <i name="e_wo_entrp">    -21.45305882 </i>
   <i name="e_0_energy">     -0.00000000 </i>
  </energy>
  <time name="totalsc">   10.64   10.66</time>
 </calculation>
 <calculation>
  <scstep>
   <time name="dav">    1.59    1.59</time>
   <time name="total">    1.70    1.70</time>
   <energy>
    <i name="alphaZ">      5.17749809 </i>
    <i name="ewald">   1830.66640532 </i>
    <i name="hartreedc">  -2439.02580724 </i>
    <i name="XCdc">     13.98188135 </i>
    <i name="pawpsdc">   2053.10549363 </i>
    <i name="pawaedc">  -2020.78123307 </i>
    <i name="eentropy">     -0.00000000 </i>
    <i name="bandstr">   -168.74531973 </i>
    <i name="atom">    704.16778566 </i>
    <i name="e_fr_energy">    -21.45329599 </i>
    <i name="e_wo_entrp">    -21.45329599 </i>
    <i name="e_0_energy">    -21.45329599 </i>
   </energy>
  </scstep>
  <scstep>
   <time name="dav">    1.91    1.91</time>
   <time name="total">    2.02    2.03</time>
   <energy>
    <i name="e_fr_energy">    -21.45341830 </i>
    <i name="e_wo_entrp">    -21.45341830 </i>
    <i name="e_0_energy">    -21.45341830 </i>
   </energy>
  </scstep>
  <scstep>
   <time name="dav">    1.75    1.75</time>
   <time name="total">    1.86    1.86</time>
   <energy>
    <i name="e_fr_energy">    -21.45341829 </i>
    <i name="e_wo_entrp">    -21.45341829 </i>
    <i name="e_0_energy">    -21.45341829 </i>
   </energy>
  </scstep>
  <scstep>
   <time name="dav">    1.32    1.32</time>
   <time name="total">    1.43    1.43</time>
   <energy>
    <i name="e_fr_energy">    -21.45341967 </i>
    <i name="e_wo_entrp">    -21.45341967 </i>
    <i name="e_0_energy">    -21.45341967 </i>
   </energy>
  </scstep>
  <scstep>
   <time name="dav">    1.18    1.18</time>
   <time name="total">    1.29    1.29</time>
   <energy>
    <i name="e_fr_energy">    -21.45341958 </i>
    <i name="e_wo_entrp">    -21.45341958 </i>
    <i name="e_0_energy">    -21.45341958 </i>
   </energy>
  </scstep>
  <scstep>
   <time name="dav">    1.16    1.16</time>
   <time name="total">    1.18    1.18</time>
   <energy>
    <i name="alphaZ">      5.17749809 </i>
    <i name="ewald">   1830.66640532 </i>
    <i name="hartreedc">  -2439.02644851 </i>
    <i name="XCdc">     13.98379768 </i>
    <i name="pawpsdc">   2064.41524222 </i>
    <i name="pawaedc">  -2032.09516992 </i>
    <i name="eentropy">     -0.00000000 </i>
    <i name="bandstr">   -168.74253039 </i>
    <i name="atom">    704.16778566 </i>
    <i name="e_fr_energy">    -21.45341984 </i>
    <i name="e_wo_entrp">    -21.45341984 </i>
    <i name="e_0_energy">    -21.45341984 </i>
   </energy>
  </scstep>
  <structure>
   <crystal>
    <varray name="basis" >
     <v>       3.32184100       0.00000000       0.00000000 </v>
     <v>       0.00000000       4.65789700      -0.00005300 </v>
     <v>       0.00000000       0.00000000      20.02439000 </v>
    </varray>
    <i name="volume">    309.83324599 </i>
    <varray name="rec_basis" >
     <v>       0.30103789       0.00000000       0.00000000 </v>
     <v>       0.00000000       0.21468916       0.00000000 </v>
     <v>       0.00000000       0.00000057       0.04993910 </v>
    </varray>
   </crystal>
   <varray name="positions" >
    <v>       0.50000000       0.90932967       0.55243922 </v>
    <v>       0.50000000       0.09067033       0.44756078 </v>
    <v>       0.00000000       0.40932532       0.44756079 </v>
    <v>      -0.00000000       0.59067468       0.55243921 </v>
   </varray>
  </structure>
  <varray name="forces" >
   <v>      -0.00000002       0.00793003      -0.02921423 </v>
   <v>       0.00000002      -0.00793003       0.02921423 </v>
   <v>      -0.00000000       0.00790750       0.02921177 </v>
   <v>       0.00000000      -0.00790750      -0.02921177 </v>
  </varray>
  <varray name="stress" >
   <v>      -4.24364936       0.00000127       0.00000024 </v>
   <v>       0.00000124      -1.56813522       0.00023174 </v>
   <v>       0.00000030       0.00023168      -0.72190260 </v>
  </varray>
  <energy>
   <i name="e_fr_energy">    -21.45341984 </i>
   <i name="e_wo_entrp">    -21.45341984 </i>
   <i name="e_0_energy">     -0.00000000 </i>
  </energy>
  <time name="totalsc">   10.26   10.27</time>
 </calculation>
 <calculation>
  <scstep>
   <time name="dav">    1.46    1.46</time>
   <time name="total">    1.57    1.57</time>
   <energy>
    <i name="alphaZ">      5.17749809 </i>
    <i name="ewald">   1831.60585635 </i>
    <i name="hartreedc">  -2439.91114056 </i>
    <i name="XCdc">     13.99004029 </i>
    <i name="pawpsdc">   2064.54528250 </i>
    <i name="pawaedc">  -2032.22518863 </i>
    <i name="eentropy">     -0.00000000 </i>
    <i name="bandstr">   -168.80362664 </i>
    <i name="atom">    704.16778566 </i>
    <i name="e_fr_energy">    -21.45349294 </i>
    <i name="e_wo_entrp">    -21.45349294 </i>
    <i name="e_0_energy">    -21.45349294 </i>
   </energy>
  </scstep>
  <scstep>
   <time name="dav">    1.82    1.82</time>
   <time name="total">    1.93    1.93</time>
   <energy>
    <i name="e_fr_energy">    -21.45351259 </i>
    <i name="e_wo_entrp">    -21.45351259 </i>
    <i name="e_0_energy">    -21.45351259 </i>
   </energy>
  </scstep>
  <scstep>
   <time name="dav">    1.22    1.22</time>
   <time name="total">    1.33    1.33</time>
   <energy>
    <i name="e_fr_energy">    -21.45351241 </i>
    <i name="e_wo_entrp">    -21.45351241 </i>
    <i name="e_0_energy">    -21.45351241 </i>
   </energy>
  </scstep>
  <scstep>
   <time name="dav">    1.18    1.18</time>
   <time name="total">    1.29    1.29</time>
   <energy>
    <i name="e_fr_energy">    -21.45351299 </i>
    <i name="e_wo_entrp">    -21.45351299 </i>
    <i name="e_0_energy">    -21.45351299 </i>
   </energy>
  </scstep>
  <scstep>
   <time name="dav">    1.15    1.15</time>
   <time name="total">    1.26    1.26</time>
   <energy>
    <i name="e_fr_energy">    -21.45351306 </i>
    <i name="e_wo_entrp">    -21.45351306 </i>
    <i name="e_0_energy">    -21.45351306 </i>
   </energy>
  </scstep>
  <scstep>
   <time name="dav">    1.16    1.16</time>
   <time name="total">    1.18    1.18</time>
   <energy>
    <i name="alphaZ">      5.17749809 </i>
    <i name="ewald">   1831.60585635 </i>
    <i name="hartreedc">  -2439.90664559 </i>
    <i name="XCdc">     13.99040827 </i>
    <i name="pawpsdc">   2067.65168751 </i>
    <i name="pawaedc">  -2035.33262330 </i>
    <i name="eentropy">     -0.00000000 </i>
    <i name="bandstr">   -168.80748019 </i>
    <i name="atom">    704.16778566 </i>
    <i name="e_fr_energy">    -21.45351321 </i>
    <i name="e_wo_entrp">    -21.45351321 </i>
    <i name="e_0_energy">    -21.45351321 </i>
   </energy>
  </scstep>
  <structure>
   <crystal>
    <varray name="basis" >
     <v>       3.32184100       0.00000000       0.00000000 </v>
     <v>       0.00000000       4.65789700      -0.00005300 </v>
     <v>       0.00000000       0.00000000      20.02439000 </v>
    </varray>
    <i name="volume">    309.83324599 </i>
    <varray name="rec_basis" >
     <v>       0.30103789       0.00000000       0.00000000 </v>
     <v>       0.00000000       0.21468916       0.00000000 </v>
     <v>       0.00000000       0.00000057       0.04993910 </v>
    </varray>
   </crystal>
   <varray name="positions" >
    <v>       0.50000000       0.90933350       0.55238736 </v>
    <v>       0.50000000       0.09066650       0.44761264 </v>
    <v>       0.00000000       0.40932897       0.44761265 </v>
    <v>      -0.00000000       0.59067103       0.55238735 </v>
   </varray>
  </structure>
  <varray name="forces" >
   <v>       0.00000005       0.00417893      -0.01419696 </v>
   <v>      -0.00000005      -0.00417893       0.01419696 </v>
   <v>       0.00000003       0.00416081       0.01419526 </v>
   <v>      -0.00000003      -0.00416081      -0.01419526 </v>
  </varray>
  <varray name="stress" >
   <v>      -4.22152426       0.00000040       0.00000042 </v>
   <v>       0.00000044      -1.51710910       0.00018472 </v>
   <v>       0.00000044       0.00018481      -0.38664588 </v>
  </varray>
  <energy>
   <i name="e_fr_energy">    -21.45351321 </i>
   <i name="e_wo_entrp">    -21.45351321 </i>
   <i name="e_0_energy">     -0.00000000 </i>
  </energy>
  <time name="totalsc">    9.33    9.35</time>
 </calculation>
 <calculation>
  <scstep>
   <time name="dav">    1.46    1.46</time>
   <time name="total">    1.57    1.58</time>
   <energy>
    <i name="alphaZ">      5.17749809 </i>
    <i name="ewald">   1832.49484607 </i>
    <i name="hartreedc">  -2440.74361592 </i>
    <i name="XCdc">     13.99630089 </i>
    <i name="pawpsdc">   2067.73599843 </i>
    <i name="pawaedc">  -2035.41691604 </i>
    <i name="eentropy">     -0.00000000 </i>
    <i name="bandstr">   -168.86542276 </i>
    <i name="atom">    704.16778566 </i>
    <i name="e_fr_energy">    -21.45352558 </i>
    <i name="e_wo_entrp">    -21.45352558 </i>
    <i name="e_0_energy">    -21.45352558 </i>
   </energy>
  </scstep>
  <scstep>
   <time name="dav">    1.81    1.81</time>
   <time name="total">    1.92    1.93</time>
   <energy>
    <i name="e_fr_energy">    -21.45354325 </i>
    <i name="e_wo_entrp">    -21.45354325 </i>
    <i name="e_0_energy">    -21.45354325 </i>
   </energy>
  </scstep>
  <scstep>
   <time name="dav">    1.23    1.23</time>
   <time name="total">    1.34    1.35</time>
   <energy>
    <i name="e_fr_energy">    -21.45354302 </i>
    <i name="e_wo_entrp">    -21.45354302 </i>
    <i name="e_0_energy">    -21.45354302 </i>
   </energy>
  </scstep>
  <scstep>
   <time name="dav">    1.16    1.16</time>
   <time name="total">    1.27    1.27</time>
   <energy>
    <i name="e_fr_energy">    -21.45354341 </i>
    <i name="e_wo_entrp">    -21.45354341 </i>
    <i name="e_0_energy">    -21.45354341 </i>
   </energy>
  </scstep>
  <scstep>
   <time name="dav">    1.15    1.15</time>
   <time name="total">    1.27    1.27</time>
   <energy>
    <i name="e_fr_energy">    -21.45354338 </i>
    <i name="e_wo_entrp">    -21.45354338 </i>
    <i name="e_0_energy">    -21.45354338 </i>
   </energy>
  </scstep>
  <scstep>
   <time name="dav">    1.12    1.12</time>
   <time name="total">    1.14    1.14</time>
   <energy>
    <i name="alphaZ">      5.17749809 </i>
    <i name="ewald">   1832.49484607 </i>
    <i name="hartreedc">  -2440.74269742 </i>
    <i name="XCdc">     13.99669094 </i>
    <i name="pawpsdc">   2070.54446959 </i>
    <i name="pawaedc">  -2038.22637514 </i>
    <i name="eentropy">     -0.00000000 </i>
    <i name="bandstr">   -168.86576124 </i>
    <i name="atom">    704.16778566 </i>
    <i name="e_fr_energy">    -21.45354345 </i>
    <i name="e_wo_entrp">    -21.45354345 </i>
    <i name="e_0_energy">    -21.45354345 </i>
   </energy>
  </scstep>
  <structure>
   <crystal>
    <varray name="basis" >
     <v>       3.32184100       0.00000000       0.00000000 </v>
     <v>       0.00000000       4.65789700      -0.00005300 </v>
     <v>       0.00000000       0.00000000      20.02439000 </v>
    </varray>
    <i name="volume">    309.83324599 </i>
    <varray name="rec_basis" >
     <v>       0.30103789       0.00000000       0.00000000 </v>
     <v>       0.00000000       0.21468916       0.00000000 </v>
     <v>       0.00000000       0.00000057       0.04993910 </v>
    </varray>
   </crystal>
   <varray name="positions" >
    <v>       0.50000000       0.90933712       0.55233830 </v>
    <v>       0.50000000       0.09066288       0.44766170 </v>
    <v>       0.00000000       0.40933243       0.44766171 </v>
    <v>      -0.00000000       0.59066757       0.55233829 </v>
   </varray>
  </structure>
  <varray name="forces" >
   <v>       0.00000009       0.00060780       0.00001990 </v>
   <v>      -0.00000009      -0.00060780      -0.00001990 </v>
   <v>       0.00000003       0.00059381      -0.00002059 </v>
   <v>      -0.00000003      -0.00059381       0.00002059 </v>
  </varray>
  <varray name="stress" >
   <v>      -4.19599244       0.00000068       0.00000055 </v>
   <v>       0.00000065      -1.47006373       0.00013958 </v>
   <v>       0.00000053       0.00013961      -0.07643450 </v>
  </varray>
  <energy>
   <i name="e_fr_energy">    -21.45354345 </i>
   <i name="e_wo_entrp">    -21.45354345 </i>
   <i name="e_0_energy">     -0.00000000 </i>
  </energy>
  <time name="totalsc">    9.23    9.25</time>
  <eigenvalues>
   <array>
    <dimension dim="1">band</dimension>
    <dimension dim="2">kpoint</dimension>
    <dimension dim="3">spin</dimension>
    <field>eigene</field>
    <field>occ</field>
    <set>
     <set comment="spin 1">
      <set comment="kpoint 1">
       <r>  -17.2105    1.0000 </r>
       <r>  -14.7648    1.0000 </r>
       <r>  -11.5339    1.0000 </r>
       <r>   -7.9350    1.0000 </r>
       <r>   -7.0485    1.0000 </r>
       <r>   -6.7509    1.0000 </r>
       <r>   -5.7025    1.0000 </r>
       <r>   -4.1349    1.0000 </r>
       <r>   -3.9043    1.0000 </r>
       <r>   -2.3331    1.0000 </r>
       <r>   -1.3565    0.0000 </r>
       <r>   -0.7641    0.0000 </r>
       <r>    0.2237    0.0000 </r>
       <r>    0.8751    0.0000 </r>
       <r>    2.1064    0.0000 </r>
       <r>    2.2836    0.0000 </r>
      </set>
      <set comment="kpoint 2">
       <r>  -17.1840    1.0000 </r>
       <r>  -14.7371    1.0000 </r>
       <r>  -11.5437    1.0000 </r>
       <r>   -7.9150    1.0000 </r>
       <r>   -7.0692    1.0000 </r>
       <r>   -6.7276    1.0000 </r>
       <r>   -5.8711    1.0000 </r>
       <r>   -4.3117    1.0000 </r>
       <r>   -3.8948    1.0000 </r>
       <r>   -2.3345    1.0000 </r>
       <r>   -1.3318    0.0000 </r>
       <r>   -0.5266    0.0000 </r>
       <r>    0.4599    0.0000 </r>
       <r>    0.7160    0.0000 </r>
       <r>    2.1339    0.0000 </r>
       <r>    2.3132    0.0000 </r>
      </set>
      <set comment="kpoint 3">
       <r>  -17.1045    1.0000 </r>
       <r>  -14.6538    1.0000 </r>
       <r>  -11.5782    1.0000 </r>
       <r>   -7.8560    1.0000 </r>
       <r>   -7.1513    1.0000 </r>
       <r>   -6.6581    1.0000 </r>
       <r>   -6.2834    1.0000 </r>
       <r>   -4.7172    1.0000 </r>
       <r>   -3.8700    1.0000 </r>
       <r>   -2.3565    1.0000 </r>
       <r>   -1.2583    0.0000 </r>
       <r>    0.1106    0.0000 </r>
       <r>    0.3209    0.0000 </r>
       <r>    1.0396    0.0000 </r>
       <r>    2.2112    0.0000 </r>
       <r>    2.4019    0.0000 </r>
      </set>
      <set comment="kpoint 4">
       <r>  -16.9725    1.0000 </r>
       <r>  -14.5151    1.0000 </r>
       <r>  -11.6530    1.0000 </r>
       <r>   -7.7604    1.0000 </r>
       <r>   -7.3548    1.0000 </r>
       <r>   -6.7757    1.0000 </r>
       <r>   -6.5438    1.0000 </r>
       <r>   -5.1259    1.0000 </r>
       <r>   -3.8424    1.0000 </r>
       <r>   -2.4188    1.0000 </r>
       <r>   -1.1375    0.0000 </r>
       <r>   -0.1651    0.0000 </r>
       <r>    1.0021    0.0000 </r>
       <r>    1.6596    0.0000 </r>
       <r>    2.2664    0.0000 </r>
       <r>    2.5491    0.0000 </r>
      </set>
      <set comment="kpoint 5">
       <r>  -16.7885    1.0000 </r>
       <r>  -14.3215    1.0000 </r>
       <r>  -11.7919    1.0000 </r>
       <r>   -7.7420    1.0000 </r>
       <r>   -7.6331    1.0000 </r>
       <r>   -7.2266    1.0000 </r>
       <r>   -6.3871    1.0000 </r>
       <r>   -5.3759    1.0000 </r>
       <r>   -3.8357    1.0000 </r>
       <r>   -2.5317    1.0000 </r>
       <r>   -0.9728    0.0000 </r>
       <r>   -0.6270    0.0000 </r>
       <r>    1.7122    0.0000 </r>
       <r>    1.8620    0.0000 </r>
       <r>    2.0035    0.0000 </r>
       <r>    2.6480    0.0000 </r>
      </set>
      <set comment="kpoint 6">
       <r>  -16.5536    1.0000 </r>
       <r>  -14.0732    1.0000 </r>
       <r>  -12.0188    1.0000 </r>
       <r>   -8.2945    1.0000 </r>
       <r>   -7.5622    1.0000 </r>
       <r>   -7.4825    1.0000 </r>
       <r>   -6.1925    1.0000 </r>
       <r>   -5.4406    1.0000 </r>
       <r>   -3.8831    1.0000 </r>
       <r>   -2.7037    1.0000 </r>
       <r>   -0.9771    0.0000 </r>
       <r>   -0.7729    0.0000 </r>
       <r>    1.1776    0.0000 </r>
       <r>    1.2965    0.0000 </r>
       <r>    2.4895    0.0000 </r>
       <r>    2.8983    0.0000 </r>
      </set>
      <set comment="kpoint 7">
       <r>  -16.2692    1.0000 </r>
       <r>  -13.7709    1.0000 </r>
       <r>  -12.3437    1.0000 </r>
       <r>   -8.9347    1.0000 </r>
       <r>   -7.7489    1.0000 </r>
       <r>   -7.3234    1.0000 </r>
       <r>   -5.9666    1.0000 </r>
       <r>   -5.3811    1.0000 </r>
       <r>   -4.0082    1.0000 </r>
       <r>   -2.9370    1.0000 </r>
       <r>   -1.1531    0.0000 </r>
       <r>   -0.5649    0.0000 </r>
       <r>    0.5517    0.0000 </r>
       <r>    0.7771    0.0000 </r>
       <r>    2.0787    0.0000 </r>
       <r>    3.2225    0.0000 </r>
      </set>
      <set comment="kpoint 8">
       <r>  -15.9372    1.0000 </r>
       <r>  -13.4153    1.0000 </r>
       <r>  -12.7537    1.0000 </r>
       <r>   -9.6010    1.0000 </r>
       <r>   -7.7899    1.0000 </r>
       <r>   -7.1801    1.0000 </r>
       <r>   -5.7205    1.0000 </r>
       <r>   -5.2602    1.0000 </r>
       <r>   -4.1892    1.0000 </r>
       <r>   -3.2230    1.0000 </r>
       <r>   -1.1397    0.0000 </r>
       <r>   -0.4570    0.0000 </r>
       <r>   -0.0328    0.0000 </r>
       <r>    0.4480    0.0000 </r>
       <r>    1.5892    0.0000 </r>
       <r>    2.9703    0.0000 </r>
      </set>
      <set comment="kpoint 9">
       <r>  -15.5604    1.0000 </r>
       <r>  -13.2206    1.0000 </r>
       <r>  -13.0075    1.0000 </r>
       <r>  -10.2594    1.0000 </r>
       <r>   -7.7131    1.0000 </r>
       <r>   -7.0892    1.0000 </r>
       <r>   -5.4715    1.0000 </r>
       <r>   -5.1270    1.0000 </r>
       <r>   -4.3535    1.0000 </r>
       <r>   -3.5408    1.0000 </r>
       <r>   -0.9670    0.0000 </r>
       <r>   -0.6244    0.0000 </r>
       <r>   -0.5251    0.0000 </r>
       <r>    0.5121    0.0000 </r>
       <r>    1.0935    0.0000 </r>
       <r>    2.5696    0.0000 </r>
      </set>
      <set comment="kpoint 10">
       <r>  -15.1428    1.0000 </r>
       <r>  -13.7140    1.0000 </r>
       <r>  -12.5490    1.0000 </r>
       <r>  -10.8916    1.0000 </r>
       <r>   -7.5575    1.0000 </r>
       <r>   -7.0897    1.0000 </r>
       <r>   -5.2460    1.0000 </r>
       <r>   -5.0271    1.0000 </r>
       <r>   -4.4193    1.0000 </r>
       <r>   -3.8602    1.0000 </r>
       <r>   -0.8909    0.0000 </r>
       <r>   -0.8832    0.0000 </r>
       <r>   -0.6768    0.0000 </r>
       <r>    0.6020    0.0000 </r>
       <r>    0.8234    0.0000 </r>
       <r>    2.1217    0.0000 </r>
      </set>
      <set comment="kpoint 11">
       <r>  -14.6898    1.0000 </r>
       <r>  -14.2096    1.0000 </r>
       <r>  -12.0415    1.0000 </r>
       <r>  -11.4877    1.0000 </r>
       <r>   -7.3672    1.0000 </r>
       <r>   -7.1933    1.0000 </r>
       <r>   -5.0790    1.0000 </r>
       <r>   -5.0031    1.0000 </r>
       <r>   -4.3441    1.0000 </r>
       <r>   -4.1430    1.0000 </r>
       <r>   -1.0687    0.0000 </r>
       <r>   -1.0639    0.0000 </r>
       <r>   -0.3028    0.0000 </r>
       <r>    0.1303    0.0000 </r>
       <r>    1.2232    0.0000 </r>
       <r>    1.6642    0.0000 </r>
      </set>
      <set comment="kpoint 12">
       <r>  -17.1896    1.0000 </r>
       <r>  -14.7966    1.0000 </r>
       <r>  -11.5358    1.0000 </r>
       <r>   -8.1006    1.0000 </r>
       <r>   -6.9363    1.0000 </r>
       <r>   -6.6643    1.0000 </r>
       <r>   -5.6864    1.0000 </r>
       <r>   -4.1506    1.0000 </r>
       <r>   -3.8180    1.0000 </r>
       <r>   -2.5225    1.0000 </r>
       <r>   -1.1799    0.0000 </r>
       <r>   -0.7472    0.0000 </r>
       <r>    0.1768    0.0000 </r>
       <r>    0.8646    0.0000 </r>
       <r>    2.1624    0.0000 </r>
       <r>    2.3132    0.0000 </r>
      </set>
      <set comment="kpoint 13">
       <r>  -17.1630    1.0000 </r>
       <r>  -14.7690    1.0000 </r>
       <r>  -11.5443    1.0000 </r>
       <r>   -8.0852    1.0000 </r>
       <r>   -6.9505    1.0000 </r>
       <r>   -6.6505    1.0000 </r>
       <r>   -5.8459    1.0000 </r>
       <r>   -4.3332    1.0000 </r>
       <r>   -3.8086    1.0000 </r>
       <r>   -2.5201    1.0000 </r>
       <r>   -1.1590    0.0000 </r>
       <r>   -0.5104    0.0000 </r>
       <r>    0.4060    0.0000 </r>
       <r>    0.7176    0.0000 </r>
       <r>    2.1886    0.0000 </r>
       <r>    2.3427    0.0000 </r>
      </set>
      <set comment="kpoint 14">
       <r>  -17.0836    1.0000 </r>
       <r>  -14.6863    1.0000 </r>
       <r>  -11.5749    1.0000 </r>
       <r>   -8.0438    1.0000 </r>
       <r>   -7.0093    1.0000 </r>
       <r>   -6.6415    1.0000 </r>
       <r>   -6.2002    1.0000 </r>
       <r>   -4.7486    1.0000 </r>
       <r>   -3.7904    1.0000 </r>
       <r>   -2.5274    1.0000 </r>
       <r>   -1.1005    0.0000 </r>
       <r>    0.1257    0.0000 </r>
       <r>    0.3090    0.0000 </r>
       <r>    1.0156    0.0000 </r>
       <r>    2.2622    0.0000 </r>
       <r>    2.4311    0.0000 </r>
      </set>
      <set comment="kpoint 15">
       <r>  -16.9517    1.0000 </r>
       <r>  -14.5488    1.0000 </r>
       <r>  -11.6433    1.0000 </r>
       <r>   -7.9991    1.0000 </r>
       <r>   -7.1553    1.0000 </r>
       <r>   -6.8798    1.0000 </r>
       <r>   -6.3459    1.0000 </r>
       <r>   -5.1660    1.0000 </r>
       <r>   -3.7779    1.0000 </r>
       <r>   -2.5643    1.0000 </r>
       <r>   -1.0038    0.0000 </r>
       <r>   -0.1544    0.0000 </r>
       <r>    1.0118    0.0000 </r>
       <r>    1.6534    0.0000 </r>
       <r>    2.2579    0.0000 </r>
       <r>    2.5062    0.0000 </r>
      </set>
      <set comment="kpoint 16">
       <r>  -16.7679    1.0000 </r>
       <r>  -14.3571    1.0000 </r>
       <r>  -11.7734    1.0000 </r>
       <r>   -8.0510    1.0000 </r>
       <r>   -7.3619    1.0000 </r>
       <r>   -7.2919    1.0000 </r>
       <r>   -6.2376    1.0000 </r>
       <r>   -5.4184    1.0000 </r>
       <r>   -3.7951    1.0000 </r>
       <r>   -2.6466    1.0000 </r>
       <r>   -0.8677    0.0000 </r>
       <r>   -0.5878    0.0000 </r>
       <r>    1.6605    0.0000 </r>
       <r>    1.7723    0.0000 </r>
       <r>    2.0947    0.0000 </r>
       <r>    2.6147    0.0000 </r>
      </set>
      <set comment="kpoint 17">
       <r>  -16.5333    1.0000 </r>
       <r>  -14.1124    1.0000 </r>
       <r>  -11.9896    1.0000 </r>
       <r>   -8.4093    1.0000 </r>
       <r>   -7.6200    1.0000 </r>
       <r>   -7.4083    1.0000 </r>
       <r>   -6.0629    1.0000 </r>
       <r>   -5.4820    1.0000 </r>
       <r>   -3.8718    1.0000 </r>
       <r>   -2.7873    1.0000 </r>
       <r>   -0.9025    0.0000 </r>
       <r>   -0.6963    0.0000 </r>
       <r>    1.1201    0.0000 </r>
       <r>    1.2684    0.0000 </r>
       <r>    2.5655    0.0000 </r>
       <r>    2.9852    0.0000 </r>
      </set>
      <set comment="kpoint 18">
       <r>  -16.2492    1.0000 </r>
       <r>  -13.8178    1.0000 </r>
       <r>  -12.3009    1.0000 </r>
       <r>   -8.9910    1.0000 </r>
       <r>   -7.8041    1.0000 </r>
       <r>   -7.3081    1.0000 </r>
       <r>   -5.8550    1.0000 </r>
       <r>   -5.4285    1.0000 </r>
       <r>   -4.0184    1.0000 </r>
       <r>   -2.9914    1.0000 </r>
       <r>   -1.0452    0.0000 </r>
       <r>   -0.5153    0.0000 </r>
       <r>    0.6048    0.0000 </r>
       <r>    0.6486    0.0000 </r>
       <r>    2.2492    0.0000 </r>
       <r>    3.1915    0.0000 </r>
      </set>
      <set comment="kpoint 19">
       <r>  -15.9179    1.0000 </r>
       <r>  -13.4868    1.0000 </r>
       <r>  -12.6827    1.0000 </r>
       <r>   -9.6368    1.0000 </r>
       <r>   -7.8417    1.0000 </r>
       <r>   -7.1810    1.0000 </r>
       <r>   -5.6324    1.0000 </r>
       <r>   -5.3316    1.0000 </r>
       <r>   -4.1930    1.0000 </r>
       <r>   -3.2496    1.0000 </r>
       <r>   -1.0138    0.0000 </r>
       <r>   -0.4517    0.0000 </r>
       <r>    0.0642    0.0000 </r>
       <r>    0.3006    0.0000 </r>
       <r>    1.8057    0.0000 </r>
       <r>    2.9182    0.0000 </r>
      </set>
      <set comment="kpoint 20">
       <r>  -15.5420    1.0000 </r>
       <r>  -13.3224    1.0000 </r>
       <r>  -12.9046    1.0000 </r>
       <r>  -10.2856    1.0000 </r>
       <r>   -7.7593    1.0000 </r>
       <r>   -7.0929    1.0000 </r>
       <r>   -5.4194    1.0000 </r>
       <r>   -5.2487    1.0000 </r>
       <r>   -4.3093    1.0000 </r>
       <r>   -3.5365    1.0000 </r>
       <r>   -0.8626    0.0000 </r>
       <r>   -0.6749    0.0000 </r>
       <r>   -0.4098    0.0000 </r>
       <r>    0.3915    0.0000 </r>
       <r>    1.3527    0.0000 </r>
       <r>    2.5260    0.0000 </r>
      </set>
      <set comment="kpoint 21">
       <r>  -15.1259    1.0000 </r>
       <r>  -13.7206    1.0000 </r>
       <r>  -12.5410    1.0000 </r>
       <r>  -10.9119    1.0000 </r>
       <r>   -7.5954    1.0000 </r>
       <r>   -7.0961    1.0000 </r>
       <r>   -5.2510    1.0000 </r>
       <r>   -5.1987    1.0000 </r>
       <r>   -4.3083    1.0000 </r>
       <r>   -3.8152    1.0000 </r>
       <r>   -0.9496    0.0000 </r>
       <r>   -0.9060    0.0000 </r>
       <r>   -0.4561    0.0000 </r>
       <r>    0.5564    0.0000 </r>
       <r>    1.0279    0.0000 </r>
       <r>    2.0876    0.0000 </r>
      </set>
      <set comment="kpoint 22">
       <r>  -14.6756    1.0000 </r>
       <r>  -14.2010    1.0000 </r>
       <r>  -12.0493    1.0000 </r>
       <r>  -11.5026    1.0000 </r>
       <r>   -7.3942    1.0000 </r>
       <r>   -7.2083    1.0000 </r>
       <r>   -5.1644    1.0000 </r>
       <r>   -5.1626    1.0000 </r>
       <r>   -4.2115    1.0000 </r>
       <r>   -4.0467    1.0000 </r>
       <r>   -1.1076    0.0000 </r>
       <r>   -1.0902    0.0000 </r>
       <r>   -0.1207    0.0000 </r>
       <r>    0.2773    0.0000 </r>
       <r>    1.2375    0.0000 </r>
       <r>    1.6447    0.0000 </r>
      </set>
      <set comment="kpoint 23">
       <r>  -14.6756    1.0000 </r>
       <r>  -14.2010    1.0000 </r>
       <r>  -12.0493    1.0000 </r>
       <r>  -11.5026    1.0000 </r>
       <r>   -7.3942    1.0000 </r>
       <r>   -7.2083    1.0000 </r>
       <r>   -5.1644    1.0000 </r>
       <r>   -5.1626    1.0000 </r>
       <r>   -4.2115    1.0000 </r>
       <r>   -4.0467    1.0000 </r>
       <r>   -1.1076    0.0000 </r>
       <r>   -1.0902    0.0000 </r>
       <r>   -0.1207    0.0000 </r>
       <r>    0.2773    0.0000 </r>
       <r>    1.2375    0.0000 </r>
       <r>    1.6447    0.0000 </r>
      </set>
      <set comment="kpoint 24">
       <r>  -15.1259    1.0000 </r>
       <r>  -13.7206    1.0000 </r>
       <r>  -12.5410    1.0000 </r>
       <r>  -10.9119    1.0000 </r>
       <r>   -7.5954    1.0000 </r>
       <r>   -7.0961    1.0000 </r>
       <r>   -5.2510    1.0000 </r>
       <r>   -5.1987    1.0000 </r>
       <r>   -4.3083    1.0000 </r>
       <r>   -3.8152    1.0000 </r>
       <r>   -0.9496    0.0000 </r>
       <r>   -0.9060    0.0000 </r>
       <r>   -0.4561    0.0000 </r>
       <r>    0.5564    0.0000 </r>
       <r>    1.0279    0.0000 </r>
       <r>    2.0876    0.0000 </r>
      </set>
      <set comment="kpoint 25">
       <r>  -15.5420    1.0000 </r>
       <r>  -13.3224    1.0000 </r>
       <r>  -12.9046    1.0000 </r>
       <r>  -10.2856    1.0000 </r>
       <r>   -7.7593    1.0000 </r>
       <r>   -7.0929    1.0000 </r>
       <r>   -5.4194    1.0000 </r>
       <r>   -5.2487    1.0000 </r>
       <r>   -4.3093    1.0000 </r>
       <r>   -3.5365    1.0000 </r>
       <r>   -0.8626    0.0000 </r>
       <r>   -0.6749    0.0000 </r>
       <r>   -0.4098    0.0000 </r>
       <r>    0.3915    0.0000 </r>
       <r>    1.3527    0.0000 </r>
       <r>    2.5260    0.0000 </r>
      </set>
      <set comment="kpoint 26">
       <r>  -15.9179    1.0000 </r>
       <r>  -13.4868    1.0000 </r>
       <r>  -12.6827    1.0000 </r>
       <r>   -9.6368    1.0000 </r>
       <r>   -7.8417    1.0000 </r>
       <r>   -7.1810    1.0000 </r>
       <r>   -5.6324    1.0000 </r>
       <r>   -5.3316    1.0000 </r>
       <r>   -4.1930    1.0000 </r>
       <r>   -3.2496    1.0000 </r>
       <r>   -1.0138    0.0000 </r>
       <r>   -0.4517    0.0000 </r>
       <r>    0.0642    0.0000 </r>
       <r>    0.3006    0.0000 </r>
       <r>    1.8057    0.0000 </r>
       <r>    2.9182    0.0000 </r>
      </set>
      <set comment="kpoint 27">
       <r>  -16.2492    1.0000 </r>
       <r>  -13.8178    1.0000 </r>
       <r>  -12.3009    1.0000 </r>
       <r>   -8.9910    1.0000 </r>
       <r>   -7.8041    1.0000 </r>
       <r>   -7.3081    1.0000 </r>
       <r>   -5.8550    1.0000 </r>
       <r>   -5.4285    1.0000 </r>
       <r>   -4.0184    1.0000 </r>
       <r>   -2.9914    1.0000 </r>
       <r>   -1.0452    0.0000 </r>
       <r>   -0.5153    0.0000 </r>
       <r>    0.6048    0.0000 </r>
       <r>    0.6486    0.0000 </r>
       <r>    2.2492    0.0000 </r>
       <r>    3.1915    0.0000 </r>
      </set>
      <set comment="kpoint 28">
       <r>  -16.5333    1.0000 </r>
       <r>  -14.1124    1.0000 </r>
       <r>  -11.9896    1.0000 </r>
       <r>   -8.4093    1.0000 </r>
       <r>   -7.6200    1.0000 </r>
       <r>   -7.4083    1.0000 </r>
       <r>   -6.0629    1.0000 </r>
       <r>   -5.4820    1.0000 </r>
       <r>   -3.8718    1.0000 </r>
       <r>   -2.7873    1.0000 </r>
       <r>   -0.9025    0.0000 </r>
       <r>   -0.6963    0.0000 </r>
       <r>    1.1201    0.0000 </r>
       <r>    1.2684    0.0000 </r>
       <r>    2.5655    0.0000 </r>
       <r>    2.9852    0.0000 </r>
      </set>
      <set comment="kpoint 29">
       <r>  -16.7679    1.0000 </r>
       <r>  -14.3571    1.0000 </r>
       <r>  -11.7734    1.0000 </r>
       <r>   -8.0510    1.0000 </r>
       <r>   -7.3619    1.0000 </r>
       <r>   -7.2919    1.0000 </r>
       <r>   -6.2376    1.0000 </r>
       <r>   -5.4184    1.0000 </r>
       <r>   -3.7951    1.0000 </r>
       <r>   -2.6466    1.0000 </r>
       <r>   -0.8677    0.0000 </r>
       <r>   -0.5878    0.0000 </r>
       <r>    1.6605    0.0000 </r>
       <r>    1.7723    0.0000 </r>
       <r>    2.0947    0.0000 </r>
       <r>    2.6147    0.0000 </r>
      </set>
      <set comment="kpoint 30">
       <r>  -16.9517    1.0000 </r>
       <r>  -14.5488    1.0000 </r>
       <r>  -11.6433    1.0000 </r>
       <r>   -7.9991    1.0000 </r>
       <r>   -7.1553    1.0000 </r>
       <r>   -6.8798    1.0000 </r>
       <r>   -6.3459    1.0000 </r>
       <r>   -5.1660    1.0000 </r>
       <r>   -3.7779    1.0000 </r>
       <r>   -2.5643    1.0000 </r>
       <r>   -1.0038    0.0000 </r>
       <r>   -0.1544    0.0000 </r>
       <r>    1.0118    0.0000 </r>
       <r>    1.6534    0.0000 </r>
       <r>    2.2579    0.0000 </r>
       <r>    2.5062    0.0000 </r>
      </set>
      <set comment="kpoint 31">
       <r>  -17.0836    1.0000 </r>
       <r>  -14.6863    1.0000 </r>
       <r>  -11.5749    1.0000 </r>
       <r>   -8.0438    1.0000 </r>
       <r>   -7.0093    1.0000 </r>
       <r>   -6.6415    1.0000 </r>
       <r>   -6.2002    1.0000 </r>
       <r>   -4.7486    1.0000 </r>
       <r>   -3.7904    1.0000 </r>
       <r>   -2.5274    1.0000 </r>
       <r>   -1.1005    0.0000 </r>
       <r>    0.1257    0.0000 </r>
       <r>    0.3090    0.0000 </r>
       <r>    1.0156    0.0000 </r>
       <r>    2.2622    0.0000 </r>
       <r>    2.4311    0.0000 </r>
      </set>
      <set comment="kpoint 32">
       <r>  -17.1630    1.0000 </r>
       <r>  -14.7690    1.0000 </r>
       <r>  -11.5443    1.0000 </r>
       <r>   -8.0852    1.0000 </r>
       <r>   -6.9505    1.0000 </r>
       <r>   -6.6505    1.0000 </r>
       <r>   -5.8459    1.0000 </r>
       <r>   -4.3332    1.0000 </r>
       <r>   -3.8086    1.0000 </r>
       <r>   -2.5201    1.0000 </r>
       <r>   -1.1590    0.0000 </r>
       <r>   -0.5104    0.0000 </r>
       <r>    0.4060    0.0000 </r>
       <r>    0.7176    0.0000 </r>
       <r>    2.1886    0.0000 </r>
       <r>    2.3427    0.0000 </r>
      </set>
      <set comment="kpoint 33">
       <r>  -17.1270    1.0000 </r>
       <r>  -14.8908    1.0000 </r>
       <r>  -11.5318    1.0000 </r>
       <r>   -8.4607    1.0000 </r>
       <r>   -6.7188    1.0000 </r>
       <r>   -6.4162    1.0000 </r>
       <r>   -5.6384    1.0000 </r>
       <r>   -4.1980    1.0000 </r>
       <r>   -3.5854    1.0000 </r>
       <r>   -2.9076    1.0000 </r>
       <r>   -0.8287    0.0000 </r>
       <r>   -0.6974    0.0000 </r>
       <r>    0.0413    0.0000 </r>
       <r>    0.8408    0.0000 </r>
       <r>    2.3237    0.0000 </r>
       <r>    2.4012    0.0000 </r>
      </set>
      <set comment="kpoint 34">
       <r>  -17.1005    1.0000 </r>
       <r>  -14.8637    1.0000 </r>
       <r>  -11.5370    1.0000 </r>
       <r>   -8.4491    1.0000 </r>
       <r>   -6.7244    1.0000 </r>
       <r>   -6.4374    1.0000 </r>
       <r>   -5.7641    1.0000 </r>
       <r>   -4.3907    1.0000 </r>
       <r>   -3.5829    1.0000 </r>
       <r>   -2.9011    1.0000 </r>
       <r>   -0.8139    0.0000 </r>
       <r>   -0.4607    0.0000 </r>
       <r>    0.2658    0.0000 </r>
       <r>    0.7159    0.0000 </r>
       <r>    2.3466    0.0000 </r>
       <r>    2.4306    0.0000 </r>
      </set>
      <set comment="kpoint 35">
       <r>  -17.0213    1.0000 </r>
       <r>  -14.7826    1.0000 </r>
       <r>  -11.5577    1.0000 </r>
       <r>   -8.4197    1.0000 </r>
       <r>   -6.7573    1.0000 </r>
       <r>   -6.5900    1.0000 </r>
       <r>   -5.9637    1.0000 </r>
       <r>   -4.8292    1.0000 </r>
       <r>   -3.5881    1.0000 </r>
       <r>   -2.8912    1.0000 </r>
       <r>   -0.7732    0.0000 </r>
       <r>    0.1717    0.0000 </r>
       <r>    0.2934    0.0000 </r>
       <r>    0.9400    0.0000 </r>
       <r>    2.4088    0.0000 </r>
       <r>    2.5187    0.0000 </r>
      </set>
      <set comment="kpoint 36">
       <r>  -16.8897    1.0000 </r>
       <r>  -14.6479    1.0000 </r>
       <r>  -11.6092    1.0000 </r>
       <r>   -8.3950    1.0000 </r>
       <r>   -6.9704    1.0000 </r>
       <r>   -6.8678    1.0000 </r>
       <r>   -5.9839    1.0000 </r>
       <r>   -5.2683    1.0000 </r>
       <r>   -3.6202    1.0000 </r>
       <r>   -2.8942    1.0000 </r>
       <r>   -0.7066    0.0000 </r>
       <r>   -0.0999    0.0000 </r>
       <r>    1.0344    0.0000 </r>
       <r>    1.6150    0.0000 </r>
       <r>    2.0262    0.0000 </r>
       <r>    2.5225    0.0000 </r>
      </set>
      <set comment="kpoint 37">
       <r>  -16.7064    1.0000 </r>
       <r>  -14.4612    1.0000 </r>
       <r>  -11.7160    1.0000 </r>
       <r>   -8.4388    1.0000 </r>
       <r>   -7.3981    1.0000 </r>
       <r>   -7.0849    1.0000 </r>
       <r>   -5.8872    1.0000 </r>
       <r>   -5.5226    1.0000 </r>
       <r>   -3.7026    1.0000 </r>
       <r>   -2.9263    1.0000 </r>
       <r>   -0.6137    0.0000 </r>
       <r>   -0.4524    0.0000 </r>
       <r>    1.3032    0.0000 </r>
       <r>    1.9077    0.0000 </r>
       <r>    2.1881    0.0000 </r>
       <r>    2.6396    0.0000 </r>
      </set>
      <set comment="kpoint 38">
       <r>  -16.4726    1.0000 </r>
       <r>  -14.2251    1.0000 </r>
       <r>  -11.9041    1.0000 </r>
       <r>   -8.6764    1.0000 </r>
       <r>   -7.7348    1.0000 </r>
       <r>   -7.2657    1.0000 </r>
       <r>   -5.7415    1.0000 </r>
       <r>   -5.5791    1.0000 </r>
       <r>   -3.8511    1.0000 </r>
       <r>   -3.0045    1.0000 </r>
       <r>   -0.6766    0.0000 </r>
       <r>   -0.4961    0.0000 </r>
       <r>    0.7635    0.0000 </r>
       <r>    1.5105    0.0000 </r>
       <r>    2.6703    0.0000 </r>
       <r>    3.0659    0.0000 </r>
      </set>
      <set comment="kpoint 39">
       <r>  -16.1897    1.0000 </r>
       <r>  -13.9469    1.0000 </r>
       <r>  -12.1828    1.0000 </r>
       <r>   -9.1490    1.0000 </r>
       <r>   -7.9244    1.0000 </r>
       <r>   -7.2776    1.0000 </r>
       <r>   -5.5765    1.0000 </r>
       <r>   -5.5414    1.0000 </r>
       <r>   -4.0428    1.0000 </r>
       <r>   -3.1381    1.0000 </r>
       <r>   -0.7419    0.0000 </r>
       <r>   -0.3790    0.0000 </r>
       <r>    0.2739    0.0000 </r>
       <r>    0.9168    0.0000 </r>
       <r>    2.5358    0.0000 </r>
       <r>    3.0400    0.0000 </r>
      </set>
      <set comment="kpoint 40">
       <r>  -15.8602    1.0000 </r>
       <r>  -13.6534    1.0000 </r>
       <r>  -12.5172    1.0000 </r>
       <r>   -9.7420    1.0000 </r>
       <r>   -7.9605    1.0000 </r>
       <r>   -7.1900    1.0000 </r>
       <r>   -5.5059    1.0000 </r>
       <r>   -5.4207    1.0000 </r>
       <r>   -4.1994    1.0000 </r>
       <r>   -3.3178    1.0000 </r>
       <r>   -0.6690    0.0000 </r>
       <r>   -0.4649    0.0000 </r>
       <r>    0.0907    0.0000 </r>
       <r>    0.3367    0.0000 </r>
       <r>    2.2343    0.0000 </r>
       <r>    2.7767    0.0000 </r>
      </set>
      <set comment="kpoint 41">
       <r>  -15.4872    1.0000 </r>
       <r>  -13.4921    1.0000 </r>
       <r>  -12.7316    1.0000 </r>
       <r>  -10.3638    1.0000 </r>
       <r>   -7.8685    1.0000 </r>
       <r>   -7.1056    1.0000 </r>
       <r>   -5.5210    1.0000 </r>
       <r>   -5.3126    1.0000 </r>
       <r>   -4.2329    1.0000 </r>
       <r>   -3.5128    1.0000 </r>
       <r>   -0.7841    0.0000 </r>
       <r>   -0.5659    0.0000 </r>
       <r>   -0.0933    0.0000 </r>
       <r>    0.2670    0.0000 </r>
       <r>    1.8526    0.0000 </r>
       <r>    2.4056    0.0000 </r>
      </set>
      <set comment="kpoint 42">
       <r>  -15.0758    1.0000 </r>
       <r>  -13.7432    1.0000 </r>
       <r>  -12.5147    1.0000 </r>
       <r>  -10.9726    1.0000 </r>
       <r>   -7.6869    1.0000 </r>
       <r>   -7.1113    1.0000 </r>
       <r>   -5.5336    1.0000 </r>
       <r>   -5.2917    1.0000 </r>
       <r>   -4.1411    1.0000 </r>
       <r>   -3.6883    1.0000 </r>
       <r>   -1.0376    0.0000 </r>
       <r>   -0.7733    0.0000 </r>
       <r>   -0.0263    0.0000 </r>
       <r>    0.5004    0.0000 </r>
       <r>    1.4810    0.0000 </r>
       <r>    1.9963    0.0000 </r>
[...]
       <r>    3.2805    0.0000 </r>
       <r>    3.3604    0.0000 </r>
      </set>
      <set comment="kpoint 153">
       <r>  -15.3650    1.0000 </r>
       <r>  -15.1214    1.0000 </r>
       <r>  -10.9663    1.0000 </r>
       <r>  -10.6476    1.0000 </r>
       <r>   -7.9449    1.0000 </r>
       <r>   -7.7904    1.0000 </r>
       <r>   -5.3030    1.0000 </r>
       <r>   -5.0872    1.0000 </r>
       <r>   -3.8760    1.0000 </r>
       <r>   -3.7932    1.0000 </r>
       <r>    0.1960    0.0000 </r>
       <r>    0.5739    0.0000 </r>
       <r>    1.0574    0.0000 </r>
       <r>    1.3468    0.0000 </r>
       <r>    3.2293    0.0000 </r>
       <r>    3.3114    0.0000 </r>
      </set>
      <set comment="kpoint 154">
       <r>  -15.6301    1.0000 </r>
       <r>  -15.3815    1.0000 </r>
       <r>  -10.8001    1.0000 </r>
       <r>  -10.4721    1.0000 </r>
       <r>   -7.6424    1.0000 </r>
       <r>   -7.4853    1.0000 </r>
       <r>   -5.1676    1.0000 </r>
       <r>   -4.8981    1.0000 </r>
       <r>   -3.8014    1.0000 </r>
       <r>   -3.7700    1.0000 </r>
       <r>    0.2091    0.0000 </r>
       <r>    0.4987    0.0000 </r>
       <r>    1.1672    0.0000 </r>
       <r>    1.4971    0.0000 </r>
       <r>    2.9053    0.0000 </r>
       <r>    3.1681    0.0000 </r>
      </set>
      <set comment="kpoint 155">
       <r>  -15.8529    1.0000 </r>
       <r>  -15.6016    1.0000 </r>
       <r>  -10.7460    1.0000 </r>
       <r>  -10.4196    1.0000 </r>
       <r>   -7.1479    1.0000 </r>
       <r>   -6.9801    1.0000 </r>
       <r>   -5.1704    1.0000 </r>
       <r>   -4.8588    1.0000 </r>
       <r>   -3.7324    1.0000 </r>
       <r>   -3.5739    1.0000 </r>
       <r>    0.3089    0.0000 </r>
       <r>    0.4845    0.0000 </r>
       <r>    1.1831    0.0000 </r>
       <r>    1.5418    0.0000 </r>
       <r>    2.2787    0.0000 </r>
       <r>    2.5146    0.0000 </r>
      </set>
      <set comment="kpoint 156">
       <r>  -16.0292    1.0000 </r>
       <r>  -15.7764    1.0000 </r>
       <r>  -10.7557    1.0000 </r>
       <r>  -10.4344    1.0000 </r>
       <r>   -6.5318    1.0000 </r>
       <r>   -6.3527    1.0000 </r>
       <r>   -5.2286    1.0000 </r>
       <r>   -4.8977    1.0000 </r>
       <r>   -3.6731    1.0000 </r>
       <r>   -3.3993    1.0000 </r>
       <r>    0.4346    0.0000 </r>
       <r>    0.4898    0.0000 </r>
       <r>    1.1054    0.0000 </r>
       <r>    1.3966    0.0000 </r>
       <r>    1.6965    0.0000 </r>
       <r>    1.7889    0.0000 </r>
      </set>
      <set comment="kpoint 157">
       <r>  -16.1565    1.0000 </r>
       <r>  -15.9029    1.0000 </r>
       <r>  -10.7868    1.0000 </r>
       <r>  -10.4699    1.0000 </r>
       <r>   -5.8757    1.0000 </r>
       <r>   -5.6945    1.0000 </r>
       <r>   -5.2867    1.0000 </r>
       <r>   -4.9524    1.0000 </r>
       <r>   -3.6938    1.0000 </r>
       <r>   -3.3220    1.0000 </r>
       <r>    0.2594    0.0000 </r>
       <r>    0.2752    0.0000 </r>
       <r>    1.0610    0.0000 </r>
       <r>    1.1069    0.0000 </r>
       <r>    1.4310    0.0000 </r>
       <r>    1.5684    0.0000 </r>
      </set>
      <set comment="kpoint 158">
       <r>  -16.2334    1.0000 </r>
       <r>  -15.9794    1.0000 </r>
       <r>  -10.8136    1.0000 </r>
       <r>  -10.4995    1.0000 </r>
       <r>   -5.3533    1.0000 </r>
       <r>   -5.2898    1.0000 </r>
       <r>   -5.0941    1.0000 </r>
       <r>   -4.9930    1.0000 </r>
       <r>   -3.8147    1.0000 </r>
       <r>   -3.3643    1.0000 </r>
       <r>   -0.1699    0.0000 </r>
       <r>   -0.1301    0.0000 </r>
       <r>    1.1381    0.0000 </r>
       <r>    1.1482    0.0000 </r>
       <r>    1.3867    0.0000 </r>
       <r>    1.5177    0.0000 </r>
      </set>
     </set>
    </set>
   </array>
  </eigenvalues>
  <separator name="orbital magnetization" >
   <v name="MAGDIPOLOUT">      0.00000000      0.00000000      0.00000000</v>
  </separator>
  <dos>
   <i name="efermi">     -2.23379275 </i>
   <total>
    <array>
     <dimension dim="1">gridpoints</dimension>
     <dimension dim="2">spin</dimension>
     <field>energy</field>
     <field>total</field>
     <field>integrated</field>
     <set>
      <set comment="spin 1">
       <r>   -18.2499     0.0000     0.0000 </r>
       <r>   -18.1737     0.0000     0.0000 </r>
       <r>   -18.0975     0.0000     0.0000 </r>
       <r>   -18.0213     0.0000     0.0000 </r>
       <r>   -17.9450     0.0000     0.0000 </r>
       <r>   -17.8688     0.0000     0.0000 </r>
       <r>   -17.7926     0.0000     0.0000 </r>
       <r>   -17.7164     0.0000     0.0000 </r>
       <r>   -17.6401     0.0000     0.0000 </r>
       <r>   -17.5639     0.0000     0.0000 </r>
       <r>   -17.4877     0.0000     0.0000 </r>
       <r>   -17.4115     0.0000     0.0000 </r>
       <r>   -17.3353     0.0000     0.0000 </r>
       <r>   -17.2590     0.0000     0.0000 </r>
       <r>   -17.1828     0.3109     0.0237 </r>
       <r>   -17.1066     0.7949     0.0843 </r>
       <r>   -17.0304     0.7869     0.1443 </r>
       <r>   -16.9542     0.9851     0.2194 </r>
       <r>   -16.8779     0.9237     0.2898 </r>
       <r>   -16.8017     0.5450     0.3313 </r>
       <r>   -16.7255     1.1082     0.4158 </r>
       <r>   -16.6493     0.9311     0.4867 </r>
       <r>   -16.5730     0.8631     0.5525 </r>
       <r>   -16.4968     0.6080     0.5989 </r>
       <r>   -16.4206     1.3955     0.7052 </r>
       <r>   -16.3444     0.6524     0.7550 </r>
       <r>   -16.2682     0.6111     0.8015 </r>
       <r>   -16.1919     1.5429     0.9191 </r>
       <r>   -16.1157     0.5388     0.9602 </r>
       <r>   -16.0395     1.0422     1.0396 </r>
       <r>   -15.9633     0.8437     1.1040 </r>
       <r>   -15.8870     1.0654     1.1852 </r>
       <r>   -15.8108     1.0484     1.2651 </r>
       <r>   -15.7346     1.1265     1.3509 </r>
       <r>   -15.6584     0.4104     1.3822 </r>
       <r>   -15.5822     1.4889     1.4957 </r>
       <r>   -15.5059     0.9025     1.5645 </r>
       <r>   -15.4297     1.2121     1.6569 </r>
       <r>   -15.3535     1.3105     1.7568 </r>
       <r>   -15.2773     0.7145     1.8112 </r>
       <r>   -15.2010     1.1142     1.8962 </r>
       <r>   -15.1248     1.0640     1.9773 </r>
       <r>   -15.0486     1.8109     2.1153 </r>
       <r>   -14.9724     1.1397     2.2022 </r>
       <r>   -14.8962     0.8131     2.2641 </r>
       <r>   -14.8199     1.9930     2.4160 </r>
       <r>   -14.7437     1.7031     2.5459 </r>
       <r>   -14.6675     1.1766     2.6355 </r>
       <r>   -14.5913     2.2027     2.8034 </r>
       <r>   -14.5150     1.4120     2.9111 </r>
       <r>   -14.4388     0.8704     2.9774 </r>
       <r>   -14.3626     1.1775     3.0671 </r>
       <r>   -14.2864     1.3700     3.1716 </r>
       <r>   -14.2102     1.0194     3.2493 </r>
       <r>   -14.1339     1.5565     3.3679 </r>
       <r>   -14.0577     2.9197     3.5904 </r>
       <r>   -13.9815     0.1277     3.6002 </r>
       <r>   -13.9053     0.5943     3.6455 </r>
       <r>   -13.8291     1.0524     3.7257 </r>
       <r>   -13.7528     0.8347     3.7893 </r>
       <r>   -13.6766     0.9736     3.8635 </r>
       <r>   -13.6004     0.4575     3.8984 </r>
       <r>   -13.5242     0.0053     3.8988 </r>
       <r>   -13.4479     0.6616     3.9492 </r>
       <r>   -13.3717     0.1661     3.9619 </r>
       <r>   -13.2955     0.3238     3.9866 </r>
       <r>   -13.2193     0.0989     3.9941 </r>
       <r>   -13.1431     0.0772     4.0000 </r>
       <r>   -13.0668     0.0000     4.0000 </r>
       <r>   -12.9906     0.1473     4.0112 </r>
       <r>   -12.9144     0.1004     4.0189 </r>
       <r>   -12.8382     0.2521     4.0381 </r>
       <r>   -12.7619     0.0520     4.0421 </r>
       <r>   -12.6857     0.5861     4.0867 </r>
       <r>   -12.6095     0.1949     4.1016 </r>
       <r>   -12.5333     0.6715     4.1528 </r>
       <r>   -12.4571     1.0599     4.2336 </r>
       <r>   -12.3808     0.2936     4.2559 </r>
       <r>   -12.3046     0.9590     4.3290 </r>
       <r>   -12.2284     0.6807     4.3809 </r>
       <r>   -12.1522     1.0105     4.4579 </r>
       <r>   -12.0759     1.9388     4.6057 </r>
       <r>   -11.9997     1.6917     4.7347 </r>
       <r>   -11.9235     1.0325     4.8134 </r>
       <r>   -11.8473     0.6843     4.8655 </r>
       <r>   -11.7711     1.4996     4.9798 </r>
       <r>   -11.6948     1.2690     5.0765 </r>
       <r>   -11.6186     1.0753     5.1585 </r>
       <r>   -11.5424     3.4334     5.4202 </r>
       <r>   -11.4662     2.9504     5.6451 </r>
       <r>   -11.3900     1.3774     5.7501 </r>
       <r>   -11.3137     0.9514     5.8226 </r>
       <r>   -11.2375     2.0730     5.9806 </r>
       <r>   -11.1613     0.4211     6.0127 </r>
       <r>   -11.0851     0.8148     6.0748 </r>
       <r>   -11.0088     1.6478     6.2004 </r>
       <r>   -10.9326     1.0501     6.2804 </r>
       <r>   -10.8564     0.7907     6.3407 </r>
       <r>   -10.7802     1.0747     6.4226 </r>
       <r>   -10.7040     0.7888     6.4827 </r>
       <r>   -10.6277     0.9684     6.5566 </r>
       <r>   -10.5515     0.0289     6.5588 </r>
       <r>   -10.4753     1.0322     6.6374 </r>
       <r>   -10.3991     1.1742     6.7269 </r>
       <r>   -10.3228     0.7506     6.7841 </r>
       <r>   -10.2466     0.6762     6.8357 </r>
       <r>   -10.1704     0.0493     6.8394 </r>
       <r>   -10.0942     1.4354     6.9489 </r>
       <r>   -10.0180     0.7180     7.0036 </r>
       <r>    -9.9417     0.3317     7.0289 </r>
       <r>    -9.8655     0.3291     7.0539 </r>
       <r>    -9.7893     0.0022     7.0541 </r>
       <r>    -9.7131     1.2854     7.1521 </r>
       <r>    -9.6368     1.3721     7.2567 </r>
       <r>    -9.5606     0.3390     7.2825 </r>
       <r>    -9.4844     0.0004     7.2825 </r>
       <r>    -9.4082     0.0193     7.2840 </r>
       <r>    -9.3320     0.7281     7.3395 </r>
       <r>    -9.2557     1.1325     7.4258 </r>
       <r>    -9.1795     0.2911     7.4480 </r>
       <r>    -9.1033     0.3278     7.4730 </r>
       <r>    -9.0271     0.0466     7.4765 </r>
       <r>    -8.9508     0.6404     7.5254 </r>
       <r>    -8.8746     0.4652     7.5608 </r>
       <r>    -8.7984     1.1663     7.6497 </r>
       <r>    -8.7222     0.0144     7.6508 </r>
       <r>    -8.6460     0.3278     7.6758 </r>
       <r>    -8.5697     0.0052     7.6762 </r>
       <r>    -8.4935     0.0020     7.6763 </r>
       <r>    -8.4173     1.1093     7.7609 </r>
       <r>    -8.3411     0.7214     7.8159 </r>
       <r>    -8.2649     0.1635     7.8283 </r>
       <r>    -8.1886     0.1344     7.8386 </r>
       <r>    -8.1124     1.2068     7.9306 </r>
       <r>    -8.0362     3.0801     8.1653 </r>
       <r>    -7.9600     1.6240     8.2891 </r>
       <r>    -7.8837     1.5289     8.4057 </r>
       <r>    -7.8075     2.9948     8.6339 </r>
       <r>    -7.7313     2.7916     8.8467 </r>
       <r>    -7.6551     1.4060     8.9539 </r>
       <r>    -7.5789     1.6412     9.0790 </r>
       <r>    -7.5026     1.8799     9.2223 </r>
       <r>    -7.4264     2.4878     9.4119 </r>
       <r>    -7.3502     2.3295     9.5895 </r>
       <r>    -7.2740     3.8115     9.8800 </r>
       <r>    -7.1977     3.3425    10.1347 </r>
       <r>    -7.1215     3.6917    10.4161 </r>
       <r>    -7.0453     2.4959    10.6064 </r>
       <r>    -6.9691     1.1630    10.6950 </r>
       <r>    -6.8929     1.1184    10.7803 </r>
       <r>    -6.8166     1.4479    10.8906 </r>
       <r>    -6.7404     1.1173    10.9758 </r>
       <r>    -6.6642     2.3121    11.1520 </r>
       <r>    -6.5880     1.3842    11.2575 </r>
       <r>    -6.5117     1.1503    11.3452 </r>
       <r>    -6.4355     2.3076    11.5211 </r>
       <r>    -6.3593     1.3458    11.6237 </r>
       <r>    -6.2831     0.8785    11.6906 </r>
       <r>    -6.2069     2.4209    11.8752 </r>
       <r>    -6.1306     2.4012    12.0582 </r>
       <r>    -6.0544     0.9508    12.1306 </r>
       <r>    -5.9782     1.6075    12.2532 </r>
       <r>    -5.9020     1.4312    12.3623 </r>
       <r>    -5.8258     3.0096    12.5917 </r>
       <r>    -5.7495     1.8470    12.7325 </r>
       <r>    -5.6733     3.2299    12.9786 </r>
       <r>    -5.5971     4.4061    13.3145 </r>
       <r>    -5.5209     3.4835    13.5800 </r>
       <r>    -5.4446     3.1646    13.8212 </r>
       <r>    -5.3684     4.1464    14.1373 </r>
       <r>    -5.2922     2.8354    14.3534 </r>
       <r>    -5.2160     3.9739    14.6563 </r>
       <r>    -5.1398     2.8482    14.8734 </r>
       <r>    -5.0635     2.1814    15.0396 </r>
       <r>    -4.9873     1.4422    15.1496 </r>
       <r>    -4.9111     2.1067    15.3101 </r>
       <r>    -4.8349     1.8223    15.4490 </r>
       <r>    -4.7586     0.7851    15.5089 </r>
       <r>    -4.6824     0.8274    15.5720 </r>
       <r>    -4.6062     1.5258    15.6883 </r>
       <r>    -4.5300     1.9773    15.8390 </r>
       <r>    -4.4538     0.6598    15.8893 </r>
       <r>    -4.3775     0.6052    15.9354 </r>
       <r>    -4.3013     1.6749    16.0631 </r>
       <r>    -4.2251     0.7929    16.1235 </r>
       <r>    -4.1489     3.3740    16.3807 </r>
       <r>    -4.0726     1.8620    16.5226 </r>
       <r>    -3.9964     2.9529    16.7477 </r>
       <r>    -3.9202     1.9734    16.8981 </r>
       <r>    -3.8440     3.1543    17.1385 </r>
       <r>    -3.7678     6.1573    17.6078 </r>
       <r>    -3.6915     2.9827    17.8352 </r>
       <r>    -3.6153     2.8476    18.0522 </r>
       <r>    -3.5391     3.6523    18.3306 </r>
       <r>    -3.4629     3.2565    18.5788 </r>
       <r>    -3.3866     3.7377    18.8637 </r>
       <r>    -3.3104     3.7831    19.1521 </r>
       <r>    -3.2342     2.7743    19.3636 </r>
       <r>    -3.1580     0.4679    19.3992 </r>
       <r>    -3.0818     0.8769    19.4661 </r>
       <r>    -3.0055     1.5197    19.5819 </r>
       <r>    -2.9293     0.9814    19.6567 </r>
       <r>    -2.8531     1.7532    19.7903 </r>
       <r>    -2.7769     0.2583    19.8100 </r>
       <r>    -2.7007     0.1745    19.8233 </r>
       <r>    -2.6244     0.3827    19.8525 </r>
       <r>    -2.5482     0.3679    19.8805 </r>
       <r>    -2.4720     0.9843    19.9555 </r>
       <r>    -2.3958     0.1586    19.9676 </r>
       <r>    -2.3195     0.3858    19.9970 </r>
       <r>    -2.2433     0.0389    20.0000 </r>
       <r>    -2.1671     0.0000    20.0000 </r>
       <r>    -2.0909     0.0000    20.0000 </r>
       <r>    -2.0147     0.0000    20.0000 </r>
       <r>    -1.9384     0.0000    20.0000 </r>
       <r>    -1.8622     0.0000    20.0000 </r>
       <r>    -1.7860     0.0000    20.0000 </r>
       <r>    -1.7098     0.0000    20.0000 </r>
       <r>    -1.6335     0.0000    20.0000 </r>
       <r>    -1.5573     0.0000    20.0000 </r>
       <r>    -1.4811     0.0000    20.0000 </r>
       <r>    -1.4049     0.0000    20.0000 </r>
       <r>    -1.3287     0.1793    20.0137 </r>
       <r>    -1.2524     0.1807    20.0274 </r>
       <r>    -1.1762     0.2039    20.0430 </r>
       <r>    -1.1000     1.6700    20.1703 </r>
       <r>    -1.0238     1.9792    20.3211 </r>
       <r>    -0.9475     1.8646    20.4633 </r>
       <r>    -0.8713     1.3716    20.5678 </r>
       <r>    -0.7951     2.0143    20.7213 </r>
       <r>    -0.7189     2.2185    20.8904 </r>
       <r>    -0.6427     2.1838    21.0569 </r>
       <r>    -0.5664     1.6822    21.1851 </r>
       <r>    -0.4902     2.6881    21.3900 </r>
       <r>    -0.4140     4.0335    21.6975 </r>
       <r>    -0.3378     2.1088    21.8582 </r>
       <r>    -0.2616     2.5452    22.0522 </r>
       <r>    -0.1853     2.3244    22.2294 </r>
       <r>    -0.1091     3.8932    22.5261 </r>
       <r>    -0.0329     2.1915    22.6931 </r>
       <r>     0.0433     2.9952    22.9214 </r>
       <r>     0.1196     3.5083    23.1889 </r>
       <r>     0.1958     3.0240    23.4193 </r>
       <r>     0.2720     4.1468    23.7354 </r>
       <r>     0.3482     5.3119    24.1403 </r>
       <r>     0.4244     5.0379    24.5243 </r>
       <r>     0.5007     3.8966    24.8213 </r>
       <r>     0.5769     3.1790    25.0636 </r>
       <r>     0.6531     3.2516    25.3115 </r>
       <r>     0.7293     4.3969    25.6466 </r>
       <r>     0.8056     3.4682    25.9110 </r>
       <r>     0.8818     3.6344    26.1880 </r>
       <r>     0.9580     3.5822    26.4610 </r>
       <r>     1.0342     2.0064    26.6140 </r>
       <r>     1.1104     2.4211    26.7985 </r>
       <r>     1.1867     3.7194    27.0820 </r>
       <r>     1.2629     1.4367    27.1915 </r>
       <r>     1.3391     3.1542    27.4319 </r>
       <r>     1.4153     2.4928    27.6219 </r>
       <r>     1.4916     1.2934    27.7205 </r>
       <r>     1.5678     2.3605    27.9004 </r>
       <r>     1.6440     2.5968    28.0984 </r>
       <r>     1.7202     2.5752    28.2947 </r>
       <r>     1.7964     2.2656    28.4673 </r>
       <r>     1.8727     2.9295    28.6906 </r>
       <r>     1.9489     1.5485    28.8087 </r>
       <r>     2.0251     1.9989    28.9610 </r>
       <r>     2.1013     2.3165    29.1376 </r>
       <r>     2.1776     1.7799    29.2733 </r>
       <r>     2.2538     2.8878    29.4934 </r>
       <r>     2.3300     3.0729    29.7276 </r>
       <r>     2.4062     1.9462    29.8759 </r>
       <r>     2.4824     2.6490    30.0779 </r>
       <r>     2.5587     3.8144    30.3686 </r>
       <r>     2.6349     3.8389    30.6612 </r>
       <r>     2.7111     2.8097    30.8754 </r>
       <r>     2.7873     1.6565    31.0016 </r>
       <r>     2.8635     1.1824    31.0917 </r>
       <r>     2.9398     3.1562    31.3323 </r>
       <r>     3.0160     1.1561    31.4204 </r>
       <r>     3.0922     1.7532    31.5541 </r>
       <r>     3.1684     0.6925    31.6069 </r>
       <r>     3.2447     2.6852    31.8115 </r>
       <r>     3.3209     0.7296    31.8671 </r>
       <r>     3.3971     1.0340    31.9459 </r>
       <r>     3.4733     0.3746    31.9745 </r>
       <r>     3.5495     0.0097    31.9752 </r>
       <r>     3.6258     0.3248    32.0000 </r>
       <r>     3.7020     0.0001    32.0000 </r>
       <r>     3.7782     0.0000    32.0000 </r>
       <r>     3.8544     0.0000    32.0000 </r>
       <r>     3.9307     0.0000    32.0000 </r>
       <r>     4.0069     0.0000    32.0000 </r>
       <r>     4.0831     0.0000    32.0000 </r>
       <r>     4.1593     0.0000    32.0000 </r>
       <r>     4.2355     0.0000    32.0000 </r>
       <r>     4.3118     0.0000    32.0000 </r>
       <r>     4.3880     0.0000    32.0000 </r>
       <r>     4.4642     0.0000    32.0000 </r>
       <r>     4.5404     0.0000    32.0000 </r>
       <r>     4.6167     0.0000    32.0000 </r>
      </set>
     </set>
    </array>
   </total>
  </dos>
 </calculation>
 <structure name="finalpos" >
  <crystal>
   <varray name="basis" >
    <v>       3.32184100       0.00000000       0.00000000 </v>
    <v>       0.00000000       4.65789700      -0.00005300 </v>
    <v>       0.00000000       0.00000000      20.02439000 </v>
   </varray>
   <i name="volume">    309.83324599 </i>
   <varray name="rec_basis" >
    <v>       0.30103789       0.00000000       0.00000000 </v>
    <v>       0.00000000       0.21468916       0.00000000 </v>
    <v>       0.00000000       0.00000057       0.04993910 </v>
   </varray>
  </crystal>
  <varray name="positions" >
   <v>       0.50000000       0.90933712       0.55233830 </v>
   <v>       0.50000000       0.09066288       0.44766170 </v>
   <v>       0.00000000       0.40933243       0.44766171 </v>
   <v>      -0.00000000       0.59066757       0.55233829 </v>
  </varray>
 </structure>
</modeling>
