<?xml version="1.0" encoding="ISO-8859-1"?>
<modeling>
 <generator>
  <i name="program" type="string">vasp </i>
  <i name="version" type="string">5.4.1  </i>
  <i name="subversion" type="string">24Jun15 (build Nov 20 2020 10:29:34) complex                          parallel </i>
  <i name="platform" type="string">IFC91_ompi </i>
  <i name="date" type="string">2021 09 13 </i>
  <i name="time" type="string">23:29:57 </i>
 </generator>
 <incar>
  <i type="int" name="ISTART">     1</i>
  <i type="string" name="PREC">a</i>
  <i type="string" name="ALGO"> Normal</i>
  <i type="int" name="ISPIN">     1</i>
  <i type="int" name="ICHARG">     2</i>
  <i type="int" name="NELM">   250</i>
  <i type="int" name="NELMDL">    -5</i>
  <i type="int" name="NELMIN">     6</i>
  <i type="int" name="IBRION">     2</i>
  <i name="EDIFF">      0.00001000</i>
  <i name="EDIFFG">     -0.00500000</i>
  <i type="int" name="NSW">     0</i>
  <i type="int" name="ISIF">     2</i>
  <i name="ENCUT">    520.00000000</i>
  <i name="POTIM">      0.25000000</i>
  <v name="MAGMOM">      0.60000000      0.60000000</v>
  <i type="string" name="LREAL"> Auto</i>
  <i type="int" name="ISMEAR">     0</i>
  <i name="SIGMA">      0.02000000</i>
  <i type="logical" name="LWAVE"> F  </i>
  <i type="logical" name="LCHARG"> F  </i>
  <i type="logical" name="LVHAR"> F  </i>
  <v type="int" name="KPOINT_BSE">    -1     0     0     0</v>
  <i type="int" name="NELM">   250</i>
 </incar>
 <kpoints>
  <generation param="Gamma">
   <v type="int" name="divisions">      24       24        1 </v>
   <v name="usershift">      0.00000000       0.00000000       0.00000000 </v>
   <v name="genvec1">      0.04166667       0.00000000       0.00000000 </v>
   <v name="genvec2">      0.00000000       0.04166667       0.00000000 </v>
   <v name="genvec3">      0.00000000       0.00000000       1.00000000 </v>
   <v name="shift">      0.00000000       0.00000000       0.00000000 </v>
  </generation>
  <varray name="kpointlist" >
   <v>       0.00000000       0.00000000       0.00000000 </v>
   <v>       0.04166667       0.00000000       0.00000000 </v>
   <v>       0.08333333       0.00000000       0.00000000 </v>
   <v>       0.12500000       0.00000000       0.00000000 </v>
   <v>       0.16666667      -0.00000000       0.00000000 </v>
   <v>       0.20833333       0.00000000       0.00000000 </v>
   <v>       0.25000000       0.00000000       0.00000000 </v>
   <v>       0.29166667       0.00000000       0.00000000 </v>
   <v>       0.33333333       0.00000000       0.00000000 </v>
   <v>       0.37500000       0.00000000       0.00000000 </v>
   <v>       0.41666667       0.00000000       0.00000000 </v>
   <v>       0.45833333       0.00000000       0.00000000 </v>
   <v>       0.50000000       0.00000000       0.00000000 </v>
   <v>       0.00000000       0.04166667       0.00000000 </v>
   <v>       0.04166667       0.04166667       0.00000000 </v>
   <v>       0.08333333       0.04166667       0.00000000 </v>
   <v>       0.12500000       0.04166667       0.00000000 </v>
   <v>       0.16666667       0.04166667       0.00000000 </v>
   <v>       0.20833333       0.04166667       0.00000000 </v>
   <v>       0.25000000       0.04166667       0.00000000 </v>
   <v>       0.29166667       0.04166667       0.00000000 </v>
   <v>       0.33333333       0.04166667       0.00000000 </v>
   <v>       0.37500000       0.04166667       0.00000000 </v>
   <v>       0.41666667       0.04166667       0.00000000 </v>
   <v>       0.45833333       0.04166667       0.00000000 </v>
   <v>       0.50000000       0.04166667       0.00000000 </v>
   <v>      -0.45833333       0.04166667       0.00000000 </v>
   <v>      -0.41666667       0.04166667       0.00000000 </v>
   <v>      -0.37500000       0.04166667       0.00000000 </v>
   <v>      -0.33333333       0.04166667       0.00000000 </v>
   <v>      -0.29166667       0.04166667       0.00000000 </v>
   <v>      -0.25000000       0.04166667       0.00000000 </v>
   <v>      -0.20833333       0.04166667       0.00000000 </v>
   <v>      -0.16666667       0.04166667       0.00000000 </v>
   <v>      -0.12500000       0.04166667       0.00000000 </v>
   <v>      -0.08333333       0.04166667       0.00000000 </v>
   <v>      -0.04166667       0.04166667       0.00000000 </v>
   <v>       0.00000000       0.08333333       0.00000000 </v>
   <v>       0.04166667       0.08333333       0.00000000 </v>
   <v>       0.08333333       0.08333333       0.00000000 </v>
   <v>       0.12500000       0.08333333       0.00000000 </v>
   <v>       0.16666667       0.08333333       0.00000000 </v>
   <v>       0.20833333       0.08333333       0.00000000 </v>
   <v>       0.25000000       0.08333333       0.00000000 </v>
   <v>       0.29166667       0.08333333       0.00000000 </v>
   <v>       0.33333333       0.08333333       0.00000000 </v>
   <v>       0.37500000       0.08333333       0.00000000 </v>
   <v>       0.41666667       0.08333333       0.00000000 </v>
   <v>       0.45833333       0.08333333       0.00000000 </v>
   <v>       0.50000000       0.08333333       0.00000000 </v>
   <v>      -0.45833333       0.08333333       0.00000000 </v>
   <v>      -0.41666667       0.08333333       0.00000000 </v>
   <v>      -0.37500000       0.08333333       0.00000000 </v>
   <v>      -0.33333333       0.08333333       0.00000000 </v>
   <v>      -0.29166667       0.08333333       0.00000000 </v>
   <v>      -0.25000000       0.08333333       0.00000000 </v>
   <v>      -0.20833333       0.08333333       0.00000000 </v>
   <v>      -0.16666667       0.08333333       0.00000000 </v>
   <v>      -0.12500000       0.08333333       0.00000000 </v>
   <v>      -0.08333333       0.08333333       0.00000000 </v>
   <v>      -0.04166667       0.08333333       0.00000000 </v>
   <v>       0.00000000       0.12500000       0.00000000 </v>
   <v>       0.04166667       0.12500000       0.00000000 </v>
   <v>       0.08333333       0.12500000       0.00000000 </v>
   <v>       0.12500000       0.12500000       0.00000000 </v>
   <v>       0.16666667       0.12500000       0.00000000 </v>
   <v>       0.20833333       0.12500000       0.00000000 </v>
   <v>       0.25000000       0.12500000       0.00000000 </v>
   <v>       0.29166667       0.12500000       0.00000000 </v>
   <v>       0.33333333       0.12500000       0.00000000 </v>
   <v>       0.37500000       0.12500000       0.00000000 </v>
   <v>       0.41666667       0.12500000       0.00000000 </v>
   <v>       0.45833333       0.12500000       0.00000000 </v>
   <v>       0.50000000       0.12500000       0.00000000 </v>
   <v>      -0.45833333       0.12500000       0.00000000 </v>
   <v>      -0.41666667       0.12500000       0.00000000 </v>
   <v>      -0.37500000       0.12500000       0.00000000 </v>
   <v>      -0.33333333       0.12500000       0.00000000 </v>
   <v>      -0.29166667       0.12500000       0.00000000 </v>
   <v>      -0.25000000       0.12500000       0.00000000 </v>
   <v>      -0.20833333       0.12500000       0.00000000 </v>
   <v>      -0.16666667       0.12500000       0.00000000 </v>
   <v>      -0.12500000       0.12500000       0.00000000 </v>
   <v>      -0.08333333       0.12500000       0.00000000 </v>
   <v>      -0.04166667       0.12500000       0.00000000 </v>
   <v>       0.00000000       0.16666667       0.00000000 </v>
   <v>       0.04166667       0.16666667       0.00000000 </v>
   <v>       0.08333333       0.16666667       0.00000000 </v>
   <v>       0.12500000       0.16666667       0.00000000 </v>
   <v>       0.16666667       0.16666667       0.00000000 </v>
   <v>       0.20833333       0.16666667       0.00000000 </v>
   <v>       0.25000000       0.16666667       0.00000000 </v>
   <v>       0.29166667       0.16666667       0.00000000 </v>
   <v>       0.33333333       0.16666667       0.00000000 </v>
   <v>       0.37500000       0.16666667       0.00000000 </v>
   <v>       0.41666667       0.16666667       0.00000000 </v>
   <v>       0.45833333       0.16666667       0.00000000 </v>
   <v>       0.50000000       0.16666667       0.00000000 </v>
   <v>      -0.45833333       0.16666667       0.00000000 </v>
   <v>      -0.41666667       0.16666667       0.00000000 </v>
   <v>      -0.37500000       0.16666667       0.00000000 </v>
   <v>      -0.33333333       0.16666667       0.00000000 </v>
   <v>      -0.29166667       0.16666667       0.00000000 </v>
   <v>      -0.25000000       0.16666667       0.00000000 </v>
   <v>      -0.20833333       0.16666667       0.00000000 </v>
   <v>      -0.16666667       0.16666667       0.00000000 </v>
   <v>      -0.12500000       0.16666667       0.00000000 </v>
   <v>      -0.08333333       0.16666667       0.00000000 </v>
   <v>      -0.04166667       0.16666667       0.00000000 </v>
   <v>       0.00000000       0.20833333       0.00000000 </v>
   <v>       0.04166667       0.20833333       0.00000000 </v>
   <v>       0.08333333       0.20833333       0.00000000 </v>
   <v>       0.12500000       0.20833333       0.00000000 </v>
   <v>       0.16666667       0.20833333       0.00000000 </v>
   <v>       0.20833333       0.20833333       0.00000000 </v>
   <v>       0.25000000       0.20833333       0.00000000 </v>
   <v>       0.29166667       0.20833333       0.00000000 </v>
   <v>       0.33333333       0.20833333       0.00000000 </v>
   <v>       0.37500000       0.20833333       0.00000000 </v>
   <v>       0.41666667       0.20833333       0.00000000 </v>
   <v>       0.45833333       0.20833333       0.00000000 </v>
   <v>       0.50000000       0.20833333       0.00000000 </v>
   <v>      -0.45833333       0.20833333       0.00000000 </v>
   <v>      -0.41666667       0.20833333       0.00000000 </v>
   <v>      -0.37500000       0.20833333       0.00000000 </v>
   <v>      -0.33333333       0.20833333       0.00000000 </v>
   <v>      -0.29166667       0.20833333       0.00000000 </v>
   <v>      -0.25000000       0.20833333       0.00000000 </v>
   <v>      -0.20833333       0.20833333       0.00000000 </v>
   <v>      -0.16666667       0.20833333       0.00000000 </v>
   <v>      -0.12500000       0.20833333       0.00000000 </v>
   <v>      -0.08333333       0.20833333       0.00000000 </v>
   <v>      -0.04166667       0.20833333       0.00000000 </v>
   <v>       0.00000000       0.25000000       0.00000000 </v>
   <v>       0.04166667       0.25000000       0.00000000 </v>
   <v>       0.08333333       0.25000000       0.00000000 </v>
   <v>       0.12500000       0.25000000       0.00000000 </v>
   <v>       0.16666667       0.25000000       0.00000000 </v>
   <v>       0.20833333       0.25000000       0.00000000 </v>
   <v>       0.25000000       0.25000000       0.00000000 </v>
   <v>       0.29166667       0.25000000       0.00000000 </v>
   <v>       0.33333333       0.25000000       0.00000000 </v>
   <v>       0.37500000       0.25000000       0.00000000 </v>
   <v>       0.41666667       0.25000000       0.00000000 </v>
   <v>       0.45833333       0.25000000       0.00000000 </v>
   <v>       0.50000000       0.25000000       0.00000000 </v>
   <v>      -0.45833333       0.25000000       0.00000000 </v>
   <v>      -0.41666667       0.25000000       0.00000000 </v>
   <v>      -0.37500000       0.25000000       0.00000000 </v>
   <v>      -0.33333333       0.25000000       0.00000000 </v>
   <v>      -0.29166667       0.25000000       0.00000000 </v>
   <v>      -0.25000000       0.25000000       0.00000000 </v>
   <v>      -0.20833333       0.25000000       0.00000000 </v>
   <v>      -0.16666667       0.25000000       0.00000000 </v>
   <v>      -0.12500000       0.25000000       0.00000000 </v>
   <v>      -0.08333333       0.25000000       0.00000000 </v>
   <v>      -0.04166667       0.25000000       0.00000000 </v>
   <v>       0.00000000       0.29166667       0.00000000 </v>
   <v>       0.04166667       0.29166667       0.00000000 </v>
   <v>       0.08333333       0.29166667       0.00000000 </v>
   <v>       0.12500000       0.29166667       0.00000000 </v>
   <v>       0.16666667       0.29166667       0.00000000 </v>
   <v>       0.20833333       0.29166667       0.00000000 </v>
   <v>       0.25000000       0.29166667       0.00000000 </v>
   <v>       0.29166667       0.29166667       0.00000000 </v>
   <v>       0.33333333       0.29166667       0.00000000 </v>
   <v>       0.37500000       0.29166667       0.00000000 </v>
   <v>       0.41666667       0.29166667       0.00000000 </v>
   <v>       0.45833333       0.29166667       0.00000000 </v>
   <v>       0.50000000       0.29166667       0.00000000 </v>
   <v>      -0.45833333       0.29166667       0.00000000 </v>
   <v>      -0.41666667       0.29166667       0.00000000 </v>
   <v>      -0.37500000       0.29166667       0.00000000 </v>
   <v>      -0.33333333       0.29166667       0.00000000 </v>
   <v>      -0.29166667       0.29166667       0.00000000 </v>
   <v>      -0.25000000       0.29166667       0.00000000 </v>
   <v>      -0.20833333       0.29166667       0.00000000 </v>
   <v>      -0.16666667       0.29166667       0.00000000 </v>
   <v>      -0.12500000       0.29166667       0.00000000 </v>
   <v>      -0.08333333       0.29166667       0.00000000 </v>
   <v>      -0.04166667       0.29166667       0.00000000 </v>
   <v>       0.00000000       0.33333333       0.00000000 </v>
   <v>       0.04166667       0.33333333       0.00000000 </v>
   <v>       0.08333333       0.33333333       0.00000000 </v>
   <v>       0.12500000       0.33333333       0.00000000 </v>
   <v>       0.16666667       0.33333333       0.00000000 </v>
   <v>       0.20833333       0.33333333       0.00000000 </v>
   <v>       0.25000000       0.33333333       0.00000000 </v>
   <v>       0.29166667       0.33333333       0.00000000 </v>
   <v>       0.33333333       0.33333333       0.00000000 </v>
   <v>       0.37500000       0.33333333       0.00000000 </v>
   <v>       0.41666667       0.33333333       0.00000000 </v>
   <v>       0.45833333       0.33333333       0.00000000 </v>
   <v>       0.50000000       0.33333333       0.00000000 </v>
   <v>      -0.45833333       0.33333333       0.00000000 </v>
   <v>      -0.41666667       0.33333333       0.00000000 </v>
   <v>      -0.37500000       0.33333333       0.00000000 </v>
   <v>      -0.33333333       0.33333333       0.00000000 </v>
   <v>      -0.29166667       0.33333333       0.00000000 </v>
   <v>      -0.25000000       0.33333333       0.00000000 </v>
   <v>      -0.20833333       0.33333333       0.00000000 </v>
   <v>      -0.16666667       0.33333333       0.00000000 </v>
   <v>      -0.12500000       0.33333333       0.00000000 </v>
   <v>      -0.08333333       0.33333333       0.00000000 </v>
   <v>      -0.04166667       0.33333333       0.00000000 </v>
   <v>       0.00000000       0.37500000       0.00000000 </v>
   <v>       0.04166667       0.37500000       0.00000000 </v>
   <v>       0.08333333       0.37500000       0.00000000 </v>
   <v>       0.12500000       0.37500000       0.00000000 </v>
   <v>       0.16666667       0.37500000       0.00000000 </v>
   <v>       0.20833333       0.37500000       0.00000000 </v>
   <v>       0.25000000       0.37500000       0.00000000 </v>
   <v>       0.29166667       0.37500000       0.00000000 </v>
   <v>       0.33333333       0.37500000       0.00000000 </v>
   <v>       0.37500000       0.37500000       0.00000000 </v>
   <v>       0.41666667       0.37500000       0.00000000 </v>
   <v>       0.45833333       0.37500000       0.00000000 </v>
   <v>       0.50000000       0.37500000       0.00000000 </v>
   <v>      -0.45833333       0.37500000       0.00000000 </v>
   <v>      -0.41666667       0.37500000       0.00000000 </v>
   <v>      -0.37500000       0.37500000       0.00000000 </v>
   <v>      -0.33333333       0.37500000       0.00000000 </v>
   <v>      -0.29166667       0.37500000       0.00000000 </v>
   <v>      -0.25000000       0.37500000       0.00000000 </v>
   <v>      -0.20833333       0.37500000       0.00000000 </v>
   <v>      -0.16666667       0.37500000       0.00000000 </v>
   <v>      -0.12500000       0.37500000       0.00000000 </v>
   <v>      -0.08333333       0.37500000       0.00000000 </v>
   <v>      -0.04166667       0.37500000       0.00000000 </v>
   <v>       0.00000000       0.41666667       0.00000000 </v>
   <v>       0.04166667       0.41666667       0.00000000 </v>
   <v>       0.08333333       0.41666667       0.00000000 </v>
   <v>       0.12500000       0.41666667       0.00000000 </v>
   <v>       0.16666667       0.41666667       0.00000000 </v>
   <v>       0.20833333       0.41666667       0.00000000 </v>
   <v>       0.25000000       0.41666667       0.00000000 </v>
   <v>       0.29166667       0.41666667       0.00000000 </v>
   <v>       0.33333333       0.41666667       0.00000000 </v>
   <v>       0.37500000       0.41666667       0.00000000 </v>
   <v>       0.41666667       0.41666667       0.00000000 </v>
   <v>       0.45833333       0.41666667       0.00000000 </v>
   <v>       0.50000000       0.41666667       0.00000000 </v>
   <v>      -0.45833333       0.41666667       0.00000000 </v>
   <v>      -0.41666667       0.41666667       0.00000000 </v>
   <v>      -0.37500000       0.41666667       0.00000000 </v>
   <v>      -0.33333333       0.41666667       0.00000000 </v>
   <v>      -0.29166667       0.41666667       0.00000000 </v>
   <v>      -0.25000000       0.41666667       0.00000000 </v>
   <v>      -0.20833333       0.41666667       0.00000000 </v>
   <v>      -0.16666667       0.41666667       0.00000000 </v>
   <v>      -0.12500000       0.41666667       0.00000000 </v>
   <v>      -0.08333333       0.41666667       0.00000000 </v>
   <v>      -0.04166667       0.41666667       0.00000000 </v>
   <v>       0.00000000       0.45833333       0.00000000 </v>
   <v>       0.04166667       0.45833333       0.00000000 </v>
   <v>       0.08333333       0.45833333       0.00000000 </v>
   <v>       0.12500000       0.45833333       0.00000000 </v>
   <v>       0.16666667       0.45833333       0.00000000 </v>
   <v>       0.20833333       0.45833333       0.00000000 </v>
   <v>       0.25000000       0.45833333       0.00000000 </v>
   <v>       0.29166667       0.45833333       0.00000000 </v>
   <v>       0.33333333       0.45833333       0.00000000 </v>
   <v>       0.37500000       0.45833333       0.00000000 </v>
   <v>       0.41666667       0.45833333       0.00000000 </v>
   <v>       0.45833333       0.45833333       0.00000000 </v>
   <v>       0.50000000       0.45833333       0.00000000 </v>
   <v>      -0.45833333       0.45833333       0.00000000 </v>
   <v>      -0.41666667       0.45833333       0.00000000 </v>
   <v>      -0.37500000       0.45833333       0.00000000 </v>
   <v>      -0.33333333       0.45833333       0.00000000 </v>
   <v>      -0.29166667       0.45833333       0.00000000 </v>
   <v>      -0.25000000       0.45833333       0.00000000 </v>
   <v>      -0.20833333       0.45833333       0.00000000 </v>
   <v>      -0.16666667       0.45833333       0.00000000 </v>
   <v>      -0.12500000       0.45833333       0.00000000 </v>
   <v>      -0.08333333       0.45833333       0.00000000 </v>
   <v>      -0.04166667       0.45833333       0.00000000 </v>
   <v>       0.00000000       0.50000000       0.00000000 </v>
   <v>       0.04166667       0.50000000       0.00000000 </v>
   <v>       0.08333333       0.50000000       0.00000000 </v>
   <v>       0.12500000       0.50000000       0.00000000 </v>
   <v>       0.16666667       0.50000000       0.00000000 </v>
   <v>       0.20833333       0.50000000       0.00000000 </v>
   <v>       0.25000000       0.50000000       0.00000000 </v>
   <v>       0.29166667       0.50000000       0.00000000 </v>
   <v>       0.33333333       0.50000000       0.00000000 </v>
   <v>       0.37500000       0.50000000       0.00000000 </v>
   <v>       0.41666667       0.50000000       0.00000000 </v>
   <v>       0.45833333       0.50000000       0.00000000 </v>
   <v>       0.50000000       0.50000000       0.00000000 </v>
  </varray>
  <varray name="weights" >
   <v>       0.00173611 </v>
   <v>       0.00347222 </v>
   <v>       0.00347222 </v>
   <v>       0.00347222 </v>
   <v>       0.00347222 </v>
   <v>       0.00347222 </v>
   <v>       0.00347222 </v>
   <v>       0.00347222 </v>
   <v>       0.00347222 </v>
   <v>       0.00347222 </v>
   <v>       0.00347222 </v>
   <v>       0.00347222 </v>
   <v>       0.00173611 </v>
   <v>       0.00347222 </v>
   <v>       0.00347222 </v>
   <v>       0.00347222 </v>
   <v>       0.00347222 </v>
   <v>       0.00347222 </v>
   <v>       0.00347222 </v>
   <v>       0.00347222 </v>
   <v>       0.00347222 </v>
   <v>       0.00347222 </v>
   <v>       0.00347222 </v>
   <v>       0.00347222 </v>
   <v>       0.00347222 </v>
   <v>       0.00347222 </v>
   <v>       0.00347222 </v>
   <v>       0.00347222 </v>
   <v>       0.00347222 </v>
   <v>       0.00347222 </v>
   <v>       0.00347222 </v>
   <v>       0.00347222 </v>
   <v>       0.00347222 </v>
   <v>       0.00347222 </v>
   <v>       0.00347222 </v>
   <v>       0.00347222 </v>
   <v>       0.00347222 </v>
   <v>       0.00347222 </v>
   <v>       0.00347222 </v>
   <v>       0.00347222 </v>
   <v>       0.00347222 </v>
   <v>       0.00347222 </v>
   <v>       0.00347222 </v>
   <v>       0.00347222 </v>
   <v>       0.00347222 </v>
   <v>       0.00347222 </v>
   <v>       0.00347222 </v>
   <v>       0.00347222 </v>
   <v>       0.00347222 </v>
   <v>       0.00347222 </v>
   <v>       0.00347222 </v>
   <v>       0.00347222 </v>
   <v>       0.00347222 </v>
   <v>       0.00347222 </v>
   <v>       0.00347222 </v>
   <v>       0.00347222 </v>
   <v>       0.00347222 </v>
   <v>       0.00347222 </v>
   <v>       0.00347222 </v>
   <v>       0.00347222 </v>
   <v>       0.00347222 </v>
   <v>       0.00347222 </v>
   <v>       0.00347222 </v>
   <v>       0.00347222 </v>
   <v>       0.00347222 </v>
   <v>       0.00347222 </v>
   <v>       0.00347222 </v>
   <v>       0.00347222 </v>
   <v>       0.00347222 </v>
   <v>       0.00347222 </v>
   <v>       0.00347222 </v>
   <v>       0.00347222 </v>
   <v>       0.00347222 </v>
   <v>       0.00347222 </v>
   <v>       0.00347222 </v>
   <v>       0.00347222 </v>
   <v>       0.00347222 </v>
   <v>       0.00347222 </v>
   <v>       0.00347222 </v>
   <v>       0.00347222 </v>
   <v>       0.00347222 </v>
   <v>       0.00347222 </v>
   <v>       0.00347222 </v>
   <v>       0.00347222 </v>
   <v>       0.00347222 </v>
   <v>       0.00347222 </v>
   <v>       0.00347222 </v>
   <v>       0.00347222 </v>
   <v>       0.00347222 </v>
   <v>       0.00347222 </v>
   <v>       0.00347222 </v>
   <v>       0.00347222 </v>
   <v>       0.00347222 </v>
   <v>       0.00347222 </v>
   <v>       0.00347222 </v>
   <v>       0.00347222 </v>
   <v>       0.00347222 </v>
   <v>       0.00347222 </v>
   <v>       0.00347222 </v>
   <v>       0.00347222 </v>
   <v>       0.00347222 </v>
   <v>       0.00347222 </v>
   <v>       0.00347222 </v>
   <v>       0.00347222 </v>
   <v>       0.00347222 </v>
   <v>       0.00347222 </v>
   <v>       0.00347222 </v>
   <v>       0.00347222 </v>
   <v>       0.00347222 </v>
   <v>       0.00347222 </v>
   <v>       0.00347222 </v>
   <v>       0.00347222 </v>
   <v>       0.00347222 </v>
   <v>       0.00347222 </v>
   <v>       0.00347222 </v>
   <v>       0.00347222 </v>
   <v>       0.00347222 </v>
   <v>       0.00347222 </v>
   <v>       0.00347222 </v>
   <v>       0.00347222 </v>
   <v>       0.00347222 </v>
   <v>       0.00347222 </v>
   <v>       0.00347222 </v>
   <v>       0.00347222 </v>
   <v>       0.00347222 </v>
   <v>       0.00347222 </v>
   <v>       0.00347222 </v>
   <v>       0.00347222 </v>
   <v>       0.00347222 </v>
   <v>       0.00347222 </v>
   <v>       0.00347222 </v>
   <v>       0.00347222 </v>
   <v>       0.00347222 </v>
   <v>       0.00347222 </v>
   <v>       0.00347222 </v>
   <v>       0.00347222 </v>
   <v>       0.00347222 </v>
   <v>       0.00347222 </v>
   <v>       0.00347222 </v>
   <v>       0.00347222 </v>
   <v>       0.00347222 </v>
   <v>       0.00347222 </v>
   <v>       0.00347222 </v>
   <v>       0.00347222 </v>
   <v>       0.00347222 </v>
   <v>       0.00347222 </v>
   <v>       0.00347222 </v>
   <v>       0.00347222 </v>
   <v>       0.00347222 </v>
   <v>       0.00347222 </v>
   <v>       0.00347222 </v>
   <v>       0.00347222 </v>
   <v>       0.00347222 </v>
   <v>       0.00347222 </v>
   <v>       0.00347222 </v>
   <v>       0.00347222 </v>
   <v>       0.00347222 </v>
   <v>       0.00347222 </v>
   <v>       0.00347222 </v>
   <v>       0.00347222 </v>
   <v>       0.00347222 </v>
   <v>       0.00347222 </v>
   <v>       0.00347222 </v>
   <v>       0.00347222 </v>
   <v>       0.00347222 </v>
   <v>       0.00347222 </v>
   <v>       0.00347222 </v>
   <v>       0.00347222 </v>
   <v>       0.00347222 </v>
   <v>       0.00347222 </v>
   <v>       0.00347222 </v>
   <v>       0.00347222 </v>
   <v>       0.00347222 </v>
   <v>       0.00347222 </v>
   <v>       0.00347222 </v>
   <v>       0.00347222 </v>
   <v>       0.00347222 </v>
   <v>       0.00347222 </v>
   <v>       0.00347222 </v>
   <v>       0.00347222 </v>
   <v>       0.00347222 </v>
   <v>       0.00347222 </v>
   <v>       0.00347222 </v>
   <v>       0.00347222 </v>
   <v>       0.00347222 </v>
   <v>       0.00347222 </v>
   <v>       0.00347222 </v>
   <v>       0.00347222 </v>
   <v>       0.00347222 </v>
   <v>       0.00347222 </v>
   <v>       0.00347222 </v>
   <v>       0.00347222 </v>
   <v>       0.00347222 </v>
   <v>       0.00347222 </v>
   <v>       0.00347222 </v>
   <v>       0.00347222 </v>
   <v>       0.00347222 </v>
   <v>       0.00347222 </v>
   <v>       0.00347222 </v>
   <v>       0.00347222 </v>
   <v>       0.00347222 </v>
   <v>       0.00347222 </v>
   <v>       0.00347222 </v>
   <v>       0.00347222 </v>
   <v>       0.00347222 </v>
   <v>       0.00347222 </v>
   <v>       0.00347222 </v>
   <v>       0.00347222 </v>
   <v>       0.00347222 </v>
   <v>       0.00347222 </v>
   <v>       0.00347222 </v>
   <v>       0.00347222 </v>
   <v>       0.00347222 </v>
   <v>       0.00347222 </v>
   <v>       0.00347222 </v>
   <v>       0.00347222 </v>
   <v>       0.00347222 </v>
   <v>       0.00347222 </v>
   <v>       0.00347222 </v>
   <v>       0.00347222 </v>
   <v>       0.00347222 </v>
   <v>       0.00347222 </v>
   <v>       0.00347222 </v>
   <v>       0.00347222 </v>
   <v>       0.00347222 </v>
   <v>       0.00347222 </v>
   <v>       0.00347222 </v>
   <v>       0.00347222 </v>
   <v>       0.00347222 </v>
   <v>       0.00347222 </v>
   <v>       0.00347222 </v>
   <v>       0.00347222 </v>
   <v>       0.00347222 </v>
   <v>       0.00347222 </v>
   <v>       0.00347222 </v>
   <v>       0.00347222 </v>
   <v>       0.00347222 </v>
   <v>       0.00347222 </v>
   <v>       0.00347222 </v>
   <v>       0.00347222 </v>
   <v>       0.00347222 </v>
   <v>       0.00347222 </v>
   <v>       0.00347222 </v>
   <v>       0.00347222 </v>
   <v>       0.00347222 </v>
   <v>       0.00347222 </v>
   <v>       0.00347222 </v>
   <v>       0.00347222 </v>
   <v>       0.00347222 </v>
   <v>       0.00347222 </v>
   <v>       0.00347222 </v>
   <v>       0.00347222 </v>
   <v>       0.00347222 </v>
   <v>       0.00347222 </v>
   <v>       0.00347222 </v>
   <v>       0.00347222 </v>
   <v>       0.00347222 </v>
   <v>       0.00347222 </v>
   <v>       0.00347222 </v>
   <v>       0.00347222 </v>
   <v>       0.00347222 </v>
   <v>       0.00347222 </v>
   <v>       0.00347222 </v>
   <v>       0.00347222 </v>
   <v>       0.00347222 </v>
   <v>       0.00347222 </v>
   <v>       0.00347222 </v>
   <v>       0.00347222 </v>
   <v>       0.00347222 </v>
   <v>       0.00347222 </v>
   <v>       0.00347222 </v>
   <v>       0.00347222 </v>
   <v>       0.00347222 </v>
   <v>       0.00347222 </v>
   <v>       0.00347222 </v>
   <v>       0.00347222 </v>
   <v>       0.00347222 </v>
   <v>       0.00173611 </v>
   <v>       0.00347222 </v>
   <v>       0.00347222 </v>
   <v>       0.00347222 </v>
   <v>       0.00347222 </v>
   <v>       0.00347222 </v>
   <v>       0.00347222 </v>
   <v>       0.00347222 </v>
   <v>       0.00347222 </v>
   <v>       0.00347222 </v>
   <v>       0.00347222 </v>
   <v>       0.00347222 </v>
   <v>       0.00173611 </v>
  </varray>
 </kpoints>
 <parameters>
  <separator name="general" >
   <i type="string" name="SYSTEM">unknown system</i>
   <i type="logical" name="LCOMPAT"> F  </i>
  </separator>
  <separator name="electronic" >
   <i type="string" name="PREC">a</i>
   <i name="ENMAX">    520.00000000</i>
   <i name="ENAUG">    644.87300000</i>
   <i name="EDIFF">      0.00001000</i>
   <i type="int" name="IALGO">    38</i>
   <i type="int" name="IWAVPR">    10</i>
   <i type="int" name="NBANDS">    12</i>
   <i name="NELECT">      8.00000000</i>
   <i type="int" name="TURBO">     0</i>
   <i type="int" name="IRESTART">     0</i>
   <i type="int" name="NREBOOT">     0</i>
   <i type="int" name="NMIN">     0</i>
   <i name="EREF">      0.00000000</i>
   <separator name="electronic smearing" >
    <i type="int" name="ISMEAR">     0</i>
    <i name="SIGMA">      0.02000000</i>
    <i name="KSPACING">      0.50000000</i>
    <i type="logical" name="KGAMMA"> T  </i>
   </separator>
   <separator name="electronic projectors" >
    <i type="logical" name="LREAL"> T  </i>
    <v name="ROPT">     -0.00025000</v>
    <i type="int" name="LMAXPAW">  -100</i>
    <i type="int" name="LMAXMIX">     2</i>
    <i type="logical" name="NLSPLINE"> F  </i>
   </separator>
   <separator name="electronic startup" >
    <i type="int" name="ISTART">     0</i>
    <i type="int" name="ICHARG">     2</i>
    <i type="int" name="INIWAV">     1</i>
   </separator>
   <separator name="electronic spin" >
    <i type="int" name="ISPIN">     1</i>
    <i type="logical" name="LNONCOLLINEAR"> F  </i>
    <v name="MAGMOM">      0.60000000      0.60000000</v>
    <i name="NUPDOWN">     -1.00000000</i>
    <i type="logical" name="LSORBIT"> F  </i>
    <v name="SAXIS">      0.00000000      0.00000000      1.00000000</v>
    <i type="logical" name="LSPIRAL"> F  </i>
    <v name="QSPIRAL">      0.00000000      0.00000000      0.00000000</v>
    <i type="logical" name="LZEROZ"> F  </i>
   </separator>
   <separator name="electronic exchange-correlation" >
    <i type="logical" name="LASPH"> F  </i>
    <i type="logical" name="LMETAGGA"> F  </i>
   </separator>
   <separator name="electronic convergence" >
    <i type="int" name="NELM">   250</i>
    <i type="int" name="NELMDL">    -5</i>
    <i type="int" name="NELMIN">     6</i>
    <i name="ENINI">    520.00000000</i>
    <separator name="electronic convergence detail" >
     <i type="logical" name="LDIAG"> T  </i>
     <i type="logical" name="LSUBROT"> F  </i>
     <i name="WEIMIN">      0.00000000</i>
     <i name="EBREAK">      0.00000021</i>
     <i name="DEPER">      0.30000000</i>
     <i type="int" name="NRMM">     4</i>
     <i name="TIME">      0.40000000</i>
    </separator>
   </separator>
   <separator name="electronic mixer" >
    <i name="AMIX">      0.40000000</i>
    <i name="BMIX">      1.00000000</i>
    <i name="AMIN">      0.10000000</i>
    <i name="AMIX_MAG">      1.60000000</i>
    <i name="BMIX_MAG">      1.00000000</i>
    <separator name="electronic mixer details" >
     <i type="int" name="IMIX">     4</i>
     <i type="logical" name="MIXFIRST"> F  </i>
     <i type="int" name="MAXMIX">   -45</i>
     <i name="WC">    100.00000000</i>
     <i type="int" name="INIMIX">     1</i>
     <i type="int" name="MIXPRE">     1</i>
     <i type="int" name="MREMOVE">     5</i>
    </separator>
   </separator>
   <separator name="electronic dipolcorrection" >
    <i type="logical" name="LDIPOL"> F  </i>
    <i type="logical" name="LMONO"> F  </i>
    <i type="int" name="IDIPOL">     0</i>
    <i name="EPSILON">      1.00000000</i>
    <v name="DIPOL">   -100.00000000   -100.00000000   -100.00000000</v>
    <i name="EFIELD">      0.00000000</i>
   </separator>
  </separator>
  <separator name="grids" >
   <i type="int" name="NGX">    18</i>
   <i type="int" name="NGY">    18</i>
   <i type="int" name="NGZ">   112</i>
   <i type="int" name="NGXF">    36</i>
   <i type="int" name="NGYF">    36</i>
   <i type="int" name="NGZF">   224</i>
   <i type="logical" name="ADDGRID"> F  </i>
  </separator>
  <separator name="ionic" >
   <i type="int" name="NSW">     0</i>
   <i type="int" name="IBRION">    -1</i>
   <i type="int" name="ISIF">     2</i>
   <i name="PSTRESS">      0.00000000</i>
   <i name="EDIFFG">     -0.00500000</i>
   <i type="int" name="NFREE">     1</i>
   <i name="POTIM">      0.25000000</i>
   <i name="SMASS">     -3.00000000</i>
   <i name="SCALEE">      1.00000000</i>
  </separator>
  <separator name="ionic md" >
   <i name="TEBEG">      0.00010000</i>
   <i name="TEEND">      0.00010000</i>
   <i type="int" name="NBLOCK">     1</i>
   <i type="int" name="KBLOCK">     1</i>
   <i type="int" name="NPACO">   256</i>
   <i name="APACO">     16.00000000</i>
  </separator>
  <separator name="symmetry" >
   <i type="int" name="ISYM">     2</i>
   <i name="SYMPREC">      0.00001000</i>
  </separator>
  <separator name="dos" >
   <i type="logical" name="LORBIT"> F  </i>
   <v name="RWIGS">     -1.00000000</v>
   <i type="int" name="NEDOS">   301</i>
   <i name="EMIN">     10.00000000</i>
   <i name="EMAX">    -10.00000000</i>
   <i name="EFERMI">      0.00000000</i>
  </separator>
  <separator name="writing" >
   <i type="int" name="NWRITE">     2</i>
   <i type="logical" name="LWAVE"> F  </i>
   <i type="logical" name="LCHARG"> F  </i>
   <i type="logical" name="LPARD"> F  </i>
   <i type="logical" name="LVTOT"> F  </i>
   <i type="logical" name="LVHAR"> F  </i>
   <i type="logical" name="LELF"> F  </i>
   <i type="logical" name="LOPTICS"> F  </i>
   <v name="STM">      0.00000000      0.00000000      0.00000000      0.00000000      0.00000000      0.00000000      0.00000000</v>
  </separator>
  <separator name="performance" >
   <i type="int" name="NPAR">     6</i>
   <i type="int" name="NSIM">     4</i>
   <i type="int" name="NBLK">    -1</i>
   <i type="logical" name="LPLANE"> T  </i>
   <i type="logical" name="LSCALAPACK"> T  </i>
   <i type="logical" name="LSCAAWARE"> F  </i>
   <i type="logical" name="LSCALU"> F  </i>
   <i type="logical" name="LASYNC"> F  </i>
   <i type="logical" name="LORBITALREAL"> F  </i>
  </separator>
  <separator name="miscellaneous" >
   <i type="int" name="IDIOT">     3</i>
   <i type="logical" name="LMUSIC"> F  </i>
   <v name="POMASS">     12.01100000</v>
   <v name="DARWINR">      0.00000000</v>
   <v name="DARWINV">      1.00000000</v>
   <i type="logical" name="LCORR"> T  </i>
  </separator>
  <i type="logical" name="GGA_COMPAT"> T  </i>
  <i type="logical" name="LBERRY"> F  </i>
  <i type="int" name="ICORELEVEL">     0</i>
  <i type="logical" name="LDAU"> F  </i>
  <i type="int" name="I_CONSTRAINED_M">     0</i>
  <separator name="electronic exchange-correlation" >
   <i type="string" name="GGA">--</i>
   <i type="int" name="VOSKOWN">     0</i>
   <i type="logical" name="LHFCALC"> F  </i>
   <i type="string" name="PRECFOCK"></i>
   <i type="logical" name="LSYMGRAD"> F  </i>
   <i type="logical" name="LHFONE"> F  </i>
   <i type="logical" name="LRHFCALC"> F  </i>
   <i type="logical" name="LTHOMAS"> F  </i>
   <i type="logical" name="LMODELHF"> F  </i>
   <i name="ENCUT4O">     -1.00000000</i>
   <i type="int" name="EXXOEP">     0</i>
   <i type="int" name="FOURORBIT">     0</i>
   <i name="AEXX">      0.00000000</i>
   <i name="HFALPHA">      0.00000000</i>
   <i name="MCALPHA">      0.00000000</i>
   <i name="ALDAX">      1.00000000</i>
   <i name="AGGAX">      1.00000000</i>
   <i name="ALDAC">      1.00000000</i>
   <i name="AGGAC">      1.00000000</i>
   <i type="int" name="NKREDX">     1</i>
   <i type="int" name="NKREDY">     1</i>
   <i type="int" name="NKREDZ">     1</i>
   <i type="logical" name="SHIFTRED"> F  </i>
   <i type="logical" name="ODDONLY"> F  </i>
   <i type="logical" name="EVENONLY"> F  </i>
   <i type="int" name="LMAXFOCK">     0</i>
   <i type="int" name="NMAXFOCKAE">     0</i>
   <i type="logical" name="LFOCKAEDFT"> F  </i>
   <i name="HFSCREEN">      0.00000000</i>
   <i name="HFSCREENC">      0.00000000</i>
   <i type="int" name="NBANDSGWLOW">     0</i>
  </separator>
  <separator name="vdW DFT" >
   <i type="logical" name="LUSE_VDW"> F  </i>
   <i name="Zab_VDW">     -0.84910000</i>
   <i name="PARAM1">      0.12340000</i>
   <i name="PARAM2">      1.00000000</i>
   <i name="PARAM3">      0.00000000</i>
  </separator>
  <separator name="model GW" >
   <i type="int" name="MODEL_GW">     0</i>
   <i name="MODEL_EPS0">     23.82583561</i>
   <i name="MODEL_ALPHA">      1.00000000</i>
  </separator>
  <separator name="linear response parameters" >
   <i type="logical" name="LEPSILON"> F  </i>
   <i type="logical" name="LRPA"> F  </i>
   <i type="logical" name="LNABLA"> F  </i>
   <i type="logical" name="LVEL"> F  </i>
   <i type="int" name="KINTER">     0</i>
   <i name="CSHIFT">      0.10000000</i>
   <i name="OMEGAMAX">     -1.00000000</i>
   <i name="DEG_THRESHOLD">      0.00200000</i>
  </separator>
  <separator name="orbital magnetization" >
   <i type="logical" name="NUCIND"> F  </i>
   <v name="MAGPOS">      0.00000000      0.00000000      0.00000000</v>
   <i type="logical" name="LNICSALL"> T  </i>
   <i type="logical" name="ORBITALMAG"> F  </i>
   <i type="logical" name="LMAGBLOCH"> F  </i>
   <i type="logical" name="LCHIMAG"> F  </i>
   <i type="logical" name="LGAUGE"> T  </i>
   <i type="int" name="MAGATOM">     0</i>
   <v name="MAGDIPOL">      0.00000000      0.00000000      0.00000000</v>
   <v name="AVECCONST">      0.00000000      0.00000000      0.00000000</v>
  </separator>
  <separator name="response functions" >
   <i type="logical" name="LADDER"> F  </i>
   <i type="logical" name="LFXC"> F  </i>
   <i type="logical" name="LHARTREE"> T  </i>
   <i type="int" name="IBSE">     0</i>
   <v type="int" name="KPOINT">    -1     0     0     0</v>
   <i type="logical" name="LTCTE"> F  </i>
   <i type="logical" name="LTETE"> F  </i>
   <i type="logical" name="LTRIPLET"> F  </i>
   <i type="logical" name="LFXCEPS"> F  </i>
   <i type="logical" name="LFXHEG"> F  </i>
   <i type="int" name="NATURALO">     0</i>
   <i type="logical" name="L2ORDER"> F  </i>
   <i type="logical" name="LUSEW"> F  </i>
   <i name="ENCUTGW">     -2.00000000</i>
   <i name="ENCUTGWSOFT">     -2.00000000</i>
   <i name="ENCUTLF">     -1.00000000</i>
   <i type="int" name="LMAXMP2">    -1</i>
   <i name="SCISSOR">      0.00000000</i>
   <i type="int" name="NOMEGA">     0</i>
   <i type="int" name="NOMEGAR">     0</i>
   <i type="int" name="NBANDSGW">    -1</i>
   <i type="int" name="NBANDSO">    -1</i>
   <i type="int" name="NBANDSV">    -1</i>
   <i type="int" name="NELM">   250</i>
   <i type="int" name="NELMHF">     1</i>
   <i type="int" name="DIM">     3</i>
   <i type="int" name="ANTIRES">     0</i>
   <i name="OMEGAMAX">    -30.00000000</i>
   <i name="OMEGAMIN">    -30.00000000</i>
   <i name="OMEGATL">   -200.00000000</i>
   <i type="int" name="OMEGAGRID">     0</i>
   <i name="CSHIFT">     -0.10000000</i>
   <i type="logical" name="SELFENERGY"> F  </i>
   <i type="logical" name="LSPECTRAL"> F  </i>
   <i type="logical" name="LSPECTRALGW"> F  </i>
   <i type="logical" name="LSINGLES"> F  </i>
   <i type="logical" name="LFERMIGW"> F  </i>
   <i type="logical" name="ODDONLYGW"> F  </i>
   <i type="logical" name="EVENONLYGW"> F  </i>
   <i type="int" name="NKREDLFX">     1</i>
   <i type="int" name="NKREDLFY">     1</i>
   <i type="int" name="NKREDLFZ">     1</i>
   <i type="int" name="MAXMEM">  1800</i>
   <i type="int" name="TELESCOPE">     0</i>
   <i type="int" name="TAUPAR">     1</i>
   <i type="int" name="OMEGAPAR">    -1</i>
   <i name="LAMBDA">      1.00000000</i>
  </separator>
  <separator name="External order field" >
   <i name="OFIELD_KAPPA">      0.00000000</i>
   <v name="OFIELD_K">      0.00000000      0.00000000      0.00000000</v>
   <i name="OFIELD_Q6_NEAR">      0.00000000</i>
   <i name="OFIELD_Q6_FAR">      0.00000000</i>
   <i name="OFIELD_A">      0.00000000</i>
  </separator>
 </parameters>
 <atominfo>
  <atoms>       2 </atoms>
  <types>       1 </types>
  <array name="atoms" >
   <dimension dim="1">ion</dimension>
   <field type="string">element</field>
   <field type="int">atomtype</field>
   <set>
    <rc><c>C </c><c>   1</c></rc>
    <rc><c>C </c><c>   1</c></rc>
   </set>
  </array>
  <array name="atomtypes" >
   <dimension dim="1">type</dimension>
   <field type="int">atomspertype</field>
   <field type="string">element</field>
   <field>mass</field>
   <field>valence</field>
   <field type="string">pseudopotential</field>
   <set>
    <rc><c>   2</c><c>C </c><c>     12.01100000</c><c>      4.00000000</c><c>  PAW_PBE C 08Apr2002                   </c></rc>
   </set>
  </array>
 </atominfo>
 <structure name="initialpos" >
  <crystal>
   <varray name="basis" >
    <v>       2.47723300       0.00923800       0.00000000 </v>
    <v>      -1.23061600       2.13272700       0.00000000 </v>
    <v>       0.00000000       0.00000000      15.00000000 </v>
   </varray>
   <i name="volume">     79.41945202 </i>
   <varray name="rec_basis" >
    <v>       0.40280944       0.23242719       0.00000000 </v>
    <v>      -0.00174479       0.46787650       0.00000000 </v>
    <v>       0.00000000       0.00000000       0.06666667 </v>
   </varray>
  </crystal>
  <varray name="positions" >
   <v>       0.00035228       0.00015828       0.50000000 </v>
   <v>       0.33298072       0.66650872       0.50000000 </v>
  </varray>
 </structure>
 <calculation>
  <scstep>
   <time name="dav">    0.84    0.84</time>
   <time name="total">    0.85    0.85</time>
   <energy>
    <i name="alphaZ">      4.13736000 </i>
    <i name="ewald">    830.76206454 </i>
    <i name="hartreedc">  -1049.98960762 </i>
    <i name="XCdc">     26.32399473 </i>
    <i name="pawpsdc">    217.04409276 </i>
    <i name="pawaedc">   -218.18290438 </i>
    <i name="eentropy">     -0.00018667 </i>
    <i name="bandstr">    -68.17275154 </i>
    <i name="atom">    294.29778662 </i>
    <i name="e_fr_energy">     36.21984844 </i>
    <i name="e_wo_entrp">     36.22003511 </i>
    <i name="e_0_energy">     36.21994178 </i>
   </energy>
  </scstep>
  <scstep>
   <time name="dav">    1.03    1.03</time>
   <time name="total">    1.04    1.04</time>
   <energy>
    <i name="e_fr_energy">    -17.82667345 </i>
    <i name="e_wo_entrp">    -17.82667345 </i>
    <i name="e_0_energy">    -17.82667345 </i>
   </energy>
  </scstep>
  <scstep>
   <time name="dav">    1.30    1.31</time>
   <time name="total">    1.30    1.31</time>
   <energy>
    <i name="e_fr_energy">    -19.68310905 </i>
    <i name="e_wo_entrp">    -19.68310905 </i>
    <i name="e_0_energy">    -19.68310905 </i>
   </energy>
  </scstep>
  <scstep>
   <time name="dav">    1.18    1.18</time>
   <time name="total">    1.18    1.18</time>
   <energy>
    <i name="e_fr_energy">    -19.69104545 </i>
    <i name="e_wo_entrp">    -19.69104545 </i>
    <i name="e_0_energy">    -19.69104545 </i>
   </energy>
  </scstep>
  <scstep>
   <time name="dav">    1.22    1.22</time>
   <time name="total">    1.25    1.25</time>
   <energy>
    <i name="e_fr_energy">    -19.69105446 </i>
    <i name="e_wo_entrp">    -19.69105446 </i>
    <i name="e_0_energy">    -19.69105446 </i>
   </energy>
  </scstep>
  <scstep>
   <time name="dav">    1.07    1.07</time>
   <time name="total">    1.11    1.11</time>
   <energy>
    <i name="e_fr_energy">    -18.79959123 </i>
    <i name="e_wo_entrp">    -18.79959123 </i>
    <i name="e_0_energy">    -18.79959123 </i>
   </energy>
  </scstep>
  <scstep>
   <time name="dav">    1.16    1.16</time>
   <time name="total">    1.19    1.19</time>
   <energy>
    <i name="e_fr_energy">    -18.45566047 </i>
    <i name="e_wo_entrp">    -18.45566047 </i>
    <i name="e_0_energy">    -18.45566047 </i>
   </energy>
  </scstep>
  <scstep>
   <time name="dav">    1.13    1.13</time>
   <time name="total">    1.16    1.16</time>
   <energy>
    <i name="e_fr_energy">    -18.44826018 </i>
    <i name="e_wo_entrp">    -18.44826018 </i>
    <i name="e_0_energy">    -18.44826018 </i>
   </energy>
  </scstep>
  <scstep>
   <time name="dav">    1.05    1.05</time>
   <time name="total">    1.08    1.08</time>
   <energy>
    <i name="e_fr_energy">    -18.44634179 </i>
    <i name="e_wo_entrp">    -18.44634178 </i>
    <i name="e_0_energy">    -18.44634179 </i>
   </energy>
  </scstep>
  <scstep>
   <time name="dav">    0.91    0.91</time>
   <time name="total">    0.94    0.94</time>
   <energy>
    <i name="e_fr_energy">    -18.44490404 </i>
    <i name="e_wo_entrp">    -18.44490404 </i>
    <i name="e_0_energy">    -18.44490404 </i>
   </energy>
  </scstep>
  <scstep>
   <time name="dav">    0.88    0.88</time>
   <time name="total">    0.92    0.92</time>
   <energy>
    <i name="e_fr_energy">    -18.44512001 </i>
    <i name="e_wo_entrp">    -18.44512001 </i>
    <i name="e_0_energy">    -18.44512001 </i>
   </energy>
  </scstep>
  <scstep>
   <time name="dav">    0.92    0.92</time>
   <time name="total">    0.95    0.96</time>
   <energy>
    <i name="e_fr_energy">    -18.44533775 </i>
    <i name="e_wo_entrp">    -18.44533774 </i>
    <i name="e_0_energy">    -18.44533775 </i>
   </energy>
  </scstep>
  <scstep>
   <time name="dav">    0.91    0.91</time>
   <time name="total">    0.94    0.94</time>
   <energy>
    <i name="e_fr_energy">    -18.44605315 </i>
    <i name="e_wo_entrp">    -18.44605315 </i>
    <i name="e_0_energy">    -18.44605315 </i>
   </energy>
  </scstep>
  <scstep>
   <time name="dav">    1.10    1.10</time>
   <time name="total">    1.13    1.13</time>
   <energy>
    <i name="e_fr_energy">    -18.44610836 </i>
    <i name="e_wo_entrp">    -18.44610835 </i>
    <i name="e_0_energy">    -18.44610836 </i>
   </energy>
  </scstep>
  <scstep>
   <time name="dav">    0.88    0.88</time>
   <time name="total">    0.92    0.92</time>
   <energy>
    <i name="e_fr_energy">    -18.44620547 </i>
    <i name="e_wo_entrp">    -18.44620547 </i>
    <i name="e_0_energy">    -18.44620547 </i>
   </energy>
  </scstep>
  <scstep>
   <time name="dav">    0.91    0.91</time>
   <time name="total">    0.92    0.92</time>
   <energy>
    <i name="alphaZ">      4.13736000 </i>
    <i name="ewald">    830.76206454 </i>
    <i name="hartreedc">  -1082.71889734 </i>
    <i name="XCdc">     27.49550545 </i>
    <i name="pawpsdc">    825.91607595 </i>
    <i name="pawaedc">   -827.28016486 </i>
    <i name="eentropy">     -0.00000000 </i>
    <i name="bandstr">    -91.05594320 </i>
    <i name="atom">    294.29778662 </i>
    <i name="e_fr_energy">    -18.44621284 </i>
    <i name="e_wo_entrp">    -18.44621283 </i>
    <i name="e_0_energy">    -18.44621284 </i>
   </energy>
  </scstep>
  <structure>
   <crystal>
    <varray name="basis" >
     <v>       2.47723300       0.00923800       0.00000000 </v>
     <v>      -1.23061600       2.13272700       0.00000000 </v>
     <v>       0.00000000       0.00000000      15.00000000 </v>
    </varray>
    <i name="volume">     79.41945202 </i>
    <varray name="rec_basis" >
     <v>       0.40280944       0.23242719       0.00000000 </v>
     <v>      -0.00174479       0.46787650       0.00000000 </v>
     <v>       0.00000000       0.00000000       0.06666667 </v>
    </varray>
   </crystal>
   <varray name="positions" >
    <v>       0.00035228       0.00015828       0.50000000 </v>
    <v>       0.33298072       0.66650872       0.50000000 </v>
   </varray>
  </structure>
  <varray name="forces" >
   <v>      -0.11637388      -0.05782160       0.00000000 </v>
   <v>       0.11637388       0.05782160       0.00000000 </v>
  </varray>
  <varray name="stress" >
   <v>      -8.55610839      -7.15184446       0.00000000 </v>
   <v>      -7.15184444      -1.38136832       0.00000000 </v>
   <v>       0.00000000       0.00000000       0.01721892 </v>
  </varray>
  <energy>
   <i name="e_fr_energy">    -18.44621284 </i>
   <i name="e_wo_entrp">    -18.44621284 </i>
   <i name="e_0_energy">     -0.00000000 </i>
  </energy>
  <time name="totalsc">   17.57   17.60</time>
  <eigenvalues>
   <array>
    <dimension dim="1">band</dimension>
    <dimension dim="2">kpoint</dimension>
    <dimension dim="3">spin</dimension>
    <field>eigene</field>
    <field>occ</field>
    <set>
     <set comment="spin 1">
      <set comment="kpoint 1">
       <r>  -21.7257    1.0000 </r>
       <r>   -9.8384    1.0000 </r>
       <r>   -5.3118    1.0000 </r>
       <r>   -5.3057    1.0000 </r>
       <r>    1.0058    0.0000 </r>
       <r>    1.9177    0.0000 </r>
       <r>    2.3807    0.0000 </r>
       <r>    4.3377    0.0000 </r>
       <r>    5.0783    0.0000 </r>
       <r>    5.8599    0.0000 </r>
       <r>    6.1151    0.0000 </r>
       <r>    8.2135    0.0000 </r>
      </set>
      <set comment="kpoint 2">
       <r>  -21.6852    1.0000 </r>
       <r>   -9.7902    1.0000 </r>
       <r>   -5.4783    1.0000 </r>
       <r>   -5.3971    1.0000 </r>
       <r>    1.0607    0.0000 </r>
       <r>    1.9731    0.0000 </r>
       <r>    2.4367    0.0000 </r>
       <r>    4.3927    0.0000 </r>
       <r>    5.1314    0.0000 </r>
       <r>    5.9035    0.0000 </r>
       <r>    6.2883    0.0000 </r>
       <r>    8.2668    0.0000 </r>
      </set>
      <set comment="kpoint 3">
       <r>  -21.5637    1.0000 </r>
       <r>   -9.6458    1.0000 </r>
       <r>   -5.9683    1.0000 </r>
       <r>   -5.6359    1.0000 </r>
       <r>    1.2254    0.0000 </r>
       <r>    2.1392    0.0000 </r>
       <r>    2.6046    0.0000 </r>
       <r>    4.5578    0.0000 </r>
       <r>    5.2905    0.0000 </r>
       <r>    5.9996    0.0000 </r>
       <r>    6.7897    0.0000 </r>
       <r>    8.4197    0.0000 </r>
      </set>
      <set comment="kpoint 4">
       <r>  -21.3617    1.0000 </r>
       <r>   -9.4063    1.0000 </r>
       <r>   -6.7083    1.0000 </r>
       <r>   -5.9861    1.0000 </r>
       <r>    1.5001    0.0000 </r>
       <r>    2.4157    0.0000 </r>
       <r>    2.8845    0.0000 </r>
       <r>    4.8323    0.0000 </r>
       <r>    5.5517    0.0000 </r>
       <r>    6.0796    0.0000 </r>
       <r>    7.5732    0.0000 </r>
       <r>    7.8297    0.0000 </r>
      </set>
      <set comment="kpoint 5">
       <r>  -21.0797    1.0000 </r>
       <r>   -9.0735    1.0000 </r>
       <r>   -7.6219    1.0000 </r>
       <r>   -6.3987    1.0000 </r>
       <r>    1.8846    0.0000 </r>
       <r>    2.8017    0.0000 </r>
       <r>    3.2764    0.0000 </r>
       <r>    5.2142    0.0000 </r>
       <r>    5.8671    0.0000 </r>
       <r>    6.1433    0.0000 </r>
       <r>    6.9874    0.0000 </r>
       <r>    8.5835    0.0000 </r>
      </set>
      <set comment="kpoint 6">
       <r>  -20.7186    1.0000 </r>
       <r>   -8.6502    1.0000 </r>
       <r>   -8.6434    1.0000 </r>
       <r>   -6.8310    1.0000 </r>
       <r>    2.3786    0.0000 </r>
       <r>    3.2952    0.0000 </r>
       <r>    3.7801    0.0000 </r>
       <r>    5.6689    0.0000 </r>
       <r>    5.9287    0.0000 </r>
       <r>    6.0395    0.0000 </r>
       <r>    6.4965    0.0000 </r>
       <r>    9.5391    0.0000 </r>
      </set>
      <set comment="kpoint 7">
       <r>  -20.2796    1.0000 </r>
       <r>   -9.7223    1.0000 </r>
       <r>   -8.1409    1.0000 </r>
       <r>   -7.2502    1.0000 </r>
       <r>    2.9813    0.0000 </r>
       <r>    3.8798    0.0000 </r>
       <r>    4.3951    0.0000 </r>
       <r>    4.9126    0.0000 </r>
       <r>    5.8215    0.0000 </r>
       <r>    6.3323    0.0000 </r>
       <r>    7.0803    0.0000 </r>
       <r>   10.1114    0.0000 </r>
      </set>
      <set comment="kpoint 8">
       <r>  -19.7645    1.0000 </r>
       <r>  -10.8217    1.0000 </r>
       <r>   -7.6327    1.0000 </r>
       <r>   -7.5532    1.0000 </r>
       <r>    3.6915    0.0000 </r>
       <r>    3.6990    0.0000 </r>
       <r>    4.6746    0.0000 </r>
       <r>    5.1174    0.0000 </r>
       <r>    5.6863    0.0000 </r>
       <r>    7.0363    0.0000 </r>
       <r>    7.7863    0.0000 </r>
       <r>   10.7751    0.0000 </r>
      </set>
      <set comment="kpoint 9">
       <r>  -19.1762    1.0000 </r>
       <r>  -11.9140    1.0000 </r>
       <r>   -7.9625    1.0000 </r>
       <r>   -6.8995    1.0000 </r>
       <r>    2.5788    0.0000 </r>
       <r>    4.5047    0.0000 </r>
       <r>    5.4723    0.0000 </r>
       <r>    5.5283    0.0000 </r>
       <r>    5.9786    0.0000 </r>
       <r>    7.8497    0.0000 </r>
       <r>    8.6032    0.0000 </r>
       <r>   11.5141    0.0000 </r>
      </set>
      <set comment="kpoint 10">
       <r>  -18.5197    1.0000 </r>
       <r>  -12.9772    1.0000 </r>
       <r>   -8.2282    1.0000 </r>
       <r>   -6.2037    1.0000 </r>
       <r>    1.4783    0.0000 </r>
       <r>    5.2982    0.0000 </r>
       <r>    5.5438    0.0000 </r>
       <r>    6.3973    0.0000 </r>
       <r>    6.9212    0.0000 </r>
       <r>    8.7650    0.0000 </r>
       <r>    9.5270    0.0000 </r>
       <r>   12.2699    0.0000 </r>
      </set>
      <set comment="kpoint 11">
       <r>  -17.8057    1.0000 </r>
       <r>  -13.9888    1.0000 </r>
       <r>   -8.4227    1.0000 </r>
       <r>   -5.5151    1.0000 </r>
       <r>    0.4853    0.0000 </r>
       <r>    5.2895    0.0000 </r>
       <r>    6.4871    0.0000 </r>
       <r>    7.4275    0.0000 </r>
       <r>    7.9815    0.0000 </r>
       <r>    9.7728    0.0000 </r>
       <r>   10.5521    0.0000 </r>
       <r>   11.4505    0.0000 </r>
      </set>
      <set comment="kpoint 12">
       <r>  -17.0740    1.0000 </r>
       <r>  -14.9018    1.0000 </r>
       <r>   -8.5410    1.0000 </r>
       <r>   -4.9450    1.0000 </r>
       <r>   -0.2730    0.0000 </r>
       <r>    5.2353    0.0000 </r>
       <r>    7.6092    0.0000 </r>
       <r>    8.5537    0.0000 </r>
       <r>    9.1520    0.0000 </r>
       <r>   10.1274    0.0000 </r>
       <r>   10.7751    0.0000 </r>
       <r>   11.1723    0.0000 </r>
      </set>
      <set comment="kpoint 13">
       <r>  -16.6118    1.0000 </r>
       <r>  -15.4249    1.0000 </r>
       <r>   -8.5808    1.0000 </r>
       <r>   -4.7048    1.0000 </r>
       <r>   -0.5768    0.0000 </r>
       <r>    5.2161    0.0000 </r>
       <r>    8.7462    0.0000 </r>
       <r>    8.9148    0.0000 </r>
       <r>    9.6621    0.0000 </r>
       <r>    9.8774    0.0000 </r>
       <r>   10.4195    0.0000 </r>
       <r>   10.4478    0.0000 </r>
      </set>
      <set comment="kpoint 14">
       <r>  -21.6847    1.0000 </r>
       <r>   -9.7895    1.0000 </r>
       <r>   -5.4775    1.0000 </r>
       <r>   -5.3971    1.0000 </r>
       <r>    1.0614    0.0000 </r>
       <r>    1.9738    0.0000 </r>
       <r>    2.4374    0.0000 </r>
       <r>    4.3934    0.0000 </r>
       <r>    5.1326    0.0000 </r>
       <r>    5.9692    0.0000 </r>
       <r>    6.2015    0.0000 </r>
       <r>    8.2676    0.0000 </r>
      </set>
      <set comment="kpoint 15">
       <r>  -21.6037    1.0000 </r>
       <r>   -9.6932    1.0000 </r>
       <r>   -5.7891    1.0000 </r>
       <r>   -5.5794    1.0000 </r>
       <r>    1.1712    0.0000 </r>
       <r>    2.0845    0.0000 </r>
       <r>    2.5493    0.0000 </r>
       <r>    4.5035    0.0000 </r>
       <r>    5.2386    0.0000 </r>
       <r>    6.0054    0.0000 </r>
       <r>    6.5746    0.0000 </r>
       <r>    8.3739    0.0000 </r>
      </set>
      <set comment="kpoint 16">
       <r>  -21.4421    1.0000 </r>
       <r>   -9.5014    1.0000 </r>
       <r>   -6.3835    1.0000 </r>
       <r>   -5.8953    1.0000 </r>
       <r>    1.3909    0.0000 </r>
       <r>    2.3058    0.0000 </r>
       <r>    2.7732    0.0000 </r>
       <r>    4.7233    0.0000 </r>
       <r>    5.4506    0.0000 </r>
       <r>    6.1225    0.0000 </r>
       <r>    7.1766    0.0000 </r>
       <r>    8.0892    0.0000 </r>
      </set>
      <set comment="kpoint 17">
       <r>  -21.2001    1.0000 </r>
       <r>   -9.2152    1.0000 </r>
       <r>   -7.1918    1.0000 </r>
       <r>   -6.2962    1.0000 </r>
       <r>    1.7205    0.0000 </r>
       <r>    2.6371    0.0000 </r>
       <r>    3.1091    0.0000 </r>
       <r>    5.0519    0.0000 </r>
       <r>    5.7604    0.0000 </r>
       <r>    6.2183    0.0000 </r>
       <r>    7.3459    0.0000 </r>
       <r>    7.9933    0.0000 </r>
      </set>
      <set comment="kpoint 18">
       <r>  -20.8785    1.0000 </r>
       <r>   -8.8370    1.0000 </r>
       <r>   -8.1448    1.0000 </r>
       <r>   -6.7340    1.0000 </r>
       <r>    2.1598    0.0000 </r>
       <r>    3.0773    0.0000 </r>
       <r>    3.5569    0.0000 </r>
       <r>    5.4839    0.0000 </r>
       <r>    6.0591    0.0000 </r>
       <r>    6.3468    0.0000 </r>
       <r>    6.4432    0.0000 </r>
       <r>    9.3269    0.0000 </r>
      </set>
      <set comment="kpoint 19">
       <r>  -20.4785    1.0000 </r>
       <r>   -9.1845    1.0000 </r>
       <r>   -8.3704    1.0000 </r>
       <r>   -7.1707    1.0000 </r>
       <r>    2.7082    0.0000 </r>
       <r>    3.6214    0.0000 </r>
       <r>    4.1164    0.0000 </r>
       <r>    5.3861    0.0000 </r>
       <r>    6.0487    0.0000 </r>
       <r>    6.0650    0.0000 </r>
       <r>    6.8173    0.0000 </r>
       <r>    9.8481    0.0000 </r>
      </set>
      <set comment="kpoint 20">
       <r>  -20.0015    1.0000 </r>
       <r>  -10.2665    1.0000 </r>
       <r>   -7.8211    1.0000 </r>
       <r>   -7.5790    1.0000 </r>
       <r>    3.3650    0.0000 </r>
       <r>    4.1056    0.0000 </r>
       <r>    4.4698    0.0000 </r>
       <r>    4.7867    0.0000 </r>
       <r>    5.9321    0.0000 </r>
       <r>    6.7071    0.0000 </r>
       <r>    7.4616    0.0000 </r>
       <r>   10.4631    0.0000 </r>
      </set>
      <set comment="kpoint 21">
       <r>  -19.4497    1.0000 </r>
       <r>  -11.3576    1.0000 </r>
       <r>   -7.9399    1.0000 </r>
       <r>   -7.1988    1.0000 </r>
       <r>    3.1190    0.0000 </r>
       <r>    4.1283    0.0000 </r>
       <r>    5.0895    0.0000 </r>
       <r>    5.5532    0.0000 </r>
       <r>    5.8114    0.0000 </r>
       <r>    7.4665    0.0000 </r>
       <r>    8.2226    0.0000 </r>
       <r>   11.1592    0.0000 </r>
      </set>
      <set comment="kpoint 22">
       <r>  -18.8269    1.0000 </r>
       <r>  -12.4325    1.0000 </r>
       <r>   -8.2407    1.0000 </r>
       <r>   -6.5202    1.0000 </r>
       <r>    2.0030    0.0000 </r>
       <r>    4.9885    0.0000 </r>
       <r>    5.6618    0.0000 </r>
       <r>    5.9576    0.0000 </r>
       <r>    6.4767    0.0000 </r>
       <r>    8.3294    0.0000 </r>
       <r>    9.0928    0.0000 </r>
       <r>   11.9016    0.0000 </r>
      </set>
      <set comment="kpoint 23">
       <r>  -18.1402    1.0000 </r>
       <r>  -13.4695    1.0000 </r>
       <r>   -8.4726    1.0000 </r>
       <r>   -5.8190    1.0000 </r>
       <r>    0.9508    0.0000 </r>
       <r>    5.5036    0.0000 </r>
       <r>    6.0166    0.0000 </r>
       <r>    6.9347    0.0000 </r>
       <r>    7.4795    0.0000 </r>
       <r>    9.2883    0.0000 </r>
       <r>   10.0676    0.0000 </r>
       <r>   12.0714    0.0000 </r>
      </set>
      <set comment="kpoint 24">
       <r>  -17.4087    1.0000 </r>
       <r>  -14.4393    1.0000 </r>
       <r>   -8.6299    1.0000 </r>
       <r>   -5.1688    1.0000 </r>
       <r>    0.0570    0.0000 </r>
       <r>    5.4455    0.0000 </r>
       <r>    7.0754    0.0000 </r>
       <r>    8.0108    0.0000 </r>
       <r>    8.5951    0.0000 </r>
       <r>   10.3200    0.0000 </r>
       <r>   10.8073    0.0000 </r>
       <r>   11.1541    0.0000 </r>
      </set>
      <set comment="kpoint 25">
       <r>  -16.7320    1.0000 </r>
       <r>  -15.2367    1.0000 </r>
       <r>   -8.7093    1.0000 </r>
       <r>   -4.7311    1.0000 </r>
       <r>   -0.5053    0.0000 </r>
       <r>    5.4079    0.0000 </r>
       <r>    8.2429    0.0000 </r>
       <r>    9.1685    0.0000 </r>
       <r>    9.5084    0.0000 </r>
       <r>    9.8245    0.0000 </r>
       <r>   10.4134    0.0000 </r>
       <r>   11.1545    0.0000 </r>
      </set>
      <set comment="kpoint 26">
       <r>  -16.7315    1.0000 </r>
       <r>  -15.2373    1.0000 </r>
       <r>   -8.7091    1.0000 </r>
       <r>   -4.7309    1.0000 </r>
       <r>   -0.5056    0.0000 </r>
       <r>    5.4078    0.0000 </r>
       <r>    8.2441    0.0000 </r>
       <r>    9.1696    0.0000 </r>
       <r>    9.5071    0.0000 </r>
       <r>    9.8257    0.0000 </r>
       <r>   10.4123    0.0000 </r>
       <r>   11.1532    0.0000 </r>
      </set>
      <set comment="kpoint 27">
       <r>  -17.4080    1.0000 </r>
       <r>  -14.4403    1.0000 </r>
       <r>   -8.6294    1.0000 </r>
       <r>   -5.1682    1.0000 </r>
       <r>    0.0562    0.0000 </r>
       <r>    5.4452    0.0000 </r>
       <r>    7.0764    0.0000 </r>
       <r>    8.0119    0.0000 </r>
       <r>    8.5961    0.0000 </r>
       <r>   10.3210    0.0000 </r>
       <r>   10.8056    0.0000 </r>
       <r>   11.1551    0.0000 </r>
      </set>
      <set comment="kpoint 28">
       <r>  -18.1395    1.0000 </r>
       <r>  -13.4706    1.0000 </r>
       <r>   -8.4717    1.0000 </r>
       <r>   -5.8183    1.0000 </r>
       <r>    0.9499    0.0000 </r>
       <r>    5.5033    0.0000 </r>
       <r>    6.0173    0.0000 </r>
       <r>    6.9357    0.0000 </r>
       <r>    7.4804    0.0000 </r>
       <r>    9.2893    0.0000 </r>
       <r>   10.0685    0.0000 </r>
       <r>   12.0681    0.0000 </r>
      </set>
      <set comment="kpoint 29">
       <r>  -18.8263    1.0000 </r>
       <r>  -12.4339    1.0000 </r>
       <r>   -8.2395    1.0000 </r>
       <r>   -6.5195    1.0000 </r>
       <r>    2.0020    0.0000 </r>
       <r>    4.9894    0.0000 </r>
       <r>    5.6611    0.0000 </r>
       <r>    5.9585    0.0000 </r>
       <r>    6.4775    0.0000 </r>
       <r>    8.3303    0.0000 </r>
       <r>    9.0936    0.0000 </r>
       <r>   11.9027    0.0000 </r>
      </set>
      <set comment="kpoint 30">
       <r>  -19.4492    1.0000 </r>
       <r>  -11.3591    1.0000 </r>
       <r>   -7.9385    1.0000 </r>
       <r>   -7.1981    1.0000 </r>
       <r>    3.1180    0.0000 </r>
       <r>    4.1291    0.0000 </r>
       <r>    5.0903    0.0000 </r>
       <r>    5.5539    0.0000 </r>
       <r>    5.8107    0.0000 </r>
       <r>    7.4673    0.0000 </r>
       <r>    8.2233    0.0000 </r>
       <r>   11.1602    0.0000 </r>
      </set>
      <set comment="kpoint 31">
       <r>  -20.0010    1.0000 </r>
       <r>  -10.2681    1.0000 </r>
       <r>   -7.8205    1.0000 </r>
       <r>   -7.5772    1.0000 </r>
       <r>    3.3657    0.0000 </r>
       <r>    4.1053    0.0000 </r>
       <r>    4.4700    0.0000 </r>
       <r>    4.7873    0.0000 </r>
       <r>    5.9316    0.0000 </r>
       <r>    6.7079    0.0000 </r>
       <r>    7.4621    0.0000 </r>
       <r>   10.4639    0.0000 </r>
      </set>
      <set comment="kpoint 32">
       <r>  -20.4781    1.0000 </r>
       <r>   -9.1863    1.0000 </r>
       <r>   -8.3699    1.0000 </r>
       <r>   -7.1687    1.0000 </r>
       <r>    2.7088    0.0000 </r>
       <r>    3.6219    0.0000 </r>
       <r>    4.1170    0.0000 </r>
       <r>    5.3855    0.0000 </r>
       <r>    6.0488    0.0000 </r>
       <r>    6.0656    0.0000 </r>
       <r>    6.8177    0.0000 </r>
       <r>    9.8487    0.0000 </r>
      </set>
      <set comment="kpoint 33">
       <r>  -20.8782    1.0000 </r>
       <r>   -8.8365    1.0000 </r>
       <r>   -8.1466    1.0000 </r>
       <r>   -6.7319    1.0000 </r>
       <r>    2.1602    0.0000 </r>
       <r>    3.0777    0.0000 </r>
       <r>    3.5574    0.0000 </r>
       <r>    5.4843    0.0000 </r>
       <r>    6.0602    0.0000 </r>
       <r>    6.3471    0.0000 </r>
       <r>    6.4429    0.0000 </r>
       <r>    8.9823    0.0000 </r>
      </set>
      <set comment="kpoint 34">
       <r>  -21.1998    1.0000 </r>
       <r>   -9.2148    1.0000 </r>
       <r>   -7.1936    1.0000 </r>
       <r>   -6.2941    1.0000 </r>
       <r>    1.7208    0.0000 </r>
       <r>    2.6374    0.0000 </r>
       <r>    3.1094    0.0000 </r>
       <r>    5.0522    0.0000 </r>
       <r>    5.7611    0.0000 </r>
       <r>    6.2207    0.0000 </r>
       <r>    7.3458    0.0000 </r>
       <r>    7.9796    0.0000 </r>
      </set>
      <set comment="kpoint 35">
       <r>  -21.4419    1.0000 </r>
       <r>   -9.5011    1.0000 </r>
       <r>   -6.3852    1.0000 </r>
       <r>   -5.8934    1.0000 </r>
       <r>    1.3911    0.0000 </r>
       <r>    2.3060    0.0000 </r>
       <r>    2.7734    0.0000 </r>
       <r>    4.7235    0.0000 </r>
       <r>    5.4511    0.0000 </r>
       <r>    6.1277    0.0000 </r>
       <r>    7.1635    0.0000 </r>
       <r>    8.0892    0.0000 </r>
      </set>
      <set comment="kpoint 36">
       <r>  -21.6036    1.0000 </r>
       <r>   -9.6931    1.0000 </r>
       <r>   -5.7902    1.0000 </r>
       <r>   -5.5782    1.0000 </r>
       <r>    1.1713    0.0000 </r>
       <r>    2.0847    0.0000 </r>
       <r>    2.5494    0.0000 </r>
       <r>    4.5036    0.0000 </r>
       <r>    5.2389    0.0000 </r>
       <r>    6.0132    0.0000 </r>
       <r>    6.5622    0.0000 </r>
       <r>    8.3740    0.0000 </r>
      </set>
      <set comment="kpoint 37">
       <r>  -21.6846    1.0000 </r>
       <r>   -9.7894    1.0000 </r>
       <r>   -5.4776    1.0000 </r>
       <r>   -5.3970    1.0000 </r>
       <r>    1.0615    0.0000 </r>
       <r>    1.9739    0.0000 </r>
       <r>    2.4374    0.0000 </r>
       <r>    4.3935    0.0000 </r>
       <r>    5.1327    0.0000 </r>
       <r>    5.9768    0.0000 </r>
       <r>    6.1924    0.0000 </r>
       <r>    8.2677    0.0000 </r>
      </set>
      <set comment="kpoint 38">
       <r>  -21.5617    1.0000 </r>
       <r>   -9.6430    1.0000 </r>
       <r>   -5.9541    1.0000 </r>
       <r>   -5.6480    1.0000 </r>
       <r>    1.2283    0.0000 </r>
       <r>    2.1420    0.0000 </r>
       <r>    2.6074    0.0000 </r>
       <r>    4.5606    0.0000 </r>
       <r>    5.2949    0.0000 </r>
       <r>    6.0645    0.0000 </r>
       <r>    6.6486    0.0000 </r>
       <r>    8.4291    0.0000 </r>
      </set>
      <set comment="kpoint 39">
       <r>  -21.4406    1.0000 </r>
       <r>   -9.4993    1.0000 </r>
       <r>   -6.3630    1.0000 </r>
       <r>   -5.9155    1.0000 </r>
       <r>    1.3930    0.0000 </r>
       <r>    2.3079    0.0000 </r>
       <r>    2.7753    0.0000 </r>
       <r>    4.7254    0.0000 </r>
       <r>    5.4533    0.0000 </r>
       <r>    6.1240    0.0000 </r>
       <r>    7.1290    0.0000 </r>
       <r>    8.0936    0.0000 </r>
      </set>
      <set comment="kpoint 40">
       <r>  -21.2389    1.0000 </r>
       <r>   -9.2606    1.0000 </r>
       <r>   -6.9810    1.0000 </r>
       <r>   -6.3282    1.0000 </r>
       <r>    1.6677    0.0000 </r>
       <r>    2.5840    0.0000 </r>
       <r>    3.0551    0.0000 </r>
       <r>    4.9997    0.0000 </r>
       <r>    5.7191    0.0000 </r>
       <r>    6.3393    0.0000 </r>
       <r>    7.4754    0.0000 </r>
       <r>    7.6564    0.0000 </r>
      </set>
      <set comment="kpoint 41">
       <r>  -20.9574    1.0000 </r>
       <r>   -8.9289    1.0000 </r>
       <r>   -7.7797    1.0000 </r>
       <r>   -6.8046    1.0000 </r>
       <r>    2.0522    0.0000 </r>
       <r>    2.9699    0.0000 </r>
       <r>    3.4471    0.0000 </r>
       <r>    5.3818    0.0000 </r>
       <r>    6.0838    0.0000 </r>
       <r>    6.5526    0.0000 </r>
       <r>    6.6776    0.0000 </r>
       <r>    8.2890    0.0000 </r>
      </set>
      <set comment="kpoint 42">
       <r>  -20.5970    1.0000 </r>
       <r>   -8.7145    1.0000 </r>
       <r>   -8.5070    1.0000 </r>
       <r>   -7.2844    1.0000 </r>
       <r>    2.5462    0.0000 </r>
       <r>    3.4634    0.0000 </r>
       <r>    3.9509    0.0000 </r>
       <r>    5.7056    0.0000 </r>
       <r>    5.9109    0.0000 </r>
       <r>    6.4445    0.0000 </r>
       <r>    6.7462    0.0000 </r>
       <r>    9.1119    0.0000 </r>
      </set>
      <set comment="kpoint 43">
       <r>  -20.1589    1.0000 </r>
       <r>   -9.7332    1.0000 </r>
       <r>   -7.9994    1.0000 </r>
       <r>   -7.7351    1.0000 </r>
       <r>    3.1491    0.0000 </r>
       <r>    4.0464    0.0000 </r>
       <r>    4.5664    0.0000 </r>
       <r>    4.7222    0.0000 </r>
       <r>    6.4782    0.0000 </r>
       <r>    6.4822    0.0000 </r>
       <r>    7.2588    0.0000 </r>
       <r>   10.2444    0.0000 </r>
      </set>
      <set comment="kpoint 44">
       <r>  -19.6451    1.0000 </r>
       <r>  -10.7916    1.0000 </r>
       <r>   -8.1375    1.0000 </r>
       <r>   -7.4133    1.0000 </r>
       <r>    3.5823    0.0000 </r>
       <r>    3.8598    0.0000 </r>
       <r>    4.8107    0.0000 </r>
       <r>    5.2924    0.0000 </r>
       <r>    6.3792    0.0000 </r>
       <r>    7.1862    0.0000 </r>
       <r>    7.9552    0.0000 </r>
       <r>   10.8827    0.0000 </r>
      </set>
      <set comment="kpoint 45">
       <r>  -19.0584    1.0000 </r>
       <r>  -11.8560    1.0000 </r>
       <r>   -8.4792    1.0000 </r>
       <r>   -6.7611    1.0000 </r>
       <r>    2.4869    0.0000 </r>
       <r>    4.6760    0.0000 </r>
       <r>    5.6206    0.0000 </r>
       <r>    6.1037    0.0000 </r>
       <r>    6.2825    0.0000 </r>
       <r>    7.9928    0.0000 </r>
       <r>    8.7687    0.0000 </r>
       <r>   11.5651    0.0000 </r>
      </set>
      <set comment="kpoint 46">
       <r>  -18.4039    1.0000 </r>
       <r>  -12.9000    1.0000 </r>
       <r>   -8.7521    1.0000 </r>
       <r>   -6.0656    1.0000 </r>
       <r>    1.4156    0.0000 </r>
       <r>    5.5854    0.0000 </r>
       <r>    6.1402    0.0000 </r>
       <r>    6.5414    0.0000 </r>
       <r>    7.0919    0.0000 </r>
       <r>    8.8940    0.0000 </r>
       <r>    9.6896    0.0000 </r>
       <r>   12.1666    0.0000 </r>
      </set>
      <set comment="kpoint 47">
       <r>  -17.6928    1.0000 </r>
       <r>  -13.8983    1.0000 </r>
       <r>   -8.9505    1.0000 </r>
       <r>   -5.3751    1.0000 </r>
       <r>    0.4420    0.0000 </r>
       <r>    6.0044    0.0000 </r>
       <r>    6.6559    0.0000 </r>
       <r>    7.5604    0.0000 </r>
       <r>    8.1504    0.0000 </r>
       <r>    9.8697    0.0000 </r>
       <r>   10.7089    0.0000 </r>
       <r>   11.5025    0.0000 </r>
      </set>
      <set comment="kpoint 48">
       <r>  -16.9649    1.0000 </r>
       <r>  -14.8019    1.0000 </r>
       <r>   -9.0707    1.0000 </r>
       <r>   -4.7995    1.0000 </r>
       <r>   -0.3091    0.0000 </r>
       <r>    5.9572    0.0000 </r>
       <r>    7.7667    0.0000 </r>
       <r>    8.6610    0.0000 </r>
       <r>    9.3193    0.0000 </r>
       <r>   10.2550    0.0000 </r>
       <r>   10.7264    0.0000 </r>
       <r>   11.3251    0.0000 </r>
      </set>
      <set comment="kpoint 49">
       <r>  -16.5057    1.0000 </r>
       <r>  -15.3204    1.0000 </r>
       <r>   -9.1108    1.0000 </r>
       <r>   -4.5548    1.0000 </r>
       <r>   -0.6133    0.0000 </r>
       <r>    5.9383    0.0000 </r>
       <r>    8.8897    0.0000 </r>
       <r>    9.0693    0.0000 </r>
       <r>    9.6430    0.0000 </r>
       <r>   10.0470    0.0000 </r>
       <r>   10.5844    0.0000 </r>
       <r>   10.6154    0.0000 </r>
      </set>
      <set comment="kpoint 50">
       <r>  -16.9635    1.0000 </r>
       <r>  -14.8037    1.0000 </r>
       <r>   -9.0701    1.0000 </r>
       <r>   -4.7986    1.0000 </r>
       <r>   -0.3102    0.0000 </r>
       <r>    5.9569    0.0000 </r>
       <r>    7.7689    0.0000 </r>
       <r>    8.6632    0.0000 </r>
       <r>    9.3215    0.0000 </r>
       <r>   10.2519    0.0000 </r>
       <r>   10.7270    0.0000 </r>
       <r>   11.3244    0.0000 </r>
      </set>
      <set comment="kpoint 51">
       <r>  -17.6914    1.0000 </r>
       <r>  -13.9005    1.0000 </r>
       <r>   -8.9492    1.0000 </r>
       <r>   -5.3738    1.0000 </r>
       <r>    0.4403    0.0000 </r>
       <r>    6.0040    0.0000 </r>
       <r>    6.6576    0.0000 </r>
       <r>    7.5624    0.0000 </r>
       <r>    8.1523    0.0000 </r>
       <r>    9.8717    0.0000 </r>
       <r>   10.7109    0.0000 </r>
       <r>   11.4977    0.0000 </r>
      </set>
      <set comment="kpoint 52">
       <r>  -18.4026    1.0000 </r>
       <r>  -12.9026    1.0000 </r>
       <r>   -8.7502    1.0000 </r>
       <r>   -6.0642    1.0000 </r>
       <r>    1.4137    0.0000 </r>
       <r>    5.5873    0.0000 </r>
       <r>    6.1391    0.0000 </r>
       <r>    6.5433    0.0000 </r>
       <r>    7.0936    0.0000 </r>
       <r>    8.8959    0.0000 </r>
       <r>    9.6913    0.0000 </r>
       <r>   12.1687    0.0000 </r>
      </set>
      <set comment="kpoint 53">
       <r>  -19.0572    1.0000 </r>
       <r>  -11.8588    1.0000 </r>
       <r>   -8.4767    1.0000 </r>
       <r>   -6.7597    1.0000 </r>
       <r>    2.4851    0.0000 </r>
       <r>    4.6777    0.0000 </r>
       <r>    5.6223    0.0000 </r>
       <r>    6.1050    0.0000 </r>
       <r>    6.2816    0.0000 </r>
       <r>    7.9945    0.0000 </r>
       <r>    8.7702    0.0000 </r>
       <r>   11.5671    0.0000 </r>
      </set>
      <set comment="kpoint 54">
       <r>  -19.6440    1.0000 </r>
       <r>  -10.7947    1.0000 </r>
       <r>   -8.1343    1.0000 </r>
       <r>   -7.4120    1.0000 </r>
       <r>    3.5806    0.0000 </r>
       <r>    3.8612    0.0000 </r>
       <r>    4.8122    0.0000 </r>
       <r>    5.2938    0.0000 </r>
       <r>    6.3784    0.0000 </r>
       <r>    7.1877    0.0000 </r>
       <r>    7.9564    0.0000 </r>
       <r>   10.8844    0.0000 </r>
      </set>
      <set comment="kpoint 55">
       <r>  -20.1580    1.0000 </r>
       <r>   -9.7365    1.0000 </r>
       <r>   -7.9983    1.0000 </r>
       <r>   -7.7314    1.0000 </r>
       <r>    3.1503    0.0000 </r>
       <r>    4.0473    0.0000 </r>
       <r>    4.5676    0.0000 </r>
       <r>    4.7212    0.0000 </r>
       <r>    6.4783    0.0000 </r>
       <r>    6.4836    0.0000 </r>
       <r>    7.2596    0.0000 </r>
       <r>   10.2458    0.0000 </r>
      </set>
      <set comment="kpoint 56">
       <r>  -20.5962    1.0000 </r>
       <r>   -8.7180    1.0000 </r>
       <r>   -8.5060    1.0000 </r>
       <r>   -7.2805    1.0000 </r>
       <r>    2.5472    0.0000 </r>
       <r>    3.4644    0.0000 </r>
       <r>    3.9519    0.0000 </r>
       <r>    5.7046    0.0000 </r>
       <r>    5.9121    0.0000 </r>
       <r>    6.4465    0.0000 </r>
       <r>    6.7467    0.0000 </r>
       <r>    9.0878    0.0000 </r>
      </set>
      <set comment="kpoint 57">
       <r>  -20.9568    1.0000 </r>
       <r>   -8.9281    1.0000 </r>
       <r>   -7.7829    1.0000 </r>
       <r>   -6.8009    1.0000 </r>
       <r>    2.0530    0.0000 </r>
       <r>    2.9707    0.0000 </r>
       <r>    3.4479    0.0000 </r>
       <r>    5.3826    0.0000 </r>
       <r>    6.0853    0.0000 </r>
       <r>    6.5558    0.0000 </r>
       <r>    6.6773    0.0000 </r>
       <r>    8.2653    0.0000 </r>
      </set>
      <set comment="kpoint 58">
       <r>  -21.2385    1.0000 </r>
       <r>   -9.2600    1.0000 </r>
       <r>   -6.9831    1.0000 </r>
       <r>   -6.3257    1.0000 </r>
       <r>    1.6683    0.0000 </r>
       <r>    2.5846    0.0000 </r>
       <r>    3.0558    0.0000 </r>
       <r>    5.0003    0.0000 </r>
       <r>    5.7201    0.0000 </r>
       <r>    6.3444    0.0000 </r>
       <r>    7.4755    0.0000 </r>
       <r>    7.6350    0.0000 </r>
      </set>
      <set comment="kpoint 59">
       <r>  -21.4403    1.0000 </r>
       <r>   -9.4989    1.0000 </r>
       <r>   -6.3634    1.0000 </r>
       <r>   -5.9148    1.0000 </r>
       <r>    1.3934    0.0000 </r>
       <r>    2.3083    0.0000 </r>
       <r>    2.7757    0.0000 </r>
       <r>    4.7258    0.0000 </r>
       <r>    5.4540    0.0000 </r>
       <r>    6.1299    0.0000 </r>
       <r>    7.1122    0.0000 </r>
       <r>    8.0939    0.0000 </r>
      </set>
      <set comment="kpoint 60">
       <r>  -21.5616    1.0000 </r>
       <r>   -9.6429    1.0000 </r>
       <r>   -5.9533    1.0000 </r>
       <r>   -5.6487    1.0000 </r>
       <r>    1.2286    0.0000 </r>
       <r>    2.1422    0.0000 </r>
       <r>    2.6076    0.0000 </r>
       <r>    4.5608    0.0000 </r>
       <r>    5.2952    0.0000 </r>
       <r>    6.0714    0.0000 </r>
       <r>    6.6365    0.0000 </r>
       <r>    8.4294    0.0000 </r>
      </set>
      <set comment="kpoint 61">
       <r>  -21.6021    1.0000 </r>
       <r>   -9.6910    1.0000 </r>
       <r>   -5.8008    1.0000 </r>
       <r>   -5.5650    1.0000 </r>
       <r>    1.1735    0.0000 </r>
       <r>    2.0868    0.0000 </r>
       <r>    2.5515    0.0000 </r>
       <r>    4.5057    0.0000 </r>
       <r>    5.2426    0.0000 </r>
       <r>    6.1812    0.0000 </r>
       <r>    6.3302    0.0000 </r>
       <r>    8.3764    0.0000 </r>
      </set>
      <set comment="kpoint 62">
       <r>  -21.3573    1.0000 </r>
       <r>   -9.4001    1.0000 </r>
       <r>   -6.6784    1.0000 </r>
       <r>   -6.0143    1.0000 </r>
       <r>    1.5066    0.0000 </r>
       <r>    2.4220    0.0000 </r>
       <r>    2.8908    0.0000 </r>
       <r>    4.8388    0.0000 </r>
       <r>    5.5599    0.0000 </r>
       <r>    6.0696    0.0000 </r>
       <r>    7.4404    0.0000 </r>
       <r>    7.8390    0.0000 </r>
      </set>
      <set comment="kpoint 63">
       <r>  -21.1961    1.0000 </r>
       <r>   -9.2095    1.0000 </r>
       <r>   -7.1506    1.0000 </r>
       <r>   -6.3391    1.0000 </r>
       <r>    1.7261    0.0000 </r>
       <r>    2.6428    0.0000 </r>
       <r>    3.1146    0.0000 </r>
       <r>    5.0579    0.0000 </r>
       <r>    5.7632    0.0000 </r>
       <r>    6.1680    0.0000 </r>
       <r>    7.3551    0.0000 </r>
       <r>    7.9564    0.0000 </r>
      </set>
      <set comment="kpoint 64">
       <r>  -20.9549    1.0000 </r>
       <r>   -8.9253    1.0000 </r>
       <r>   -7.7485    1.0000 </r>
       <r>   -6.8384    1.0000 </r>
       <r>    2.0557    0.0000 </r>
       <r>    2.9735    0.0000 </r>
       <r>    3.4505    0.0000 </r>
       <r>    5.3861    0.0000 </r>
       <r>    6.0824    0.0000 </r>
       <r>    6.5003    0.0000 </r>
       <r>    6.6829    0.0000 </r>
       <r>    8.3135    0.0000 </r>
      </set>
      <set comment="kpoint 65">
       <r>  -20.6345    1.0000 </r>
       <r>   -8.5498    1.0000 </r>
       <r>   -8.4707    1.0000 </r>
       <r>   -7.4158    1.0000 </r>
       <r>    2.4950    0.0000 </r>
       <r>    3.4135    0.0000 </r>
       <r>    3.8985    0.0000 </r>
       <r>    5.8178    0.0000 </r>
       <r>    5.8685    0.0000 </r>
       <r>    6.5097    0.0000 </r>
       <r>    6.9341    0.0000 </r>
[...]
       <r>   10.0618    0.0000 </r>
       <r>   11.2431    0.0000 </r>
       <r>   11.5025    0.0000 </r>
      </set>
      <set comment="kpoint 283">
       <r>  -17.3869    1.0000 </r>
       <r>  -13.1219    1.0000 </r>
       <r>  -10.8632    1.0000 </r>
       <r>   -4.9264    1.0000 </r>
       <r>    0.3996    0.0000 </r>
       <r>    7.0466    0.0000 </r>
       <r>    7.7789    0.0000 </r>
       <r>    8.5653    0.0000 </r>
       <r>    8.7528    0.0000 </r>
       <r>    9.8115    0.0000 </r>
       <r>   10.9282    0.0000 </r>
       <r>   11.1973    0.0000 </r>
      </set>
      <set comment="kpoint 284">
       <r>  -17.4230    1.0000 </r>
       <r>  -12.8443    1.0000 </r>
       <r>  -11.1515    1.0000 </r>
       <r>   -4.9469    1.0000 </r>
       <r>    0.4770    0.0000 </r>
       <r>    6.9941    0.0000 </r>
       <r>    7.7039    0.0000 </r>
       <r>    8.5224    0.0000 </r>
       <r>    9.7217    0.0000 </r>
       <r>    9.8303    0.0000 </r>
       <r>   10.0407    0.0000 </r>
       <r>   11.0934    0.0000 </r>
      </set>
      <set comment="kpoint 285">
       <r>  -17.3858    1.0000 </r>
       <r>  -13.1186    1.0000 </r>
       <r>  -10.8680    1.0000 </r>
       <r>   -4.9246    1.0000 </r>
       <r>    0.3996    0.0000 </r>
       <r>    7.0477    0.0000 </r>
       <r>    7.7794    0.0000 </r>
       <r>    8.5643    0.0000 </r>
       <r>    8.7341    0.0000 </r>
       <r>    9.8114    0.0000 </r>
       <r>   10.9434    0.0000 </r>
       <r>   11.2025    0.0000 </r>
      </set>
      <set comment="kpoint 286">
       <r>  -17.2763    1.0000 </r>
       <r>  -13.6699    1.0000 </r>
       <r>  -10.2955    1.0000 </r>
       <r>   -4.8632    1.0000 </r>
       <r>    0.1925    0.0000 </r>
       <r>    7.1946    0.0000 </r>
       <r>    7.5541    0.0000 </r>
       <r>    7.9930    0.0000 </r>
       <r>    8.7524    0.0000 </r>
       <r>   10.0620    0.0000 </r>
       <r>   11.2482    0.0000 </r>
       <r>   11.5147    0.0000 </r>
      </set>
      <set comment="kpoint 287">
       <r>  -17.0987    1.0000 </r>
       <r>  -14.2607    1.0000 </r>
       <r>   -9.6946    1.0000 </r>
       <r>   -4.7746    1.0000 </r>
       <r>   -0.0820    0.0000 </r>
       <r>    6.4777    0.0000 </r>
       <r>    7.4935    0.0000 </r>
       <r>    8.3205    0.0000 </r>
       <r>    9.0315    0.0000 </r>
       <r>   10.4234    0.0000 </r>
       <r>   11.0640    0.0000 </r>
       <r>   11.5649    0.0000 </r>
      </set>
      <set comment="kpoint 288">
       <r>  -16.8642    1.0000 </r>
       <r>  -14.8112    1.0000 </r>
       <r>   -9.1790    1.0000 </r>
       <r>   -4.6790    1.0000 </r>
       <r>   -0.3506    0.0000 </r>
       <r>    5.6454    0.0000 </r>
       <r>    7.8670    0.0000 </r>
       <r>    8.7439    0.0000 </r>
       <r>    9.4225    0.0000 </r>
       <r>   10.3464    0.0000 </r>
       <r>   10.7710    0.0000 </r>
       <r>   11.4263    0.0000 </r>
      </set>
      <set comment="kpoint 289">
       <r>  -16.6095    1.0000 </r>
       <r>  -15.2616    1.0000 </r>
       <r>   -8.8286    1.0000 </r>
       <r>   -4.6036    1.0000 </r>
       <r>   -0.5455    0.0000 </r>
       <r>    5.1020    0.0000 </r>
       <r>    8.3463    0.0000 </r>
       <r>    9.2505    0.0000 </r>
       <r>    9.6069    0.0000 </r>
       <r>    9.9282    0.0000 </r>
       <r>   10.4893    0.0000 </r>
       <r>   11.2585    0.0000 </r>
      </set>
      <set comment="kpoint 290">
       <r>  -16.4696    1.0000 </r>
       <r>  -15.4676    1.0000 </r>
       <r>   -8.7039    1.0000 </r>
       <r>   -4.5746    1.0000 </r>
       <r>   -0.6168    0.0000 </r>
       <r>    4.9125    0.0000 </r>
       <r>    8.8606    0.0000 </r>
       <r>    9.0036    0.0000 </r>
       <r>    9.7226    0.0000 </r>
       <r>    9.9851    0.0000 </r>
       <r>   10.5276    0.0000 </r>
       <r>   10.5500    0.0000 </r>
      </set>
     </set>
    </set>
   </array>
  </eigenvalues>
  <separator name="orbital magnetization" >
   <v name="MAGDIPOLOUT">      0.00000000      0.00000000      0.00000000</v>
  </separator>
  <dos>
   <i name="efermi">     -2.27721724 </i>
   <total>
    <array>
     <dimension dim="1">gridpoints</dimension>
     <dimension dim="2">spin</dimension>
     <field>energy</field>
     <field>total</field>
     <field>integrated</field>
     <set>
      <set comment="spin 1">
       <r>   -23.4663     0.0000     0.0000 </r>
       <r>   -23.3386     0.0000     0.0000 </r>
       <r>   -23.2110     0.0000     0.0000 </r>
       <r>   -23.0834     0.0000     0.0000 </r>
       <r>   -22.9557     0.0000     0.0000 </r>
       <r>   -22.8281     0.0000     0.0000 </r>
       <r>   -22.7004     0.0000     0.0000 </r>
       <r>   -22.5728     0.0000     0.0000 </r>
       <r>   -22.4451     0.0000     0.0000 </r>
       <r>   -22.3175     0.0000     0.0000 </r>
       <r>   -22.1898     0.0000     0.0000 </r>
       <r>   -22.0622     0.0000     0.0000 </r>
       <r>   -21.9345     0.0000     0.0000 </r>
       <r>   -21.8069     0.0000     0.0000 </r>
       <r>   -21.6793     0.1338     0.0171 </r>
       <r>   -21.5516     0.3464     0.0613 </r>
       <r>   -21.4240     0.3209     0.1023 </r>
       <r>   -21.2963     0.2053     0.1285 </r>
       <r>   -21.1687     0.4800     0.1897 </r>
       <r>   -21.0410     0.1710     0.2116 </r>
       <r>   -20.9134     0.3276     0.2534 </r>
       <r>   -20.7857     0.3255     0.2951 </r>
       <r>   -20.6581     0.1682     0.3166 </r>
       <r>   -20.5304     0.4846     0.3785 </r>
       <r>   -20.4028     0.3264     0.4201 </r>
       <r>   -20.2752     0.0512     0.4267 </r>
       <r>   -20.1475     0.5979     0.5030 </r>
       <r>   -20.0199     0.1778     0.5257 </r>
       <r>   -19.8922     0.3156     0.5660 </r>
       <r>   -19.7646     0.2377     0.5963 </r>
       <r>   -19.6369     0.5239     0.6633 </r>
       <r>   -19.5093     0.2170     0.6910 </r>
       <r>   -19.3816     0.3254     0.7325 </r>
       <r>   -19.2540     0.2593     0.7657 </r>
       <r>   -19.1263     0.5412     0.8349 </r>
       <r>   -18.9987     0.3290     0.8769 </r>
       <r>   -18.8711     0.0116     0.8785 </r>
       <r>   -18.7434     0.3634     0.9249 </r>
       <r>   -18.6158     0.4573     0.9833 </r>
       <r>   -18.4881     0.3934     1.0335 </r>
       <r>   -18.3605     0.3042     1.0723 </r>
       <r>   -18.2328     0.1132     1.0868 </r>
       <r>   -18.1052     0.3309     1.1290 </r>
       <r>   -17.9775     0.6387     1.2107 </r>
       <r>   -17.8499     0.2665     1.2447 </r>
       <r>   -17.7222     0.2282     1.2738 </r>
       <r>   -17.5946     0.3276     1.3156 </r>
       <r>   -17.4669     0.1209     1.3311 </r>
       <r>   -17.3393     0.6789     1.4177 </r>
       <r>   -17.2117     0.3487     1.4622 </r>
       <r>   -17.0840     0.3226     1.5034 </r>
       <r>   -16.9564     0.2388     1.5339 </r>
       <r>   -16.8287     0.2519     1.5661 </r>
       <r>   -16.7011     0.6092     1.6439 </r>
       <r>   -16.5734     0.5676     1.7164 </r>
       <r>   -16.4458     0.3735     1.7642 </r>
       <r>   -16.3181     0.3241     1.8056 </r>
       <r>   -16.1905     0.0227     1.8085 </r>
       <r>   -16.0628     0.4458     1.8654 </r>
       <r>   -15.9352     0.5064     1.9301 </r>
       <r>   -15.8076     0.0033     1.9306 </r>
       <r>   -15.6799     0.0036     1.9310 </r>
       <r>   -15.5523     0.0639     1.9392 </r>
       <r>   -15.4246     0.3117     1.9790 </r>
       <r>   -15.2970     0.3525     2.0240 </r>
       <r>   -15.1693     0.3284     2.0660 </r>
       <r>   -15.0417     0.3200     2.1068 </r>
       <r>   -14.9140     0.2253     2.1358 </r>
       <r>   -14.7864     0.4113     2.1883 </r>
       <r>   -14.6587     0.5401     2.2572 </r>
       <r>   -14.5311     0.2477     2.2888 </r>
       <r>   -14.4035     0.7041     2.3787 </r>
       <r>   -14.2758     0.1350     2.3960 </r>
       <r>   -14.1482     0.5787     2.4699 </r>
       <r>   -14.0205     0.0466     2.4758 </r>
       <r>   -13.8929     0.6143     2.5542 </r>
       <r>   -13.7652     0.3637     2.6007 </r>
       <r>   -13.6376     0.2034     2.6267 </r>
       <r>   -13.5099     0.1938     2.6514 </r>
       <r>   -13.3823     0.5772     2.7251 </r>
       <r>   -13.2546     0.2622     2.7586 </r>
       <r>   -13.1270     0.1030     2.7718 </r>
       <r>   -12.9994     0.2909     2.8089 </r>
       <r>   -12.8717     0.3431     2.8527 </r>
       <r>   -12.7441     0.3342     2.8954 </r>
       <r>   -12.6164     0.3560     2.9408 </r>
       <r>   -12.4888     0.2838     2.9771 </r>
       <r>   -12.3611     0.3443     3.0210 </r>
       <r>   -12.2335     0.4703     3.0812 </r>
       <r>   -12.1058     0.3707     3.1285 </r>
       <r>   -11.9782     0.0452     3.1342 </r>
       <r>   -11.8505     0.6234     3.2138 </r>
       <r>   -11.7229     0.5294     3.2814 </r>
       <r>   -11.5953     0.4291     3.3362 </r>
       <r>   -11.4676     0.0699     3.3452 </r>
       <r>   -11.3400     0.1988     3.3706 </r>
       <r>   -11.2123     0.7227     3.4628 </r>
       <r>   -11.0847     0.5361     3.5313 </r>
       <r>   -10.9570     0.1088     3.5452 </r>
       <r>   -10.8294     0.5088     3.6101 </r>
       <r>   -10.7017     0.6220     3.6896 </r>
       <r>   -10.5741     0.0117     3.6911 </r>
       <r>   -10.4464     0.5604     3.7626 </r>
       <r>   -10.3188     0.3375     3.8058 </r>
       <r>   -10.1912     0.8566     3.9151 </r>
       <r>   -10.0635     0.1880     3.9392 </r>
       <r>    -9.9359     0.4561     3.9975 </r>
       <r>    -9.8082     0.1065     4.0111 </r>
       <r>    -9.6806     1.2813     4.1747 </r>
       <r>    -9.5529     0.6772     4.2613 </r>
       <r>    -9.4253     0.6069     4.3388 </r>
       <r>    -9.2976     0.4900     4.4013 </r>
       <r>    -9.1700     1.5120     4.5943 </r>
       <r>    -9.0423     0.7745     4.6934 </r>
       <r>    -8.9147     0.5168     4.7593 </r>
       <r>    -8.7870     1.0672     4.8956 </r>
       <r>    -8.6594     0.9360     5.0154 </r>
       <r>    -8.5318     1.3324     5.1855 </r>
       <r>    -8.4041     1.1268     5.3293 </r>
       <r>    -8.2765     0.6579     5.4133 </r>
       <r>    -8.1488     0.4620     5.4723 </r>
       <r>    -8.0212     1.1442     5.6184 </r>
       <r>    -7.8935     0.8400     5.7257 </r>
       <r>    -7.7659     0.6884     5.8136 </r>
       <r>    -7.6382     0.6092     5.8913 </r>
       <r>    -7.5106     0.8483     5.9996 </r>
       <r>    -7.3829     0.4426     6.0562 </r>
       <r>    -7.2553     0.6786     6.1429 </r>
       <r>    -7.1277     0.9616     6.2657 </r>
       <r>    -7.0000     0.1369     6.2832 </r>
       <r>    -6.8724     0.7828     6.3831 </r>
       <r>    -6.7447     0.8939     6.4973 </r>
       <r>    -6.6171     0.4837     6.5590 </r>
       <r>    -6.4894     0.1155     6.5738 </r>
       <r>    -6.3618     0.7707     6.6722 </r>
       <r>    -6.2341     0.9968     6.7994 </r>
       <r>    -6.1065     0.4000     6.8505 </r>
       <r>    -5.9788     0.4661     6.9100 </r>
       <r>    -5.8512     0.5140     6.9758 </r>
       <r>    -5.7236     0.4935     7.0388 </r>
       <r>    -5.5959     0.7286     7.1318 </r>
       <r>    -5.4683     0.6534     7.2153 </r>
       <r>    -5.3406     0.5170     7.2813 </r>
       <r>    -5.2130     0.2711     7.3160 </r>
       <r>    -5.0853     0.1407     7.3339 </r>
       <r>    -4.9577     0.5958     7.4100 </r>
       <r>    -4.8300     0.6376     7.4914 </r>
       <r>    -4.7024     0.5354     7.5598 </r>
       <r>    -4.5747     0.4374     7.6157 </r>
       <r>    -4.4471     0.1069     7.6294 </r>
       <r>    -4.3195     0.5318     7.6973 </r>
       <r>    -4.1918     0.8468     7.8054 </r>
       <r>    -4.0642     0.0543     7.8125 </r>
       <r>    -3.9365     0.1088     7.8264 </r>
       <r>    -3.8089     0.1084     7.8402 </r>
       <r>    -3.6812     0.2579     7.8732 </r>
       <r>    -3.5536     0.3738     7.9209 </r>
       <r>    -3.4259     0.0754     7.9306 </r>
       <r>    -3.2983     0.0547     7.9375 </r>
       <r>    -3.1706     0.1085     7.9514 </r>
       <r>    -3.0430     0.0004     7.9514 </r>
       <r>    -2.9154     0.2217     7.9797 </r>
       <r>    -2.7877     0.1037     7.9931 </r>
       <r>    -2.6601     0.0000     7.9931 </r>
       <r>    -2.5324     0.0000     7.9931 </r>
       <r>    -2.4048     0.0000     7.9931 </r>
       <r>    -2.2771     0.0544     8.0000 </r>
       <r>    -2.1495     0.0544     8.0069 </r>
       <r>    -2.0218     0.0000     8.0069 </r>
       <r>    -1.8942     0.0000     8.0069 </r>
       <r>    -1.7665     0.0000     8.0069 </r>
       <r>    -1.6389     0.1148     8.0216 </r>
       <r>    -1.5113     0.2109     8.0486 </r>
       <r>    -1.3836     0.0075     8.0496 </r>
       <r>    -1.2560     0.1524     8.0690 </r>
       <r>    -1.1283     0.0033     8.0694 </r>
       <r>    -1.0007     0.1827     8.0928 </r>
       <r>    -0.8730     0.6377     8.1742 </r>
       <r>    -0.7454     0.1583     8.1944 </r>
       <r>    -0.6177     0.3653     8.2411 </r>
       <r>    -0.4901     0.7661     8.3389 </r>
       <r>    -0.3624     0.2966     8.3768 </r>
       <r>    -0.2348     0.9247     8.4948 </r>
       <r>    -0.1072     0.0168     8.4970 </r>
       <r>     0.0205     0.3427     8.5408 </r>
       <r>     0.1481     0.3064     8.5799 </r>
       <r>     0.2758     0.3247     8.6213 </r>
       <r>     0.4034     0.0819     8.6319 </r>
       <r>     0.5311     0.8255     8.7373 </r>
       <r>     0.6587     0.0725     8.7465 </r>
       <r>     0.7864     0.0194     8.7490 </r>
       <r>     0.9140     0.3084     8.7884 </r>
       <r>     1.0417     0.3657     8.8351 </r>
       <r>     1.1693     0.5042     8.8994 </r>
       <r>     1.2970     0.3647     8.9460 </r>
       <r>     1.4246     0.7849     9.0462 </r>
       <r>     1.5522     0.4533     9.1042 </r>
       <r>     1.6799     0.1189     9.1193 </r>
       <r>     1.8075     0.4251     9.1736 </r>
       <r>     1.9352     0.4597     9.2323 </r>
       <r>     2.0628     0.6977     9.3214 </r>
       <r>     2.1905     1.0866     9.4602 </r>
       <r>     2.3181     0.4200     9.5138 </r>
       <r>     2.4458     0.5490     9.5839 </r>
       <r>     2.5734     1.0130     9.7132 </r>
       <r>     2.7011     0.8705     9.8243 </r>
       <r>     2.8287     0.7615     9.9215 </r>
       <r>     2.9563     0.5394     9.9904 </r>
       <r>     3.0840     1.1403    10.1359 </r>
       <r>     3.2116     1.4345    10.3192 </r>
       <r>     3.3393     0.3278    10.3610 </r>
       <r>     3.4669     0.8571    10.4704 </r>
       <r>     3.5946     0.7552    10.5669 </r>
       <r>     3.7222     1.0287    10.6983 </r>
       <r>     3.8499     0.4861    10.7604 </r>
       <r>     3.9775     1.4206    10.9417 </r>
       <r>     4.1052     0.7490    11.0374 </r>
       <r>     4.2328     0.9034    11.1528 </r>
       <r>     4.3604     0.1080    11.1666 </r>
       <r>     4.4881     1.3239    11.3356 </r>
       <r>     4.6157     1.2021    11.4890 </r>
       <r>     4.7434     1.3623    11.6630 </r>
       <r>     4.8710     0.9200    11.7805 </r>
       <r>     4.9987     0.8491    11.8889 </r>
       <r>     5.1263     1.6450    12.0989 </r>
       <r>     5.2540     1.8661    12.3372 </r>
       <r>     5.3816     1.5090    12.5299 </r>
       <r>     5.5093     2.3518    12.8301 </r>
       <r>     5.6369     1.3189    12.9985 </r>
       <r>     5.7645     2.0928    13.2658 </r>
       <r>     5.8922     1.6506    13.4766 </r>
       <r>     6.0198     2.6236    13.8116 </r>
       <r>     6.1475     3.1234    14.2104 </r>
       <r>     6.2751     1.3343    14.3808 </r>
       <r>     6.4028     2.0967    14.6484 </r>
       <r>     6.5304     2.2507    14.9359 </r>
       <r>     6.6581     1.5188    15.1299 </r>
       <r>     6.7857     1.8801    15.3699 </r>
       <r>     6.9134     1.4457    15.5545 </r>
       <r>     7.0410     2.6322    15.8906 </r>
       <r>     7.1686     1.6797    16.1050 </r>
       <r>     7.2963     1.4598    16.2915 </r>
       <r>     7.4239     0.6168    16.3703 </r>
       <r>     7.5516     2.2698    16.6600 </r>
       <r>     7.6792     1.5879    16.8627 </r>
       <r>     7.8069     1.7721    17.0890 </r>
       <r>     7.9345     2.1416    17.3625 </r>
       <r>     8.0622     2.0893    17.6293 </r>
       <r>     8.1898     0.7729    17.7280 </r>
       <r>     8.3175     1.8320    17.9619 </r>
       <r>     8.4451     1.9311    18.2085 </r>
       <r>     8.5727     1.9557    18.4583 </r>
       <r>     8.7004     2.6957    18.8024 </r>
       <r>     8.8280     1.4371    18.9861 </r>
       <r>     8.9557     1.6647    19.1987 </r>
       <r>     9.0833     1.3160    19.3668 </r>
       <r>     9.2110     1.5456    19.5641 </r>
       <r>     9.3386     2.2546    19.8520 </r>
       <r>     9.4663     0.7258    19.9448 </r>
       <r>     9.5939     1.4170    20.1258 </r>
       <r>     9.7216     1.4337    20.3088 </r>
       <r>     9.8492     1.8433    20.5441 </r>
       <r>     9.9768     1.9604    20.7944 </r>
       <r>    10.1045     1.6308    21.0026 </r>
       <r>    10.2321     1.3801    21.1789 </r>
       <r>    10.3598     1.5665    21.3789 </r>
       <r>    10.4874     2.2588    21.6673 </r>
       <r>    10.6151     1.5076    21.8598 </r>
       <r>    10.7427     1.8407    22.0949 </r>
       <r>    10.8704     2.0557    22.3574 </r>
       <r>    10.9980     1.4786    22.5463 </r>
       <r>    11.1257     1.1050    22.6874 </r>
       <r>    11.2533     1.8118    22.9187 </r>
       <r>    11.3810     0.9599    23.0413 </r>
       <r>    11.5086     0.9325    23.1603 </r>
       <r>    11.6362     1.5658    23.3602 </r>
       <r>    11.7639     0.4962    23.4236 </r>
       <r>    11.8915     0.7620    23.5209 </r>
       <r>    12.0192     1.4783    23.7097 </r>
       <r>    12.1468     0.4082    23.7618 </r>
       <r>    12.2745     0.7507    23.8577 </r>
       <r>    12.4021     0.1355    23.8750 </r>
       <r>    12.5298     0.0000    23.8750 </r>
       <r>    12.6574     0.1385    23.8927 </r>
       <r>    12.7851     0.3919    23.9427 </r>
       <r>    12.9127     0.1980    23.9680 </r>
       <r>    13.0403     0.1421    23.9861 </r>
       <r>    13.1680     0.1087    24.0000 </r>
       <r>    13.2956     0.0000    24.0000 </r>
       <r>    13.4233     0.0000    24.0000 </r>
       <r>    13.5509     0.0000    24.0000 </r>
       <r>    13.6786     0.0000    24.0000 </r>
       <r>    13.8062     0.0000    24.0000 </r>
       <r>    13.9339     0.0000    24.0000 </r>
       <r>    14.0615     0.0000    24.0000 </r>
       <r>    14.1892     0.0000    24.0000 </r>
       <r>    14.3168     0.0000    24.0000 </r>
       <r>    14.4444     0.0000    24.0000 </r>
       <r>    14.5721     0.0000    24.0000 </r>
       <r>    14.6997     0.0000    24.0000 </r>
       <r>    14.8274     0.0000    24.0000 </r>
      </set>
     </set>
    </array>
   </total>
  </dos>
 </calculation>
 <structure name="finalpos" >
  <crystal>
   <varray name="basis" >
    <v>       2.47723300       0.00923800       0.00000000 </v>
    <v>      -1.23061600       2.13272700       0.00000000 </v>
    <v>       0.00000000       0.00000000      15.00000000 </v>
   </varray>
   <i name="volume">     79.41945202 </i>
   <varray name="rec_basis" >
    <v>       0.40280944       0.23242719       0.00000000 </v>
    <v>      -0.00174479       0.46787650       0.00000000 </v>
    <v>       0.00000000       0.00000000       0.06666667 </v>
   </varray>
  </crystal>
  <varray name="positions" >
   <v>       0.00035228       0.00015828       0.50000000 </v>
   <v>       0.33298072       0.66650872       0.50000000 </v>
  </varray>
 </structure>
</modeling>
