<?xml version="1.0" encoding="ISO-8859-1"?>
<modeling>
 <generator>
  <i name="program" type="string">vasp </i>
  <i name="version" type="string">5.4.1  </i>
  <i name="subversion" type="string">24Jun15 (build Nov 20 2020 10:29:34) complex                          parallel </i>
  <i name="platform" type="string">IFC91_ompi </i>
  <i name="date" type="string">2021 09 09 </i>
  <i name="time" type="string">14:54:31 </i>
 </generator>
 <incar>
  <i type="string" name="PREC">a</i>
  <i type="string" name="ALGO"> Normal</i>
  <i type="int" name="ISPIN">     1</i>
  <i type="int" name="ICHARG">     2</i>
  <i type="int" name="NELM">   250</i>
  <i type="int" name="NELMDL">    -5</i>
  <i type="int" name="NELMIN">     6</i>
  <i type="int" name="IBRION">     2</i>
  <i name="EDIFF">      0.00001000</i>
  <i name="EDIFFG">     -0.01000000</i>
  <i type="int" name="NSW">   200</i>
  <i type="int" name="ISIF">     2</i>
  <i name="ENCUT">    520.00000000</i>
  <i name="POTIM">      0.30000000</i>
  <i type="logical" name="LREAL"> F  </i>
  <i type="int" name="ISMEAR">     0</i>
  <i name="SIGMA">      0.02000000</i>
  <i type="logical" name="LWAVE"> F  </i>
  <i type="logical" name="LCHARG"> F  </i>
  <i type="logical" name="LAECHG"> F  </i>
  <v type="int" name="KPOINT_BSE">    -1     0     0     0</v>
  <i type="int" name="NELM">   250</i>
 </incar>
 <kpoints>
  <generation param="Gamma">
   <v type="int" name="divisions">      15       13        1 </v>
   <v name="usershift">      0.00000000       0.00000000       0.00000000 </v>
   <v name="genvec1">      0.06666667       0.00000000       0.00000000 </v>
   <v name="genvec2">      0.00000000       0.07692308       0.00000000 </v>
   <v name="genvec3">      0.00000000       0.00000000       1.00000000 </v>
   <v name="shift">      0.00000000       0.00000000       0.00000000 </v>
  </generation>
  <varray name="kpointlist" >
   <v>       0.00000000       0.00000000       0.00000000 </v>
   <v>       0.06666667       0.00000000       0.00000000 </v>
   <v>       0.13333333       0.00000000       0.00000000 </v>
   <v>       0.20000000       0.00000000       0.00000000 </v>
   <v>       0.26666667       0.00000000       0.00000000 </v>
   <v>       0.33333333       0.00000000       0.00000000 </v>
   <v>       0.40000000       0.00000000       0.00000000 </v>
   <v>       0.46666667       0.00000000       0.00000000 </v>
   <v>       0.00000000       0.07692308       0.00000000 </v>
   <v>       0.06666667       0.07692308       0.00000000 </v>
   <v>       0.13333333       0.07692308       0.00000000 </v>
   <v>       0.20000000       0.07692308       0.00000000 </v>
   <v>       0.26666667       0.07692308       0.00000000 </v>
   <v>       0.33333333       0.07692308       0.00000000 </v>
   <v>       0.40000000       0.07692308       0.00000000 </v>
   <v>       0.46666667       0.07692308       0.00000000 </v>
   <v>       0.00000000       0.15384615       0.00000000 </v>
   <v>       0.06666667       0.15384615       0.00000000 </v>
   <v>       0.13333333       0.15384615       0.00000000 </v>
   <v>       0.20000000       0.15384615       0.00000000 </v>
   <v>       0.26666667       0.15384615       0.00000000 </v>
   <v>       0.33333333       0.15384615       0.00000000 </v>
   <v>       0.40000000       0.15384615       0.00000000 </v>
   <v>       0.46666667       0.15384615       0.00000000 </v>
   <v>       0.00000000       0.23076923       0.00000000 </v>
   <v>       0.06666667       0.23076923       0.00000000 </v>
   <v>       0.13333333       0.23076923       0.00000000 </v>
   <v>       0.20000000       0.23076923       0.00000000 </v>
   <v>       0.26666667       0.23076923       0.00000000 </v>
   <v>       0.33333333       0.23076923       0.00000000 </v>
   <v>       0.40000000       0.23076923       0.00000000 </v>
   <v>       0.46666667       0.23076923       0.00000000 </v>
   <v>       0.00000000       0.30769231       0.00000000 </v>
   <v>       0.06666667       0.30769231       0.00000000 </v>
   <v>       0.13333333       0.30769231       0.00000000 </v>
   <v>       0.20000000       0.30769231       0.00000000 </v>
   <v>       0.26666667       0.30769231       0.00000000 </v>
   <v>       0.33333333       0.30769231       0.00000000 </v>
   <v>       0.40000000       0.30769231       0.00000000 </v>
   <v>       0.46666667       0.30769231       0.00000000 </v>
   <v>       0.00000000       0.38461538       0.00000000 </v>
   <v>       0.06666667       0.38461538       0.00000000 </v>
   <v>       0.13333333       0.38461538       0.00000000 </v>
   <v>       0.20000000       0.38461538       0.00000000 </v>
   <v>       0.26666667       0.38461538       0.00000000 </v>
   <v>       0.33333333       0.38461538       0.00000000 </v>
   <v>       0.40000000       0.38461538       0.00000000 </v>
   <v>       0.46666667       0.38461538       0.00000000 </v>
   <v>       0.00000000       0.46153846       0.00000000 </v>
   <v>       0.06666667       0.46153846       0.00000000 </v>
   <v>       0.13333333       0.46153846       0.00000000 </v>
   <v>       0.20000000       0.46153846       0.00000000 </v>
   <v>       0.26666667       0.46153846       0.00000000 </v>
   <v>       0.33333333       0.46153846       0.00000000 </v>
   <v>       0.40000000       0.46153846       0.00000000 </v>
   <v>       0.46666667       0.46153846       0.00000000 </v>
  </varray>
  <varray name="weights" >
   <v>       0.00512821 </v>
   <v>       0.01025641 </v>
   <v>       0.01025641 </v>
   <v>       0.01025641 </v>
   <v>       0.01025641 </v>
   <v>       0.01025641 </v>
   <v>       0.01025641 </v>
   <v>       0.01025641 </v>
   <v>       0.01025641 </v>
   <v>       0.02051282 </v>
   <v>       0.02051282 </v>
   <v>       0.02051282 </v>
   <v>       0.02051282 </v>
   <v>       0.02051282 </v>
   <v>       0.02051282 </v>
   <v>       0.02051282 </v>
   <v>       0.01025641 </v>
   <v>       0.02051282 </v>
   <v>       0.02051282 </v>
   <v>       0.02051282 </v>
   <v>       0.02051282 </v>
   <v>       0.02051282 </v>
   <v>       0.02051282 </v>
   <v>       0.02051282 </v>
   <v>       0.01025641 </v>
   <v>       0.02051282 </v>
   <v>       0.02051282 </v>
   <v>       0.02051282 </v>
   <v>       0.02051282 </v>
   <v>       0.02051282 </v>
   <v>       0.02051282 </v>
   <v>       0.02051282 </v>
   <v>       0.01025641 </v>
   <v>       0.02051282 </v>
   <v>       0.02051282 </v>
   <v>       0.02051282 </v>
   <v>       0.02051282 </v>
   <v>       0.02051282 </v>
   <v>       0.02051282 </v>
   <v>       0.02051282 </v>
   <v>       0.01025641 </v>
   <v>       0.02051282 </v>
   <v>       0.02051282 </v>
   <v>       0.02051282 </v>
   <v>       0.02051282 </v>
   <v>       0.02051282 </v>
   <v>       0.02051282 </v>
   <v>       0.02051282 </v>
   <v>       0.01025641 </v>
   <v>       0.02051282 </v>
   <v>       0.02051282 </v>
   <v>       0.02051282 </v>
   <v>       0.02051282 </v>
   <v>       0.02051282 </v>
   <v>       0.02051282 </v>
   <v>       0.02051282 </v>
  </varray>
 </kpoints>
 <parameters>
  <separator name="general" >
   <i type="string" name="SYSTEM">unknown system</i>
   <i type="logical" name="LCOMPAT"> F  </i>
  </separator>
  <separator name="electronic" >
   <i type="string" name="PREC">a</i>
   <i name="ENMAX">    520.00000000</i>
   <i name="ENAUG">    531.35600000</i>
   <i name="EDIFF">      0.00001000</i>
   <i type="int" name="IALGO">    38</i>
   <i type="int" name="IWAVPR">    11</i>
   <i type="int" name="NBANDS">    32</i>
   <i name="NELECT">     52.00000000</i>
   <i type="int" name="TURBO">     0</i>
   <i type="int" name="IRESTART">     0</i>
   <i type="int" name="NREBOOT">     0</i>
   <i type="int" name="NMIN">     0</i>
   <i name="EREF">      0.00000000</i>
   <separator name="electronic smearing" >
    <i type="int" name="ISMEAR">     0</i>
    <i name="SIGMA">      0.02000000</i>
    <i name="KSPACING">      0.50000000</i>
    <i type="logical" name="KGAMMA"> T  </i>
   </separator>
   <separator name="electronic projectors" >
    <i type="logical" name="LREAL"> F  </i>
    <v name="ROPT">      0.00000000      0.00000000</v>
    <i type="int" name="LMAXPAW">  -100</i>
    <i type="int" name="LMAXMIX">     2</i>
    <i type="logical" name="NLSPLINE"> F  </i>
   </separator>
   <separator name="electronic startup" >
    <i type="int" name="ISTART">     0</i>
    <i type="int" name="ICHARG">     2</i>
    <i type="int" name="INIWAV">     1</i>
   </separator>
   <separator name="electronic spin" >
    <i type="int" name="ISPIN">     1</i>
    <i type="logical" name="LNONCOLLINEAR"> F  </i>
    <v name="MAGMOM">      1.00000000      1.00000000      1.00000000      1.00000000      1.00000000      1.00000000</v>
    <i name="NUPDOWN">     -1.00000000</i>
    <i type="logical" name="LSORBIT"> F  </i>
    <v name="SAXIS">      0.00000000      0.00000000      1.00000000</v>
    <i type="logical" name="LSPIRAL"> F  </i>
    <v name="QSPIRAL">      0.00000000      0.00000000      0.00000000</v>
    <i type="logical" name="LZEROZ"> F  </i>
   </separator>
   <separator name="electronic exchange-correlation" >
    <i type="logical" name="LASPH"> F  </i>
    <i type="logical" name="LMETAGGA"> F  </i>
   </separator>
   <separator name="electronic convergence" >
    <i type="int" name="NELM">   250</i>
    <i type="int" name="NELMDL">    -5</i>
    <i type="int" name="NELMIN">     6</i>
    <i name="ENINI">    520.00000000</i>
    <separator name="electronic convergence detail" >
     <i type="logical" name="LDIAG"> T  </i>
     <i type="logical" name="LSUBROT"> F  </i>
     <i name="WEIMIN">      0.00100000</i>
     <i name="EBREAK">      0.00000008</i>
     <i name="DEPER">      0.30000000</i>
     <i type="int" name="NRMM">     4</i>
     <i name="TIME">      0.40000000</i>
    </separator>
   </separator>
   <separator name="electronic mixer" >
    <i name="AMIX">      0.40000000</i>
    <i name="BMIX">      1.00000000</i>
    <i name="AMIN">      0.10000000</i>
    <i name="AMIX_MAG">      1.60000000</i>
    <i name="BMIX_MAG">      1.00000000</i>
    <separator name="electronic mixer details" >
     <i type="int" name="IMIX">     4</i>
     <i type="logical" name="MIXFIRST"> F  </i>
     <i type="int" name="MAXMIX">   -45</i>
     <i name="WC">    100.00000000</i>
     <i type="int" name="INIMIX">     1</i>
     <i type="int" name="MIXPRE">     1</i>
     <i type="int" name="MREMOVE">     5</i>
    </separator>
   </separator>
   <separator name="electronic dipolcorrection" >
    <i type="logical" name="LDIPOL"> F  </i>
    <i type="logical" name="LMONO"> F  </i>
    <i type="int" name="IDIPOL">     0</i>
    <i name="EPSILON">      1.00000000</i>
    <v name="DIPOL">   -100.00000000   -100.00000000   -100.00000000</v>
    <i name="EFIELD">      0.00000000</i>
   </separator>
  </separator>
  <separator name="grids" >
   <i type="int" name="NGX">    36</i>
   <i type="int" name="NGY">    42</i>
   <i type="int" name="NGZ">   140</i>
   <i type="int" name="NGXF">    72</i>
   <i type="int" name="NGYF">    84</i>
   <i type="int" name="NGZF">   280</i>
   <i type="logical" name="ADDGRID"> F  </i>
  </separator>
  <separator name="ionic" >
   <i type="int" name="NSW">   200</i>
   <i type="int" name="IBRION">     2</i>
   <i type="int" name="ISIF">     2</i>
   <i name="PSTRESS">      0.00000000</i>
   <i name="EDIFFG">     -0.01000000</i>
   <i type="int" name="NFREE">     1</i>
   <i name="POTIM">      0.30000000</i>
   <i name="SMASS">     -3.00000000</i>
   <i name="SCALEE">      1.00000000</i>
  </separator>
  <separator name="ionic md" >
   <i name="TEBEG">      0.00010000</i>
   <i name="TEEND">      0.00010000</i>
   <i type="int" name="NBLOCK">     1</i>
   <i type="int" name="KBLOCK">   200</i>
   <i type="int" name="NPACO">   256</i>
   <i name="APACO">     16.00000000</i>
  </separator>
  <separator name="symmetry" >
   <i type="int" name="ISYM">     2</i>
   <i name="SYMPREC">      0.00001000</i>
  </separator>
  <separator name="dos" >
   <i type="logical" name="LORBIT"> F  </i>
   <v name="RWIGS">     -1.00000000     -1.00000000</v>
   <i type="int" name="NEDOS">   301</i>
   <i name="EMIN">     10.00000000</i>
   <i name="EMAX">    -10.00000000</i>
   <i name="EFERMI">      0.00000000</i>
  </separator>
  <separator name="writing" >
   <i type="int" name="NWRITE">     2</i>
   <i type="logical" name="LWAVE"> F  </i>
   <i type="logical" name="LCHARG"> F  </i>
   <i type="logical" name="LPARD"> F  </i>
   <i type="logical" name="LVTOT"> F  </i>
   <i type="logical" name="LVHAR"> F  </i>
   <i type="logical" name="LELF"> F  </i>
   <i type="logical" name="LOPTICS"> F  </i>
   <v name="STM">      0.00000000      0.00000000      0.00000000      0.00000000      0.00000000      0.00000000      0.00000000</v>
  </separator>
  <separator name="performance" >
   <i type="int" name="NPAR">     4</i>
   <i type="int" name="NSIM">     4</i>
   <i type="int" name="NBLK">    -1</i>
   <i type="logical" name="LPLANE"> T  </i>
   <i type="logical" name="LSCALAPACK"> T  </i>
   <i type="logical" name="LSCAAWARE"> F  </i>
   <i type="logical" name="LSCALU"> F  </i>
   <i type="logical" name="LASYNC"> F  </i>
   <i type="logical" name="LORBITALREAL"> F  </i>
  </separator>
  <separator name="miscellaneous" >
   <i type="int" name="IDIOT">     3</i>
   <i type="logical" name="LMUSIC"> F  </i>
   <v name="POMASS">     72.61000000     78.96000000</v>
   <v name="DARWINR">      0.00000000      0.00000000</v>
   <v name="DARWINV">      1.00000000      1.00000000</v>
   <i type="logical" name="LCORR"> T  </i>
  </separator>
  <i type="logical" name="GGA_COMPAT"> T  </i>
  <i type="logical" name="LBERRY"> F  </i>
  <i type="int" name="ICORELEVEL">     0</i>
  <i type="logical" name="LDAU"> F  </i>
  <i type="int" name="I_CONSTRAINED_M">     0</i>
  <separator name="electronic exchange-correlation" >
   <i type="string" name="GGA">--</i>
   <i type="int" name="VOSKOWN">     0</i>
   <i type="logical" name="LHFCALC"> F  </i>
   <i type="string" name="PRECFOCK"></i>
   <i type="logical" name="LSYMGRAD"> F  </i>
   <i type="logical" name="LHFONE"> F  </i>
   <i type="logical" name="LRHFCALC"> F  </i>
   <i type="logical" name="LTHOMAS"> F  </i>
   <i type="logical" name="LMODELHF"> F  </i>
   <i name="ENCUT4O">     -1.00000000</i>
   <i type="int" name="EXXOEP">     0</i>
   <i type="int" name="FOURORBIT">     0</i>
   <i name="AEXX">      0.00000000</i>
   <i name="HFALPHA">      0.00000000</i>
   <i name="MCALPHA">      0.00000000</i>
   <i name="ALDAX">      1.00000000</i>
   <i name="AGGAX">      1.00000000</i>
   <i name="ALDAC">      1.00000000</i>
   <i name="AGGAC">      1.00000000</i>
   <i type="int" name="NKREDX">     1</i>
   <i type="int" name="NKREDY">     1</i>
   <i type="int" name="NKREDZ">     1</i>
   <i type="logical" name="SHIFTRED"> F  </i>
   <i type="logical" name="ODDONLY"> F  </i>
   <i type="logical" name="EVENONLY"> F  </i>
   <i type="int" name="LMAXFOCK">     0</i>
   <i type="int" name="NMAXFOCKAE">     0</i>
   <i type="logical" name="LFOCKAEDFT"> F  </i>
   <i name="HFSCREEN">      0.00000000</i>
   <i name="HFSCREENC">      0.00000000</i>
   <i type="int" name="NBANDSGWLOW">     0</i>
  </separator>
  <separator name="vdW DFT" >
   <i type="logical" name="LUSE_VDW"> F  </i>
   <i name="Zab_VDW">     -0.84910000</i>
   <i name="PARAM1">      0.12340000</i>
   <i name="PARAM2">      1.00000000</i>
   <i name="PARAM3">      0.00000000</i>
  </separator>
  <separator name="model GW" >
   <i type="int" name="MODEL_GW">     0</i>
   <i name="MODEL_EPS0">     50.15142004</i>
   <i name="MODEL_ALPHA">      1.00000000</i>
  </separator>
  <separator name="linear response parameters" >
   <i type="logical" name="LEPSILON"> F  </i>
   <i type="logical" name="LRPA"> F  </i>
   <i type="logical" name="LNABLA"> F  </i>
   <i type="logical" name="LVEL"> F  </i>
   <i type="int" name="KINTER">     0</i>
   <i name="CSHIFT">      0.10000000</i>
   <i name="OMEGAMAX">     -1.00000000</i>
   <i name="DEG_THRESHOLD">      0.00200000</i>
  </separator>
  <separator name="orbital magnetization" >
   <i type="logical" name="NUCIND"> F  </i>
   <v name="MAGPOS">      0.00000000      0.00000000      0.00000000</v>
   <i type="logical" name="LNICSALL"> T  </i>
   <i type="logical" name="ORBITALMAG"> F  </i>
   <i type="logical" name="LMAGBLOCH"> F  </i>
   <i type="logical" name="LCHIMAG"> F  </i>
   <i type="logical" name="LGAUGE"> T  </i>
   <i type="int" name="MAGATOM">     0</i>
   <v name="MAGDIPOL">      0.00000000      0.00000000      0.00000000</v>
   <v name="AVECCONST">      0.00000000      0.00000000      0.00000000</v>
  </separator>
  <separator name="response functions" >
   <i type="logical" name="LADDER"> F  </i>
   <i type="logical" name="LFXC"> F  </i>
   <i type="logical" name="LHARTREE"> T  </i>
   <i type="int" name="IBSE">     0</i>
   <v type="int" name="KPOINT">    -1     0     0     0</v>
   <i type="logical" name="LTCTE"> F  </i>
   <i type="logical" name="LTETE"> F  </i>
   <i type="logical" name="LTRIPLET"> F  </i>
   <i type="logical" name="LFXCEPS"> F  </i>
   <i type="logical" name="LFXHEG"> F  </i>
   <i type="int" name="NATURALO">     0</i>
   <i type="logical" name="L2ORDER"> F  </i>
   <i type="logical" name="LUSEW"> F  </i>
   <i name="ENCUTGW">     -2.00000000</i>
   <i name="ENCUTGWSOFT">     -2.00000000</i>
   <i name="ENCUTLF">     -1.00000000</i>
   <i type="int" name="LMAXMP2">    -1</i>
   <i name="SCISSOR">      0.00000000</i>
   <i type="int" name="NOMEGA">     0</i>
   <i type="int" name="NOMEGAR">     0</i>
   <i type="int" name="NBANDSGW">    -1</i>
   <i type="int" name="NBANDSO">    -1</i>
   <i type="int" name="NBANDSV">    -1</i>
   <i type="int" name="NELM">   250</i>
   <i type="int" name="NELMHF">     1</i>
   <i type="int" name="DIM">     3</i>
   <i type="int" name="ANTIRES">     0</i>
   <i name="OMEGAMAX">    -30.00000000</i>
   <i name="OMEGAMIN">    -30.00000000</i>
   <i name="OMEGATL">   -200.00000000</i>
   <i type="int" name="OMEGAGRID">     0</i>
   <i name="CSHIFT">     -0.10000000</i>
   <i type="logical" name="SELFENERGY"> F  </i>
   <i type="logical" name="LSPECTRAL"> F  </i>
   <i type="logical" name="LSPECTRALGW"> F  </i>
   <i type="logical" name="LSINGLES"> F  </i>
   <i type="logical" name="LFERMIGW"> F  </i>
   <i type="logical" name="ODDONLYGW"> F  </i>
   <i type="logical" name="EVENONLYGW"> F  </i>
   <i type="int" name="NKREDLFX">     1</i>
   <i type="int" name="NKREDLFY">     1</i>
   <i type="int" name="NKREDLFZ">     1</i>
   <i type="int" name="MAXMEM">  1800</i>
   <i type="int" name="TELESCOPE">     0</i>
   <i type="int" name="TAUPAR">     1</i>
   <i type="int" name="OMEGAPAR">    -1</i>
   <i name="LAMBDA">      1.00000000</i>
  </separator>
  <separator name="External order field" >
   <i name="OFIELD_KAPPA">      0.00000000</i>
   <v name="OFIELD_K">      0.00000000      0.00000000      0.00000000</v>
   <i name="OFIELD_Q6_NEAR">      0.00000000</i>
   <i name="OFIELD_Q6_FAR">      0.00000000</i>
   <i name="OFIELD_A">      0.00000000</i>
  </separator>
 </parameters>
 <atominfo>
  <atoms>       6 </atoms>
  <types>       2 </types>
  <array name="atoms" >
   <dimension dim="1">ion</dimension>
   <field type="string">element</field>
   <field type="int">atomtype</field>
   <set>
    <rc><c>Ge</c><c>   1</c></rc>
    <rc><c>Ge</c><c>   1</c></rc>
    <rc><c>Se</c><c>   2</c></rc>
    <rc><c>Se</c><c>   2</c></rc>
    <rc><c>Se</c><c>   2</c></rc>
    <rc><c>Se</c><c>   2</c></rc>
   </set>
  </array>
  <array name="atomtypes" >
   <dimension dim="1">type</dimension>
   <field type="int">atomspertype</field>
   <field type="string">element</field>
   <field>mass</field>
   <field>valence</field>
   <field type="string">pseudopotential</field>
   <set>
    <rc><c>   2</c><c>Ge</c><c>     72.61000000</c><c>     14.00000000</c><c>  PAW_PBE Ge_d 03Jul2007                </c></rc>
    <rc><c>   4</c><c>Se</c><c>     78.96000000</c><c>      6.00000000</c><c>  PAW_PBE Se 06Sep2000                  </c></rc>
   </set>
  </array>
 </atominfo>
 <structure name="initialpos" >
  <crystal>
   <varray name="basis" >
    <v>       4.90607700       0.00000000       0.00000000 </v>
    <v>       0.00000000       5.65415200       0.00000000 </v>
    <v>       0.00000000       0.00000000      18.07929100 </v>
   </varray>
   <i name="volume">    501.51420043 </i>
   <varray name="rec_basis" >
    <v>       0.20382884       0.00000000       0.00000000 </v>
    <v>       0.00000000       0.17686118       0.00000000 </v>
    <v>       0.00000000       0.00000000       0.05531190 </v>
   </varray>
  </crystal>
  <varray name="positions" >
   <v>       0.50000000       0.50000000       0.50000000 </v>
   <v>       0.00000000       0.00000000       0.50000000 </v>
   <v>       0.25000000       0.25000000       0.41502600 </v>
   <v>       0.75000000       0.75000000       0.41502600 </v>
   <v>       0.75000000       0.25000000       0.58497400 </v>
   <v>       0.25000000       0.75000000       0.58497400 </v>
  </varray>
 </structure>
 <calculation>
  <scstep>
   <time name="dav">    1.65    1.65</time>
   <time name="total">    1.69    1.69</time>
   <energy>
    <i name="alphaZ">     45.80336393 </i>
    <i name="ewald">   4874.82774564 </i>
    <i name="hartreedc">  -9661.04388019 </i>
    <i name="XCdc">    142.26941193 </i>
    <i name="pawpsdc">   4514.43351212 </i>
    <i name="pawaedc">  -5329.26418529 </i>
    <i name="eentropy">     -0.00055447 </i>
    <i name="bandstr">   -370.56440272 </i>
    <i name="atom">   6220.98622430 </i>
    <i name="e_fr_energy">    437.44723526 </i>
    <i name="e_wo_entrp">    437.44778974 </i>
    <i name="e_0_energy">    437.44751250 </i>
   </energy>
  </scstep>
  <scstep>
   <time name="dav">    1.73    1.73</time>
   <time name="total">    1.73    1.74</time>
   <energy>
    <i name="e_fr_energy">     46.50573737 </i>
    <i name="e_wo_entrp">     46.50611452 </i>
    <i name="e_0_energy">     46.50592594 </i>
   </energy>
  </scstep>
  <scstep>
   <time name="dav">    1.87    1.87</time>
   <time name="total">    1.87    1.87</time>
   <energy>
    <i name="e_fr_energy">    -21.36073707 </i>
    <i name="e_wo_entrp">    -21.36073707 </i>
    <i name="e_0_energy">    -21.36073707 </i>
   </energy>
  </scstep>
  <scstep>
   <time name="dav">    1.71    1.71</time>
   <time name="total">    1.71    1.71</time>
   <energy>
    <i name="e_fr_energy">    -24.74751262 </i>
    <i name="e_wo_entrp">    -24.74751262 </i>
    <i name="e_0_energy">    -24.74751262 </i>
   </energy>
  </scstep>
  <scstep>
   <time name="dav">    2.00    2.00</time>
   <time name="total">    2.09    2.10</time>
   <energy>
    <i name="e_fr_energy">    -24.85690833 </i>
    <i name="e_wo_entrp">    -24.85690833 </i>
    <i name="e_0_energy">    -24.85690833 </i>
   </energy>
  </scstep>
  <scstep>
   <time name="dav">    1.96    1.96</time>
   <time name="total">    2.08    2.08</time>
   <energy>
    <i name="e_fr_energy">    -24.35346570 </i>
    <i name="e_wo_entrp">    -24.35346570 </i>
    <i name="e_0_energy">    -24.35346570 </i>
   </energy>
  </scstep>
  <scstep>
   <time name="dav">    1.75    1.75</time>
   <time name="total">    1.87    1.87</time>
   <energy>
    <i name="e_fr_energy">    -24.26140219 </i>
    <i name="e_wo_entrp">    -24.26140219 </i>
    <i name="e_0_energy">    -24.26140219 </i>
   </energy>
  </scstep>
  <scstep>
   <time name="dav">    1.85    1.85</time>
   <time name="total">    1.98    1.98</time>
   <energy>
    <i name="e_fr_energy">    -24.25579295 </i>
    <i name="e_wo_entrp">    -24.25579295 </i>
    <i name="e_0_energy">    -24.25579295 </i>
   </energy>
  </scstep>
  <scstep>
   <time name="dav">    1.86    1.86</time>
   <time name="total">    1.98    1.98</time>
   <energy>
    <i name="e_fr_energy">    -24.25536765 </i>
    <i name="e_wo_entrp">    -24.25536765 </i>
    <i name="e_0_energy">    -24.25536765 </i>
   </energy>
  </scstep>
  <scstep>
   <time name="dav">    1.95    1.95</time>
   <time name="total">    2.07    2.07</time>
   <energy>
    <i name="e_fr_energy">    -24.25517081 </i>
    <i name="e_wo_entrp">    -24.25517081 </i>
    <i name="e_0_energy">    -24.25517081 </i>
   </energy>
  </scstep>
  <scstep>
   <time name="dav">    1.60    1.60</time>
   <time name="total">    1.72    1.72</time>
   <energy>
    <i name="e_fr_energy">    -24.25499826 </i>
    <i name="e_wo_entrp">    -24.25499826 </i>
    <i name="e_0_energy">    -24.25499826 </i>
   </energy>
  </scstep>
  <scstep>
   <time name="dav">    1.56    1.56</time>
   <time name="total">    1.68    1.68</time>
   <energy>
    <i name="e_fr_energy">    -24.25512976 </i>
    <i name="e_wo_entrp">    -24.25512976 </i>
    <i name="e_0_energy">    -24.25512976 </i>
   </energy>
  </scstep>
  <scstep>
   <time name="dav">    1.54    1.54</time>
   <time name="total">    1.66    1.66</time>
   <energy>
    <i name="e_fr_energy">    -24.25538903 </i>
    <i name="e_wo_entrp">    -24.25538903 </i>
    <i name="e_0_energy">    -24.25538903 </i>
   </energy>
  </scstep>
  <scstep>
   <time name="dav">    1.46    1.46</time>
   <time name="total">    1.58    1.58</time>
   <energy>
    <i name="e_fr_energy">    -24.25548878 </i>
    <i name="e_wo_entrp">    -24.25548878 </i>
    <i name="e_0_energy">    -24.25548878 </i>
   </energy>
  </scstep>
  <scstep>
   <time name="dav">    1.41    1.41</time>
   <time name="total">    1.54    1.54</time>
   <energy>
    <i name="e_fr_energy">    -24.25554410 </i>
    <i name="e_wo_entrp">    -24.25554410 </i>
    <i name="e_0_energy">    -24.25554410 </i>
   </energy>
  </scstep>
  <scstep>
   <time name="dav">    1.39    1.39</time>
   <time name="total">    1.51    1.51</time>
   <energy>
    <i name="e_fr_energy">    -24.25560350 </i>
    <i name="e_wo_entrp">    -24.25560350 </i>
    <i name="e_0_energy">    -24.25560350 </i>
   </energy>
  </scstep>
  <scstep>
   <time name="dav">    1.27    1.27</time>
   <time name="total">    1.39    1.40</time>
   <energy>
    <i name="e_fr_energy">    -24.25564993 </i>
    <i name="e_wo_entrp">    -24.25564993 </i>
    <i name="e_0_energy">    -24.25564993 </i>
   </energy>
  </scstep>
  <scstep>
   <time name="dav">    1.33    1.33</time>
   <time name="total">    1.45    1.45</time>
   <energy>
    <i name="e_fr_energy">    -24.25567827 </i>
    <i name="e_wo_entrp">    -24.25567827 </i>
    <i name="e_0_energy">    -24.25567827 </i>
   </energy>
  </scstep>
  <scstep>
   <time name="dav">    1.34    1.34</time>
   <time name="total">    1.37    1.37</time>
   <energy>
    <i name="alphaZ">     45.80336393 </i>
    <i name="ewald">   4874.82774564 </i>
    <i name="hartreedc">  -9664.25959094 </i>
    <i name="XCdc">    142.79429020 </i>
    <i name="pawpsdc">   5713.09844254 </i>
    <i name="pawaedc">  -6532.90186049 </i>
    <i name="eentropy">     -0.00000000 </i>
    <i name="bandstr">   -824.60429869 </i>
    <i name="atom">   6220.98622430 </i>
    <i name="e_fr_energy">    -24.25568350 </i>
    <i name="e_wo_entrp">    -24.25568350 </i>
    <i name="e_0_energy">    -24.25568350 </i>
   </energy>
  </scstep>
  <structure>
   <crystal>
    <varray name="basis" >
     <v>       4.90607700       0.00000000       0.00000000 </v>
     <v>       0.00000000       5.65415200       0.00000000 </v>
     <v>       0.00000000       0.00000000      18.07929100 </v>
    </varray>
    <i name="volume">    501.51420043 </i>
    <varray name="rec_basis" >
     <v>       0.20382884       0.00000000       0.00000000 </v>
     <v>       0.00000000       0.17686118       0.00000000 </v>
     <v>       0.00000000       0.00000000       0.05531190 </v>
    </varray>
   </crystal>
   <varray name="positions" >
    <v>       0.50000000       0.50000000       0.50000000 </v>
    <v>       0.00000000       0.00000000       0.50000000 </v>
    <v>       0.25000000       0.25000000       0.41502600 </v>
    <v>       0.75000000       0.75000000       0.41502600 </v>
    <v>       0.75000000       0.25000000       0.58497400 </v>
    <v>       0.25000000       0.75000000       0.58497400 </v>
   </varray>
  </structure>
  <varray name="forces" >
   <v>      -0.00000000      -0.00000000      -0.00000000 </v>
   <v>       0.00000000      -0.00000000      -0.00000000 </v>
   <v>       0.00000000      -0.00000000       0.08061364 </v>
   <v>      -0.00000000       0.00000000       0.08061364 </v>
   <v>       0.00000000      -0.00000000      -0.08061364 </v>
   <v>       0.00000000       0.00000000      -0.08061364 </v>
  </varray>
  <varray name="stress" >
   <v>      -2.41393042       0.00000000       0.00000000 </v>
   <v>       0.00000000      -3.60562483       0.00000000 </v>
   <v>       0.00000000       0.00000000      -1.63318768 </v>
  </varray>
  <energy>
   <i name="e_fr_energy">    -24.25568350 </i>
   <i name="e_wo_entrp">    -24.25568350 </i>
   <i name="e_0_energy">     -0.00000000 </i>
  </energy>
  <time name="totalsc">   34.18   34.22</time>
 </calculation>
 <calculation>
  <scstep>
   <time name="dav">    1.49    1.49</time>
   <time name="total">    1.61    1.61</time>
   <energy>
    <i name="alphaZ">     45.80336393 </i>
    <i name="ewald">   4880.05775884 </i>
    <i name="hartreedc">  -9669.32479475 </i>
    <i name="XCdc">    142.81535906 </i>
    <i name="pawpsdc">   5713.08335106 </i>
    <i name="pawaedc">  -6532.88670192 </i>
    <i name="eentropy">     -0.00000000 </i>
    <i name="bandstr">   -824.79078409 </i>
    <i name="atom">   6220.98622430 </i>
    <i name="e_fr_energy">    -24.25622358 </i>
    <i name="e_wo_entrp">    -24.25622358 </i>
    <i name="e_0_energy">    -24.25622358 </i>
   </energy>
  </scstep>
  <scstep>
   <time name="dav">    1.63    1.63</time>
   <time name="total">    1.75    1.75</time>
   <energy>
    <i name="e_fr_energy">    -24.25631992 </i>
    <i name="e_wo_entrp">    -24.25631992 </i>
    <i name="e_0_energy">    -24.25631992 </i>
   </energy>
  </scstep>
  <scstep>
   <time name="dav">    1.48    1.48</time>
   <time name="total">    1.60    1.60</time>
   <energy>
    <i name="e_fr_energy">    -24.25631903 </i>
    <i name="e_wo_entrp">    -24.25631903 </i>
    <i name="e_0_energy">    -24.25631903 </i>
   </energy>
  </scstep>
  <scstep>
   <time name="dav">    1.26    1.26</time>
   <time name="total">    1.38    1.38</time>
   <energy>
    <i name="e_fr_energy">    -24.25632023 </i>
    <i name="e_wo_entrp">    -24.25632023 </i>
    <i name="e_0_energy">    -24.25632023 </i>
   </energy>
  </scstep>
  <scstep>
   <time name="dav">    1.19    1.19</time>
   <time name="total">    1.31    1.32</time>
   <energy>
    <i name="e_fr_energy">    -24.25632136 </i>
    <i name="e_wo_entrp">    -24.25632136 </i>
    <i name="e_0_energy">    -24.25632136 </i>
   </energy>
  </scstep>
  <scstep>
   <time name="dav">    1.13    1.13</time>
   <time name="total">    1.16    1.16</time>
   <energy>
    <i name="alphaZ">     45.80336393 </i>
    <i name="ewald">   4880.05775884 </i>
    <i name="hartreedc">  -9669.32547806 </i>
    <i name="XCdc">    142.81264495 </i>
    <i name="pawpsdc">   5718.39370664 </i>
    <i name="pawaedc">  -6538.23221209 </i>
    <i name="eentropy">     -0.00000000 </i>
    <i name="bandstr">   -824.75233002 </i>
    <i name="atom">   6220.98622430 </i>
    <i name="e_fr_energy">    -24.25632152 </i>
    <i name="e_wo_entrp">    -24.25632152 </i>
    <i name="e_0_energy">    -24.25632152 </i>
   </energy>
  </scstep>
  <structure>
   <crystal>
    <varray name="basis" >
     <v>       4.90607700       0.00000000       0.00000000 </v>
     <v>       0.00000000       5.65415200       0.00000000 </v>
     <v>       0.00000000       0.00000000      18.07929100 </v>
    </varray>
    <i name="volume">    501.51420043 </i>
    <varray name="rec_basis" >
     <v>       0.20382884       0.00000000       0.00000000 </v>
     <v>       0.00000000       0.17686118       0.00000000 </v>
     <v>       0.00000000       0.00000000       0.05531190 </v>
    </varray>
   </crystal>
   <varray name="positions" >
    <v>       0.50000000       0.50000000       0.50000000 </v>
    <v>       0.00000000      -0.00000000       0.50000000 </v>
    <v>       0.25000000       0.25000000       0.41515507 </v>
    <v>       0.75000000       0.75000000       0.41515507 </v>
    <v>       0.75000000       0.25000000       0.58484493 </v>
    <v>       0.25000000       0.75000000       0.58484493 </v>
   </varray>
  </structure>
  <varray name="forces" >
   <v>       0.00000000      -0.00000000       0.00000000 </v>
   <v>      -0.00000000      -0.00000000       0.00000000 </v>
   <v>      -0.00000000      -0.00000000       0.05482760 </v>
   <v>      -0.00000000       0.00000000       0.05482760 </v>
   <v>       0.00000000       0.00000000      -0.05482760 </v>
   <v>      -0.00000000       0.00000000      -0.05482760 </v>
  </varray>
  <varray name="stress" >
   <v>      -2.28881528       0.00000000       0.00000000 </v>
   <v>       0.00000000      -3.45849459       0.00000000 </v>
   <v>       0.00000000       0.00000000      -1.14500109 </v>
  </varray>
  <energy>
   <i name="e_fr_energy">    -24.25632152 </i>
   <i name="e_wo_entrp">    -24.25632152 </i>
   <i name="e_0_energy">     -0.00000000 </i>
  </energy>
  <time name="totalsc">   10.00   10.02</time>
 </calculation>
 <calculation>
  <scstep>
   <time name="dav">    1.49    1.49</time>
   <time name="total">    1.61    1.62</time>
   <energy>
    <i name="alphaZ">     45.80336393 </i>
    <i name="ewald">   4891.17840764 </i>
    <i name="hartreedc">  -9680.08249185 </i>
    <i name="XCdc">    142.85746048 </i>
    <i name="pawpsdc">   5718.44411725 </i>
    <i name="pawaedc">  -6538.28258632 </i>
    <i name="eentropy">     -0.00000000 </i>
    <i name="bandstr">   -825.16093591 </i>
    <i name="atom">   6220.98622430 </i>
    <i name="e_fr_energy">    -24.25644048 </i>
    <i name="e_wo_entrp">    -24.25644048 </i>
    <i name="e_0_energy">    -24.25644048 </i>
   </energy>
  </scstep>
  <scstep>
   <time name="dav">    1.72    1.72</time>
   <time name="total">    1.84    1.84</time>
   <energy>
    <i name="e_fr_energy">    -24.25687455 </i>
    <i name="e_wo_entrp">    -24.25687455 </i>
    <i name="e_0_energy">    -24.25687455 </i>
   </energy>
  </scstep>
  <scstep>
   <time name="dav">    1.53    1.53</time>
   <time name="total">    1.65    1.65</time>
   <energy>
    <i name="e_fr_energy">    -24.25686633 </i>
    <i name="e_wo_entrp">    -24.25686633 </i>
    <i name="e_0_energy">    -24.25686633 </i>
   </energy>
  </scstep>
  <scstep>
   <time name="dav">    1.38    1.38</time>
   <time name="total">    1.49    1.50</time>
   <energy>
    <i name="e_fr_energy">    -24.25686701 </i>
    <i name="e_wo_entrp">    -24.25686701 </i>
    <i name="e_0_energy">    -24.25686701 </i>
   </energy>
  </scstep>
  <scstep>
   <time name="dav">    1.26    1.26</time>
   <time name="total">    1.38    1.38</time>
   <energy>
    <i name="e_fr_energy">    -24.25686931 </i>
    <i name="e_wo_entrp">    -24.25686931 </i>
    <i name="e_0_energy">    -24.25686931 </i>
   </energy>
  </scstep>
  <scstep>
   <time name="dav">    1.15    1.15</time>
   <time name="total">    1.17    1.18</time>
   <energy>
    <i name="alphaZ">     45.80336393 </i>
    <i name="ewald">   4891.17840764 </i>
    <i name="hartreedc">  -9680.07428646 </i>
    <i name="XCdc">    142.85161089 </i>
    <i name="pawpsdc">   5729.85378792 </i>
    <i name="pawaedc">  -6549.76748364 </i>
    <i name="eentropy">     -0.00000000 </i>
    <i name="bandstr">   -825.08849414 </i>
    <i name="atom">   6220.98622430 </i>
    <i name="e_fr_energy">    -24.25686956 </i>
    <i name="e_wo_entrp">    -24.25686956 </i>
    <i name="e_0_energy">    -24.25686956 </i>
   </energy>
  </scstep>
  <structure>
   <crystal>
    <varray name="basis" >
     <v>       4.90607700       0.00000000       0.00000000 </v>
     <v>       0.00000000       5.65415200       0.00000000 </v>
     <v>       0.00000000       0.00000000      18.07929100 </v>
    </varray>
    <i name="volume">    501.51420043 </i>
    <varray name="rec_basis" >
     <v>       0.20382884       0.00000000       0.00000000 </v>
     <v>       0.00000000       0.17686118       0.00000000 </v>
     <v>       0.00000000       0.00000000       0.05531190 </v>
    </varray>
   </crystal>
   <varray name="positions" >
    <v>       0.50000000       0.50000000       0.50000000 </v>
    <v>       0.00000000      -0.00000000       0.50000000 </v>
    <v>       0.25000000       0.25000000       0.41542949 </v>
    <v>       0.75000000       0.75000000       0.41542949 </v>
    <v>       0.75000000       0.25000000       0.58457051 </v>
    <v>       0.25000000       0.75000000       0.58457051 </v>
   </varray>
  </structure>
  <varray name="forces" >
   <v>      -0.00000000       0.00000000       0.00000000 </v>
   <v>      -0.00000000       0.00000000       0.00000000 </v>
   <v>       0.00000000       0.00000000      -0.00069789 </v>
   <v>       0.00000000       0.00000000      -0.00069789 </v>
   <v>       0.00000000      -0.00000000       0.00069789 </v>
   <v>       0.00000000       0.00000000       0.00069789 </v>
  </varray>
  <varray name="stress" >
   <v>      -2.00657629       0.00000000       0.00000000 </v>
   <v>       0.00000000      -3.12898082       0.00000000 </v>
   <v>       0.00000000       0.00000000      -0.08100744 </v>
  </varray>
  <energy>
   <i name="e_fr_energy">    -24.25686956 </i>
   <i name="e_wo_entrp">    -24.25686956 </i>
   <i name="e_0_energy">     -0.00000000 </i>
  </energy>
  <time name="totalsc">   10.27   10.28</time>
  <eigenvalues>
   <array>
    <dimension dim="1">band</dimension>
    <dimension dim="2">kpoint</dimension>
    <dimension dim="3">spin</dimension>
    <field>eigene</field>
    <field>occ</field>
    <set>
     <set comment="spin 1">
      <set comment="kpoint 1">
       <r>  -27.8532    1.0000 </r>
       <r>  -27.8494    1.0000 </r>
       <r>  -27.8453    1.0000 </r>
       <r>  -27.8416    1.0000 </r>
       <r>  -27.8410    1.0000 </r>
       <r>  -27.8288    1.0000 </r>
       <r>  -27.8244    1.0000 </r>
       <r>  -27.8203    1.0000 </r>
       <r>  -27.8068    1.0000 </r>
       <r>  -27.8019    1.0000 </r>
       <r>  -16.8986    1.0000 </r>
       <r>  -15.4007    1.0000 </r>
       <r>  -15.0369    1.0000 </r>
       <r>  -14.8070    1.0000 </r>
       <r>  -11.8435    1.0000 </r>
       <r>   -9.2338    1.0000 </r>
       <r>   -7.4662    1.0000 </r>
       <r>   -5.9346    1.0000 </r>
       <r>   -5.5502    1.0000 </r>
       <r>   -5.5017    1.0000 </r>
       <r>   -5.2985    1.0000 </r>
       <r>   -5.1429    1.0000 </r>
       <r>   -4.6442    1.0000 </r>
       <r>   -4.1557    1.0000 </r>
       <r>   -2.9184    1.0000 </r>
       <r>   -2.8804    1.0000 </r>
       <r>   -1.9700    0.0000 </r>
       <r>   -1.4104    0.0000 </r>
       <r>   -1.0211    0.0000 </r>
       <r>    0.0937    0.0000 </r>
       <r>    0.6807    0.0000 </r>
       <r>    1.9159    0.0000 </r>
      </set>
      <set comment="kpoint 2">
       <r>  -27.8530    1.0000 </r>
       <r>  -27.8494    1.0000 </r>
       <r>  -27.8452    1.0000 </r>
       <r>  -27.8417    1.0000 </r>
       <r>  -27.8409    1.0000 </r>
       <r>  -27.8287    1.0000 </r>
       <r>  -27.8244    1.0000 </r>
       <r>  -27.8205    1.0000 </r>
       <r>  -27.8067    1.0000 </r>
       <r>  -27.8020    1.0000 </r>
       <r>  -16.8823    1.0000 </r>
       <r>  -15.3950    1.0000 </r>
       <r>  -15.0386    1.0000 </r>
       <r>  -14.8446    1.0000 </r>
       <r>  -11.8018    1.0000 </r>
       <r>   -9.2508    1.0000 </r>
       <r>   -7.4653    1.0000 </r>
       <r>   -5.9277    1.0000 </r>
       <r>   -5.6249    1.0000 </r>
       <r>   -5.5976    1.0000 </r>
       <r>   -5.3565    1.0000 </r>
       <r>   -5.0391    1.0000 </r>
       <r>   -4.6422    1.0000 </r>
       <r>   -4.1430    1.0000 </r>
       <r>   -2.9762    1.0000 </r>
       <r>   -2.9084    1.0000 </r>
       <r>   -1.8728    0.0000 </r>
       <r>   -1.4067    0.0000 </r>
       <r>   -0.9144    0.0000 </r>
       <r>    0.1411    0.0000 </r>
       <r>    0.7293    0.0000 </r>
       <r>    1.9399    0.0000 </r>
      </set>
      <set comment="kpoint 3">
       <r>  -27.8527    1.0000 </r>
       <r>  -27.8492    1.0000 </r>
       <r>  -27.8451    1.0000 </r>
       <r>  -27.8421    1.0000 </r>
       <r>  -27.8405    1.0000 </r>
       <r>  -27.8285    1.0000 </r>
       <r>  -27.8245    1.0000 </r>
       <r>  -27.8213    1.0000 </r>
       <r>  -27.8065    1.0000 </r>
       <r>  -27.8021    1.0000 </r>
       <r>  -16.8334    1.0000 </r>
       <r>  -15.3782    1.0000 </r>
       <r>  -15.0442    1.0000 </r>
       <r>  -14.9509    1.0000 </r>
       <r>  -11.6829    1.0000 </r>
       <r>   -9.3035    1.0000 </r>
       <r>   -7.4615    1.0000 </r>
       <r>   -5.9041    1.0000 </r>
       <r>   -5.8188    1.0000 </r>
       <r>   -5.7581    1.0000 </r>
       <r>   -5.5058    1.0000 </r>
       <r>   -4.8590    1.0000 </r>
       <r>   -4.6517    1.0000 </r>
       <r>   -4.1057    1.0000 </r>
       <r>   -3.1260    1.0000 </r>
       <r>   -2.9847    1.0000 </r>
       <r>   -1.6209    0.0000 </r>
       <r>   -1.3846    0.0000 </r>
       <r>   -0.6136    0.0000 </r>
       <r>    0.2737    0.0000 </r>
       <r>    0.8638    0.0000 </r>
       <r>    1.9505    0.0000 </r>
      </set>
      <set comment="kpoint 4">
       <r>  -27.8521    1.0000 </r>
       <r>  -27.8490    1.0000 </r>
       <r>  -27.8451    1.0000 </r>
       <r>  -27.8427    1.0000 </r>
       <r>  -27.8397    1.0000 </r>
       <r>  -27.8283    1.0000 </r>
       <r>  -27.8247    1.0000 </r>
       <r>  -27.8225    1.0000 </r>
       <r>  -27.8063    1.0000 </r>
       <r>  -27.8023    1.0000 </r>
       <r>  -16.7529    1.0000 </r>
       <r>  -15.3516    1.0000 </r>
       <r>  -15.1100    1.0000 </r>
       <r>  -15.0543    1.0000 </r>
       <r>  -11.5017    1.0000 </r>
       <r>   -9.3960    1.0000 </r>
       <r>   -7.4514    1.0000 </r>
       <r>   -6.0757    1.0000 </r>
       <r>   -5.9060    1.0000 </r>
       <r>   -5.8580    1.0000 </r>
       <r>   -5.6947    1.0000 </r>
       <r>   -4.6943    1.0000 </r>
       <r>   -4.6887    1.0000 </r>
       <r>   -4.0466    1.0000 </r>
       <r>   -3.3280    1.0000 </r>
       <r>   -3.0921    1.0000 </r>
       <r>   -1.3212    0.0000 </r>
       <r>   -1.2885    0.0000 </r>
       <r>   -0.1621    0.0000 </r>
       <r>    0.4677    0.0000 </r>
       <r>    1.0493    0.0000 </r>
       <r>    1.8036    0.0000 </r>
      </set>
      <set comment="kpoint 5">
       <r>  -27.8513    1.0000 </r>
       <r>  -27.8486    1.0000 </r>
       <r>  -27.8453    1.0000 </r>
       <r>  -27.8435    1.0000 </r>
       <r>  -27.8385    1.0000 </r>
       <r>  -27.8279    1.0000 </r>
       <r>  -27.8249    1.0000 </r>
       <r>  -27.8241    1.0000 </r>
       <r>  -27.8059    1.0000 </r>
       <r>  -27.8027    1.0000 </r>
       <r>  -16.6422    1.0000 </r>
       <r>  -15.3172    1.0000 </r>
       <r>  -15.3037    1.0000 </r>
       <r>  -15.0698    1.0000 </r>
       <r>  -11.2749    1.0000 </r>
       <r>   -9.5326    1.0000 </r>
       <r>   -7.4288    1.0000 </r>
       <r>   -6.3508    1.0000 </r>
       <r>   -6.0255    1.0000 </r>
       <r>   -5.8767    1.0000 </r>
       <r>   -5.7836    1.0000 </r>
       <r>   -4.7782    1.0000 </r>
       <r>   -4.5498    1.0000 </r>
       <r>   -3.9695    1.0000 </r>
       <r>   -3.5497    1.0000 </r>
       <r>   -3.2128    1.0000 </r>
       <r>   -1.2004    0.0000 </r>
       <r>   -0.9464    0.0000 </r>
       <r>    0.3950    0.0000 </r>
       <r>    0.6934    0.0000 </r>
       <r>    1.2300    0.0000 </r>
       <r>    1.6471    0.0000 </r>
      </set>
      <set comment="kpoint 6">
       <r>  -27.8503    1.0000 </r>
       <r>  -27.8482    1.0000 </r>
       <r>  -27.8457    1.0000 </r>
       <r>  -27.8445    1.0000 </r>
       <r>  -27.8368    1.0000 </r>
       <r>  -27.8275    1.0000 </r>
       <r>  -27.8260    1.0000 </r>
       <r>  -27.8252    1.0000 </r>
       <r>  -27.8055    1.0000 </r>
       <r>  -27.8031    1.0000 </r>
       <r>  -16.5032    1.0000 </r>
       <r>  -15.5161    1.0000 </r>
       <r>  -15.2773    1.0000 </r>
       <r>  -15.0914    1.0000 </r>
       <r>  -11.0178    1.0000 </r>
       <r>   -9.7142    1.0000 </r>
       <r>   -7.3852    1.0000 </r>
       <r>   -6.6149    1.0000 </r>
       <r>   -6.1129    1.0000 </r>
       <r>   -6.0235    1.0000 </r>
       <r>   -5.6785    1.0000 </r>
       <r>   -4.9012    1.0000 </r>
       <r>   -4.4409    1.0000 </r>
       <r>   -3.8787    1.0000 </r>
       <r>   -3.7656    1.0000 </r>
       <r>   -3.3342    1.0000 </r>
       <r>   -1.0258    0.0000 </r>
       <r>   -0.6636    0.0000 </r>
       <r>    0.9168    0.0000 </r>
       <r>    1.0155    0.0000 </r>
       <r>    1.3496    0.0000 </r>
       <r>    1.5257    0.0000 </r>
      </set>
      <set comment="kpoint 7">
       <r>  -27.8492    1.0000 </r>
       <r>  -27.8477    1.0000 </r>
       <r>  -27.8461    1.0000 </r>
       <r>  -27.8456    1.0000 </r>
       <r>  -27.8348    1.0000 </r>
       <r>  -27.8281    1.0000 </r>
       <r>  -27.8270    1.0000 </r>
       <r>  -27.8256    1.0000 </r>
       <r>  -27.8050    1.0000 </r>
       <r>  -27.8035    1.0000 </r>
       <r>  -16.3389    1.0000 </r>
       <r>  -15.7345    1.0000 </r>
       <r>  -15.2349    1.0000 </r>
       <r>  -15.1195    1.0000 </r>
       <r>  -10.7433    1.0000 </r>
       <r>   -9.9365    1.0000 </r>
       <r>   -7.3116    1.0000 </r>
       <r>   -6.8502    1.0000 </r>
       <r>   -6.1682    1.0000 </r>
       <r>   -6.1238    1.0000 </r>
       <r>   -5.5449    1.0000 </r>
       <r>   -5.0534    1.0000 </r>
       <r>   -4.3460    1.0000 </r>
       <r>   -3.9580    1.0000 </r>
       <r>   -3.7786    1.0000 </r>
       <r>   -3.4511    1.0000 </r>
       <r>   -0.8213    0.0000 </r>
       <r>   -0.5046    0.0000 </r>
       <r>    1.1027    0.0000 </r>
       <r>    1.3898    0.0000 </r>
       <r>    1.3932    0.0000 </r>
       <r>    1.4116    0.0000 </r>
      </set>
      <set comment="kpoint 8">
       <r>  -27.8480    1.0000 </r>
       <r>  -27.8472    1.0000 </r>
       <r>  -27.8468    1.0000 </r>
       <r>  -27.8466    1.0000 </r>
       <r>  -27.8326    1.0000 </r>
       <r>  -27.8304    1.0000 </r>
       <r>  -27.8265    1.0000 </r>
       <r>  -27.8260    1.0000 </r>
       <r>  -27.8045    1.0000 </r>
       <r>  -27.8040    1.0000 </r>
       <r>  -16.1527    1.0000 </r>
       <r>  -15.9492    1.0000 </r>
       <r>  -15.1929    1.0000 </r>
       <r>  -15.1537    1.0000 </r>
       <r>  -10.4634    1.0000 </r>
       <r>  -10.1903    1.0000 </r>
       <r>   -7.2003    1.0000 </r>
       <r>   -7.0467    1.0000 </r>
       <r>   -6.1907    1.0000 </r>
       <r>   -6.1777    1.0000 </r>
       <r>   -5.3890    1.0000 </r>
       <r>   -5.2209    1.0000 </r>
       <r>   -4.2440    1.0000 </r>
       <r>   -4.1176    1.0000 </r>
       <r>   -3.6728    1.0000 </r>
       <r>   -3.5636    1.0000 </r>
       <r>   -0.6280    0.0000 </r>
       <r>   -0.5019    0.0000 </r>
       <r>    1.2288    0.0000 </r>
       <r>    1.3078    0.0000 </r>
       <r>    1.3940    0.0000 </r>
       <r>    1.3947    0.0000 </r>
      </set>
      <set comment="kpoint 9">
       <r>  -27.8531    1.0000 </r>
       <r>  -27.8493    1.0000 </r>
       <r>  -27.8453    1.0000 </r>
       <r>  -27.8413    1.0000 </r>
       <r>  -27.8411    1.0000 </r>
       <r>  -27.8287    1.0000 </r>
       <r>  -27.8244    1.0000 </r>
       <r>  -27.8206    1.0000 </r>
       <r>  -27.8067    1.0000 </r>
       <r>  -27.8020    1.0000 </r>
       <r>  -16.8806    1.0000 </r>
       <r>  -15.3924    1.0000 </r>
       <r>  -15.0849    1.0000 </r>
       <r>  -14.8159    1.0000 </r>
       <r>  -11.7820    1.0000 </r>
       <r>   -9.2537    1.0000 </r>
       <r>   -7.4525    1.0000 </r>
       <r>   -5.9566    1.0000 </r>
       <r>   -5.6052    1.0000 </r>
       <r>   -5.4926    1.0000 </r>
       <r>   -5.3779    1.0000 </r>
       <r>   -5.1104    1.0000 </r>
       <r>   -4.6418    1.0000 </r>
       <r>   -4.1270    1.0000 </r>
       <r>   -2.9483    1.0000 </r>
       <r>   -2.9456    1.0000 </r>
       <r>   -1.8560    0.0000 </r>
       <r>   -1.3873    0.0000 </r>
       <r>   -0.8962    0.0000 </r>
       <r>    0.1100    0.0000 </r>
       <r>    0.7114    0.0000 </r>
       <r>    1.9390    0.0000 </r>
      </set>
      <set comment="kpoint 10">
       <r>  -27.8529    1.0000 </r>
       <r>  -27.8493    1.0000 </r>
       <r>  -27.8453    1.0000 </r>
       <r>  -27.8414    1.0000 </r>
       <r>  -27.8410    1.0000 </r>
       <r>  -27.8287    1.0000 </r>
       <r>  -27.8245    1.0000 </r>
       <r>  -27.8208    1.0000 </r>
       <r>  -27.8066    1.0000 </r>
       <r>  -27.8020    1.0000 </r>
       <r>  -16.8644    1.0000 </r>
       <r>  -15.3869    1.0000 </r>
       <r>  -15.0895    1.0000 </r>
       <r>  -14.8479    1.0000 </r>
       <r>  -11.7441    1.0000 </r>
       <r>   -9.2722    1.0000 </r>
       <r>   -7.4487    1.0000 </r>
       <r>   -5.9603    1.0000 </r>
       <r>   -5.7280    1.0000 </r>
       <r>   -5.5735    1.0000 </r>
       <r>   -5.3600    1.0000 </r>
       <r>   -5.0121    1.0000 </r>
       <r>   -4.6467    1.0000 </r>
       <r>   -4.1152    1.0000 </r>
       <r>   -3.0770    1.0000 </r>
       <r>   -2.8862    1.0000 </r>
       <r>   -1.8137    0.0000 </r>
       <r>   -1.3825    0.0000 </r>
       <r>   -0.7675    0.0000 </r>
       <r>    0.1557    0.0000 </r>
       <r>    0.7590    0.0000 </r>
       <r>    1.8971    0.0000 </r>
      </set>
      <set comment="kpoint 11">
       <r>  -27.8526    1.0000 </r>
       <r>  -27.8491    1.0000 </r>
       <r>  -27.8453    1.0000 </r>
       <r>  -27.8418    1.0000 </r>
       <r>  -27.8406    1.0000 </r>
       <r>  -27.8285    1.0000 </r>
       <r>  -27.8246    1.0000 </r>
       <r>  -27.8215    1.0000 </r>
       <r>  -27.8065    1.0000 </r>
       <r>  -27.8022    1.0000 </r>
       <r>  -16.8161    1.0000 </r>
       <r>  -15.3707    1.0000 </r>
       <r>  -15.1095    1.0000 </r>
       <r>  -14.9326    1.0000 </r>
       <r>  -11.6355    1.0000 </r>
       <r>   -9.3292    1.0000 </r>
       <r>   -7.4370    1.0000 </r>
       <r>   -5.9813    1.0000 </r>
       <r>   -5.9631    1.0000 </r>
       <r>   -5.6891    1.0000 </r>
       <r>   -5.4122    1.0000 </r>
       <r>   -4.8364    1.0000 </r>
       <r>   -4.6672    1.0000 </r>
       <r>   -4.0797    1.0000 </r>
       <r>   -3.2535    1.0000 </r>
       <r>   -2.9034    1.0000 </r>
       <r>   -1.6652    0.0000 </r>
       <r>   -1.3583    0.0000 </r>
       <r>   -0.4306    0.0000 </r>
       <r>    0.2828    0.0000 </r>
       <r>    0.8916    0.0000 </r>
       <r>    1.7700    0.0000 </r>
      </set>
      <set comment="kpoint 12">
       <r>  -27.8521    1.0000 </r>
       <r>  -27.8487    1.0000 </r>
       <r>  -27.8455    1.0000 </r>
       <r>  -27.8423    1.0000 </r>
       <r>  -27.8397    1.0000 </r>
       <r>  -27.8282    1.0000 </r>
       <r>  -27.8249    1.0000 </r>
       <r>  -27.8226    1.0000 </r>
       <r>  -27.8062    1.0000 </r>
       <r>  -27.8024    1.0000 </r>
       <r>  -16.7365    1.0000 </r>
       <r>  -15.3451    1.0000 </r>
       <r>  -15.1801    1.0000 </r>
       <r>  -15.0215    1.0000 </r>
       <r>  -11.4688    1.0000 </r>
       <r>   -9.4279    1.0000 </r>
       <r>   -7.4152    1.0000 </r>
       <r>   -6.2170    1.0000 </r>
       <r>   -6.0407    1.0000 </r>
       <r>   -5.7355    1.0000 </r>
       <r>   -5.5531    1.0000 </r>
       <r>   -4.7195    1.0000 </r>
       <r>   -4.6700    1.0000 </r>
       <r>   -4.0205    1.0000 </r>
       <r>   -3.4506    1.0000 </r>
       <r>   -2.9833    1.0000 </r>
       <r>   -1.4107    0.0000 </r>
       <r>   -1.2939    0.0000 </r>
       <r>    0.0333    0.0000 </r>
       <r>    0.4669    0.0000 </r>
       <r>    1.0774    0.0000 </r>
       <r>    1.6163    0.0000 </r>
      </set>
      <set comment="kpoint 13">
       <r>  -27.8514    1.0000 </r>
       <r>  -27.8483    1.0000 </r>
       <r>  -27.8459    1.0000 </r>
       <r>  -27.8429    1.0000 </r>
       <r>  -27.8385    1.0000 </r>
       <r>  -27.8278    1.0000 </r>
       <r>  -27.8254    1.0000 </r>
       <r>  -27.8239    1.0000 </r>
       <r>  -27.8059    1.0000 </r>
       <r>  -27.8027    1.0000 </r>
       <r>  -16.6272    1.0000 </r>
       <r>  -15.3349    1.0000 </r>
       <r>  -15.3119    1.0000 </r>
       <r>  -15.0656    1.0000 </r>
       <r>  -11.2586    1.0000 </r>
       <r>   -9.5710    1.0000 </r>
       <r>   -7.3801    1.0000 </r>
       <r>   -6.4563    1.0000 </r>
       <r>   -6.1182    1.0000 </r>
       <r>   -5.7341    1.0000 </r>
       <r>   -5.7087    1.0000 </r>
       <r>   -4.8141    1.0000 </r>
       <r>   -4.5358    1.0000 </r>
       <r>   -3.9398    1.0000 </r>
       <r>   -3.6465    1.0000 </r>
       <r>   -3.0999    1.0000 </r>
       <r>   -1.1759    0.0000 </r>
       <r>   -1.1019    0.0000 </r>
       <r>    0.5646    0.0000 </r>
       <r>    0.6773    0.0000 </r>
       <r>    1.2640    0.0000 </r>
       <r>    1.4797    0.0000 </r>
      </set>
      <set comment="kpoint 14">
       <r>  -27.8506    1.0000 </r>
       <r>  -27.8477    1.0000 </r>
       <r>  -27.8465    1.0000 </r>
       <r>  -27.8437    1.0000 </r>
       <r>  -27.8369    1.0000 </r>
       <r>  -27.8273    1.0000 </r>
       <r>  -27.8267    1.0000 </r>
       <r>  -27.8248    1.0000 </r>
       <r>  -27.8055    1.0000 </r>
       <r>  -27.8031    1.0000 </r>
       <r>  -16.4902    1.0000 </r>
       <r>  -15.5309    1.0000 </r>
       <r>  -15.2737    1.0000 </r>
       <r>  -15.0938    1.0000 </r>
       <r>  -11.0184    1.0000 </r>
       <r>   -9.7572    1.0000 </r>
       <r>   -7.3267    1.0000 </r>
       <r>   -6.6692    1.0000 </r>
       <r>   -6.1777    1.0000 </r>
       <r>   -5.9094    1.0000 </r>
       <r>   -5.6367    1.0000 </r>
       <r>   -4.9458    1.0000 </r>
       <r>   -4.4312    1.0000 </r>
       <r>   -3.8422    1.0000 </r>
       <r>   -3.8280    1.0000 </r>
       <r>   -3.2313    1.0000 </r>
       <r>   -1.0101    0.0000 </r>
       <r>   -0.8135    0.0000 </r>
       <r>    0.8814    0.0000 </r>
       <r>    1.1010    0.0000 </r>
       <r>    1.3953    0.0000 </r>
       <r>    1.4029    0.0000 </r>
      </set>
      <set comment="kpoint 15">
       <r>  -27.8498    1.0000 </r>
       <r>  -27.8472    1.0000 </r>
       <r>  -27.8470    1.0000 </r>
       <r>  -27.8446    1.0000 </r>
       <r>  -27.8350    1.0000 </r>
       <r>  -27.8286    1.0000 </r>
       <r>  -27.8268    1.0000 </r>
       <r>  -27.8253    1.0000 </r>
       <r>  -27.8050    1.0000 </r>
       <r>  -27.8035    1.0000 </r>
       <r>  -16.3285    1.0000 </r>
       <r>  -15.7395    1.0000 </r>
       <r>  -15.2332    1.0000 </r>
       <r>  -15.1227    1.0000 </r>
       <r>  -10.7597    1.0000 </r>
       <r>   -9.9802    1.0000 </r>
       <r>   -7.2499    1.0000 </r>
       <r>   -6.8547    1.0000 </r>
       <r>   -6.2050    1.0000 </r>
       <r>   -6.0505    1.0000 </r>
       <r>   -5.5330    1.0000 </r>
       <r>   -5.0990    1.0000 </r>
       <r>   -4.3398    1.0000 </r>
       <r>   -3.9892    1.0000 </r>
       <r>   -3.7332    1.0000 </r>
       <r>   -3.3643    1.0000 </r>
       <r>   -0.8233    0.0000 </r>
       <r>   -0.6217    0.0000 </r>
       <r>    1.0501    0.0000 </r>
       <r>    1.2860    0.0000 </r>
       <r>    1.4489    0.0000 </r>
       <r>    1.4760    0.0000 </r>
      </set>
      <set comment="kpoint 16">
       <r>  -27.8489    1.0000 </r>
       <r>  -27.8480    1.0000 </r>
       <r>  -27.8463    1.0000 </r>
       <r>  -27.8454    1.0000 </r>
       <r>  -27.8329    1.0000 </r>
       <r>  -27.8307    1.0000 </r>
       <r>  -27.8263    1.0000 </r>
       <r>  -27.8258    1.0000 </r>
       <r>  -27.8045    1.0000 </r>
       <r>  -27.8040    1.0000 </r>
       <r>  -16.1460    1.0000 </r>
       <r>  -15.9475    1.0000 </r>
       <r>  -15.1932    1.0000 </r>
       <r>  -15.1558    1.0000 </r>
       <r>  -10.4931    1.0000 </r>
       <r>  -10.2295    1.0000 </r>
       <r>   -7.1461    1.0000 </r>
       <r>   -7.0139    1.0000 </r>
       <r>   -6.1957    1.0000 </r>
       <r>   -6.1457    1.0000 </r>
       <r>   -5.4041    1.0000 </r>
       <r>   -5.2564    1.0000 </r>
       <r>   -4.2428    1.0000 </r>
       <r>   -4.1276    1.0000 </r>
       <r>   -3.6162    1.0000 </r>
       <r>   -3.4931    1.0000 </r>
       <r>   -0.6592    0.0000 </r>
       <r>   -0.5743    0.0000 </r>
       <r>    1.1717    0.0000 </r>
       <r>    1.2531    0.0000 </r>
       <r>    1.4348    0.0000 </r>
       <r>    1.4461    0.0000 </r>
      </set>
      <set comment="kpoint 17">
       <r>  -27.8527    1.0000 </r>
       <r>  -27.8490    1.0000 </r>
       <r>  -27.8456    1.0000 </r>
       <r>  -27.8415    1.0000 </r>
       <r>  -27.8405    1.0000 </r>
       <r>  -27.8285    1.0000 </r>
       <r>  -27.8246    1.0000 </r>
       <r>  -27.8215    1.0000 </r>
       <r>  -27.8065    1.0000 </r>
       <r>  -27.8022    1.0000 </r>
       <r>  -16.8266    1.0000 </r>
       <r>  -15.3679    1.0000 </r>
       <r>  -15.2171    1.0000 </r>
       <r>  -14.8420    1.0000 </r>
       <r>  -11.6101    1.0000 </r>
       <r>   -9.3162    1.0000 </r>
       <r>   -7.4103    1.0000 </r>
       <r>   -6.0135    1.0000 </r>
       <r>   -5.7459    1.0000 </r>
       <r>   -5.5808    1.0000 </r>
       <r>   -5.4639    1.0000 </r>
       <r>   -5.0208    1.0000 </r>
       <r>   -4.6526    1.0000 </r>
       <r>   -4.0463    1.0000 </r>
       <r>   -3.1147    1.0000 </r>
       <r>   -3.0136    1.0000 </r>
       <r>   -1.5700    0.0000 </r>
       <r>   -1.3159    0.0000 </r>
       <r>   -0.5498    0.0000 </r>
       <r>    0.1578    0.0000 </r>
       <r>    0.7957    0.0000 </r>
       <r>    1.8200    0.0000 </r>
      </set>
      <set comment="kpoint 18">
       <r>  -27.8526    1.0000 </r>
       <r>  -27.8489    1.0000 </r>
       <r>  -27.8456    1.0000 </r>
       <r>  -27.8414    1.0000 </r>
       <r>  -27.8406    1.0000 </r>
       <r>  -27.8284    1.0000 </r>
       <r>  -27.8247    1.0000 </r>
       <r>  -27.8217    1.0000 </r>
       <r>  -27.8064    1.0000 </r>
       <r>  -27.8022    1.0000 </r>
       <r>  -16.8109    1.0000 </r>
       <r>  -15.3630    1.0000 </r>
       <r>  -15.2238    1.0000 </r>
       <r>  -14.8651    1.0000 </r>
       <r>  -11.5822    1.0000 </r>
       <r>   -9.3388    1.0000 </r>
       <r>   -7.3988    1.0000 </r>
       <r>   -6.0332    1.0000 </r>
       <r>   -5.9365    1.0000 </r>
       <r>   -5.5209    1.0000 </r>
       <r>   -5.4410    1.0000 </r>
       <r>   -4.9346    1.0000 </r>
       <r>   -4.6678    1.0000 </r>
       <r>   -4.0359    1.0000 </r>
       <r>   -3.2511    1.0000 </r>
       <r>   -2.9209    1.0000 </r>
       <r>   -1.6200    0.0000 </r>
       <r>   -1.3088    0.0000 </r>
       <r>   -0.3888    0.0000 </r>
       <r>    0.1982    0.0000 </r>
       <r>    0.8410    0.0000 </r>
       <r>    1.7066    0.0000 </r>
      </set>
      <set comment="kpoint 19">
       <r>  -27.8525    1.0000 </r>
       <r>  -27.8486    1.0000 </r>
       <r>  -27.8459    1.0000 </r>
       <r>  -27.8412    1.0000 </r>
       <r>  -27.8405    1.0000 </r>
       <r>  -27.8282    1.0000 </r>
       <r>  -27.8249    1.0000 </r>
       <r>  -27.8222    1.0000 </r>
       <r>  -27.8063    1.0000 </r>
       <r>  -27.8024    1.0000 </r>
       <r>  -16.7643    1.0000 </r>
       <r>  -15.3485    1.0000 </r>
       <r>  -15.2487    1.0000 </r>
       <r>  -14.9262    1.0000 </r>
       <r>  -11.5012    1.0000 </r>
       <r>   -9.4072    1.0000 </r>
       <r>   -7.3646    1.0000 </r>
       <r>   -6.1926    1.0000 </r>
       <r>   -6.0958    1.0000 </r>
       <r>   -5.5962    1.0000 </r>
       <r>   -5.3416    1.0000 </r>
       <r>   -4.7718    1.0000 </r>
       <r>   -4.7129    1.0000 </r>
       <r>   -4.0018    1.0000 </r>
       <r>   -3.4437    1.0000 </r>
       <r>   -2.8533    1.0000 </r>
       <r>   -1.6610    0.0000 </r>
       <r>   -1.2802    0.0000 </r>
       <r>   -0.0160    0.0000 </r>
       <r>    0.3089    0.0000 </r>
       <r>    0.9696    0.0000 </r>
       <r>    1.5539    0.0000 </r>
      </set>
      <set comment="kpoint 20">
       <r>  -27.8522    1.0000 </r>
       <r>  -27.8481    1.0000 </r>
       <r>  -27.8463    1.0000 </r>
       <r>  -27.8414    1.0000 </r>
       <r>  -27.8397    1.0000 </r>
       <r>  -27.8279    1.0000 </r>
       <r>  -27.8255    1.0000 </r>
       <r>  -27.8230    1.0000 </r>
       <r>  -27.8060    1.0000 </r>
       <r>  -27.8026    1.0000 </r>
       <r>  -16.6876    1.0000 </r>
       <r>  -15.3257    1.0000 </r>
       <r>  -15.3076    1.0000 </r>
       <r>  -15.0010    1.0000 </r>
       <r>  -11.3741    1.0000 </r>
       <r>   -9.5221    1.0000 </r>
       <r>   -7.3096    1.0000 </r>
       <r>   -6.4244    1.0000 </r>
       <r>   -6.1881    1.0000 </r>
       <r>   -5.6217    1.0000 </r>
       <r>   -5.3642    1.0000 </r>
       <r>   -4.7928    1.0000 </r>
       <r>   -4.6193    1.0000 </r>
       <r>   -3.9381    1.0000 </r>
       <r>   -3.6301    1.0000 </r>
       <r>   -2.8564    1.0000 </r>
       <r>   -1.5834    0.0000 </r>
       <r>   -1.2156    0.0000 </r>
       <r>    0.4351    0.0000 </r>
       <r>    0.4651    0.0000 </r>
       <r>    1.1565    0.0000 </r>
       <r>    1.4210    0.0000 </r>
      </set>
      <set comment="kpoint 21">
       <r>  -27.8518    1.0000 </r>
       <r>  -27.8475    1.0000 </r>
       <r>  -27.8469    1.0000 </r>
       <r>  -27.8419    1.0000 </r>
       <r>  -27.8385    1.0000 </r>
       <r>  -27.8275    1.0000 </r>
       <r>  -27.8264    1.0000 </r>
       <r>  -27.8237    1.0000 </r>
       <r>  -27.8057    1.0000 </r>
       <r>  -27.8028    1.0000 </r>
       <r>  -16.5826    1.0000 </r>
       <r>  -15.4183    1.0000 </r>
       <r>  -15.2965    1.0000 </r>
       <r>  -15.0608    1.0000 </r>
       <r>  -11.2096    1.0000 </r>
       <r>   -9.6810    1.0000 </r>
       <r>   -7.2382    1.0000 </r>
       <r>   -6.6131    1.0000 </r>
       <r>   -6.2721    1.0000 </r>
       <r>   -5.6050    1.0000 </r>
       <r>   -5.4863    1.0000 </r>
       <r>   -4.9134    1.0000 </r>
       <r>   -4.5030    1.0000 </r>
       <r>   -3.8434    1.0000 </r>
       <r>   -3.7927    1.0000 </r>
       <r>   -2.9230    1.0000 </r>
       <r>   -1.3870    0.0000 </r>
       <r>   -1.1086    0.0000 </r>
       <r>    0.6388    0.0000 </r>
       <r>    0.8657    0.0000 </r>
       <r>    1.3547    0.0000 </r>
       <r>    1.3628    0.0000 </r>
      </set>
      <set comment="kpoint 22">
       <r>  -27.8512    1.0000 </r>
       <r>  -27.8476    1.0000 </r>
       <r>  -27.8467    1.0000 </r>
       <r>  -27.8426    1.0000 </r>
       <r>  -27.8370    1.0000 </r>
       <r>  -27.8278    1.0000 </r>
       <r>  -27.8270    1.0000 </r>
       <r>  -27.8243    1.0000 </r>
       <r>  -27.8053    1.0000 </r>
       <r>  -27.8031    1.0000 </r>
       <r>  -16.4516    1.0000 </r>
       <r>  -15.5747    1.0000 </r>
       <r>  -15.2632    1.0000 </r>
       <r>  -15.1006    1.0000 </r>
       <r>  -11.0159    1.0000 </r>
       <r>   -9.8767    1.0000 </r>
       <r>   -7.1585    1.0000 </r>
       <r>   -6.7561    1.0000 </r>
       <r>   -6.3132    1.0000 </r>
       <r>   -5.6643    1.0000 </r>
       <r>   -5.5633    1.0000 </r>
       <r>   -5.0600    1.0000 </r>
       <r>   -4.4158    1.0000 </r>
       <r>   -3.9311    1.0000 </r>
       <r>   -3.7255    1.0000 </r>
       <r>   -3.0330    1.0000 </r>
       <r>   -1.1352    0.0000 </r>
       <r>   -0.9721    0.0000 </r>
       <r>    0.8064    0.0000 </r>
       <r>    1.0803    0.0000 </r>
       <r>    1.5028    0.0000 </r>
       <r>    1.5478    0.0000 </r>
      </set>
      <set comment="kpoint 23">
       <r>  -27.8506    1.0000 </r>
       <r>  -27.8483    1.0000 </r>
       <r>  -27.8459    1.0000 </r>
       <r>  -27.8433    1.0000 </r>
       <r>  -27.8353    1.0000 </r>
       <r>  -27.8296    1.0000 </r>
       <r>  -27.8265    1.0000 </r>
       <r>  -27.8248    1.0000 </r>
       <r>  -27.8049    1.0000 </r>
       <r>  -27.8035    1.0000 </r>
       <r>  -16.2982    1.0000 </r>
       <r>  -15.7552    1.0000 </r>
       <r>  -15.2283    1.0000 </r>
       <r>  -15.1317    1.0000 </r>
       <r>  -10.8005    1.0000 </r>
       <r>  -10.0983    1.0000 </r>
       <r>   -7.0807    1.0000 </r>
       <r>   -6.8612    1.0000 </r>
       <r>   -6.2904    1.0000 </r>
       <r>   -5.8610    1.0000 </r>
       <r>   -5.5044    1.0000 </r>
       <r>   -5.2053    1.0000 </r>
       <r>   -4.3386    1.0000 </r>
       <r>   -4.0522    1.0000 </r>
       <r>   -3.5939    1.0000 </r>
       <r>   -3.1669    1.0000 </r>
       <r>   -0.9086    0.0000 </r>
       <r>   -0.8397    0.0000 </r>
       <r>    0.9536    0.0000 </r>
       <r>    1.1261    0.0000 </r>
       <r>    1.5584    0.0000 </r>
       <r>    1.6064    0.0000 </r>
      </set>
      <set comment="kpoint 24">
       <r>  -27.8499    1.0000 </r>
       <r>  -27.8491    1.0000 </r>
       <r>  -27.8450    1.0000 </r>
       <r>  -27.8442    1.0000 </r>
       <r>  -27.8334    1.0000 </r>
       <r>  -27.8315    1.0000 </r>
       <r>  -27.8259    1.0000 </r>
       <r>  -27.8254    1.0000 </r>
       <r>  -27.8044    1.0000 </r>
       <r>  -27.8040    1.0000 </r>
       <r>  -16.1266    1.0000 </r>
       <r>  -15.9430    1.0000 </r>
       <r>  -15.1941    1.0000 </r>
       <r>  -15.1619    1.0000 </r>
       <r>  -10.5704    1.0000 </r>
       <r>  -10.3333    1.0000 </r>
       <r>   -7.0101    1.0000 </r>
       <r>   -6.9412    1.0000 </r>
       <r>   -6.1979    1.0000 </r>
       <r>   -6.0474    1.0000 </r>
       <r>   -5.4283    1.0000 </r>
       <r>   -5.3299    1.0000 </r>
       <r>   -4.2557    1.0000 </r>
       <r>   -4.1604    1.0000 </r>
       <r>   -3.4543    1.0000 </r>
       <r>   -3.3103    1.0000 </r>
       <r>   -0.7742    0.0000 </r>
       <r>   -0.7583    0.0000 </r>
       <r>    1.0736    0.0000 </r>
       <r>    1.1395    0.0000 </r>
       <r>    1.5183    0.0000 </r>
       <r>    1.5344    0.0000 </r>
      </set>
      <set comment="kpoint 25">
       <r>  -27.8521    1.0000 </r>
       <r>  -27.8484    1.0000 </r>
       <r>  -27.8460    1.0000 </r>
       <r>  -27.8421    1.0000 </r>
       <r>  -27.8391    1.0000 </r>
       <r>  -27.8282    1.0000 </r>
       <r>  -27.8248    1.0000 </r>
       <r>  -27.8230    1.0000 </r>
       <r>  -27.8062    1.0000 </r>
       <r>  -27.8025    1.0000 </r>
       <r>  -16.7375    1.0000 </r>
       <r>  -15.4064    1.0000 </r>
       <r>  -15.3285    1.0000 </r>
       <r>  -14.8837    1.0000 </r>
       <r>  -11.3568    1.0000 </r>
       <r>   -9.4272    1.0000 </r>
       <r>   -7.3369    1.0000 </r>
       <r>   -6.0875    1.0000 </r>
       <r>   -5.9200    1.0000 </r>
       <r>   -5.8481    1.0000 </r>
       <r>   -5.4128    1.0000 </r>
       <r>   -4.8887    1.0000 </r>
       <r>   -4.6965    1.0000 </r>
       <r>   -3.9274    1.0000 </r>
       <r>   -3.3339    1.0000 </r>
       <r>   -3.1000    1.0000 </r>
       <r>   -1.2018    0.0000 </r>
       <r>   -1.1930    0.0000 </r>
       <r>   -0.0380    0.0000 </r>
       <r>    0.2347    0.0000 </r>
       <r>    0.9110    0.0000 </r>
       <r>    1.5586    0.0000 </r>
      </set>
      <set comment="kpoint 26">
       <r>  -27.8522    1.0000 </r>
       <r>  -27.8483    1.0000 </r>
       <r>  -27.8462    1.0000 </r>
       <r>  -27.8419    1.0000 </r>
       <r>  -27.8392    1.0000 </r>
       <r>  -27.8281    1.0000 </r>
       <r>  -27.8250    1.0000 </r>
       <r>  -27.8231    1.0000 </r>
       <r>  -27.8061    1.0000 </r>
       <r>  -27.8026    1.0000 </r>
       <r>  -16.7228    1.0000 </r>
       <r>  -15.4113    1.0000 </r>
       <r>  -15.3245    1.0000 </r>
       <r>  -14.8999    1.0000 </r>
       <r>  -11.3424    1.0000 </r>
       <r>   -9.4555    1.0000 </r>
       <r>   -7.3146    1.0000 </r>
       <r>   -6.1574    1.0000 </r>
       <r>   -6.1145    1.0000 </r>
       <r>   -5.6142    1.0000 </r>
       <r>   -5.4573    1.0000 </r>
       <r>   -4.8155    1.0000 </r>
       <r>   -4.7205    1.0000 </r>
       <r>   -3.9160    1.0000 </r>
       <r>   -3.4516    1.0000 </r>
       <r>   -3.0015    1.0000 </r>
       <r>   -1.3125    0.0000 </r>
       <r>   -1.1842    0.0000 </r>
       <r>    0.1273    0.0000 </r>
       <r>    0.2658    0.0000 </r>
       <r>    0.9543    0.0000 </r>
       <r>    1.4717    0.0000 </r>
      </set>
      <set comment="kpoint 27">
       <r>  -27.8522    1.0000 </r>
       <r>  -27.8478    1.0000 </r>
       <r>  -27.8466    1.0000 </r>
       <r>  -27.8415    1.0000 </r>
       <r>  -27.8392    1.0000 </r>
       <r>  -27.8279    1.0000 </r>
       <r>  -27.8256    1.0000 </r>
       <r>  -27.8232    1.0000 </r>
       <r>  -27.8060    1.0000 </r>
       <r>  -27.8027    1.0000 </r>
       <r>  -16.6790    1.0000 </r>
       <r>  -15.4289    1.0000 </r>
       <r>  -15.3130    1.0000 </r>
       <r>  -14.9442    1.0000 </r>
       <r>  -11.2992    1.0000 </r>
       <r>   -9.5392    1.0000 </r>
       <r>   -7.2491    1.0000 </r>
       <r>   -6.3974    1.0000 </r>
       <r>   -6.1947    1.0000 </r>
       <r>   -5.5198    1.0000 </r>
       <r>   -5.3981    1.0000 </r>
       <r>   -4.7918    1.0000 </r>
       <r>   -4.6736    1.0000 </r>
       <r>   -3.8761    1.0000 </r>
       <r>   -3.6307    1.0000 </r>
       <r>   -2.8780    1.0000 </r>
       <r>   -1.5016    0.0000 </r>
       <r>   -1.1543    0.0000 </r>
       <r>    0.3499    0.0000 </r>
       <r>    0.4787    0.0000 </r>
       <r>    1.0798    0.0000 </r>
       <r>    1.3536    0.0000 </r>
      </set>
      <set comment="kpoint 28">
       <r>  -27.8521    1.0000 </r>
       <r>  -27.8472    1.0000 </r>
       <r>  -27.8472    1.0000 </r>
       <r>  -27.8411    1.0000 </r>
       <r>  -27.8391    1.0000 </r>
       <r>  -27.8275    1.0000 </r>
       <r>  -27.8265    1.0000 </r>
       <r>  -27.8234    1.0000 </r>
       <r>  -27.8057    1.0000 </r>
       <r>  -27.8028    1.0000 </r>
       <r>  -16.6072    1.0000 </r>
       <r>  -15.4673    1.0000 </r>
       <r>  -15.2950    1.0000 </r>
       <r>  -15.0046    1.0000 </r>
       <r>  -11.2274    1.0000 </r>
       <r>   -9.6732    1.0000 </r>
       <r>   -7.1455    1.0000 </r>
       <r>   -6.5894    1.0000 </r>
       <r>   -6.3090    1.0000 </r>
       <r>   -5.5432    1.0000 </r>
       <r>   -5.2803    1.0000 </r>
       <r>   -4.9064    1.0000 </r>
       <r>   -4.5484    1.0000 </r>
       <r>   -3.7962    1.0000 </r>
       <r>   -3.7901    1.0000 </r>
       <r>   -2.8061    1.0000 </r>
       <r>   -1.6128    0.0000 </r>
       <r>   -1.0978    0.0000 </r>
       <r>    0.4671    0.0000 </r>
       <r>    0.8254    0.0000 </r>
       <r>    1.2681    0.0000 </r>
       <r>    1.3073    0.0000 </r>
      </set>
      <set comment="kpoint 29">
       <r>  -27.8520    1.0000 </r>
       <r>  -27.8479    1.0000 </r>
       <r>  -27.8464    1.0000 </r>
       <r>  -27.8412    1.0000 </r>
       <r>  -27.8383    1.0000 </r>
       <r>  -27.8277    1.0000 </r>
       <r>  -27.8270    1.0000 </r>
       <r>  -27.8237    1.0000 </r>
       <r>  -27.8054    1.0000 </r>
       <r>  -27.8030    1.0000 </r>
       <r>  -16.5096    1.0000 </r>
       <r>  -15.5378    1.0000 </r>
       <r>  -15.2723    1.0000 </r>
       <r>  -15.0642    1.0000 </r>
       <r>  -11.1274    1.0000 </r>
       <r>   -9.8477    1.0000 </r>
       <r>   -7.0169    1.0000 </r>
       <r>   -6.7273    1.0000 </r>
       <r>   -6.4155    1.0000 </r>
       <r>   -5.5323    1.0000 </r>
       <r>   -5.2859    1.0000 </r>
       <r>   -5.0535    1.0000 </r>
       <r>   -4.4647    1.0000 </r>
       <r>   -3.9185    1.0000 </r>
       <r>   -3.6763    1.0000 </r>
       <r>   -2.7982    1.0000 </r>
       <r>   -1.5899    0.0000 </r>
       <r>   -1.0190    0.0000 </r>
       <r>    0.5998    0.0000 </r>
       <r>    0.9668    0.0000 </r>
       <r>    1.4749    0.0000 </r>
       <r>    1.4841    0.0000 </r>
      </set>
      <set comment="kpoint 30">
       <r>  -27.8517    1.0000 </r>
       <r>  -27.8487    1.0000 </r>
       <r>  -27.8456    1.0000 </r>
       <r>  -27.8416    1.0000 </r>
       <r>  -27.8372    1.0000 </r>
       <r>  -27.8292    1.0000 </r>
       <r>  -27.8265    1.0000 </r>
       <r>  -27.8240    1.0000 </r>
       <r>  -27.8050    1.0000 </r>
       <r>  -27.8033    1.0000 </r>
       <r>  -16.3890    1.0000 </r>
       <r>  -15.6456    1.0000 </r>
       <r>  -15.2469    1.0000 </r>
       <r>  -15.1108    1.0000 </r>
       <r>  -10.9997    1.0000 </r>
       <r>  -10.0486    1.0000 </r>
       <r>   -6.9013    1.0000 </r>
       <r>   -6.8154    1.0000 </r>
       <r>   -6.4551    1.0000 </r>
       <r>   -5.5040    1.0000 </r>
       <r>   -5.4149    1.0000 </r>
       <r>   -5.1960    1.0000 </r>
       <r>   -4.4081    1.0000 </r>
       <r>   -4.0258    1.0000 </r>
       <r>   -3.5320    1.0000 </r>
       <r>   -2.8505    1.0000 </r>
       <r>   -1.4476    0.0000 </r>
       <r>   -0.9405    0.0000 </r>
       <r>    0.7380    0.0000 </r>
       <r>    0.9803    0.0000 </r>
       <r>    1.6326    0.0000 </r>
       <r>    1.7613    0.0000 </r>
      </set>
      <set comment="kpoint 31">
       <r>  -27.8513    1.0000 </r>
       <r>  -27.8494    1.0000 </r>
       <r>  -27.8447    1.0000 </r>
       <r>  -27.8422    1.0000 </r>
       <r>  -27.8357    1.0000 </r>
       <r>  -27.8308    1.0000 </r>
       <r>  -27.8260    1.0000 </r>
       <r>  -27.8244    1.0000 </r>
       <r>  -27.8047    1.0000 </r>
       <r>  -27.8036    1.0000 </r>
       <r>  -16.2496    1.0000 </r>
       <r>  -15.7837    1.0000 </r>
       <r>  -15.2210    1.0000 </r>
       <r>  -15.1443    1.0000 </r>
       <r>  -10.8458    1.0000 </r>
       <r>  -10.2607    1.0000 </r>
       <r>   -6.8626    1.0000 </r>
       <r>   -6.8598    1.0000 </r>
       <r>   -6.3590    1.0000 </r>
       <r>   -5.6399    1.0000 </r>
       <r>   -5.4685    1.0000 </r>
       <r>   -5.2994    1.0000 </r>
       <r>   -4.3552    1.0000 </r>
       <r>   -4.1232    1.0000 </r>
       <r>   -3.3786    1.0000 </r>
       <r>   -2.9497    1.0000 </r>
       <r>   -1.2460    0.0000 </r>
       <r>   -0.8998    0.0000 </r>
       <r>    0.8749    0.0000 </r>
       <r>    1.0061    0.0000 </r>
       <r>    1.6766    0.0000 </r>
       <r>    1.6855    0.0000 </r>
      </set>
      <set comment="kpoint 32">
       <r>  -27.8507    1.0000 </r>
       <r>  -27.8501    1.0000 </r>
       <r>  -27.8438    1.0000 </r>
       <r>  -27.8430    1.0000 </r>
       <r>  -27.8341    1.0000 </r>
       <r>  -27.8325    1.0000 </r>
       <r>  -27.8254    1.0000 </r>
       <r>  -27.8249    1.0000 </r>
       <r>  -27.8043    1.0000 </r>
       <r>  -27.8039    1.0000 </r>
       <r>  -16.0970    1.0000 </r>
       <r>  -15.9384    1.0000 </r>
       <r>  -15.1956    1.0000 </r>
       <r>  -15.1708    1.0000 </r>
       <r>  -10.6679    1.0000 </r>
       <r>  -10.4706    1.0000 </r>
       <r>   -6.8776    1.0000 </r>
       <r>   -6.8698    1.0000 </r>
       <r>   -6.1524    1.0000 </r>
       <r>   -5.8997    1.0000 </r>
       <r>   -5.4269    1.0000 </r>
       <r>   -5.3733    1.0000 </r>
       <r>   -4.2913    1.0000 </r>
       <r>   -4.2129    1.0000 </r>
       <r>   -3.2253    1.0000 </r>
       <r>   -3.0791    1.0000 </r>
       <r>   -1.0565    0.0000 </r>
       <r>   -0.9338    0.0000 </r>
       <r>    0.9909    0.0000 </r>
       <r>    1.0348    0.0000 </r>
       <r>    1.5938    0.0000 </r>
       <r>    1.6163    0.0000 </r>
      </set>
      <set comment="kpoint 33">
       <r>  -27.8514    1.0000 </r>
       <r>  -27.8477    1.0000 </r>
       <r>  -27.8467    1.0000 </r>
       <r>  -27.8429    1.0000 </r>
       <r>  -27.8373    1.0000 </r>
       <r>  -27.8277    1.0000 </r>
       <r>  -27.8252    1.0000 </r>
       <r>  -27.8250    1.0000 </r>
       <r>  -27.8058    1.0000 </r>
       <r>  -27.8030    1.0000 </r>
       <r>  -16.6149    1.0000 </r>
       <r>  -15.6254    1.0000 </r>
       <r>  -15.2763    1.0000 </r>
       <r>  -14.9385    1.0000 </r>
       <r>  -11.0531    1.0000 </r>
       <r>   -9.5931    1.0000 </r>
       <r>   -7.2286    1.0000 </r>
       <r>   -6.1623    1.0000 </r>
       <r>   -6.1360    1.0000 </r>
       <r>   -6.0790    1.0000 </r>
       <r>   -5.3379    1.0000 </r>
       <r>   -4.7754    1.0000 </r>
       <r>   -4.7242    1.0000 </r>
       <r>   -3.7884    1.0000 </r>
       <r>   -3.5798    1.0000 </r>
       <r>   -3.1924    1.0000 </r>
       <r>   -1.0200    0.0000 </r>
       <r>   -0.8352    0.0000 </r>
       <r>    0.3382    0.0000 </r>
       <r>    0.5892    0.0000 </r>
       <r>    1.0235    0.0000 </r>
       <r>    1.2961    0.0000 </r>
      </set>
      <set comment="kpoint 34">
       <r>  -27.8515    1.0000 </r>
       <r>  -27.8475    1.0000 </r>
       <r>  -27.8470    1.0000 </r>
       <r>  -27.8427    1.0000 </r>
       <r>  -27.8373    1.0000 </r>
       <r>  -27.8276    1.0000 </r>
       <r>  -27.8259    1.0000 </r>
       <r>  -27.8245    1.0000 </r>
       <r>  -27.8057    1.0000 </r>
       <r>  -27.8030    1.0000 </r>
       <r>  -16.6015    1.0000 </r>
       <r>  -15.6268    1.0000 </r>
       <r>  -15.2736    1.0000 </r>
       <r>  -14.9496    1.0000 </r>
       <r>  -11.0533    1.0000 </r>
       <r>   -9.6267    1.0000 </r>
       <r>   -7.1962    1.0000 </r>
       <r>   -6.3548    1.0000 </r>
       <r>   -6.1866    1.0000 </r>
       <r>   -5.8323    1.0000 </r>
       <r>   -5.3815    1.0000 </r>
       <r>   -4.8094    1.0000 </r>
       <r>   -4.6648    1.0000 </r>
       <r>   -3.7717    1.0000 </r>
       <r>   -3.6637    1.0000 </r>
       <r>   -3.1026    1.0000 </r>
       <r>   -1.0132    0.0000 </r>
       <r>   -0.9640    0.0000 </r>
       <r>    0.3572    0.0000 </r>
       <r>    0.7178    0.0000 </r>
       <r>    1.0659    0.0000 </r>
       <r>    1.2500    0.0000 </r>
      </set>
      <set comment="kpoint 35">
       <r>  -27.8517    1.0000 </r>
       <r>  -27.8475    1.0000 </r>
       <r>  -27.8469    1.0000 </r>
       <r>  -27.8421    1.0000 </r>
       <r>  -27.8375    1.0000 </r>
       <r>  -27.8274    1.0000 </r>
       <r>  -27.8269    1.0000 </r>
       <r>  -27.8241    1.0000 </r>
       <r>  -27.8056    1.0000 </r>
       <r>  -27.8031    1.0000 </r>
       <r>  -16.5619    1.0000 </r>
       <r>  -15.6325    1.0000 </r>
       <r>  -15.2661    1.0000 </r>
       <r>  -14.9811    1.0000 </r>
       <r>  -11.0513    1.0000 </r>
       <r>   -9.7232    1.0000 </r>
       <r>   -7.1016    1.0000 </r>
       <r>   -6.5524    1.0000 </r>
       <r>   -6.2606    1.0000 </r>
       <r>   -5.5643    1.0000 </r>
       <r>   -5.4526    1.0000 </r>
       <r>   -4.9060    1.0000 </r>
       <r>   -4.5524    1.0000 </r>
       <r>   -3.8034    1.0000 </r>
       <r>   -3.7145    1.0000 </r>
       <r>   -2.9509    1.0000 </r>
       <r>   -1.2280    0.0000 </r>
       <r>   -0.9936    0.0000 </r>
       <r>    0.4098    0.0000 </r>
       <r>    0.9335    0.0000 </r>
       <r>    1.1886    0.0000 </r>
       <r>    1.2436    0.0000 </r>
[...]
       <r>    1.1525    0.0000 </r>
       <r>    1.3249    0.0000 </r>
      </set>
      <set comment="kpoint 54">
       <r>  -27.8517    1.0000 </r>
       <r>  -27.8512    1.0000 </r>
       <r>  -27.8423    1.0000 </r>
       <r>  -27.8415    1.0000 </r>
       <r>  -27.8351    1.0000 </r>
       <r>  -27.8337    1.0000 </r>
       <r>  -27.8249    1.0000 </r>
       <r>  -27.8244    1.0000 </r>
       <r>  -27.8041    1.0000 </r>
       <r>  -27.8038    1.0000 </r>
       <r>  -16.0896    1.0000 </r>
       <r>  -15.9693    1.0000 </r>
       <r>  -15.1806    1.0000 </r>
       <r>  -15.1590    1.0000 </r>
       <r>  -10.7696    1.0000 </r>
       <r>  -10.6204    1.0000 </r>
       <r>   -6.8138    1.0000 </r>
       <r>   -6.7672    1.0000 </r>
       <r>   -5.8877    1.0000 </r>
       <r>   -5.6530    1.0000 </r>
       <r>   -5.3780    1.0000 </r>
       <r>   -5.2704    1.0000 </r>
       <r>   -4.3279    1.0000 </r>
       <r>   -4.2652    1.0000 </r>
       <r>   -2.8705    1.0000 </r>
       <r>   -2.7565    1.0000 </r>
       <r>   -1.4906    0.0000 </r>
       <r>   -1.2782    0.0000 </r>
       <r>    0.9626    0.0000 </r>
       <r>    1.0835    0.0000 </r>
       <r>    1.2142    0.0000 </r>
       <r>    1.3325    0.0000 </r>
      </set>
      <set comment="kpoint 55">
       <r>  -27.8519    1.0000 </r>
       <r>  -27.8516    1.0000 </r>
       <r>  -27.8416    1.0000 </r>
       <r>  -27.8410    1.0000 </r>
       <r>  -27.8355    1.0000 </r>
       <r>  -27.8345    1.0000 </r>
       <r>  -27.8245    1.0000 </r>
       <r>  -27.8243    1.0000 </r>
       <r>  -27.8040    1.0000 </r>
       <r>  -27.8038    1.0000 </r>
       <r>  -16.0332    1.0000 </r>
       <r>  -15.9554    1.0000 </r>
       <r>  -15.1924    1.0000 </r>
       <r>  -15.1820    1.0000 </r>
       <r>  -10.8219    1.0000 </r>
       <r>  -10.7301    1.0000 </r>
       <r>   -6.8315    1.0000 </r>
       <r>   -6.7999    1.0000 </r>
       <r>   -5.8152    1.0000 </r>
       <r>   -5.6940    1.0000 </r>
       <r>   -5.2720    1.0000 </r>
       <r>   -5.1598    1.0000 </r>
       <r>   -4.3556    1.0000 </r>
       <r>   -4.3132    1.0000 </r>
       <r>   -2.7608    1.0000 </r>
       <r>   -2.6980    1.0000 </r>
       <r>   -1.6275    0.0000 </r>
       <r>   -1.4715    0.0000 </r>
       <r>    1.0636    0.0000 </r>
       <r>    1.1058    0.0000 </r>
       <r>    1.2658    0.0000 </r>
       <r>    1.3227    0.0000 </r>
      </set>
      <set comment="kpoint 56">
       <r>  -27.8520    1.0000 </r>
       <r>  -27.8519    1.0000 </r>
       <r>  -27.8411    1.0000 </r>
       <r>  -27.8408    1.0000 </r>
       <r>  -27.8355    1.0000 </r>
       <r>  -27.8352    1.0000 </r>
       <r>  -27.8243    1.0000 </r>
       <r>  -27.8242    1.0000 </r>
       <r>  -27.8039    1.0000 </r>
       <r>  -27.8038    1.0000 </r>
       <r>  -15.9876    1.0000 </r>
       <r>  -15.9606    1.0000 </r>
       <r>  -15.1990    1.0000 </r>
       <r>  -15.1962    1.0000 </r>
       <r>  -10.8345    1.0000 </r>
       <r>  -10.8035    1.0000 </r>
       <r>   -6.8378    1.0000 </r>
       <r>   -6.8270    1.0000 </r>
       <r>   -5.7670    1.0000 </r>
       <r>   -5.7304    1.0000 </r>
       <r>   -5.1684    1.0000 </r>
       <r>   -5.1220    1.0000 </r>
       <r>   -4.3635    1.0000 </r>
       <r>   -4.3479    1.0000 </r>
       <r>   -2.7008    1.0000 </r>
       <r>   -2.6827    1.0000 </r>
       <r>   -1.6653    0.0000 </r>
       <r>   -1.6091    0.0000 </r>
       <r>    1.1208    0.0000 </r>
       <r>    1.1272    0.0000 </r>
       <r>    1.2928    0.0000 </r>
       <r>    1.3083    0.0000 </r>
      </set>
     </set>
    </set>
   </array>
  </eigenvalues>
  <separator name="orbital magnetization" >
   <v name="MAGDIPOLOUT">      0.00000000      0.00000000      0.00000000</v>
  </separator>
  <dos>
   <i name="efermi">     -2.54242314 </i>
   <total>
    <array>
     <dimension dim="1">gridpoints</dimension>
     <dimension dim="2">spin</dimension>
     <field>energy</field>
     <field>total</field>
     <field>integrated</field>
     <set>
      <set comment="spin 1">
       <r>   -29.3434     0.0000     0.0000 </r>
       <r>   -29.2341     0.0000     0.0000 </r>
       <r>   -29.1248     0.0000     0.0000 </r>
       <r>   -29.0155     0.0000     0.0000 </r>
       <r>   -28.9062     0.0000     0.0000 </r>
       <r>   -28.7970     0.0000     0.0000 </r>
       <r>   -28.6877     0.0000     0.0000 </r>
       <r>   -28.5784     0.0000     0.0000 </r>
       <r>   -28.4691     0.0000     0.0000 </r>
       <r>   -28.3598     0.0000     0.0000 </r>
       <r>   -28.2506     0.0000     0.0000 </r>
       <r>   -28.1413     0.0000     0.0000 </r>
       <r>   -28.0320     0.0000     0.0000 </r>
       <r>   -27.9227     0.0000     0.0000 </r>
       <r>   -27.8134   144.0848    15.7456 </r>
       <r>   -27.7042    38.9312    20.0000 </r>
       <r>   -27.5949     0.0000    20.0000 </r>
       <r>   -27.4856     0.0000    20.0000 </r>
       <r>   -27.3763     0.0000    20.0000 </r>
       <r>   -27.2670     0.0000    20.0000 </r>
       <r>   -27.1578     0.0000    20.0000 </r>
       <r>   -27.0485     0.0000    20.0000 </r>
       <r>   -26.9392     0.0000    20.0000 </r>
       <r>   -26.8299     0.0000    20.0000 </r>
       <r>   -26.7206     0.0000    20.0000 </r>
       <r>   -26.6114     0.0000    20.0000 </r>
       <r>   -26.5021     0.0000    20.0000 </r>
       <r>   -26.3928     0.0000    20.0000 </r>
       <r>   -26.2835     0.0000    20.0000 </r>
       <r>   -26.1742     0.0000    20.0000 </r>
       <r>   -26.0650     0.0000    20.0000 </r>
       <r>   -25.9557     0.0000    20.0000 </r>
       <r>   -25.8464     0.0000    20.0000 </r>
       <r>   -25.7371     0.0000    20.0000 </r>
       <r>   -25.6278     0.0000    20.0000 </r>
       <r>   -25.5186     0.0000    20.0000 </r>
       <r>   -25.4093     0.0000    20.0000 </r>
       <r>   -25.3000     0.0000    20.0000 </r>
       <r>   -25.1907     0.0000    20.0000 </r>
       <r>   -25.0814     0.0000    20.0000 </r>
       <r>   -24.9722     0.0000    20.0000 </r>
       <r>   -24.8629     0.0000    20.0000 </r>
       <r>   -24.7536     0.0000    20.0000 </r>
       <r>   -24.6443     0.0000    20.0000 </r>
       <r>   -24.5350     0.0000    20.0000 </r>
       <r>   -24.4258     0.0000    20.0000 </r>
       <r>   -24.3165     0.0000    20.0000 </r>
       <r>   -24.2072     0.0000    20.0000 </r>
       <r>   -24.0979     0.0000    20.0000 </r>
       <r>   -23.9886     0.0000    20.0000 </r>
       <r>   -23.8794     0.0000    20.0000 </r>
       <r>   -23.7701     0.0000    20.0000 </r>
       <r>   -23.6608     0.0000    20.0000 </r>
       <r>   -23.5515     0.0000    20.0000 </r>
       <r>   -23.4422     0.0000    20.0000 </r>
       <r>   -23.3330     0.0000    20.0000 </r>
       <r>   -23.2237     0.0000    20.0000 </r>
       <r>   -23.1144     0.0000    20.0000 </r>
       <r>   -23.0051     0.0000    20.0000 </r>
       <r>   -22.8958     0.0000    20.0000 </r>
       <r>   -22.7866     0.0000    20.0000 </r>
       <r>   -22.6773     0.0000    20.0000 </r>
       <r>   -22.5680     0.0000    20.0000 </r>
       <r>   -22.4587     0.0000    20.0000 </r>
       <r>   -22.3494     0.0000    20.0000 </r>
       <r>   -22.2402     0.0000    20.0000 </r>
       <r>   -22.1309     0.0000    20.0000 </r>
       <r>   -22.0216     0.0000    20.0000 </r>
       <r>   -21.9123     0.0000    20.0000 </r>
       <r>   -21.8030     0.0000    20.0000 </r>
       <r>   -21.6938     0.0000    20.0000 </r>
       <r>   -21.5845     0.0000    20.0000 </r>
       <r>   -21.4752     0.0000    20.0000 </r>
       <r>   -21.3659     0.0000    20.0000 </r>
       <r>   -21.2566     0.0000    20.0000 </r>
       <r>   -21.1474     0.0000    20.0000 </r>
       <r>   -21.0381     0.0000    20.0000 </r>
       <r>   -20.9288     0.0000    20.0000 </r>
       <r>   -20.8195     0.0000    20.0000 </r>
       <r>   -20.7102     0.0000    20.0000 </r>
       <r>   -20.6010     0.0000    20.0000 </r>
       <r>   -20.4917     0.0000    20.0000 </r>
       <r>   -20.3824     0.0000    20.0000 </r>
       <r>   -20.2731     0.0000    20.0000 </r>
       <r>   -20.1638     0.0000    20.0000 </r>
       <r>   -20.0546     0.0000    20.0000 </r>
       <r>   -19.9453     0.0000    20.0000 </r>
       <r>   -19.8360     0.0000    20.0000 </r>
       <r>   -19.7267     0.0000    20.0000 </r>
       <r>   -19.6174     0.0000    20.0000 </r>
       <r>   -19.5082     0.0000    20.0000 </r>
       <r>   -19.3989     0.0000    20.0000 </r>
       <r>   -19.2896     0.0000    20.0000 </r>
       <r>   -19.1803     0.0000    20.0000 </r>
       <r>   -19.0710     0.0000    20.0000 </r>
       <r>   -18.9618     0.0000    20.0000 </r>
       <r>   -18.8525     0.0000    20.0000 </r>
       <r>   -18.7432     0.0000    20.0000 </r>
       <r>   -18.6339     0.0000    20.0000 </r>
       <r>   -18.5246     0.0000    20.0000 </r>
       <r>   -18.4154     0.0000    20.0000 </r>
       <r>   -18.3061     0.0000    20.0000 </r>
       <r>   -18.1968     0.0000    20.0000 </r>
       <r>   -18.0875     0.0000    20.0000 </r>
       <r>   -17.9782     0.0000    20.0000 </r>
       <r>   -17.8690     0.0000    20.0000 </r>
       <r>   -17.7597     0.0000    20.0000 </r>
       <r>   -17.6504     0.0000    20.0000 </r>
       <r>   -17.5411     0.0000    20.0000 </r>
       <r>   -17.4318     0.0000    20.0000 </r>
       <r>   -17.3226     0.0000    20.0000 </r>
       <r>   -17.2133     0.0000    20.0000 </r>
       <r>   -17.1040     0.0000    20.0000 </r>
       <r>   -16.9947     0.0000    20.0000 </r>
       <r>   -16.8854     0.2488    20.0272 </r>
       <r>   -16.7762     1.8047    20.2244 </r>
       <r>   -16.6669     2.0780    20.4515 </r>
       <r>   -16.5576     2.1865    20.6904 </r>
       <r>   -16.4483     2.0524    20.9147 </r>
       <r>   -16.3390     2.0191    21.1354 </r>
       <r>   -16.2297     2.7709    21.4382 </r>
       <r>   -16.1205     2.4922    21.7105 </r>
       <r>   -16.0112     3.4856    22.0914 </r>
       <r>   -15.9019     4.0819    22.5375 </r>
       <r>   -15.7926     2.8748    22.8517 </r>
       <r>   -15.6833     1.7559    23.0436 </r>
       <r>   -15.5741     2.0972    23.2727 </r>
       <r>   -15.4648     1.3345    23.4186 </r>
       <r>   -15.3555     3.5489    23.8064 </r>
       <r>   -15.2462     7.5858    24.6354 </r>
       <r>   -15.1369    15.4062    26.3190 </r>
       <r>   -15.0277     9.2241    27.3270 </r>
       <r>   -14.9184     4.0221    27.7665 </r>
       <r>   -14.8091     2.0204    27.9873 </r>
       <r>   -14.6998     0.1159    28.0000 </r>
       <r>   -14.5905     0.0000    28.0000 </r>
       <r>   -14.4813     0.0000    28.0000 </r>
       <r>   -14.3720     0.0000    28.0000 </r>
       <r>   -14.2627     0.0000    28.0000 </r>
       <r>   -14.1534     0.0000    28.0000 </r>
       <r>   -14.0441     0.0000    28.0000 </r>
       <r>   -13.9349     0.0000    28.0000 </r>
       <r>   -13.8256     0.0000    28.0000 </r>
       <r>   -13.7163     0.0000    28.0000 </r>
       <r>   -13.6070     0.0000    28.0000 </r>
       <r>   -13.4977     0.0000    28.0000 </r>
       <r>   -13.3885     0.0000    28.0000 </r>
       <r>   -13.2792     0.0000    28.0000 </r>
       <r>   -13.1699     0.0000    28.0000 </r>
       <r>   -13.0606     0.0000    28.0000 </r>
       <r>   -12.9513     0.0000    28.0000 </r>
       <r>   -12.8421     0.0000    28.0000 </r>
       <r>   -12.7328     0.0000    28.0000 </r>
       <r>   -12.6235     0.0000    28.0000 </r>
       <r>   -12.5142     0.0000    28.0000 </r>
       <r>   -12.4049     0.0000    28.0000 </r>
       <r>   -12.2957     0.0000    28.0000 </r>
       <r>   -12.1864     0.0000    28.0000 </r>
       <r>   -12.0771     0.0000    28.0000 </r>
       <r>   -11.9678     0.0000    28.0000 </r>
       <r>   -11.8585     0.0135    28.0015 </r>
       <r>   -11.7493     0.5880    28.0657 </r>
       <r>   -11.6400     0.5750    28.1286 </r>
       <r>   -11.5307     0.8051    28.2165 </r>
       <r>   -11.4214     0.9278    28.3179 </r>
       <r>   -11.3121     1.0005    28.4273 </r>
       <r>   -11.2029     1.4929    28.5904 </r>
       <r>   -11.0936     0.5085    28.6460 </r>
       <r>   -10.9843     2.9459    28.9679 </r>
       <r>   -10.8750     1.0928    29.0873 </r>
       <r>   -10.7657     4.2472    29.5515 </r>
       <r>   -10.6565     2.8959    29.8679 </r>
       <r>   -10.5472     1.9396    30.0799 </r>
       <r>   -10.4379     2.1433    30.3141 </r>
       <r>   -10.3286     1.4299    30.4704 </r>
       <r>   -10.2193     1.7255    30.6590 </r>
       <r>   -10.1101     1.0019    30.7685 </r>
       <r>   -10.0008     1.6298    30.9466 </r>
       <r>    -9.8915     0.9934    31.0551 </r>
       <r>    -9.7822     1.6201    31.2322 </r>
       <r>    -9.6729     1.3842    31.3834 </r>
       <r>    -9.5637     1.1330    31.5072 </r>
       <r>    -9.4544     1.2531    31.6442 </r>
       <r>    -9.3451     1.4608    31.8038 </r>
       <r>    -9.2358     1.6944    31.9890 </r>
       <r>    -9.1265     0.1009    32.0000 </r>
       <r>    -9.0173     0.0000    32.0000 </r>
       <r>    -8.9080     0.0000    32.0000 </r>
       <r>    -8.7987     0.0000    32.0000 </r>
       <r>    -8.6894     0.0000    32.0000 </r>
       <r>    -8.5801     0.0000    32.0000 </r>
       <r>    -8.4709     0.0000    32.0000 </r>
       <r>    -8.3616     0.0000    32.0000 </r>
       <r>    -8.2523     0.0000    32.0000 </r>
       <r>    -8.1430     0.0000    32.0000 </r>
       <r>    -8.0337     0.0000    32.0000 </r>
       <r>    -7.9245     0.0000    32.0000 </r>
       <r>    -7.8152     0.0000    32.0000 </r>
       <r>    -7.7059     0.0000    32.0000 </r>
       <r>    -7.5966     0.0000    32.0000 </r>
       <r>    -7.4873     0.0274    32.0030 </r>
       <r>    -7.3781     3.0670    32.3382 </r>
       <r>    -7.2688     2.1377    32.5718 </r>
       <r>    -7.1595     2.1064    32.8020 </r>
       <r>    -7.0502     1.9861    33.0190 </r>
       <r>    -6.9409     2.1863    33.2579 </r>
       <r>    -6.8317     6.3504    33.9519 </r>
       <r>    -6.7224     8.4289    34.8730 </r>
       <r>    -6.6131     3.3745    35.2418 </r>
       <r>    -6.5038     1.9602    35.4560 </r>
       <r>    -6.3945     2.0947    35.6849 </r>
       <r>    -6.2853     3.4295    36.0597 </r>
       <r>    -6.1760     7.1876    36.8451 </r>
       <r>    -6.0667     4.7494    37.3641 </r>
       <r>    -5.9574     4.8854    37.8980 </r>
       <r>    -5.8481     3.8326    38.3168 </r>
       <r>    -5.7389     3.7256    38.7240 </r>
       <r>    -5.6296     4.8658    39.2557 </r>
       <r>    -5.5203     6.5313    39.9695 </r>
       <r>    -5.4110     8.3947    40.8868 </r>
       <r>    -5.3017     8.4356    41.8087 </r>
       <r>    -5.1925     6.2207    42.4885 </r>
       <r>    -5.0832     4.2400    42.9518 </r>
       <r>    -4.9739     3.0262    43.2825 </r>
       <r>    -4.8646     2.8521    43.5942 </r>
       <r>    -4.7553     3.0839    43.9312 </r>
       <r>    -4.6461     4.3534    44.4070 </r>
       <r>    -4.5368     2.0936    44.6358 </r>
       <r>    -4.4275     2.6636    44.9268 </r>
       <r>    -4.3182     7.4684    45.7430 </r>
       <r>    -4.2089     5.1466    46.3054 </r>
       <r>    -4.0997     4.6811    46.8170 </r>
       <r>    -3.9904     4.1807    47.2738 </r>
       <r>    -3.8811     3.8359    47.6930 </r>
       <r>    -3.7718     3.8315    48.1117 </r>
       <r>    -3.6625     2.3432    48.3678 </r>
       <r>    -3.5533     3.4815    48.7483 </r>
       <r>    -3.4440     3.2264    49.1009 </r>
       <r>    -3.3347     2.7600    49.4025 </r>
       <r>    -3.2254     2.9566    49.7256 </r>
       <r>    -3.1161     2.9388    50.0467 </r>
       <r>    -3.0069     4.0179    50.4858 </r>
       <r>    -2.8976     4.4766    50.9750 </r>
       <r>    -2.7883     4.9360    51.5144 </r>
       <r>    -2.6790     4.2208    51.9757 </r>
       <r>    -2.5697     0.2226    52.0000 </r>
       <r>    -2.4605     0.0000    52.0000 </r>
       <r>    -2.3512     0.0000    52.0000 </r>
       <r>    -2.2419     0.0000    52.0000 </r>
       <r>    -2.1326     0.0000    52.0000 </r>
       <r>    -2.0233     0.0000    52.0000 </r>
       <r>    -1.9141     0.0942    52.0103 </r>
       <r>    -1.8048     0.6514    52.0815 </r>
       <r>    -1.6955     0.1151    52.0941 </r>
       <r>    -1.5862     4.7675    52.6150 </r>
       <r>    -1.4769     2.4319    52.8808 </r>
       <r>    -1.3677     3.2292    53.2337 </r>
       <r>    -1.2584     3.5756    53.6244 </r>
       <r>    -1.1491     3.8067    54.0404 </r>
       <r>    -1.0398     2.9187    54.3594 </r>
       <r>    -0.9305     5.6928    54.9815 </r>
       <r>    -0.8213     3.6296    55.3782 </r>
       <r>    -0.7120     2.8874    55.6937 </r>
       <r>    -0.6027     2.1888    55.9329 </r>
       <r>    -0.4934     1.6397    56.1121 </r>
       <r>    -0.3841     0.8058    56.2001 </r>
       <r>    -0.2749     0.1396    56.2154 </r>
       <r>    -0.1656     0.0754    56.2236 </r>
       <r>    -0.0563     0.1316    56.2380 </r>
       <r>     0.0530     0.8885    56.3351 </r>
       <r>     0.1623     1.2341    56.4700 </r>
       <r>     0.2715     1.1773    56.5986 </r>
       <r>     0.3808     1.8565    56.8015 </r>
       <r>     0.4901     3.2128    57.1526 </r>
       <r>     0.5994     2.0444    57.3760 </r>
       <r>     0.7087     2.9597    57.6994 </r>
       <r>     0.8179     3.1176    58.0401 </r>
       <r>     0.9272     4.9245    58.5783 </r>
       <r>     1.0365     9.0647    59.5689 </r>
       <r>     1.1458     8.6933    60.5189 </r>
       <r>     1.2551     5.1700    61.0839 </r>
       <r>     1.3643     6.2390    61.7657 </r>
       <r>     1.4736     6.4077    62.4659 </r>
       <r>     1.5829     5.3526    63.0508 </r>
       <r>     1.6922     5.2543    63.6250 </r>
       <r>     1.8015     2.0528    63.8494 </r>
       <r>     1.9107     0.7006    63.9259 </r>
       <r>     2.0200     0.6777    64.0000 </r>
       <r>     2.1293     0.0000    64.0000 </r>
       <r>     2.2386     0.0000    64.0000 </r>
       <r>     2.3479     0.0000    64.0000 </r>
       <r>     2.4571     0.0000    64.0000 </r>
       <r>     2.5664     0.0000    64.0000 </r>
       <r>     2.6757     0.0000    64.0000 </r>
       <r>     2.7850     0.0000    64.0000 </r>
       <r>     2.8943     0.0000    64.0000 </r>
       <r>     3.0035     0.0000    64.0000 </r>
       <r>     3.1128     0.0000    64.0000 </r>
       <r>     3.2221     0.0000    64.0000 </r>
       <r>     3.3314     0.0000    64.0000 </r>
       <r>     3.4407     0.0000    64.0000 </r>
      </set>
     </set>
    </array>
   </total>
  </dos>
 </calculation>
 <structure name="finalpos" >
  <crystal>
   <varray name="basis" >
    <v>       4.90607700       0.00000000       0.00000000 </v>
    <v>       0.00000000       5.65415200       0.00000000 </v>
    <v>       0.00000000       0.00000000      18.07929100 </v>
   </varray>
   <i name="volume">    501.51420043 </i>
   <varray name="rec_basis" >
    <v>       0.20382884       0.00000000       0.00000000 </v>
    <v>       0.00000000       0.17686118       0.00000000 </v>
    <v>       0.00000000       0.00000000       0.05531190 </v>
   </varray>
  </crystal>
  <varray name="positions" >
   <v>       0.50000000       0.50000000       0.50000000 </v>
   <v>       0.00000000      -0.00000000       0.50000000 </v>
   <v>       0.25000000       0.25000000       0.41542949 </v>
   <v>       0.75000000       0.75000000       0.41542949 </v>
   <v>       0.75000000       0.25000000       0.58457051 </v>
   <v>       0.25000000       0.75000000       0.58457051 </v>
  </varray>
 </structure>
</modeling>
