<?xml version="1.0" encoding="ISO-8859-1"?>
<modeling>
 <generator>
  <i name="program" type="string">vasp </i>
  <i name="version" type="string">5.4.1  </i>
  <i name="subversion" type="string">24Jun15 (build Nov 20 2020 10:29:34) complex                          parallel </i>
  <i name="platform" type="string">IFC91_ompi </i>
  <i name="date" type="string">2021 09 09 </i>
  <i name="time" type="string">15:20:02 </i>
 </generator>
 <incar>
  <i type="string" name="PREC">a</i>
  <i type="string" name="ALGO"> Normal</i>
  <i type="int" name="ISPIN">     1</i>
  <i type="int" name="ICHARG">     2</i>
  <i type="int" name="NELM">   250</i>
  <i type="int" name="NELMDL">    -5</i>
  <i type="int" name="NELMIN">     6</i>
  <i type="int" name="IBRION">     2</i>
  <i name="EDIFF">      0.00001000</i>
  <i name="EDIFFG">     -0.01000000</i>
  <i type="int" name="NSW">   200</i>
  <i type="int" name="ISIF">     2</i>
  <i name="ENCUT">    520.00000000</i>
  <i name="POTIM">      0.30000000</i>
  <i type="logical" name="LREAL"> F  </i>
  <i type="int" name="ISMEAR">     0</i>
  <i name="SIGMA">      0.02000000</i>
  <i type="logical" name="LWAVE"> F  </i>
  <i type="logical" name="LCHARG"> F  </i>
  <i type="logical" name="LAECHG"> F  </i>
  <v type="int" name="KPOINT_BSE">    -1     0     0     0</v>
  <i type="int" name="NELM">   250</i>
 </incar>
 <kpoints>
  <generation param="Gamma">
   <v type="int" name="divisions">      21       15        1 </v>
   <v name="usershift">      0.00000000       0.00000000       0.00000000 </v>
   <v name="genvec1">      0.04761905       0.00000000       0.00000000 </v>
   <v name="genvec2">      0.00000000       0.06666667       0.00000000 </v>
   <v name="genvec3">      0.00000000       0.00000000       1.00000000 </v>
   <v name="shift">      0.00000000       0.00000000       0.00000000 </v>
  </generation>
  <varray name="kpointlist" >
   <v>       0.00000000       0.00000000       0.00000000 </v>
   <v>       0.04761905      -0.00000000       0.00000000 </v>
   <v>       0.09523810      -0.00000000       0.00000000 </v>
   <v>       0.14285714       0.00000000       0.00000000 </v>
   <v>       0.19047619      -0.00000000       0.00000000 </v>
   <v>       0.23809524      -0.00000000       0.00000000 </v>
   <v>       0.28571429      -0.00000000       0.00000000 </v>
   <v>       0.33333333      -0.00000000       0.00000000 </v>
   <v>       0.38095238      -0.00000000       0.00000000 </v>
   <v>       0.42857143       0.00000000       0.00000000 </v>
   <v>       0.47619048      -0.00000000       0.00000000 </v>
   <v>      -0.00000000       0.06666667       0.00000000 </v>
   <v>       0.04761905       0.06666667       0.00000000 </v>
   <v>       0.09523810       0.06666667       0.00000000 </v>
   <v>       0.14285714       0.06666667       0.00000000 </v>
   <v>       0.19047619       0.06666667       0.00000000 </v>
   <v>       0.23809524       0.06666667       0.00000000 </v>
   <v>       0.28571429       0.06666667       0.00000000 </v>
   <v>       0.33333333       0.06666667       0.00000000 </v>
   <v>       0.38095238       0.06666667       0.00000000 </v>
   <v>       0.42857143       0.06666667       0.00000000 </v>
   <v>       0.47619048       0.06666667       0.00000000 </v>
   <v>      -0.47619048       0.06666667       0.00000000 </v>
   <v>      -0.42857143       0.06666667       0.00000000 </v>
   <v>      -0.38095238       0.06666667       0.00000000 </v>
   <v>      -0.33333333       0.06666667       0.00000000 </v>
   <v>      -0.28571429       0.06666667       0.00000000 </v>
   <v>      -0.23809524       0.06666667       0.00000000 </v>
   <v>      -0.19047619       0.06666667       0.00000000 </v>
   <v>      -0.14285714       0.06666667       0.00000000 </v>
   <v>      -0.09523810       0.06666667       0.00000000 </v>
   <v>      -0.04761905       0.06666667       0.00000000 </v>
   <v>       0.00000000       0.13333333       0.00000000 </v>
   <v>       0.04761905       0.13333333       0.00000000 </v>
   <v>       0.09523810       0.13333333       0.00000000 </v>
   <v>       0.14285714       0.13333333       0.00000000 </v>
   <v>       0.19047619       0.13333333       0.00000000 </v>
   <v>       0.23809524       0.13333333       0.00000000 </v>
   <v>       0.28571429       0.13333333       0.00000000 </v>
   <v>       0.33333333       0.13333333       0.00000000 </v>
   <v>       0.38095238       0.13333333       0.00000000 </v>
   <v>       0.42857143       0.13333333       0.00000000 </v>
   <v>       0.47619048       0.13333333       0.00000000 </v>
   <v>      -0.47619048       0.13333333       0.00000000 </v>
   <v>      -0.42857143       0.13333333       0.00000000 </v>
   <v>      -0.38095238       0.13333333       0.00000000 </v>
   <v>      -0.33333333       0.13333333       0.00000000 </v>
   <v>      -0.28571429       0.13333333       0.00000000 </v>
   <v>      -0.23809524       0.13333333       0.00000000 </v>
   <v>      -0.19047619       0.13333333       0.00000000 </v>
   <v>      -0.14285714       0.13333333       0.00000000 </v>
   <v>      -0.09523810       0.13333333       0.00000000 </v>
   <v>      -0.04761905       0.13333333       0.00000000 </v>
   <v>       0.00000000       0.20000000       0.00000000 </v>
   <v>       0.04761905       0.20000000       0.00000000 </v>
   <v>       0.09523810       0.20000000       0.00000000 </v>
   <v>       0.14285714       0.20000000       0.00000000 </v>
   <v>       0.19047619       0.20000000       0.00000000 </v>
   <v>       0.23809524       0.20000000       0.00000000 </v>
   <v>       0.28571429       0.20000000       0.00000000 </v>
   <v>       0.33333333       0.20000000       0.00000000 </v>
   <v>       0.38095238       0.20000000       0.00000000 </v>
   <v>       0.42857143       0.20000000       0.00000000 </v>
   <v>       0.47619048       0.20000000       0.00000000 </v>
   <v>      -0.47619048       0.20000000       0.00000000 </v>
   <v>      -0.42857143       0.20000000       0.00000000 </v>
   <v>      -0.38095238       0.20000000       0.00000000 </v>
   <v>      -0.33333333       0.20000000       0.00000000 </v>
   <v>      -0.28571429       0.20000000       0.00000000 </v>
   <v>      -0.23809524       0.20000000       0.00000000 </v>
   <v>      -0.19047619       0.20000000       0.00000000 </v>
   <v>      -0.14285714       0.20000000       0.00000000 </v>
   <v>      -0.09523810       0.20000000       0.00000000 </v>
   <v>      -0.04761905       0.20000000       0.00000000 </v>
   <v>       0.00000000       0.26666667       0.00000000 </v>
   <v>       0.04761905       0.26666667       0.00000000 </v>
   <v>       0.09523810       0.26666667       0.00000000 </v>
   <v>       0.14285714       0.26666667       0.00000000 </v>
   <v>       0.19047619       0.26666667       0.00000000 </v>
   <v>       0.23809524       0.26666667       0.00000000 </v>
   <v>       0.28571429       0.26666667       0.00000000 </v>
   <v>       0.33333333       0.26666667       0.00000000 </v>
   <v>       0.38095238       0.26666667       0.00000000 </v>
   <v>       0.42857143       0.26666667       0.00000000 </v>
   <v>       0.47619048       0.26666667       0.00000000 </v>
   <v>      -0.47619048       0.26666667       0.00000000 </v>
   <v>      -0.42857143       0.26666667       0.00000000 </v>
   <v>      -0.38095238       0.26666667       0.00000000 </v>
   <v>      -0.33333333       0.26666667       0.00000000 </v>
   <v>      -0.28571429       0.26666667       0.00000000 </v>
   <v>      -0.23809524       0.26666667       0.00000000 </v>
   <v>      -0.19047619       0.26666667       0.00000000 </v>
   <v>      -0.14285714       0.26666667       0.00000000 </v>
   <v>      -0.09523810       0.26666667       0.00000000 </v>
   <v>      -0.04761905       0.26666667       0.00000000 </v>
   <v>       0.00000000       0.33333333       0.00000000 </v>
   <v>       0.04761905       0.33333333       0.00000000 </v>
   <v>       0.09523810       0.33333333       0.00000000 </v>
   <v>       0.14285714       0.33333333       0.00000000 </v>
   <v>       0.19047619       0.33333333       0.00000000 </v>
   <v>       0.23809524       0.33333333       0.00000000 </v>
   <v>       0.28571429       0.33333333       0.00000000 </v>
   <v>       0.33333333       0.33333333       0.00000000 </v>
   <v>       0.38095238       0.33333333       0.00000000 </v>
   <v>       0.42857143       0.33333333       0.00000000 </v>
   <v>       0.47619048       0.33333333       0.00000000 </v>
   <v>      -0.47619048       0.33333333       0.00000000 </v>
   <v>      -0.42857143       0.33333333       0.00000000 </v>
   <v>      -0.38095238       0.33333333       0.00000000 </v>
   <v>      -0.33333333       0.33333333       0.00000000 </v>
   <v>      -0.28571429       0.33333333       0.00000000 </v>
   <v>      -0.23809524       0.33333333       0.00000000 </v>
   <v>      -0.19047619       0.33333333       0.00000000 </v>
   <v>      -0.14285714       0.33333333       0.00000000 </v>
   <v>      -0.09523810       0.33333333       0.00000000 </v>
   <v>      -0.04761905       0.33333333       0.00000000 </v>
   <v>       0.00000000       0.40000000       0.00000000 </v>
   <v>       0.04761905       0.40000000       0.00000000 </v>
   <v>       0.09523810       0.40000000       0.00000000 </v>
   <v>       0.14285714       0.40000000       0.00000000 </v>
   <v>       0.19047619       0.40000000       0.00000000 </v>
   <v>       0.23809524       0.40000000       0.00000000 </v>
   <v>       0.28571429       0.40000000       0.00000000 </v>
   <v>       0.33333333       0.40000000       0.00000000 </v>
   <v>       0.38095238       0.40000000       0.00000000 </v>
   <v>       0.42857143       0.40000000       0.00000000 </v>
   <v>       0.47619048       0.40000000       0.00000000 </v>
   <v>      -0.47619048       0.40000000       0.00000000 </v>
   <v>      -0.42857143       0.40000000       0.00000000 </v>
   <v>      -0.38095238       0.40000000       0.00000000 </v>
   <v>      -0.33333333       0.40000000       0.00000000 </v>
   <v>      -0.28571429       0.40000000       0.00000000 </v>
   <v>      -0.23809524       0.40000000       0.00000000 </v>
   <v>      -0.19047619       0.40000000       0.00000000 </v>
   <v>      -0.14285714       0.40000000       0.00000000 </v>
   <v>      -0.09523810       0.40000000       0.00000000 </v>
   <v>      -0.04761905       0.40000000       0.00000000 </v>
   <v>       0.00000000       0.46666667       0.00000000 </v>
   <v>       0.04761905       0.46666667       0.00000000 </v>
   <v>       0.09523810       0.46666667       0.00000000 </v>
   <v>       0.14285714       0.46666667       0.00000000 </v>
   <v>       0.19047619       0.46666667       0.00000000 </v>
   <v>       0.23809524       0.46666667       0.00000000 </v>
   <v>       0.28571429       0.46666667       0.00000000 </v>
   <v>       0.33333333       0.46666667       0.00000000 </v>
   <v>       0.38095238       0.46666667       0.00000000 </v>
   <v>       0.42857143       0.46666667       0.00000000 </v>
   <v>       0.47619048       0.46666667       0.00000000 </v>
   <v>      -0.47619048       0.46666667       0.00000000 </v>
   <v>      -0.42857143       0.46666667       0.00000000 </v>
   <v>      -0.38095238       0.46666667       0.00000000 </v>
   <v>      -0.33333333       0.46666667       0.00000000 </v>
   <v>      -0.28571429       0.46666667       0.00000000 </v>
   <v>      -0.23809524       0.46666667       0.00000000 </v>
   <v>      -0.19047619       0.46666667       0.00000000 </v>
   <v>      -0.14285714       0.46666667       0.00000000 </v>
   <v>      -0.09523810       0.46666667       0.00000000 </v>
   <v>      -0.04761905       0.46666667       0.00000000 </v>
  </varray>
  <varray name="weights" >
   <v>       0.00317460 </v>
   <v>       0.00634921 </v>
   <v>       0.00634921 </v>
   <v>       0.00634921 </v>
   <v>       0.00634921 </v>
   <v>       0.00634921 </v>
   <v>       0.00634921 </v>
   <v>       0.00634921 </v>
   <v>       0.00634921 </v>
   <v>       0.00634921 </v>
   <v>       0.00634921 </v>
   <v>       0.00634921 </v>
   <v>       0.00634921 </v>
   <v>       0.00634921 </v>
   <v>       0.00634921 </v>
   <v>       0.00634921 </v>
   <v>       0.00634921 </v>
   <v>       0.00634921 </v>
   <v>       0.00634921 </v>
   <v>       0.00634921 </v>
   <v>       0.00634921 </v>
   <v>       0.00634921 </v>
   <v>       0.00634921 </v>
   <v>       0.00634921 </v>
   <v>       0.00634921 </v>
   <v>       0.00634921 </v>
   <v>       0.00634921 </v>
   <v>       0.00634921 </v>
   <v>       0.00634921 </v>
   <v>       0.00634921 </v>
   <v>       0.00634921 </v>
   <v>       0.00634921 </v>
   <v>       0.00634921 </v>
   <v>       0.00634921 </v>
   <v>       0.00634921 </v>
   <v>       0.00634921 </v>
   <v>       0.00634921 </v>
   <v>       0.00634921 </v>
   <v>       0.00634921 </v>
   <v>       0.00634921 </v>
   <v>       0.00634921 </v>
   <v>       0.00634921 </v>
   <v>       0.00634921 </v>
   <v>       0.00634921 </v>
   <v>       0.00634921 </v>
   <v>       0.00634921 </v>
   <v>       0.00634921 </v>
   <v>       0.00634921 </v>
   <v>       0.00634921 </v>
   <v>       0.00634921 </v>
   <v>       0.00634921 </v>
   <v>       0.00634921 </v>
   <v>       0.00634921 </v>
   <v>       0.00634921 </v>
   <v>       0.00634921 </v>
   <v>       0.00634921 </v>
   <v>       0.00634921 </v>
   <v>       0.00634921 </v>
   <v>       0.00634921 </v>
   <v>       0.00634921 </v>
   <v>       0.00634921 </v>
   <v>       0.00634921 </v>
   <v>       0.00634921 </v>
   <v>       0.00634921 </v>
   <v>       0.00634921 </v>
   <v>       0.00634921 </v>
   <v>       0.00634921 </v>
   <v>       0.00634921 </v>
   <v>       0.00634921 </v>
   <v>       0.00634921 </v>
   <v>       0.00634921 </v>
   <v>       0.00634921 </v>
   <v>       0.00634921 </v>
   <v>       0.00634921 </v>
   <v>       0.00634921 </v>
   <v>       0.00634921 </v>
   <v>       0.00634921 </v>
   <v>       0.00634921 </v>
   <v>       0.00634921 </v>
   <v>       0.00634921 </v>
   <v>       0.00634921 </v>
   <v>       0.00634921 </v>
   <v>       0.00634921 </v>
   <v>       0.00634921 </v>
   <v>       0.00634921 </v>
   <v>       0.00634921 </v>
   <v>       0.00634921 </v>
   <v>       0.00634921 </v>
   <v>       0.00634921 </v>
   <v>       0.00634921 </v>
   <v>       0.00634921 </v>
   <v>       0.00634921 </v>
   <v>       0.00634921 </v>
   <v>       0.00634921 </v>
   <v>       0.00634921 </v>
   <v>       0.00634921 </v>
   <v>       0.00634921 </v>
   <v>       0.00634921 </v>
   <v>       0.00634921 </v>
   <v>       0.00634921 </v>
   <v>       0.00634921 </v>
   <v>       0.00634921 </v>
   <v>       0.00634921 </v>
   <v>       0.00634921 </v>
   <v>       0.00634921 </v>
   <v>       0.00634921 </v>
   <v>       0.00634921 </v>
   <v>       0.00634921 </v>
   <v>       0.00634921 </v>
   <v>       0.00634921 </v>
   <v>       0.00634921 </v>
   <v>       0.00634921 </v>
   <v>       0.00634921 </v>
   <v>       0.00634921 </v>
   <v>       0.00634921 </v>
   <v>       0.00634921 </v>
   <v>       0.00634921 </v>
   <v>       0.00634921 </v>
   <v>       0.00634921 </v>
   <v>       0.00634921 </v>
   <v>       0.00634921 </v>
   <v>       0.00634921 </v>
   <v>       0.00634921 </v>
   <v>       0.00634921 </v>
   <v>       0.00634921 </v>
   <v>       0.00634921 </v>
   <v>       0.00634921 </v>
   <v>       0.00634921 </v>
   <v>       0.00634921 </v>
   <v>       0.00634921 </v>
   <v>       0.00634921 </v>
   <v>       0.00634921 </v>
   <v>       0.00634921 </v>
   <v>       0.00634921 </v>
   <v>       0.00634921 </v>
   <v>       0.00634921 </v>
   <v>       0.00634921 </v>
   <v>       0.00634921 </v>
   <v>       0.00634921 </v>
   <v>       0.00634921 </v>
   <v>       0.00634921 </v>
   <v>       0.00634921 </v>
   <v>       0.00634921 </v>
   <v>       0.00634921 </v>
   <v>       0.00634921 </v>
   <v>       0.00634921 </v>
   <v>       0.00634921 </v>
   <v>       0.00634921 </v>
   <v>       0.00634921 </v>
   <v>       0.00634921 </v>
   <v>       0.00634921 </v>
   <v>       0.00634921 </v>
   <v>       0.00634921 </v>
   <v>       0.00634921 </v>
   <v>       0.00634921 </v>
   <v>       0.00634921 </v>
   <v>       0.00634921 </v>
   <v>       0.00634921 </v>
  </varray>
 </kpoints>
 <parameters>
  <separator name="general" >
   <i type="string" name="SYSTEM">unknown system</i>
   <i type="logical" name="LCOMPAT"> F  </i>
  </separator>
  <separator name="electronic" >
   <i type="string" name="PREC">a</i>
   <i name="ENMAX">    520.00000000</i>
   <i name="ENAUG">    342.92400000</i>
   <i name="EDIFF">      0.00001000</i>
   <i type="int" name="IALGO">    38</i>
   <i type="int" name="IWAVPR">    11</i>
   <i type="int" name="NBANDS">    16</i>
   <i name="NELECT">     20.00000000</i>
   <i type="int" name="TURBO">     0</i>
   <i type="int" name="IRESTART">     0</i>
   <i type="int" name="NREBOOT">     0</i>
   <i type="int" name="NMIN">     0</i>
   <i name="EREF">      0.00000000</i>
   <separator name="electronic smearing" >
    <i type="int" name="ISMEAR">     0</i>
    <i name="SIGMA">      0.02000000</i>
    <i name="KSPACING">      0.50000000</i>
    <i type="logical" name="KGAMMA"> T  </i>
   </separator>
   <separator name="electronic projectors" >
    <i type="logical" name="LREAL"> F  </i>
    <v name="ROPT">      0.00000000</v>
    <i type="int" name="LMAXPAW">  -100</i>
    <i type="int" name="LMAXMIX">     2</i>
    <i type="logical" name="NLSPLINE"> F  </i>
   </separator>
   <separator name="electronic startup" >
    <i type="int" name="ISTART">     0</i>
    <i type="int" name="ICHARG">     2</i>
    <i type="int" name="INIWAV">     1</i>
   </separator>
   <separator name="electronic spin" >
    <i type="int" name="ISPIN">     1</i>
    <i type="logical" name="LNONCOLLINEAR"> F  </i>
    <v name="MAGMOM">      1.00000000      1.00000000      1.00000000      1.00000000</v>
    <i name="NUPDOWN">     -1.00000000</i>
    <i type="logical" name="LSORBIT"> F  </i>
    <v name="SAXIS">      0.00000000      0.00000000      1.00000000</v>
    <i type="logical" name="LSPIRAL"> F  </i>
    <v name="QSPIRAL">      0.00000000      0.00000000      0.00000000</v>
    <i type="logical" name="LZEROZ"> F  </i>
   </separator>
   <separator name="electronic exchange-correlation" >
    <i type="logical" name="LASPH"> F  </i>
    <i type="logical" name="LMETAGGA"> F  </i>
   </separator>
   <separator name="electronic convergence" >
    <i type="int" name="NELM">   250</i>
    <i type="int" name="NELMDL">    -5</i>
    <i type="int" name="NELMIN">     6</i>
    <i name="ENINI">    520.00000000</i>
    <separator name="electronic convergence detail" >
     <i type="logical" name="LDIAG"> T  </i>
     <i type="logical" name="LSUBROT"> F  </i>
     <i name="WEIMIN">      0.00100000</i>
     <i name="EBREAK">      0.00000016</i>
     <i name="DEPER">      0.30000000</i>
     <i type="int" name="NRMM">     4</i>
     <i name="TIME">      0.40000000</i>
    </separator>
   </separator>
   <separator name="electronic mixer" >
    <i name="AMIX">      0.40000000</i>
    <i name="BMIX">      1.00000000</i>
    <i name="AMIN">      0.10000000</i>
    <i name="AMIX_MAG">      1.60000000</i>
    <i name="BMIX_MAG">      1.00000000</i>
    <separator name="electronic mixer details" >
     <i type="int" name="IMIX">     4</i>
     <i type="logical" name="MIXFIRST"> F  </i>
     <i type="int" name="MAXMIX">   -45</i>
     <i name="WC">    100.00000000</i>
     <i type="int" name="INIMIX">     1</i>
     <i type="int" name="MIXPRE">     1</i>
     <i type="int" name="MREMOVE">     5</i>
    </separator>
   </separator>
   <separator name="electronic dipolcorrection" >
    <i type="logical" name="LDIPOL"> F  </i>
    <i type="logical" name="LMONO"> F  </i>
    <i type="int" name="IDIPOL">     0</i>
    <i name="EPSILON">      1.00000000</i>
    <v name="DIPOL">   -100.00000000   -100.00000000   -100.00000000</v>
    <i name="EFIELD">      0.00000000</i>
   </separator>
  </separator>
  <separator name="grids" >
   <i type="int" name="NGX">    28</i>
   <i type="int" name="NGY">    36</i>
   <i type="int" name="NGZ">   150</i>
   <i type="int" name="NGXF">    56</i>
   <i type="int" name="NGYF">    72</i>
   <i type="int" name="NGZF">   300</i>
   <i type="logical" name="ADDGRID"> F  </i>
  </separator>
  <separator name="ionic" >
   <i type="int" name="NSW">   200</i>
   <i type="int" name="IBRION">     2</i>
   <i type="int" name="ISIF">     2</i>
   <i name="PSTRESS">      0.00000000</i>
   <i name="EDIFFG">     -0.01000000</i>
   <i type="int" name="NFREE">     1</i>
   <i name="POTIM">      0.30000000</i>
   <i name="SMASS">     -3.00000000</i>
   <i name="SCALEE">      1.00000000</i>
  </separator>
  <separator name="ionic md" >
   <i name="TEBEG">      0.00010000</i>
   <i name="TEEND">      0.00010000</i>
   <i type="int" name="NBLOCK">     1</i>
   <i type="int" name="KBLOCK">   200</i>
   <i type="int" name="NPACO">   256</i>
   <i name="APACO">     16.00000000</i>
  </separator>
  <separator name="symmetry" >
   <i type="int" name="ISYM">     2</i>
   <i name="SYMPREC">      0.00001000</i>
  </separator>
  <separator name="dos" >
   <i type="logical" name="LORBIT"> F  </i>
   <v name="RWIGS">     -1.00000000</v>
   <i type="int" name="NEDOS">   301</i>
   <i name="EMIN">     10.00000000</i>
   <i name="EMAX">    -10.00000000</i>
   <i name="EFERMI">      0.00000000</i>
  </separator>
  <separator name="writing" >
   <i type="int" name="NWRITE">     2</i>
   <i type="logical" name="LWAVE"> F  </i>
   <i type="logical" name="LCHARG"> F  </i>
   <i type="logical" name="LPARD"> F  </i>
   <i type="logical" name="LVTOT"> F  </i>
   <i type="logical" name="LVHAR"> F  </i>
   <i type="logical" name="LELF"> F  </i>
   <i type="logical" name="LOPTICS"> F  </i>
   <v name="STM">      0.00000000      0.00000000      0.00000000      0.00000000      0.00000000      0.00000000      0.00000000</v>
  </separator>
  <separator name="performance" >
   <i type="int" name="NPAR">     4</i>
   <i type="int" name="NSIM">     4</i>
   <i type="int" name="NBLK">    -1</i>
   <i type="logical" name="LPLANE"> T  </i>
   <i type="logical" name="LSCALAPACK"> T  </i>
   <i type="logical" name="LSCAAWARE"> F  </i>
   <i type="logical" name="LSCALU"> F  </i>
   <i type="logical" name="LASYNC"> F  </i>
   <i type="logical" name="LORBITALREAL"> F  </i>
  </separator>
  <separator name="miscellaneous" >
   <i type="int" name="IDIOT">     3</i>
   <i type="logical" name="LMUSIC"> F  </i>
   <v name="POMASS">     30.97400000</v>
   <v name="DARWINR">      0.00000000</v>
   <v name="DARWINV">      1.00000000</v>
   <i type="logical" name="LCORR"> T  </i>
  </separator>
  <i type="logical" name="GGA_COMPAT"> T  </i>
  <i type="logical" name="LBERRY"> F  </i>
  <i type="int" name="ICORELEVEL">     0</i>
  <i type="logical" name="LDAU"> F  </i>
  <i type="int" name="I_CONSTRAINED_M">     0</i>
  <separator name="electronic exchange-correlation" >
   <i type="string" name="GGA">--</i>
   <i type="int" name="VOSKOWN">     0</i>
   <i type="logical" name="LHFCALC"> F  </i>
   <i type="string" name="PRECFOCK"></i>
   <i type="logical" name="LSYMGRAD"> F  </i>
   <i type="logical" name="LHFONE"> F  </i>
   <i type="logical" name="LRHFCALC"> F  </i>
   <i type="logical" name="LTHOMAS"> F  </i>
   <i type="logical" name="LMODELHF"> F  </i>
   <i name="ENCUT4O">     -1.00000000</i>
   <i type="int" name="EXXOEP">     0</i>
   <i type="int" name="FOURORBIT">     0</i>
   <i name="AEXX">      0.00000000</i>
   <i name="HFALPHA">      0.00000000</i>
   <i name="MCALPHA">      0.00000000</i>
   <i name="ALDAX">      1.00000000</i>
   <i name="AGGAX">      1.00000000</i>
   <i name="ALDAC">      1.00000000</i>
   <i name="AGGAC">      1.00000000</i>
   <i type="int" name="NKREDX">     1</i>
   <i type="int" name="NKREDY">     1</i>
   <i type="int" name="NKREDZ">     1</i>
   <i type="logical" name="SHIFTRED"> F  </i>
   <i type="logical" name="ODDONLY"> F  </i>
   <i type="logical" name="EVENONLY"> F  </i>
   <i type="int" name="LMAXFOCK">     0</i>
   <i type="int" name="NMAXFOCKAE">     0</i>
   <i type="logical" name="LFOCKAEDFT"> F  </i>
   <i name="HFSCREEN">      0.00000000</i>
   <i name="HFSCREENC">      0.00000000</i>
   <i type="int" name="NBANDSGWLOW">     0</i>
  </separator>
  <separator name="vdW DFT" >
   <i type="logical" name="LUSE_VDW"> F  </i>
   <i name="Zab_VDW">     -0.84910000</i>
   <i name="PARAM1">      0.12340000</i>
   <i name="PARAM2">      1.00000000</i>
   <i name="PARAM3">      0.00000000</i>
  </separator>
  <separator name="model GW" >
   <i type="int" name="MODEL_GW">     0</i>
   <i name="MODEL_EPS0">     45.45729006</i>
   <i name="MODEL_ALPHA">      1.00000000</i>
  </separator>
  <separator name="linear response parameters" >
   <i type="logical" name="LEPSILON"> F  </i>
   <i type="logical" name="LRPA"> F  </i>
   <i type="logical" name="LNABLA"> F  </i>
   <i type="logical" name="LVEL"> F  </i>
   <i type="int" name="KINTER">     0</i>
   <i name="CSHIFT">      0.10000000</i>
   <i name="OMEGAMAX">     -1.00000000</i>
   <i name="DEG_THRESHOLD">      0.00200000</i>
  </separator>
  <separator name="orbital magnetization" >
   <i type="logical" name="NUCIND"> F  </i>
   <v name="MAGPOS">      0.00000000      0.00000000      0.00000000</v>
   <i type="logical" name="LNICSALL"> T  </i>
   <i type="logical" name="ORBITALMAG"> F  </i>
   <i type="logical" name="LMAGBLOCH"> F  </i>
   <i type="logical" name="LCHIMAG"> F  </i>
   <i type="logical" name="LGAUGE"> T  </i>
   <i type="int" name="MAGATOM">     0</i>
   <v name="MAGDIPOL">      0.00000000      0.00000000      0.00000000</v>
   <v name="AVECCONST">      0.00000000      0.00000000      0.00000000</v>
  </separator>
  <separator name="response functions" >
   <i type="logical" name="LADDER"> F  </i>
   <i type="logical" name="LFXC"> F  </i>
   <i type="logical" name="LHARTREE"> T  </i>
   <i type="int" name="IBSE">     0</i>
   <v type="int" name="KPOINT">    -1     0     0     0</v>
   <i type="logical" name="LTCTE"> F  </i>
   <i type="logical" name="LTETE"> F  </i>
   <i type="logical" name="LTRIPLET"> F  </i>
   <i type="logical" name="LFXCEPS"> F  </i>
   <i type="logical" name="LFXHEG"> F  </i>
   <i type="int" name="NATURALO">     0</i>
   <i type="logical" name="L2ORDER"> F  </i>
   <i type="logical" name="LUSEW"> F  </i>
   <i name="ENCUTGW">     -2.00000000</i>
   <i name="ENCUTGWSOFT">     -2.00000000</i>
   <i name="ENCUTLF">     -1.00000000</i>
   <i type="int" name="LMAXMP2">    -1</i>
   <i name="SCISSOR">      0.00000000</i>
   <i type="int" name="NOMEGA">     0</i>
   <i type="int" name="NOMEGAR">     0</i>
   <i type="int" name="NBANDSGW">    -1</i>
   <i type="int" name="NBANDSO">    -1</i>
   <i type="int" name="NBANDSV">    -1</i>
   <i type="int" name="NELM">   250</i>
   <i type="int" name="NELMHF">     1</i>
   <i type="int" name="DIM">     3</i>
   <i type="int" name="ANTIRES">     0</i>
   <i name="OMEGAMAX">    -30.00000000</i>
   <i name="OMEGAMIN">    -30.00000000</i>
   <i name="OMEGATL">   -200.00000000</i>
   <i type="int" name="OMEGAGRID">     0</i>
   <i name="CSHIFT">     -0.10000000</i>
   <i type="logical" name="SELFENERGY"> F  </i>
   <i type="logical" name="LSPECTRAL"> F  </i>
   <i type="logical" name="LSPECTRALGW"> F  </i>
   <i type="logical" name="LSINGLES"> F  </i>
   <i type="logical" name="LFERMIGW"> F  </i>
   <i type="logical" name="ODDONLYGW"> F  </i>
   <i type="logical" name="EVENONLYGW"> F  </i>
   <i type="int" name="NKREDLFX">     1</i>
   <i type="int" name="NKREDLFY">     1</i>
   <i type="int" name="NKREDLFZ">     1</i>
   <i type="int" name="MAXMEM">  1800</i>
   <i type="int" name="TELESCOPE">     0</i>
   <i type="int" name="TAUPAR">     1</i>
   <i type="int" name="OMEGAPAR">    -1</i>
   <i name="LAMBDA">      1.00000000</i>
  </separator>
  <separator name="External order field" >
   <i name="OFIELD_KAPPA">      0.00000000</i>
   <v name="OFIELD_K">      0.00000000      0.00000000      0.00000000</v>
   <i name="OFIELD_Q6_NEAR">      0.00000000</i>
   <i name="OFIELD_Q6_FAR">      0.00000000</i>
   <i name="OFIELD_A">      0.00000000</i>
  </separator>
 </parameters>
 <atominfo>
  <atoms>       4 </atoms>
  <types>       1 </types>
  <array name="atoms" >
   <dimension dim="1">ion</dimension>
   <field type="string">element</field>
   <field type="int">atomtype</field>
   <set>
    <rc><c>P </c><c>   1</c></rc>
    <rc><c>P </c><c>   1</c></rc>
    <rc><c>P </c><c>   1</c></rc>
    <rc><c>P </c><c>   1</c></rc>
   </set>
  </array>
  <array name="atomtypes" >
   <dimension dim="1">type</dimension>
   <field type="int">atomspertype</field>
   <field type="string">element</field>
   <field>mass</field>
   <field>valence</field>
   <field type="string">pseudopotential</field>
   <set>
    <rc><c>   4</c><c>P </c><c>     30.97400000</c><c>      5.00000000</c><c>  PAW_PBE P 06Sep2000                   </c></rc>
   </set>
  </array>
 </atominfo>
 <structure name="initialpos" >
  <crystal>
   <varray name="basis" >
    <v>       3.29124200       0.19819100       0.00000000 </v>
    <v>       0.27790400       4.61499100      -0.00005300 </v>
    <v>       0.00000000       0.00000000      20.02439000 </v>
   </varray>
   <i name="volume">    303.04860037 </i>
   <varray name="rec_basis" >
    <v>       0.30494244      -0.01836292       0.00000000 </v>
    <v>      -0.01309577       0.21747374       0.00000000 </v>
    <v>      -0.00000003       0.00000058       0.04993910 </v>
   </varray>
  </crystal>
  <varray name="positions" >
   <v>       0.50000000       0.91077300       0.55252100 </v>
   <v>       0.50000000       0.08922700       0.44747900 </v>
   <v>       0.00000000       0.41076900       0.44747900 </v>
   <v>       0.00000000       0.58923100       0.55252100 </v>
  </varray>
 </structure>
 <calculation>
  <scstep>
   <time name="dav">    1.50    1.50</time>
   <time name="total">    1.53    1.53</time>
   <energy>
    <i name="alphaZ">      5.29341181 </i>
    <i name="ewald">   1882.20537417 </i>
    <i name="hartreedc">  -2474.69936415 </i>
    <i name="XCdc">     13.13668026 </i>
    <i name="pawpsdc">    559.04011960 </i>
    <i name="pawaedc">   -526.39432044 </i>
    <i name="eentropy">     -0.00029665 </i>
    <i name="bandstr">    -27.96655619 </i>
    <i name="atom">    704.16778566 </i>
    <i name="e_fr_energy">    134.78283407 </i>
    <i name="e_wo_entrp">    134.78313073 </i>
    <i name="e_0_energy">    134.78298240 </i>
   </energy>
  </scstep>
  <scstep>
   <time name="dav">    1.99    1.99</time>
   <time name="total">    2.00    2.00</time>
   <energy>
    <i name="e_fr_energy">     -5.65962154 </i>
    <i name="e_wo_entrp">     -5.65962154 </i>
    <i name="e_0_energy">     -5.65962154 </i>
   </energy>
  </scstep>
  <scstep>
   <time name="dav">    1.81    1.81</time>
   <time name="total">    1.81    1.81</time>
   <energy>
    <i name="e_fr_energy">    -20.99735746 </i>
    <i name="e_wo_entrp">    -20.99735746 </i>
    <i name="e_0_energy">    -20.99735746 </i>
   </energy>
  </scstep>
  <scstep>
   <time name="dav">    1.92    1.92</time>
   <time name="total">    1.92    1.92</time>
   <energy>
    <i name="e_fr_energy">    -21.31723276 </i>
    <i name="e_wo_entrp">    -21.31723276 </i>
    <i name="e_0_energy">    -21.31723276 </i>
   </energy>
  </scstep>
  <scstep>
   <time name="dav">    2.00    2.00</time>
   <time name="total">    2.10    2.10</time>
   <energy>
    <i name="e_fr_energy">    -21.32737947 </i>
    <i name="e_wo_entrp">    -21.32737947 </i>
    <i name="e_0_energy">    -21.32737947 </i>
   </energy>
  </scstep>
  <scstep>
   <time name="dav">    1.82    1.82</time>
   <time name="total">    1.93    1.94</time>
   <energy>
    <i name="e_fr_energy">    -21.13092641 </i>
    <i name="e_wo_entrp">    -21.13092641 </i>
    <i name="e_0_energy">    -21.13092641 </i>
   </energy>
  </scstep>
  <scstep>
   <time name="dav">    1.78    1.78</time>
   <time name="total">    1.89    1.89</time>
   <energy>
    <i name="e_fr_energy">    -21.05163929 </i>
    <i name="e_wo_entrp">    -21.05163929 </i>
    <i name="e_0_energy">    -21.05163929 </i>
   </energy>
  </scstep>
  <scstep>
   <time name="dav">    1.82    1.82</time>
   <time name="total">    1.93    1.93</time>
   <energy>
    <i name="e_fr_energy">    -21.05027340 </i>
    <i name="e_wo_entrp">    -21.05027340 </i>
    <i name="e_0_energy">    -21.05027340 </i>
   </energy>
  </scstep>
  <scstep>
   <time name="dav">    2.11    2.11</time>
   <time name="total">    2.22    2.22</time>
   <energy>
    <i name="e_fr_energy">    -21.05010463 </i>
    <i name="e_wo_entrp">    -21.05010463 </i>
    <i name="e_0_energy">    -21.05010463 </i>
   </energy>
  </scstep>
  <scstep>
   <time name="dav">    1.81    1.82</time>
   <time name="total">    1.93    1.93</time>
   <energy>
    <i name="e_fr_energy">    -21.04953566 </i>
    <i name="e_wo_entrp">    -21.04953566 </i>
    <i name="e_0_energy">    -21.04953566 </i>
   </energy>
  </scstep>
  <scstep>
   <time name="dav">    1.87    1.87</time>
   <time name="total">    1.98    1.98</time>
   <energy>
    <i name="e_fr_energy">    -21.04945516 </i>
    <i name="e_wo_entrp">    -21.04945516 </i>
    <i name="e_0_energy">    -21.04945516 </i>
   </energy>
  </scstep>
  <scstep>
   <time name="dav">    1.62    1.62</time>
   <time name="total">    1.73    1.73</time>
   <energy>
    <i name="e_fr_energy">    -21.04972797 </i>
    <i name="e_wo_entrp">    -21.04972797 </i>
    <i name="e_0_energy">    -21.04972797 </i>
   </energy>
  </scstep>
  <scstep>
   <time name="dav">    1.67    1.67</time>
   <time name="total">    1.78    1.79</time>
   <energy>
    <i name="e_fr_energy">    -21.04985269 </i>
    <i name="e_wo_entrp">    -21.04985269 </i>
    <i name="e_0_energy">    -21.04985269 </i>
   </energy>
  </scstep>
  <scstep>
   <time name="dav">    1.54    1.54</time>
   <time name="total">    1.65    1.65</time>
   <energy>
    <i name="e_fr_energy">    -21.04995594 </i>
    <i name="e_wo_entrp">    -21.04995594 </i>
    <i name="e_0_energy">    -21.04995594 </i>
   </energy>
  </scstep>
  <scstep>
   <time name="dav">    1.54    1.54</time>
   <time name="total">    1.65    1.66</time>
   <energy>
    <i name="e_fr_energy">    -21.05010585 </i>
    <i name="e_wo_entrp">    -21.05010585 </i>
    <i name="e_0_energy">    -21.05010585 </i>
   </energy>
  </scstep>
  <scstep>
   <time name="dav">    1.58    1.58</time>
   <time name="total">    1.69    1.69</time>
   <energy>
    <i name="e_fr_energy">    -21.05014527 </i>
    <i name="e_wo_entrp">    -21.05014527 </i>
    <i name="e_0_energy">    -21.05014527 </i>
   </energy>
  </scstep>
  <scstep>
   <time name="dav">    1.47    1.47</time>
   <time name="total">    1.58    1.58</time>
   <energy>
    <i name="e_fr_energy">    -21.05016639 </i>
    <i name="e_wo_entrp">    -21.05016639 </i>
    <i name="e_0_energy">    -21.05016639 </i>
   </energy>
  </scstep>
  <scstep>
   <time name="dav">    1.54    1.54</time>
   <time name="total">    1.56    1.56</time>
   <energy>
    <i name="alphaZ">      5.29341181 </i>
    <i name="ewald">   1882.20537417 </i>
    <i name="hartreedc">  -2491.23781853 </i>
    <i name="XCdc">     14.24408403 </i>
    <i name="pawpsdc">   2204.27290760 </i>
    <i name="pawaedc">  -2172.00847067 </i>
    <i name="eentropy">     -0.00000000 </i>
    <i name="bandstr">   -167.98744709 </i>
    <i name="atom">    704.16778566 </i>
    <i name="e_fr_energy">    -21.05017302 </i>
    <i name="e_wo_entrp">    -21.05017302 </i>
    <i name="e_0_energy">    -21.05017302 </i>
   </energy>
  </scstep>
  <structure>
   <crystal>
    <varray name="basis" >
     <v>       3.29124200       0.19819100       0.00000000 </v>
     <v>       0.27790400       4.61499100      -0.00005300 </v>
     <v>       0.00000000       0.00000000      20.02439000 </v>
    </varray>
    <i name="volume">    303.04860037 </i>
    <varray name="rec_basis" >
     <v>       0.30494244      -0.01836292       0.00000000 </v>
     <v>      -0.01309577       0.21747374       0.00000000 </v>
     <v>      -0.00000003       0.00000058       0.04993910 </v>
    </varray>
   </crystal>
   <varray name="positions" >
    <v>       0.50000000       0.91077300       0.55252100 </v>
    <v>       0.50000000       0.08922700       0.44747900 </v>
    <v>       0.00000000       0.41076900       0.44747900 </v>
    <v>       0.00000000       0.58923100       0.55252100 </v>
   </varray>
  </structure>
  <varray name="forces" >
   <v>      -1.65225974       0.56630494       0.00423543 </v>
   <v>       1.65225974      -0.56630494      -0.00423543 </v>
   <v>      -1.65224568       0.56626995      -0.00424561 </v>
   <v>       1.65224568      -0.56626995       0.00424561 </v>
  </varray>
  <varray name="stress" >
   <v>      10.89675188     -35.48168806       0.00026116 </v>
   <v>     -35.48168810      10.63681859       0.00023697 </v>
   <v>       0.00026123       0.00023700       0.02257225 </v>
  </varray>
  <energy>
   <i name="e_fr_energy">    -21.05017302 </i>
   <i name="e_wo_entrp">    -21.05017302 </i>
   <i name="e_0_energy">     -0.00000000 </i>
  </energy>
  <time name="totalsc">   33.65   33.70</time>
 </calculation>
 <calculation>
  <scstep>
   <time name="dav">    1.53    1.53</time>
   <time name="total">    1.64    1.64</time>
   <energy>
    <i name="alphaZ">      5.29341181 </i>
    <i name="ewald">   1877.63829321 </i>
    <i name="hartreedc">  -2488.52473003 </i>
    <i name="XCdc">     14.12198031 </i>
    <i name="pawpsdc">   2203.87503492 </i>
    <i name="pawaedc">  -2171.61059362 </i>
    <i name="eentropy">     -0.00000000 </i>
    <i name="bandstr">   -166.19139516 </i>
    <i name="atom">    704.16778566 </i>
    <i name="e_fr_energy">    -21.23021290 </i>
    <i name="e_wo_entrp">    -21.23021290 </i>
    <i name="e_0_energy">    -21.23021290 </i>
   </energy>
  </scstep>
  <scstep>
   <time name="dav">    1.84    1.84</time>
   <time name="total">    1.95    1.96</time>
   <energy>
    <i name="e_fr_energy">    -21.26650234 </i>
    <i name="e_wo_entrp">    -21.26650234 </i>
    <i name="e_0_energy">    -21.26650234 </i>
   </energy>
  </scstep>
  <scstep>
   <time name="dav">    1.96    1.97</time>
   <time name="total">    2.08    2.08</time>
   <energy>
    <i name="e_fr_energy">    -21.26391229 </i>
    <i name="e_wo_entrp">    -21.26391229 </i>
    <i name="e_0_energy">    -21.26391229 </i>
   </energy>
  </scstep>
  <scstep>
   <time name="dav">    1.83    1.83</time>
   <time name="total">    1.95    1.95</time>
   <energy>
    <i name="e_fr_energy">    -21.26331936 </i>
    <i name="e_wo_entrp">    -21.26331936 </i>
    <i name="e_0_energy">    -21.26331936 </i>
   </energy>
  </scstep>
  <scstep>
   <time name="dav">    1.77    1.77</time>
   <time name="total">    1.88    1.88</time>
   <energy>
    <i name="e_fr_energy">    -21.26334694 </i>
    <i name="e_wo_entrp">    -21.26334694 </i>
    <i name="e_0_energy">    -21.26334694 </i>
   </energy>
  </scstep>
  <scstep>
   <time name="dav">    1.65    1.65</time>
   <time name="total">    1.67    1.67</time>
   <energy>
    <i name="alphaZ">      5.29341181 </i>
    <i name="ewald">   1877.63829321 </i>
    <i name="hartreedc">  -2488.29043220 </i>
    <i name="XCdc">     14.08576283 </i>
    <i name="pawpsdc">   2075.56525562 </i>
    <i name="pawaedc">  -2043.24798898 </i>
    <i name="eentropy">     -0.00000000 </i>
    <i name="bandstr">   -166.47543915 </i>
    <i name="atom">    704.16778566 </i>
    <i name="e_fr_energy">    -21.26335121 </i>
    <i name="e_wo_entrp">    -21.26335121 </i>
    <i name="e_0_energy">    -21.26335121 </i>
   </energy>
  </scstep>
  <structure>
   <crystal>
    <varray name="basis" >
     <v>       3.29124200       0.19819100       0.00000000 </v>
     <v>       0.27790400       4.61499100      -0.00005300 </v>
     <v>       0.00000000       0.00000000      20.02439000 </v>
    </varray>
    <i name="volume">    303.04860037 </i>
    <varray name="rec_basis" >
     <v>       0.30494244      -0.01836292       0.00000000 </v>
     <v>      -0.01309577       0.21747374       0.00000000 </v>
     <v>      -0.00000003       0.00000058       0.04993910 </v>
    </varray>
   </crystal>
   <varray name="positions" >
    <v>       0.48511493       0.91496415       0.55252713 </v>
    <v>       0.51488507       0.08503585       0.44747287 </v>
    <v>      -0.01488493       0.41495992       0.44747287 </v>
    <v>       0.01488493       0.58504008       0.55252713 </v>
   </varray>
  </structure>
  <varray name="forces" >
   <v>      -0.51052871      -0.19723550       0.00709215 </v>
   <v>       0.51052871       0.19723550      -0.00709215 </v>
   <v>      -0.51051856      -0.19726350      -0.00708672 </v>
   <v>       0.51051856       0.19726350       0.00708672 </v>
  </varray>
  <varray name="stress" >
   <v>       2.24700910     -20.24267044       0.00012614 </v>
   <v>     -20.24267044       1.23435273       0.00028483 </v>
   <v>       0.00012624       0.00028482       0.16229320 </v>
  </varray>
  <energy>
   <i name="e_fr_energy">    -21.26335121 </i>
   <i name="e_wo_entrp">    -21.26335121 </i>
   <i name="e_0_energy">     -0.00000000 </i>
  </energy>
  <time name="totalsc">   11.93   11.95</time>
 </calculation>
 <calculation>
  <scstep>
   <time name="dav">    1.52    1.52</time>
   <time name="total">    1.63    1.64</time>
   <energy>
    <i name="alphaZ">      5.29341181 </i>
    <i name="ewald">   1876.16123219 </i>
    <i name="hartreedc">  -2487.37473860 </i>
    <i name="XCdc">     14.04354467 </i>
    <i name="pawpsdc">   2077.26439787 </i>
    <i name="pawaedc">  -2044.94769773 </i>
    <i name="eentropy">     -0.00000000 </i>
    <i name="bandstr">   -165.88246643 </i>
    <i name="atom">    704.16778566 </i>
    <i name="e_fr_energy">    -21.27453055 </i>
    <i name="e_wo_entrp">    -21.27453055 </i>
    <i name="e_0_energy">    -21.27453055 </i>
   </energy>
  </scstep>
  <scstep>
   <time name="dav">    1.85    1.85</time>
   <time name="total">    1.96    1.96</time>
   <energy>
    <i name="e_fr_energy">    -21.27968948 </i>
    <i name="e_wo_entrp">    -21.27968948 </i>
    <i name="e_0_energy">    -21.27968948 </i>
   </energy>
  </scstep>
  <scstep>
   <time name="dav">    1.98    1.98</time>
   <time name="total">    2.09    2.09</time>
   <energy>
    <i name="e_fr_energy">    -21.27943382 </i>
    <i name="e_wo_entrp">    -21.27943382 </i>
    <i name="e_0_energy">    -21.27943382 </i>
   </energy>
  </scstep>
  <scstep>
   <time name="dav">    1.88    1.88</time>
   <time name="total">    1.99    1.99</time>
   <energy>
    <i name="e_fr_energy">    -21.27937020 </i>
    <i name="e_wo_entrp">    -21.27937020 </i>
    <i name="e_0_energy">    -21.27937020 </i>
   </energy>
  </scstep>
  <scstep>
   <time name="dav">    1.70    1.70</time>
   <time name="total">    1.81    1.81</time>
   <energy>
    <i name="e_fr_energy">    -21.27937403 </i>
    <i name="e_wo_entrp">    -21.27937403 </i>
    <i name="e_0_energy">    -21.27937403 </i>
   </energy>
  </scstep>
  <scstep>
   <time name="dav">    1.34    1.34</time>
   <time name="total">    1.36    1.36</time>
   <energy>
    <i name="alphaZ">      5.29341181 </i>
    <i name="ewald">   1876.16123219 </i>
    <i name="hartreedc">  -2487.37200231 </i>
    <i name="XCdc">     14.03339868 </i>
    <i name="pawpsdc">   2039.16537464 </i>
    <i name="pawaedc">  -2006.83345474 </i>
    <i name="eentropy">     -0.00000000 </i>
    <i name="bandstr">   -165.89512002 </i>
    <i name="atom">    704.16778566 </i>
    <i name="e_fr_energy">    -21.27937409 </i>
    <i name="e_wo_entrp">    -21.27937409 </i>
    <i name="e_0_energy">    -21.27937409 </i>
   </energy>
  </scstep>
  <structure>
   <crystal>
    <varray name="basis" >
     <v>       3.29124200       0.19819100       0.00000000 </v>
     <v>       0.27790400       4.61499100      -0.00005300 </v>
     <v>       0.00000000       0.00000000      20.02439000 </v>
    </varray>
    <i name="volume">    303.04860037 </i>
    <varray name="rec_basis" >
     <v>       0.30494244      -0.01836292       0.00000000 </v>
     <v>      -0.01309577       0.21747374       0.00000000 </v>
     <v>      -0.00000003       0.00000058       0.04993910 </v>
    </varray>
   </crystal>
   <varray name="positions" >
    <v>       0.47939070       0.91657591       0.55252949 </v>
    <v>       0.52060930       0.08342409       0.44747051 </v>
    <v>      -0.02060911       0.41657159       0.44747052 </v>
    <v>       0.02060911       0.58342841       0.55252948 </v>
   </varray>
  </structure>
  <varray name="forces" >
   <v>      -0.13611726      -0.40094931       0.00680045 </v>
   <v>       0.13611726       0.40094931      -0.00680045 </v>
   <v>      -0.13610850      -0.40097462      -0.00679158 </v>
   <v>       0.13610850       0.40097462       0.00679158 </v>
  </varray>
  <varray name="stress" >
   <v>       0.16205961     -15.24757457       0.00007967 </v>
   <v>     -15.24757456      -1.16355606       0.00028305 </v>
   <v>       0.00007968       0.00028307       0.11421991 </v>
  </varray>
  <energy>
   <i name="e_fr_energy">    -21.27937409 </i>
   <i name="e_wo_entrp">    -21.27937409 </i>
   <i name="e_0_energy">     -0.00000000 </i>
  </energy>
  <time name="totalsc">   11.60   11.62</time>
 </calculation>
 <calculation>
  <scstep>
   <time name="dav">    1.55    1.55</time>
   <time name="total">    1.66    1.67</time>
   <energy>
    <i name="alphaZ">      5.29341181 </i>
    <i name="ewald">   1877.38551385 </i>
    <i name="hartreedc">  -2488.16498762 </i>
    <i name="XCdc">     14.07784676 </i>
    <i name="pawpsdc">   2039.38069056 </i>
    <i name="pawaedc">  -2007.04890522 </i>
    <i name="eentropy">     -0.00000000 </i>
    <i name="bandstr">   -166.38435733 </i>
    <i name="atom">    704.16778566 </i>
    <i name="e_fr_energy">    -21.29300153 </i>
    <i name="e_wo_entrp">    -21.29300153 </i>
    <i name="e_0_energy">    -21.29300153 </i>
   </energy>
  </scstep>
  <scstep>
   <time name="dav">    1.83    1.83</time>
   <time name="total">    1.94    1.94</time>
   <energy>
    <i name="e_fr_energy">    -21.29537238 </i>
    <i name="e_wo_entrp">    -21.29537238 </i>
    <i name="e_0_energy">    -21.29537238 </i>
   </energy>
  </scstep>
  <scstep>
   <time name="dav">    1.97    1.97</time>
   <time name="total">    2.08    2.08</time>
   <energy>
    <i name="e_fr_energy">    -21.29531747 </i>
    <i name="e_wo_entrp">    -21.29531747 </i>
    <i name="e_0_energy">    -21.29531747 </i>
   </energy>
  </scstep>
  <scstep>
   <time name="dav">    1.96    1.96</time>
   <time name="total">    2.07    2.07</time>
   <energy>
    <i name="e_fr_energy">    -21.29530415 </i>
    <i name="e_wo_entrp">    -21.29530415 </i>
    <i name="e_0_energy">    -21.29530415 </i>
   </energy>
  </scstep>
  <scstep>
   <time name="dav">    1.63    1.63</time>
   <time name="total">    1.75    1.75</time>
   <energy>
    <i name="e_fr_energy">    -21.29530614 </i>
    <i name="e_wo_entrp">    -21.29530614 </i>
    <i name="e_0_energy">    -21.29530614 </i>
   </energy>
  </scstep>
  <scstep>
   <time name="dav">    1.43    1.43</time>
   <time name="total">    1.45    1.46</time>
   <energy>
    <i name="alphaZ">      5.29341181 </i>
    <i name="ewald">   1877.38551385 </i>
    <i name="hartreedc">  -2488.14958217 </i>
    <i name="XCdc">     14.08198763 </i>
    <i name="pawpsdc">   2068.03666364 </i>
    <i name="pawaedc">  -2035.71524628 </i>
    <i name="eentropy">     -0.00000000 </i>
    <i name="bandstr">   -166.39583986 </i>
    <i name="atom">    704.16778566 </i>
    <i name="e_fr_energy">    -21.29530572 </i>
    <i name="e_wo_entrp">    -21.29530572 </i>
    <i name="e_0_energy">    -21.29530572 </i>
   </energy>
  </scstep>
  <structure>
   <crystal>
    <varray name="basis" >
     <v>       3.29124200       0.19819100       0.00000000 </v>
     <v>       0.27790400       4.61499100      -0.00005300 </v>
     <v>       0.00000000       0.00000000      20.02439000 </v>
    </varray>
    <i name="volume">    303.04860037 </i>
    <varray name="rec_basis" >
     <v>       0.30494244      -0.01836292       0.00000000 </v>
     <v>      -0.01309577       0.21747374       0.00000000 </v>
     <v>      -0.00000003       0.00000058       0.04993910 </v>
    </varray>
   </crystal>
   <varray name="positions" >
    <v>       0.47737271       0.91418192       0.55254046 </v>
    <v>       0.52262729       0.08581808       0.44745954 </v>
    <v>      -0.02262699       0.41417742       0.44745955 </v>
    <v>       0.02262699       0.58582258       0.55254045 </v>
   </varray>
  </structure>
  <varray name="forces" >
   <v>      -0.02822824      -0.18516541      -0.03239429 </v>
   <v>       0.02822824       0.18516541       0.03239429 </v>
   <v>      -0.02822086      -0.18518478       0.03239803 </v>
   <v>       0.02822086       0.18518478      -0.03239803 </v>
  </varray>
  <varray name="stress" >
   <v>       0.42270106     -13.96803580       0.00008134 </v>
   <v>     -13.96803582       1.90624524       0.00018267 </v>
   <v>       0.00008126       0.00018263      -0.83280300 </v>
  </varray>
  <energy>
   <i name="e_fr_energy">    -21.29530572 </i>
   <i name="e_wo_entrp">    -21.29530572 </i>
   <i name="e_0_energy">     -0.00000000 </i>
  </energy>
  <time name="totalsc">   11.72   11.74</time>
 </calculation>
 <calculation>
  <scstep>
   <time name="dav">    1.56    1.56</time>
   <time name="total">    1.68    1.68</time>
   <energy>
    <i name="alphaZ">      5.29341181 </i>
    <i name="ewald">   1878.21749480 </i>
    <i name="hartreedc">  -2488.66730299 </i>
    <i name="XCdc">     14.11124473 </i>
    <i name="pawpsdc">   2067.97350788 </i>
    <i name="pawaedc">  -2035.65199521 </i>
    <i name="eentropy">     -0.00000000 </i>
    <i name="bandstr">   -166.74157572 </i>
    <i name="atom">    704.16778566 </i>
    <i name="e_fr_energy">    -21.29742904 </i>
    <i name="e_wo_entrp">    -21.29742904 </i>
    <i name="e_0_energy">    -21.29742904 </i>
   </energy>
  </scstep>
  <scstep>
   <time name="dav">    1.82    1.82</time>
   <time name="total">    1.93    1.94</time>
   <energy>
    <i name="e_fr_energy">    -21.29845150 </i>
    <i name="e_wo_entrp">    -21.29845150 </i>
    <i name="e_0_energy">    -21.29845150 </i>
   </energy>
  </scstep>
  <scstep>
   <time name="dav">    2.01    2.01</time>
   <time name="total">    2.12    2.12</time>
   <energy>
    <i name="e_fr_energy">    -21.29842342 </i>
    <i name="e_wo_entrp">    -21.29842342 </i>
    <i name="e_0_energy">    -21.29842342 </i>
   </energy>
  </scstep>
  <scstep>
   <time name="dav">    1.82    1.82</time>
   <time name="total">    1.93    1.93</time>
   <energy>
    <i name="e_fr_energy">    -21.29841755 </i>
    <i name="e_wo_entrp">    -21.29841755 </i>
    <i name="e_0_energy">    -21.29841755 </i>
   </energy>
  </scstep>
  <scstep>
   <time name="dav">    1.34    1.34</time>
   <time name="total">    1.45    1.45</time>
   <energy>
    <i name="e_fr_energy">    -21.29841886 </i>
    <i name="e_wo_entrp">    -21.29841886 </i>
    <i name="e_0_energy">    -21.29841886 </i>
   </energy>
  </scstep>
  <scstep>
   <time name="dav">    1.30    1.30</time>
   <time name="total">    1.32    1.32</time>
   <energy>
    <i name="alphaZ">      5.29341181 </i>
    <i name="ewald">   1878.21749480 </i>
    <i name="hartreedc">  -2488.64434620 </i>
    <i name="XCdc">     14.11396687 </i>
    <i name="pawpsdc">   2087.90060818 </i>
    <i name="pawaedc">  -2055.58634702 </i>
    <i name="eentropy">     -0.00000000 </i>
    <i name="bandstr">   -166.76099353 </i>
    <i name="atom">    704.16778566 </i>
    <i name="e_fr_energy">    -21.29841943 </i>
    <i name="e_wo_entrp">    -21.29841943 </i>
    <i name="e_0_energy">    -21.29841943 </i>
   </energy>
  </scstep>
  <structure>
   <crystal>
    <varray name="basis" >
     <v>       3.29124200       0.19819100       0.00000000 </v>
     <v>       0.27790400       4.61499100      -0.00005300 </v>
     <v>       0.00000000       0.00000000      20.02439000 </v>
    </varray>
    <i name="volume">    303.04860037 </i>
    <varray name="rec_basis" >
     <v>       0.30494244      -0.01836292       0.00000000 </v>
     <v>      -0.01309577       0.21747374       0.00000000 </v>
     <v>      -0.00000003       0.00000058       0.04993910 </v>
    </varray>
   </crystal>
   <varray name="positions" >
    <v>       0.47606013       0.91262478       0.55254760 </v>
    <v>       0.52393987       0.08737522       0.44745240 </v>
    <v>      -0.02393950       0.41262015       0.44745241 </v>
    <v>       0.02393950       0.58737985       0.55254759 </v>
   </varray>
  </structure>
  <varray name="forces" >
   <v>       0.05025283      -0.03663669      -0.05705649 </v>
   <v>      -0.05025283       0.03663669       0.05705649 </v>
   <v>       0.05025923      -0.03665231       0.05705662 </v>
   <v>      -0.05025923       0.03665231      -0.05705662 </v>
  </varray>
  <varray name="stress" >
   <v>       0.69160480     -13.00858523       0.00008062 </v>
   <v>     -13.00858525       4.00230893       0.00011734 </v>
   <v>       0.00008068       0.00011735      -1.37159575 </v>
  </varray>
  <energy>
   <i name="e_fr_energy">    -21.29841943 </i>
   <i name="e_wo_entrp">    -21.29841943 </i>
   <i name="e_0_energy">     -0.00000000 </i>
  </energy>
  <time name="totalsc">   11.19   11.21</time>
 </calculation>
 <calculation>
  <scstep>
   <time name="dav">    1.47    1.47</time>
   <time name="total">    1.58    1.58</time>
   <energy>
    <i name="alphaZ">      5.29341181 </i>
    <i name="ewald">   1880.31063360 </i>
    <i name="hartreedc">  -2490.55000091 </i>
    <i name="XCdc">     14.13322011 </i>
    <i name="pawpsdc">   2087.86945770 </i>
    <i name="pawaedc">  -2055.55513967 </i>
    <i name="eentropy">     -0.00000000 </i>
    <i name="bandstr">   -166.96833616 </i>
    <i name="atom">    704.16778566 </i>
    <i name="e_fr_energy">    -21.29896786 </i>
    <i name="e_wo_entrp">    -21.29896786 </i>
    <i name="e_0_energy">    -21.29896786 </i>
   </energy>
  </scstep>
  <scstep>
   <time name="dav">    1.88    1.89</time>
   <time name="total">    2.00    2.00</time>
   <energy>
    <i name="e_fr_energy">    -21.29911310 </i>
    <i name="e_wo_entrp">    -21.29911310 </i>
    <i name="e_0_energy">    -21.29911310 </i>
   </energy>
  </scstep>
  <scstep>
   <time name="dav">    1.88    1.88</time>
   <time name="total">    1.99    1.99</time>
   <energy>
    <i name="e_fr_energy">    -21.29910989 </i>
    <i name="e_wo_entrp">    -21.29910989 </i>
    <i name="e_0_energy">    -21.29910989 </i>
   </energy>
  </scstep>
  <scstep>
   <time name="dav">    1.31    1.31</time>
   <time name="total">    1.42    1.43</time>
   <energy>
    <i name="e_fr_energy">    -21.29910975 </i>
    <i name="e_wo_entrp">    -21.29910975 </i>
    <i name="e_0_energy">    -21.29910975 </i>
   </energy>
  </scstep>
  <scstep>
   <time name="dav">    1.19    1.19</time>
   <time name="total">    1.30    1.30</time>
   <energy>
    <i name="e_fr_energy">    -21.29911022 </i>
    <i name="e_wo_entrp">    -21.29911022 </i>
    <i name="e_0_energy">    -21.29911022 </i>
   </energy>
  </scstep>
  <scstep>
   <time name="dav">    1.18    1.18</time>
   <time name="total">    1.20    1.20</time>
   <energy>
    <i name="alphaZ">      5.29341181 </i>
    <i name="ewald">   1880.31063360 </i>
    <i name="hartreedc">  -2490.54525433 </i>
    <i name="XCdc">     14.13510814 </i>
    <i name="pawpsdc">   2099.04239637 </i>
    <i name="pawaedc">  -2066.73220954 </i>
    <i name="eentropy">     -0.00000000 </i>
    <i name="bandstr">   -166.97098219 </i>
    <i name="atom">    704.16778566 </i>
    <i name="e_fr_energy">    -21.29911049 </i>
    <i name="e_wo_entrp">    -21.29911049 </i>
    <i name="e_0_energy">    -21.29911049 </i>
   </energy>
  </scstep>
  <structure>
   <crystal>
    <varray name="basis" >
     <v>       3.29124200       0.19819100       0.00000000 </v>
     <v>       0.27790400       4.61499100      -0.00005300 </v>
     <v>       0.00000000       0.00000000      20.02439000 </v>
    </varray>
    <i name="volume">    303.04860037 </i>
    <varray name="rec_basis" >
     <v>       0.30494244      -0.01836292       0.00000000 </v>
     <v>      -0.01309577       0.21747374       0.00000000 </v>
     <v>      -0.00000003       0.00000058       0.04993910 </v>
    </varray>
   </crystal>
   <varray name="positions" >
    <v>       0.47662799       0.91232606       0.55244720 </v>
    <v>       0.52337201       0.08767394       0.44755280 </v>
    <v>      -0.02337156       0.41232132       0.44755281 </v>
    <v>       0.02337156       0.58767868       0.55244719 </v>
   </varray>
  </structure>
  <varray name="forces" >
   <v>       0.00922000      -0.01083844      -0.03063929 </v>
   <v>      -0.00922000       0.01083844       0.03063929 </v>
   <v>       0.00922549      -0.01085139       0.03063865 </v>
   <v>      -0.00922549       0.01085139      -0.03063865 </v>
  </varray>
  <varray name="stress" >
   <v>       0.97856547     -13.52826603       0.00009733 </v>
   <v>     -13.52826597       4.47887476       0.00008102 </v>
   <v>       0.00009740       0.00008104      -0.77389365 </v>
  </varray>
  <energy>
   <i name="e_fr_energy">    -21.29911049 </i>
   <i name="e_wo_entrp">    -21.29911049 </i>
   <i name="e_0_energy">     -0.00000000 </i>
  </energy>
  <time name="totalsc">   10.25   10.27</time>
 </calculation>
 <calculation>
  <scstep>
   <time name="dav">    1.47    1.47</time>
   <time name="total">    1.58    1.58</time>
   <energy>
    <i name="alphaZ">      5.29341181 </i>
    <i name="ewald">   1881.51950324 </i>
    <i name="hartreedc">  -2491.63949478 </i>
    <i name="XCdc">     14.14617420 </i>
    <i name="pawpsdc">   2099.17910446 </i>
    <i name="pawaedc">  -2066.86885500 </i>
    <i name="eentropy">     -0.00000000 </i>
    <i name="bandstr">   -167.09679982 </i>
    <i name="atom">    704.16778566 </i>
    <i name="e_fr_energy">    -21.29917023 </i>
    <i name="e_wo_entrp">    -21.29917023 </i>
    <i name="e_0_energy">    -21.29917023 </i>
   </energy>
  </scstep>
  <scstep>
   <time name="dav">    1.89    1.89</time>
   <time name="total">    2.00    2.01</time>
   <energy>
    <i name="e_fr_energy">    -21.29922023 </i>
    <i name="e_wo_entrp">    -21.29922023 </i>
    <i name="e_0_energy">    -21.29922023 </i>
   </energy>
  </scstep>
  <scstep>
   <time name="dav">    1.49    1.49</time>
   <time name="total">    1.60    1.61</time>
   <energy>
    <i name="e_fr_energy">    -21.29921919 </i>
    <i name="e_wo_entrp">    -21.29921919 </i>
    <i name="e_0_energy">    -21.29921919 </i>
   </energy>
  </scstep>
  <scstep>
   <time name="dav">    1.23    1.23</time>
   <time name="total">    1.34    1.34</time>
   <energy>
    <i name="e_fr_energy">    -21.29921984 </i>
    <i name="e_wo_entrp">    -21.29921984 </i>
    <i name="e_0_energy">    -21.29921984 </i>
   </energy>
  </scstep>
  <scstep>
   <time name="dav">    1.20    1.20</time>
   <time name="total">    1.31    1.31</time>
   <energy>
    <i name="e_fr_energy">    -21.29921992 </i>
    <i name="e_wo_entrp">    -21.29921992 </i>
    <i name="e_0_energy">    -21.29921992 </i>
   </energy>
  </scstep>
  <scstep>
   <time name="dav">    1.16    1.16</time>
   <time name="total">    1.18    1.18</time>
   <energy>
    <i name="alphaZ">      5.29341181 </i>
    <i name="ewald">   1881.51950324 </i>
    <i name="hartreedc">  -2491.63629092 </i>
    <i name="XCdc">     14.14726862 </i>
    <i name="pawpsdc">   2105.58415101 </i>
    <i name="pawaedc">  -2073.27632078 </i>
    <i name="eentropy">     -0.00000000 </i>
    <i name="bandstr">   -167.09872869 </i>
    <i name="atom">    704.16778566 </i>
    <i name="e_fr_energy">    -21.29922007 </i>
    <i name="e_wo_entrp">    -21.29922007 </i>
    <i name="e_0_energy">    -21.29922007 </i>
   </energy>
  </scstep>
  <structure>
   <crystal>
    <varray name="basis" >
     <v>       3.29124200       0.19819100       0.00000000 </v>
     <v>       0.27790400       4.61499100      -0.00005300 </v>
     <v>       0.00000000       0.00000000      20.02439000 </v>
    </varray>
    <i name="volume">    303.04860037 </i>
    <varray name="rec_basis" >
     <v>       0.30494244      -0.01836292       0.00000000 </v>
     <v>      -0.01309577       0.21747374       0.00000000 </v>
     <v>      -0.00000003       0.00000058       0.04993910 </v>
    </varray>
   </crystal>
   <varray name="positions" >
    <v>       0.47695571       0.91215367       0.55238926 </v>
    <v>       0.52304429       0.08784633       0.44761074 </v>
    <v>      -0.02304379       0.41214885       0.44761075 </v>
    <v>       0.02304379       0.58785115       0.55238925 </v>
   </varray>
  </structure>
  <varray name="forces" >
   <v>      -0.01462991       0.00441125      -0.01529202 </v>
   <v>       0.01462991      -0.00441125       0.01529202 </v>
   <v>      -0.01462498       0.00439988       0.01529092 </v>
   <v>       0.01462498      -0.00439988      -0.01529092 </v>
  </varray>
  <varray name="stress" >
   <v>       1.15419210     -13.82101980       0.00010706 </v>
   <v>     -13.82101979       4.75948985       0.00006074 </v>
   <v>       0.00010704       0.00006077      -0.42606849 </v>
  </varray>
  <energy>
   <i name="e_fr_energy">    -21.29922007 </i>
   <i name="e_wo_entrp">    -21.29922007 </i>
   <i name="e_0_energy">     -0.00000000 </i>
  </energy>
  <time name="totalsc">    9.78    9.80</time>
 </calculation>
 <calculation>
  <scstep>
   <time name="dav">    1.46    1.46</time>
   <time name="total">    1.57    1.58</time>
   <energy>
    <i name="alphaZ">      5.29341181 </i>
    <i name="ewald">   1882.19979443 </i>
    <i name="hartreedc">  -2492.28280263 </i>
    <i name="XCdc">     14.15125795 </i>
    <i name="pawpsdc">   2105.73695771 </i>
    <i name="pawaedc">  -2073.42910505 </i>
    <i name="eentropy">     -0.00000000 </i>
    <i name="bandstr">   -167.13655664 </i>
    <i name="atom">    704.16778566 </i>
    <i name="e_fr_energy">    -21.29925676 </i>
    <i name="e_wo_entrp">    -21.29925676 </i>
    <i name="e_0_energy">    -21.29925676 </i>
   </energy>
  </scstep>
  <scstep>
   <time name="dav">    1.87    1.87</time>
   <time name="total">    1.98    1.99</time>
   <energy>
    <i name="e_fr_energy">    -21.29927079 </i>
    <i name="e_wo_entrp">    -21.29927079 </i>
    <i name="e_0_energy">    -21.29927079 </i>
   </energy>
  </scstep>
  <scstep>
   <time name="dav">    1.26    1.26</time>
   <time name="total">    1.37    1.37</time>
   <energy>
    <i name="e_fr_energy">    -21.29927047 </i>
    <i name="e_wo_entrp">    -21.29927047 </i>
    <i name="e_0_energy">    -21.29927047 </i>
   </energy>
  </scstep>
  <scstep>
   <time name="dav">    1.18    1.18</time>
   <time name="total">    1.29    1.29</time>
   <energy>
    <i name="e_fr_energy">    -21.29927072 </i>
    <i name="e_wo_entrp">    -21.29927072 </i>
    <i name="e_0_energy">    -21.29927072 </i>
   </energy>
  </scstep>
  <scstep>
   <time name="dav">    1.20    1.20</time>
   <time name="total">    1.31    1.32</time>
   <energy>
    <i name="e_fr_energy">    -21.29927080 </i>
    <i name="e_wo_entrp">    -21.29927080 </i>
    <i name="e_0_energy">    -21.29927080 </i>
   </energy>
  </scstep>
  <scstep>
   <time name="dav">    1.14    1.14</time>
   <time name="total">    1.16    1.17</time>
   <energy>
    <i name="alphaZ">      5.29341181 </i>
    <i name="ewald">   1882.19979443 </i>
    <i name="hartreedc">  -2492.27910151 </i>
    <i name="XCdc">     14.15133126 </i>
    <i name="pawpsdc">   2107.47786719 </i>
    <i name="pawaedc">  -2075.17053618 </i>
    <i name="eentropy">     -0.00000000 </i>
    <i name="bandstr">   -167.13982350 </i>
    <i name="atom">    704.16778566 </i>
    <i name="e_fr_energy">    -21.29927085 </i>
    <i name="e_wo_entrp">    -21.29927085 </i>
    <i name="e_0_energy">    -21.29927085 </i>
   </energy>
  </scstep>
  <structure>
   <crystal>
    <varray name="basis" >
     <v>       3.29124200       0.19819100       0.00000000 </v>
     <v>       0.27790400       4.61499100      -0.00005300 </v>
     <v>       0.00000000       0.00000000      20.02439000 </v>
    </varray>
    <i name="volume">    303.04860037 </i>
    <varray name="rec_basis" >
     <v>       0.30494244      -0.01836292       0.00000000 </v>
     <v>      -0.01309577       0.21747374       0.00000000 </v>
     <v>      -0.00000003       0.00000058       0.04993910 </v>
    </varray>
   </crystal>
   <varray name="positions" >
    <v>       0.47682092       0.91217592       0.55235153 </v>
    <v>       0.52317908       0.08782408       0.44764847 </v>
    <v>      -0.02317851       0.41217099       0.44764848 </v>
    <v>       0.02317851       0.58782901       0.55235152 </v>
   </varray>
  </structure>
  <varray name="forces" >
   <v>      -0.00599257      -0.00032577      -0.00480011 </v>
   <v>       0.00599257       0.00032577       0.00480011 </v>
   <v>      -0.00598860      -0.00033452       0.00479931 </v>
   <v>       0.00598860       0.00033452      -0.00479931 </v>
  </varray>
  <varray name="stress" >
   <v>       1.13722493     -13.68263875       0.00011500 </v>
   <v>     -13.68263870       4.78213413       0.00003150 </v>
   <v>       0.00011492       0.00003150      -0.18581627 </v>
  </varray>
  <energy>
   <i name="e_fr_energy">    -21.29927085 </i>
   <i name="e_wo_entrp">    -21.29927085 </i>
   <i name="e_0_energy">     -0.00000000 </i>
  </energy>
  <time name="totalsc">    9.40    9.42</time>
  <eigenvalues>
   <array>
    <dimension dim="1">band</dimension>
    <dimension dim="2">kpoint</dimension>
    <dimension dim="3">spin</dimension>
    <field>eigene</field>
    <field>occ</field>
    <set>
     <set comment="spin 1">
      <set comment="kpoint 1">
       <r>  -17.2265    1.0000 </r>
       <r>  -14.7115    1.0000 </r>
       <r>  -11.3272    1.0000 </r>
       <r>   -7.8959    1.0000 </r>
       <r>   -6.8726    1.0000 </r>
       <r>   -6.8516    1.0000 </r>
       <r>   -5.4325    1.0000 </r>
       <r>   -4.0141    1.0000 </r>
       <r>   -3.9538    1.0000 </r>
       <r>   -2.1889    1.0000 </r>
       <r>   -1.3463    0.0000 </r>
       <r>   -0.5571    0.0000 </r>
       <r>   -0.0292    0.0000 </r>
       <r>    1.3894    0.0000 </r>
       <r>    2.1689    0.0000 </r>
       <r>    2.3143    0.0000 </r>
      </set>
      <set comment="kpoint 2">
       <r>  -17.1992    1.0000 </r>
       <r>  -14.6836    1.0000 </r>
       <r>  -11.3371    1.0000 </r>
       <r>   -7.8766    1.0000 </r>
       <r>   -6.8944    1.0000 </r>
       <r>   -6.8273    1.0000 </r>
       <r>   -5.6124    1.0000 </r>
       <r>   -4.1812    1.0000 </r>
       <r>   -3.9554    1.0000 </r>
       <r>   -2.1923    1.0000 </r>
       <r>   -1.3235    0.0000 </r>
       <r>   -0.3054    0.0000 </r>
       <r>    0.0930    0.0000 </r>
       <r>    1.3460    0.0000 </r>
       <r>    2.1951    0.0000 </r>
       <r>    2.3448    0.0000 </r>
      </set>
      <set comment="kpoint 3">
       <r>  -17.1172    1.0000 </r>
       <r>  -14.6000    1.0000 </r>
       <r>  -11.3722    1.0000 </r>
       <r>   -7.8192    1.0000 </r>
       <r>   -6.9809    1.0000 </r>
       <r>   -6.7588    1.0000 </r>
       <r>   -6.0442    1.0000 </r>
       <r>   -4.5922    1.0000 </r>
       <r>   -3.9212    1.0000 </r>
       <r>   -2.2200    1.0000 </r>
       <r>   -1.2539    0.0000 </r>
       <r>    0.1138    0.0000 </r>
       <r>    0.3605    0.0000 </r>
       <r>    1.5211    0.0000 </r>
       <r>    2.2573    0.0000 </r>
       <r>    2.4365    0.0000 </r>
      </set>
      <set comment="kpoint 4">
       <r>  -16.9810    1.0000 </r>
       <r>  -14.4610    1.0000 </r>
       <r>  -11.4487    1.0000 </r>
       <r>   -7.7262    1.0000 </r>
       <r>   -7.1955    1.0000 </r>
       <r>   -6.7275    1.0000 </r>
       <r>   -6.4713    1.0000 </r>
       <r>   -5.0002    1.0000 </r>
       <r>   -3.8747    1.0000 </r>
       <r>   -2.2907    1.0000 </r>
       <r>   -1.1398    0.0000 </r>
       <r>   -0.2236    0.0000 </r>
       <r>    1.2705    0.0000 </r>
       <r>    2.0508    0.0000 </r>
       <r>    2.1364    0.0000 </r>
       <r>    2.5808    0.0000 </r>
      </set>
      <set comment="kpoint 5">
       <r>  -16.7913    1.0000 </r>
       <r>  -14.2670    1.0000 </r>
       <r>  -11.5916    1.0000 </r>
       <r>   -7.6036    1.0000 </r>
       <r>   -7.5988    1.0000 </r>
       <r>   -7.0980    1.0000 </r>
       <r>   -6.4044    1.0000 </r>
       <r>   -5.2406    1.0000 </r>
       <r>   -3.8423    1.0000 </r>
       <r>   -2.4150    1.0000 </r>
       <r>   -0.9881    0.0000 </r>
       <r>   -0.6507    0.0000 </r>
       <r>    1.5849    0.0000 </r>
       <r>    2.2081    0.0000 </r>
       <r>    2.3606    0.0000 </r>
       <r>    2.7388    0.0000 </r>
      </set>
      <set comment="kpoint 6">
       <r>  -16.5489    1.0000 </r>
       <r>  -14.0187    1.0000 </r>
       <r>  -11.8263    1.0000 </r>
       <r>   -8.1696    1.0000 </r>
       <r>   -7.4552    1.0000 </r>
       <r>   -7.4466    1.0000 </r>
       <r>   -6.1952    1.0000 </r>
       <r>   -5.2938    1.0000 </r>
       <r>   -3.8617    1.0000 </r>
       <r>   -2.6020    1.0000 </r>
       <r>   -0.9955    0.0000 </r>
       <r>   -0.8124    0.0000 </r>
       <r>    1.0920    0.0000 </r>
       <r>    1.6552    0.0000 </r>
       <r>    2.9260    0.0000 </r>
       <r>    3.0488    0.0000 </r>
      </set>
      <set comment="kpoint 7">
       <r>  -16.2555    1.0000 </r>
       <r>  -13.7179    1.0000 </r>
       <r>  -12.1623    1.0000 </r>
       <r>   -8.8226    1.0000 </r>
       <r>   -7.6477    1.0000 </r>
       <r>   -7.2990    1.0000 </r>
       <r>   -5.9421    1.0000 </r>
       <r>   -5.2239    1.0000 </r>
       <r>   -3.9650    1.0000 </r>
       <r>   -2.8537    1.0000 </r>
       <r>   -1.1710    0.0000 </r>
       <r>   -0.6492    0.0000 </r>
       <r>    0.6660    0.0000 </r>
       <r>    0.9788    0.0000 </r>
       <r>    2.6283    0.0000 </r>
       <r>    3.2022    0.0000 </r>
      </set>
      <set comment="kpoint 8">
       <r>  -15.9128    1.0000 </r>
       <r>  -13.3720    1.0000 </r>
       <r>  -12.5793    1.0000 </r>
       <r>   -9.4982    1.0000 </r>
       <r>   -7.7000    1.0000 </r>
       <r>   -7.1567    1.0000 </r>
       <r>   -5.6624    1.0000 </r>
       <r>   -5.0915    1.0000 </r>
       <r>   -4.1384    1.0000 </r>
       <r>   -3.1596    1.0000 </r>
       <r>   -1.1592    0.0000 </r>
       <r>   -0.5998    0.0000 </r>
       <r>    0.3535    0.0000 </r>
       <r>    0.4353    0.0000 </r>
       <r>    2.1344    0.0000 </r>
       <r>    2.9595    0.0000 </r>
      </set>
      <set comment="kpoint 9">
       <r>  -15.5238    1.0000 </r>
       <r>  -13.1698    1.0000 </r>
       <r>  -12.8586    1.0000 </r>
       <r>  -10.1635    1.0000 </r>
       <r>   -7.6328    1.0000 </r>
       <r>   -7.0627    1.0000 </r>
       <r>   -5.3755    1.0000 </r>
       <r>   -4.9413    1.0000 </r>
       <r>   -4.3134    1.0000 </r>
       <r>   -3.4962    1.0000 </r>
       <r>   -1.0245    0.0000 </r>
       <r>   -0.7505    0.0000 </r>
       <r>   -0.1336    0.0000 </r>
       <r>    0.4909    0.0000 </r>
       <r>    1.6317    0.0000 </r>
       <r>    2.5689    0.0000 </r>
      </set>
      <set comment="kpoint 10">
       <r>  -15.0924    1.0000 </r>
       <r>  -13.6211    1.0000 </r>
       <r>  -12.4598    1.0000 </r>
       <r>  -10.8009    1.0000 </r>
       <r>   -7.4869    1.0000 </r>
       <r>   -7.0547    1.0000 </r>
       <r>   -5.1103    1.0000 </r>
       <r>   -4.8192    1.0000 </r>
       <r>   -4.4053    1.0000 </r>
       <r>   -3.8316    1.0000 </r>
       <r>   -0.9690    0.0000 </r>
       <r>   -0.9628    0.0000 </r>
       <r>   -0.2847    0.0000 </r>
       <r>    0.6230    0.0000 </r>
       <r>    1.2455    0.0000 </r>
       <r>    2.1387    0.0000 </r>
      </set>
      <set comment="kpoint 11">
       <r>  -14.6244    1.0000 </r>
       <r>  -14.1288    1.0000 </r>
       <r>  -11.9560    1.0000 </r>
       <r>  -11.4007    1.0000 </r>
       <r>   -7.3075    1.0000 </r>
       <r>   -7.1461    1.0000 </r>
       <r>   -4.9045    1.0000 </r>
       <r>   -4.7968    1.0000 </r>
       <r>   -4.3414    1.0000 </r>
       <r>   -4.1288    1.0000 </r>
       <r>   -1.0917    0.0000 </r>
       <r>   -1.0756    0.0000 </r>
       <r>   -0.0181    0.0000 </r>
       <r>    0.3810    0.0000 </r>
       <r>    1.3463    0.0000 </r>
       <r>    1.7142    0.0000 </r>
      </set>
      <set comment="kpoint 12">
       <r>  -17.2044    1.0000 </r>
       <r>  -14.7407    1.0000 </r>
       <r>  -11.3440    1.0000 </r>
       <r>   -8.0478    1.0000 </r>
       <r>   -6.7913    1.0000 </r>
       <r>   -6.7479    1.0000 </r>
       <r>   -5.4199    1.0000 </r>
       <r>   -4.0195    1.0000 </r>
       <r>   -3.8564    1.0000 </r>
       <r>   -2.4006    1.0000 </r>
       <r>   -1.1525    0.0000 </r>
       <r>   -0.5400    0.0000 </r>
       <r>   -0.0471    0.0000 </r>
       <r>    1.3765    0.0000 </r>
       <r>    2.2297    0.0000 </r>
       <r>    2.3457    0.0000 </r>
      </set>
      <set comment="kpoint 13">
       <r>  -17.1830    1.0000 </r>
       <r>  -14.7071    1.0000 </r>
       <r>  -11.3340    1.0000 </r>
       <r>   -8.0134    1.0000 </r>
       <r>   -6.7995    1.0000 </r>
       <r>   -6.7936    1.0000 </r>
       <r>   -5.5416    1.0000 </r>
       <r>   -4.2501    1.0000 </r>
       <r>   -3.8844    1.0000 </r>
       <r>   -2.3690    1.0000 </r>
       <r>   -1.1558    0.0000 </r>
       <r>   -0.3235    0.0000 </r>
       <r>    0.0736    0.0000 </r>
       <r>    1.3784    0.0000 </r>
       <r>    2.2438    0.0000 </r>
       <r>    2.3671    0.0000 </r>
      </set>
      <set comment="kpoint 14">
       <r>  -17.1071    1.0000 </r>
       <r>  -14.6179    1.0000 </r>
       <r>  -11.3468    1.0000 </r>
       <r>   -7.9533    1.0000 </r>
       <r>   -6.8581    1.0000 </r>
       <r>   -6.8267    1.0000 </r>
       <r>   -5.8994    1.0000 </r>
       <r>   -4.6882    1.0000 </r>
       <r>   -3.9037    1.0000 </r>
       <r>   -2.3560    1.0000 </r>
       <r>   -1.1128    0.0000 </r>
       <r>    0.0741    0.0000 </r>
       <r>    0.3167    0.0000 </r>
       <r>    1.6202    0.0000 </r>
       <r>    2.2741    0.0000 </r>
       <r>    2.4495    0.0000 </r>
      </set>
      <set comment="kpoint 15">
       <r>  -16.9771    1.0000 </r>
       <r>  -14.4735    1.0000 </r>
       <r>  -11.4004    1.0000 </r>
       <r>   -7.8910    1.0000 </r>
       <r>   -7.0184    1.0000 </r>
       <r>   -6.9360    1.0000 </r>
       <r>   -6.2270    1.0000 </r>
       <r>   -5.1016    1.0000 </r>
       <r>   -3.9164    1.0000 </r>
       <r>   -2.3864    1.0000 </r>
       <r>   -1.0243    0.0000 </r>
       <r>   -0.2530    0.0000 </r>
       <r>    1.2216    0.0000 </r>
       <r>    1.8431    0.0000 </r>
       <r>    2.2180    0.0000 </r>
       <r>    2.4907    0.0000 </r>
      </set>
      <set comment="kpoint 16">
       <r>  -16.7937    1.0000 </r>
       <r>  -14.2739    1.0000 </r>
       <r>  -11.5227    1.0000 </r>
       <r>   -7.9330    1.0000 </r>
       <r>   -7.2494    1.0000 </r>
       <r>   -7.2152    1.0000 </r>
       <r>   -6.2990    1.0000 </r>
       <r>   -5.3273    1.0000 </r>
       <r>   -3.9412    1.0000 </r>
       <r>   -2.4775    1.0000 </r>
       <r>   -0.8922    0.0000 </r>
       <r>   -0.6587    0.0000 </r>
       <r>    1.2638    0.0000 </r>
       <r>    2.2776    0.0000 </r>
       <r>    2.5828    0.0000 </r>
       <r>    2.6809    0.0000 </r>
      </set>
      <set comment="kpoint 17">
       <r>  -16.5579    1.0000 </r>
       <r>  -14.0196    1.0000 </r>
       <r>  -11.7430    1.0000 </r>
       <r>   -8.3096    1.0000 </r>
       <r>   -7.5020    1.0000 </r>
       <r>   -7.2951    1.0000 </r>
       <r>   -6.1998    1.0000 </r>
       <r>   -5.3616    1.0000 </r>
       <r>   -4.0021    1.0000 </r>
       <r>   -2.6408    1.0000 </r>
       <r>   -0.9867    0.0000 </r>
       <r>   -0.7303    0.0000 </r>
       <r>    0.7525    0.0000 </r>
       <r>    2.1202    0.0000 </r>
       <r>    2.9291    0.0000 </r>
       <r>    3.0061    0.0000 </r>
      </set>
      <set comment="kpoint 18">
       <r>  -16.2713    1.0000 </r>
       <r>  -13.7115    1.0000 </r>
       <r>  -12.0742    1.0000 </r>
       <r>   -8.9107    1.0000 </r>
       <r>   -7.6669    1.0000 </r>
       <r>   -7.1905    1.0000 </r>
       <r>   -6.0293    1.0000 </r>
       <r>   -5.2868    1.0000 </r>
       <r>   -4.1076    1.0000 </r>
       <r>   -2.8745    1.0000 </r>
       <r>   -1.1614    0.0000 </r>
       <r>   -0.5991    0.0000 </r>
       <r>    0.3697    0.0000 </r>
       <r>    1.4183    0.0000 </r>
       <r>    2.9866    0.0000 </r>
       <r>    3.0737    0.0000 </r>
      </set>
      <set comment="kpoint 19">
       <r>  -15.9360    1.0000 </r>
       <r>  -13.3508    1.0000 </r>
       <r>  -12.5008    1.0000 </r>
       <r>   -9.5674    1.0000 </r>
       <r>   -7.6902    1.0000 </r>
       <r>   -7.0716    1.0000 </r>
       <r>   -5.8259    1.0000 </r>
       <r>   -5.1737    1.0000 </r>
       <r>   -4.2218    1.0000 </r>
       <r>   -3.1597    1.0000 </r>
       <r>   -1.1636    0.0000 </r>
       <r>   -0.6641    0.0000 </r>
       <r>    0.2862    0.0000 </r>
       <r>    0.7412    0.0000 </r>
       <r>    2.5797    0.0000 </r>
       <r>    2.8197    0.0000 </r>
      </set>
      <set comment="kpoint 20">
       <r>  -15.5553    1.0000 </r>
       <r>  -13.0204    1.0000 </r>
       <r>  -12.9080    1.0000 </r>
       <r>  -10.2213    1.0000 </r>
       <r>   -7.5991    1.0000 </r>
       <r>   -7.0088    1.0000 </r>
       <r>   -5.6170    1.0000 </r>
       <r>   -5.0643    1.0000 </r>
       <r>   -4.2749    1.0000 </r>
       <r>   -3.4633    1.0000 </r>
       <r>   -1.0191    0.0000 </r>
       <r>   -0.9193    0.0000 </r>
       <r>    0.1483    0.0000 </r>
       <r>    0.5022    0.0000 </r>
       <r>    2.0853    0.0000 </r>
       <r>    2.4380    0.0000 </r>
      </set>
      <set comment="kpoint 21">
       <r>  -15.1336    1.0000 </r>
       <r>  -13.5159    1.0000 </r>
       <r>  -12.4669    1.0000 </r>
       <r>  -10.8486    1.0000 </r>
       <r>   -7.4374    1.0000 </r>
       <r>   -7.0493    1.0000 </r>
       <r>   -5.4318    1.0000 </r>
       <r>   -4.9506    1.0000 </r>
       <r>   -4.2427    1.0000 </r>
       <r>   -3.7479    1.0000 </r>
       <r>   -1.1692    0.0000 </r>
       <r>   -0.7888    0.0000 </r>
       <r>   -0.2953    0.0000 </r>
       <r>    0.8314    0.0000 </r>
       <r>    1.5697    0.0000 </r>
       <r>    2.0302    0.0000 </r>
      </set>
      <set comment="kpoint 22">
       <r>  -14.6783    1.0000 </r>
       <r>  -14.0359    1.0000 </r>
       <r>  -11.9543    1.0000 </r>
       <r>  -11.4364    1.0000 </r>
       <r>   -7.2570    1.0000 </r>
       <r>   -7.1936    1.0000 </r>
       <r>   -5.2916    1.0000 </r>
       <r>   -4.8147    1.0000 </r>
       <r>   -4.1675    1.0000 </r>
       <r>   -3.9845    1.0000 </r>
       <r>   -1.3115    0.0000 </r>
       <r>   -0.7365    0.0000 </r>
[...]
       <r>    2.7261    0.0000 </r>
       <r>    3.8409    0.0000 </r>
      </set>
      <set comment="kpoint 153">
       <r>  -15.2789    1.0000 </r>
       <r>  -15.0934    1.0000 </r>
       <r>  -10.9778    1.0000 </r>
       <r>  -10.4835    1.0000 </r>
       <r>   -7.8659    1.0000 </r>
       <r>   -7.7662    1.0000 </r>
       <r>   -5.4155    1.0000 </r>
       <r>   -4.7867    1.0000 </r>
       <r>   -3.6457    1.0000 </r>
       <r>   -3.6211    1.0000 </r>
       <r>    0.3861    0.0000 </r>
       <r>    0.7374    0.0000 </r>
       <r>    0.9280    0.0000 </r>
       <r>    1.7129    0.0000 </r>
       <r>    2.9239    0.0000 </r>
       <r>    3.6439    0.0000 </r>
      </set>
      <set comment="kpoint 154">
       <r>  -15.5035    1.0000 </r>
       <r>  -15.4046    1.0000 </r>
       <r>  -10.7843    1.0000 </r>
       <r>  -10.3953    1.0000 </r>
       <r>   -7.6356    1.0000 </r>
       <r>   -7.3128    1.0000 </r>
       <r>   -5.1717    1.0000 </r>
       <r>   -4.7972    1.0000 </r>
       <r>   -3.6638    1.0000 </r>
       <r>   -3.3775    1.0000 </r>
       <r>    0.3770    0.0000 </r>
       <r>    0.7453    0.0000 </r>
       <r>    1.0915    0.0000 </r>
       <r>    1.7208    0.0000 </r>
       <r>    2.9251    0.0000 </r>
       <r>    3.4280    0.0000 </r>
      </set>
      <set comment="kpoint 155">
       <r>  -15.6896    1.0000 </r>
       <r>  -15.6699    1.0000 </r>
       <r>  -10.7136    1.0000 </r>
       <r>  -10.4032    1.0000 </r>
       <r>   -7.1914    1.0000 </r>
       <r>   -6.6937    1.0000 </r>
       <r>   -5.0966    1.0000 </r>
       <r>   -4.8636    1.0000 </r>
       <r>   -3.5426    1.0000 </r>
       <r>   -3.1866    1.0000 </r>
       <r>    0.3982    0.0000 </r>
       <r>    0.8205    0.0000 </r>
       <r>    1.2182    0.0000 </r>
       <r>    1.6222    0.0000 </r>
       <r>    2.4484    0.0000 </r>
       <r>    2.8630    0.0000 </r>
      </set>
      <set comment="kpoint 156">
       <r>  -15.8860    1.0000 </r>
       <r>  -15.8310    1.0000 </r>
       <r>  -10.7216    1.0000 </r>
       <r>  -10.4459    1.0000 </r>
       <r>   -6.5975    1.0000 </r>
       <r>   -6.0032    1.0000 </r>
       <r>   -5.1234    1.0000 </r>
       <r>   -4.9317    1.0000 </r>
       <r>   -3.3709    1.0000 </r>
       <r>   -3.1171    1.0000 </r>
       <r>    0.3747    0.0000 </r>
       <r>    0.9543    0.0000 </r>
       <r>    1.2763    0.0000 </r>
       <r>    1.3709    0.0000 </r>
       <r>    2.0008    0.0000 </r>
       <r>    2.0618    0.0000 </r>
      </set>
      <set comment="kpoint 157">
       <r>  -16.0510    1.0000 </r>
       <r>  -15.9241    1.0000 </r>
       <r>  -10.7600    1.0000 </r>
       <r>  -10.4869    1.0000 </r>
       <r>   -5.9346    1.0000 </r>
       <r>   -5.4058    1.0000 </r>
       <r>   -5.1065    1.0000 </r>
       <r>   -4.9791    1.0000 </r>
       <r>   -3.2493    1.0000 </r>
       <r>   -3.1818    1.0000 </r>
       <r>    0.1155    0.0000 </r>
       <r>    0.7780    0.0000 </r>
       <r>    1.2020    0.0000 </r>
       <r>    1.3886    0.0000 </r>
       <r>    1.5153    0.0000 </r>
       <r>    1.8387    0.0000 </r>
      </set>
      <set comment="kpoint 158">
       <r>  -16.1639    1.0000 </r>
       <r>  -15.9667    1.0000 </r>
       <r>  -10.7975    1.0000 </r>
       <r>  -10.5087    1.0000 </r>
       <r>   -5.3220    1.0000 </r>
       <r>   -5.3020    1.0000 </r>
       <r>   -4.9944    1.0000 </r>
       <r>   -4.7478    1.0000 </r>
       <r>   -3.3698    1.0000 </r>
       <r>   -3.1976    1.0000 </r>
       <r>   -0.1919    0.0000 </r>
       <r>    0.2394    0.0000 </r>
       <r>    1.2388    0.0000 </r>
       <r>    1.2585    0.0000 </r>
       <r>    1.6902    0.0000 </r>
       <r>    1.7738    0.0000 </r>
      </set>
     </set>
    </set>
   </array>
  </eigenvalues>
  <separator name="orbital magnetization" >
   <v name="MAGDIPOLOUT">      0.00000000      0.00000000      0.00000000</v>
  </separator>
  <dos>
   <i name="efermi">     -2.05674419 </i>
   <total>
    <array>
     <dimension dim="1">gridpoints</dimension>
     <dimension dim="2">spin</dimension>
     <field>energy</field>
     <field>total</field>
     <field>integrated</field>
     <set>
      <set comment="spin 1">
       <r>   -18.2901     0.0000     0.0000 </r>
       <r>   -18.2121     0.0000     0.0000 </r>
       <r>   -18.1341     0.0000     0.0000 </r>
       <r>   -18.0561     0.0000     0.0000 </r>
       <r>   -17.9781     0.0000     0.0000 </r>
       <r>   -17.9001     0.0000     0.0000 </r>
       <r>   -17.8221     0.0000     0.0000 </r>
       <r>   -17.7441     0.0000     0.0000 </r>
       <r>   -17.6661     0.0000     0.0000 </r>
       <r>   -17.5881     0.0000     0.0000 </r>
       <r>   -17.5101     0.0000     0.0000 </r>
       <r>   -17.4321     0.0000     0.0000 </r>
       <r>   -17.3541     0.0000     0.0000 </r>
       <r>   -17.2761     0.0000     0.0000 </r>
       <r>   -17.1981     0.3024     0.0236 </r>
       <r>   -17.1201     0.7798     0.0844 </r>
       <r>   -17.0421     0.7943     0.1464 </r>
       <r>   -16.9642     0.9679     0.2219 </r>
       <r>   -16.8862     0.6690     0.2740 </r>
       <r>   -16.8082     0.9539     0.3485 </r>
       <r>   -16.7302     0.7999     0.4108 </r>
       <r>   -16.6522     0.9802     0.4873 </r>
       <r>   -16.5742     0.4360     0.5213 </r>
       <r>   -16.4962     1.3108     0.6235 </r>
       <r>   -16.4182     0.7618     0.6830 </r>
       <r>   -16.3402     0.8199     0.7469 </r>
       <r>   -16.2622     0.7426     0.8048 </r>
       <r>   -16.1842     1.0499     0.8867 </r>
       <r>   -16.1062     1.0401     0.9678 </r>
       <r>   -16.0282     0.6880     1.0215 </r>
       <r>   -15.9502     0.6563     1.0727 </r>
       <r>   -15.8722     1.6245     1.1994 </r>
       <r>   -15.7942     0.5794     1.2446 </r>
       <r>   -15.7162     0.8917     1.3142 </r>
       <r>   -15.6382     1.0025     1.3924 </r>
       <r>   -15.5602     0.9353     1.4653 </r>
       <r>   -15.4822     1.1365     1.5539 </r>
       <r>   -15.4042     1.2179     1.6489 </r>
       <r>   -15.3262     1.0479     1.7307 </r>
       <r>   -15.2482     0.7561     1.7896 </r>
       <r>   -15.1702     0.8189     1.8535 </r>
       <r>   -15.0922     1.7717     1.9917 </r>
       <r>   -15.0142     1.1076     2.0781 </r>
       <r>   -14.9362     1.3073     2.1801 </r>
       <r>   -14.8582     1.0156     2.2593 </r>
       <r>   -14.7802     1.4682     2.3738 </r>
       <r>   -14.7022     1.6852     2.5052 </r>
       <r>   -14.6242     2.0650     2.6663 </r>
       <r>   -14.5462     1.6151     2.7923 </r>
       <r>   -14.4682     1.3405     2.8968 </r>
       <r>   -14.3902     1.3721     3.0039 </r>
       <r>   -14.3122     1.2649     3.1025 </r>
       <r>   -14.2342     1.3564     3.2083 </r>
       <r>   -14.1562     0.8790     3.2769 </r>
       <r>   -14.0782     1.1744     3.3685 </r>
       <r>   -14.0002     0.6658     3.4204 </r>
       <r>   -13.9222     1.0702     3.5039 </r>
       <r>   -13.8442     0.5749     3.5487 </r>
       <r>   -13.7662     0.9520     3.6230 </r>
       <r>   -13.6882     0.8475     3.6891 </r>
       <r>   -13.6102     0.7384     3.7467 </r>
       <r>   -13.5322     0.8218     3.8108 </r>
       <r>   -13.4542     0.6004     3.8576 </r>
       <r>   -13.3762     0.8065     3.9205 </r>
       <r>   -13.2982     0.4339     3.9544 </r>
       <r>   -13.2202     0.0966     3.9619 </r>
       <r>   -13.1422     0.2429     3.9809 </r>
       <r>   -13.0642     0.0828     3.9873 </r>
       <r>   -12.9862     0.1614     3.9999 </r>
       <r>   -12.9082     0.0815     4.0063 </r>
       <r>   -12.8302     0.2417     4.0251 </r>
       <r>   -12.7522     0.0102     4.0259 </r>
       <r>   -12.6742     0.2837     4.0480 </r>
       <r>   -12.5963     0.0937     4.0553 </r>
       <r>   -12.5183     0.4302     4.0889 </r>
       <r>   -12.4403     0.8171     4.1526 </r>
       <r>   -12.3623     0.9186     4.2243 </r>
       <r>   -12.2843     0.5317     4.2657 </r>
       <r>   -12.2063     0.4747     4.3028 </r>
       <r>   -12.1283     0.9941     4.3803 </r>
       <r>   -12.0503     1.4676     4.4948 </r>
       <r>   -11.9723     1.4620     4.6088 </r>
       <r>   -11.8943     1.3788     4.7164 </r>
       <r>   -11.8163     1.0567     4.7988 </r>
       <r>   -11.7383     1.0870     4.8836 </r>
       <r>   -11.6603     0.5187     4.9240 </r>
       <r>   -11.5823     1.4739     5.0390 </r>
       <r>   -11.5043     1.6788     5.1699 </r>
       <r>   -11.4263     1.7897     5.3095 </r>
       <r>   -11.3483     3.6622     5.5952 </r>
       <r>   -11.2703     2.5082     5.7908 </r>
       <r>   -11.1923     1.4434     5.9034 </r>
       <r>   -11.1143     0.9120     5.9745 </r>
       <r>   -11.0363     1.2123     6.0691 </r>
       <r>   -10.9583     1.3820     6.1769 </r>
       <r>   -10.8803     0.8270     6.2414 </r>
       <r>   -10.8023     0.9668     6.3168 </r>
       <r>   -10.7243     1.3563     6.4226 </r>
       <r>   -10.6463     1.1069     6.5089 </r>
       <r>   -10.5683     0.1503     6.5206 </r>
       <r>   -10.4903     0.5272     6.5618 </r>
       <r>   -10.4123     1.4255     6.6729 </r>
       <r>   -10.3343     0.7631     6.7325 </r>
       <r>   -10.2563     0.3786     6.7620 </r>
       <r>   -10.1783     0.5133     6.8020 </r>
       <r>   -10.1003     1.2883     6.9025 </r>
       <r>   -10.0223     0.7944     6.9645 </r>
       <r>    -9.9443     0.5373     7.0064 </r>
       <r>    -9.8663     0.3258     7.0318 </r>
       <r>    -9.7883     0.1218     7.0413 </r>
       <r>    -9.7103     0.9203     7.1131 </r>
       <r>    -9.6323     0.9067     7.1838 </r>
       <r>    -9.5543     0.7243     7.2403 </r>
       <r>    -9.4763     0.5283     7.2815 </r>
       <r>    -9.3983     0.0136     7.2826 </r>
       <r>    -9.3203     0.3999     7.3137 </r>
       <r>    -9.2423     1.0889     7.3987 </r>
       <r>    -9.1643     0.2843     7.4209 </r>
       <r>    -9.0863     0.4708     7.4576 </r>
       <r>    -9.0083     0.1253     7.4673 </r>
       <r>    -8.9303     0.3118     7.4917 </r>
       <r>    -8.8523     0.7635     7.5512 </r>
       <r>    -8.7743     0.7587     7.6104 </r>
       <r>    -8.6963     0.3663     7.6390 </r>
       <r>    -8.6183     0.1612     7.6515 </r>
       <r>    -8.5403     0.3159     7.6762 </r>
       <r>    -8.4623     0.0010     7.6763 </r>
       <r>    -8.3843     0.7784     7.7370 </r>
       <r>    -8.3063     0.4625     7.7731 </r>
       <r>    -8.2284     0.5521     7.8161 </r>
       <r>    -8.1504     0.5143     7.8562 </r>
       <r>    -8.0724     1.5252     7.9752 </r>
       <r>    -7.9944     2.2322     8.1493 </r>
       <r>    -7.9164     1.7369     8.2848 </r>
       <r>    -7.8384     1.9506     8.4369 </r>
       <r>    -7.7604     2.4586     8.6287 </r>
       <r>    -7.6824     1.9051     8.7773 </r>
       <r>    -7.6044     2.2538     8.9531 </r>
       <r>    -7.5264     1.5274     9.0722 </r>
       <r>    -7.4484     2.2945     9.2512 </r>
       <r>    -7.3704     2.8937     9.4769 </r>
       <r>    -7.2924     2.0887     9.6398 </r>
       <r>    -7.2144     2.5736     9.8405 </r>
       <r>    -7.1364     2.7500    10.0550 </r>
       <r>    -7.0584     2.9683    10.2865 </r>
       <r>    -6.9804     2.6046    10.4897 </r>
       <r>    -6.9024     2.0132    10.6467 </r>
       <r>    -6.8244     2.2934    10.8256 </r>
       <r>    -6.7464     1.7553    10.9625 </r>
       <r>    -6.6684     1.7827    11.1015 </r>
       <r>    -6.5904     1.8181    11.2434 </r>
       <r>    -6.5124     1.2215    11.3386 </r>
       <r>    -6.4344     1.0207    11.4182 </r>
       <r>    -6.3564     1.2152    11.5130 </r>
       <r>    -6.2784     1.3301    11.6168 </r>
       <r>    -6.2004     1.8152    11.7584 </r>
       <r>    -6.1224     1.9849    11.9132 </r>
       <r>    -6.0444     1.3788    12.0207 </r>
       <r>    -5.9664     1.3700    12.1276 </r>
       <r>    -5.8884     2.7939    12.3455 </r>
       <r>    -5.8104     1.2928    12.4463 </r>
       <r>    -5.7324     1.7427    12.5823 </r>
       <r>    -5.6544     3.2666    12.8370 </r>
       <r>    -5.5764     2.9311    13.0657 </r>
       <r>    -5.4984     3.1285    13.3097 </r>
       <r>    -5.4204     3.1488    13.5553 </r>
       <r>    -5.3424     3.0210    13.7909 </r>
       <r>    -5.2644     4.3191    14.1278 </r>
       <r>    -5.1864     2.2091    14.3001 </r>
       <r>    -5.1084     2.5303    14.4975 </r>
       <r>    -5.0304     2.2875    14.6759 </r>
       <r>    -4.9524     2.5203    14.8725 </r>
       <r>    -4.8744     1.6047    14.9976 </r>
       <r>    -4.7964     2.4133    15.1859 </r>
       <r>    -4.7184     1.4820    15.3015 </r>
       <r>    -4.6404     1.6591    15.4309 </r>
       <r>    -4.5624     1.8444    15.5747 </r>
       <r>    -4.4844     1.4937    15.6912 </r>
       <r>    -4.4064     0.7985    15.7535 </r>
       <r>    -4.3284     1.1659    15.8445 </r>
       <r>    -4.2504     2.4162    16.0329 </r>
       <r>    -4.1724     2.5016    16.2280 </r>
       <r>    -4.0944     2.5015    16.4231 </r>
       <r>    -4.0164     1.9189    16.5728 </r>
       <r>    -3.9385     2.3814    16.7586 </r>
       <r>    -3.8605     2.5549    16.9578 </r>
       <r>    -3.7825     2.8162    17.1775 </r>
       <r>    -3.7045     3.9870    17.4885 </r>
       <r>    -3.6265     3.1788    17.7364 </r>
       <r>    -3.5485     3.0391    17.9735 </r>
       <r>    -3.4705     2.9849    18.2063 </r>
       <r>    -3.3925     2.6360    18.4119 </r>
       <r>    -3.3145     2.5149    18.6080 </r>
       <r>    -3.2365     1.9657    18.7614 </r>
       <r>    -3.1585     2.8835    18.9863 </r>
       <r>    -3.0805     2.1856    19.1567 </r>
       <r>    -3.0025     1.6257    19.2835 </r>
       <r>    -2.9245     1.3552    19.3892 </r>
       <r>    -2.8465     1.9125    19.5384 </r>
       <r>    -2.7685     1.3945    19.6472 </r>
       <r>    -2.6905     1.2702    19.7463 </r>
       <r>    -2.6125     0.8356    19.8114 </r>
       <r>    -2.5345     0.3920    19.8420 </r>
       <r>    -2.4565     0.4068    19.8737 </r>
       <r>    -2.3785     0.7158    19.9296 </r>
       <r>    -2.3005     0.3727    19.9586 </r>
       <r>    -2.2225     0.1966    19.9740 </r>
       <r>    -2.1445     0.3335    20.0000 </r>
       <r>    -2.0665     0.0001    20.0000 </r>
       <r>    -1.9885     0.0000    20.0000 </r>
       <r>    -1.9105     0.0000    20.0000 </r>
       <r>    -1.8325     0.0000    20.0000 </r>
       <r>    -1.7545     0.0000    20.0000 </r>
       <r>    -1.6765     0.0000    20.0000 </r>
       <r>    -1.5985     0.0000    20.0000 </r>
       <r>    -1.5205     0.0000    20.0000 </r>
       <r>    -1.4425     0.0009    20.0001 </r>
       <r>    -1.3645     0.2202    20.0172 </r>
       <r>    -1.2865     0.8975    20.0872 </r>
       <r>    -1.2085     0.5796    20.1325 </r>
       <r>    -1.1305     1.4912    20.2488 </r>
       <r>    -1.0525     1.3408    20.3533 </r>
       <r>    -0.9745     1.4555    20.4669 </r>
       <r>    -0.8965     1.7707    20.6050 </r>
       <r>    -0.8185     0.5943    20.6513 </r>
       <r>    -0.7405     2.4167    20.8398 </r>
       <r>    -0.6625     1.5170    20.9582 </r>
       <r>    -0.5845     1.5879    21.0820 </r>
       <r>    -0.5065     2.2377    21.2566 </r>
       <r>    -0.4285     1.8460    21.4005 </r>
       <r>    -0.3505     2.1593    21.5690 </r>
       <r>    -0.2725     3.4611    21.8389 </r>
       <r>    -0.1945     2.8298    22.0596 </r>
       <r>    -0.1165     3.0702    22.2991 </r>
       <r>    -0.0385     2.9919    22.5325 </r>
       <r>     0.0395     4.4309    22.8781 </r>
       <r>     0.1175     4.8278    23.2546 </r>
       <r>     0.1955     2.8713    23.4786 </r>
       <r>     0.2735     3.4470    23.7474 </r>
       <r>     0.3515     3.2312    23.9995 </r>
       <r>     0.4294     4.1516    24.3233 </r>
       <r>     0.5074     2.3747    24.5085 </r>
       <r>     0.5854     2.8399    24.7300 </r>
       <r>     0.6634     2.9311    24.9586 </r>
       <r>     0.7414     1.9460    25.1104 </r>
       <r>     0.8194     2.3791    25.2960 </r>
       <r>     0.8974     2.6178    25.5002 </r>
       <r>     0.9754     1.9015    25.6485 </r>
       <r>     1.0534     1.9509    25.8007 </r>
       <r>     1.1314     2.9415    26.0301 </r>
       <r>     1.2094     2.1591    26.1985 </r>
       <r>     1.2874     5.0839    26.5950 </r>
       <r>     1.3654     4.1561    26.9192 </r>
       <r>     1.4434     2.4180    27.1078 </r>
       <r>     1.5214     2.7189    27.3199 </r>
       <r>     1.5994     2.0182    27.4773 </r>
       <r>     1.6774     3.0998    27.7191 </r>
       <r>     1.7554     3.3637    27.9814 </r>
       <r>     1.8334     2.0750    28.1433 </r>
       <r>     1.9114     2.2383    28.3178 </r>
       <r>     1.9894     2.0929    28.4811 </r>
       <r>     2.0674     1.6437    28.6093 </r>
       <r>     2.1454     2.4940    28.8038 </r>
       <r>     2.2234     2.4956    28.9985 </r>
       <r>     2.3014     3.8183    29.2963 </r>
       <r>     2.3794     2.7009    29.5070 </r>
       <r>     2.4574     2.9184    29.7346 </r>
       <r>     2.5354     2.5271    29.9317 </r>
       <r>     2.6134     3.5585    30.2093 </r>
       <r>     2.6914     3.4418    30.4777 </r>
       <r>     2.7694     2.0594    30.6383 </r>
       <r>     2.8474     2.0258    30.7964 </r>
       <r>     2.9254     1.8023    30.9369 </r>
       <r>     3.0034     3.1048    31.1791 </r>
       <r>     3.0814     2.7482    31.3935 </r>
       <r>     3.1594     1.1837    31.4858 </r>
       <r>     3.2374     1.5302    31.6051 </r>
       <r>     3.3154     1.1954    31.6984 </r>
       <r>     3.3934     0.4272    31.7317 </r>
       <r>     3.4714     0.6696    31.7839 </r>
       <r>     3.5494     0.4634    31.8201 </r>
       <r>     3.6274     0.3727    31.8491 </r>
       <r>     3.7054     0.4841    31.8869 </r>
       <r>     3.7834     0.3158    31.9115 </r>
       <r>     3.8614     0.7307    31.9685 </r>
       <r>     3.9394     0.0943    31.9759 </r>
       <r>     4.0174     0.1502    31.9876 </r>
       <r>     4.0954     0.1591    32.0000 </r>
       <r>     4.1734     0.0000    32.0000 </r>
       <r>     4.2514     0.0000    32.0000 </r>
       <r>     4.3294     0.0000    32.0000 </r>
       <r>     4.4074     0.0000    32.0000 </r>
       <r>     4.4854     0.0000    32.0000 </r>
       <r>     4.5634     0.0000    32.0000 </r>
       <r>     4.6414     0.0000    32.0000 </r>
       <r>     4.7193     0.0000    32.0000 </r>
       <r>     4.7973     0.0000    32.0000 </r>
       <r>     4.8753     0.0000    32.0000 </r>
       <r>     4.9533     0.0000    32.0000 </r>
       <r>     5.0313     0.0000    32.0000 </r>
       <r>     5.1093     0.0000    32.0000 </r>
      </set>
     </set>
    </array>
   </total>
  </dos>
 </calculation>
 <structure name="finalpos" >
  <crystal>
   <varray name="basis" >
    <v>       3.29124200       0.19819100       0.00000000 </v>
    <v>       0.27790400       4.61499100      -0.00005300 </v>
    <v>       0.00000000       0.00000000      20.02439000 </v>
   </varray>
   <i name="volume">    303.04860037 </i>
   <varray name="rec_basis" >
    <v>       0.30494244      -0.01836292       0.00000000 </v>
    <v>      -0.01309577       0.21747374       0.00000000 </v>
    <v>      -0.00000003       0.00000058       0.04993910 </v>
   </varray>
  </crystal>
  <varray name="positions" >
   <v>       0.47682092       0.91217592       0.55235153 </v>
   <v>       0.52317908       0.08782408       0.44764847 </v>
   <v>      -0.02317851       0.41217099       0.44764848 </v>
   <v>       0.02317851       0.58782901       0.55235152 </v>
  </varray>
 </structure>
</modeling>
