 running on   48 total cores
 distrk:  each k-point on   48 cores,    1 groups
 distr:  one band on    8 cores,    6 groups
 using from now: INCAR     
 vasp.5.4.1 24Jun15 (build Nov 20 2020 10:29:34) complex                        
  
 POSCAR found type information on POSCAR  C 
 POSCAR found :  1 types and       2 ions
 scaLAPACK will be used

 ----------------------------------------------------------------------------- 
|                                                                             |
|  ADVICE TO THIS USER RUNNING 'VASP/VAMP'   (HEAR YOUR MASTER'S VOICE ...):  |
|                                                                             |
|      You have a (more or less) 'small supercell' and for smaller cells      |
|      it is recommended  to use the reciprocal-space projection scheme!      |
|      The real space optimization is not  efficient for small cells and it   |
|      is also less accurate ...                                              |
|      Therefore set LREAL=.FALSE. in the  INCAR file                         |
|                                                                             |
 ----------------------------------------------------------------------------- 

 LDA part: xc-table for Pade appr. of Perdew
 POSCAR, INCAR and KPOINTS ok, starting setup
 WARNING: small aliasing (wrap around) errors must be expected
 FFT: planning ...
 WAVECAR not read
 entering main loop
       N       E                     dE             d eps       ncg     rms          rms(c)
DAV:   1     0.355166231676E+02    0.35517E+02   -0.37278E+03  3768   0.496E+02
DAV:   2    -0.180223941968E+02   -0.53539E+02   -0.48930E+02  5100   0.101E+02
DAV:   3    -0.195868377273E+02   -0.15644E+01   -0.15644E+01  5616   0.233E+01
DAV:   4    -0.195930140362E+02   -0.61763E-02   -0.61763E-02  5568   0.146E+00
DAV:   5    -0.195930210073E+02   -0.69710E-05   -0.69710E-05  5556   0.482E-02    0.607E+00
DAV:   6    -0.187606621153E+02    0.83236E+00   -0.81305E-01  4968   0.430E+00    0.357E+00
DAV:   7    -0.184390221566E+02    0.32164E+00   -0.10652E+00  5304   0.481E+00    0.885E-01
DAV:   8    -0.184321046013E+02    0.69176E-02   -0.88933E-03  5280   0.617E-01    0.907E-02
DAV:   9    -0.184302457713E+02    0.18588E-02   -0.12638E-03  4920   0.139E-01    0.706E-02
DAV:  10    -0.184290267937E+02    0.12190E-02   -0.20836E-03  4356   0.150E-01    0.348E-02
DAV:  11    -0.184291828644E+02   -0.15607E-03   -0.15825E-04  4104   0.517E-02    0.406E-02
DAV:  12    -0.184294424576E+02   -0.25959E-03   -0.39088E-05  4272   0.291E-02    0.104E-02
DAV:  13    -0.184301290573E+02   -0.68660E-03   -0.18049E-04  4284   0.365E-02    0.413E-03
DAV:  14    -0.184301907032E+02   -0.61646E-04   -0.12749E-06  4992   0.549E-03    0.311E-03
DAV:  15    -0.184302794068E+02   -0.88704E-04   -0.76389E-06  4152   0.773E-03    0.112E-03
DAV:  16    -0.184302889132E+02   -0.95064E-05   -0.25452E-07  4296   0.239E-03
   1 F= -.18430289E+02 E0= -.18430289E+02  d E =-.192155E-12
