<?xml version="1.0" encoding="ISO-8859-1"?>
<modeling>
 <generator>
  <i name="program" type="string">vasp </i>
  <i name="version" type="string">5.4.1  </i>
  <i name="subversion" type="string">24Jun15 (build Nov 20 2020 10:29:34) complex                          parallel </i>
  <i name="platform" type="string">IFC91_ompi </i>
  <i name="date" type="string">2021 09 14 </i>
  <i name="time" type="string">00:22:46 </i>
 </generator>
 <incar>
  <i type="int" name="ISTART">     1</i>
  <i type="string" name="PREC">a</i>
  <i type="string" name="ALGO"> Normal</i>
  <i type="int" name="ISPIN">     1</i>
  <i type="int" name="ICHARG">     2</i>
  <i type="int" name="NELM">   250</i>
  <i type="int" name="NELMDL">    -5</i>
  <i type="int" name="NELMIN">     6</i>
  <i type="int" name="IBRION">     2</i>
  <i name="EDIFF">      0.00001000</i>
  <i name="EDIFFG">     -0.00500000</i>
  <i type="int" name="NSW">     0</i>
  <i type="int" name="ISIF">     2</i>
  <i name="ENCUT">    520.00000000</i>
  <i name="POTIM">      0.25000000</i>
  <v name="MAGMOM">      0.60000000      0.60000000</v>
  <i type="string" name="LREAL"> Auto</i>
  <i type="int" name="ISMEAR">     0</i>
  <i name="SIGMA">      0.02000000</i>
  <i type="logical" name="LWAVE"> F  </i>
  <i type="logical" name="LCHARG"> F  </i>
  <i type="logical" name="LVHAR"> F  </i>
  <v type="int" name="KPOINT_BSE">    -1     0     0     0</v>
  <i type="int" name="NELM">   250</i>
 </incar>
 <kpoints>
  <generation param="Gamma">
   <v type="int" name="divisions">      24       24        1 </v>
   <v name="usershift">      0.00000000       0.00000000       0.00000000 </v>
   <v name="genvec1">      0.04166667      -0.00000000       0.00000000 </v>
   <v name="genvec2">      0.00000000       0.04166667       0.00000000 </v>
   <v name="genvec3">      0.00000000       0.00000000       1.00000000 </v>
   <v name="shift">      0.00000000       0.00000000       0.00000000 </v>
  </generation>
  <varray name="kpointlist" >
   <v>       0.00000000       0.00000000       0.00000000 </v>
   <v>       0.04166667       0.00000000       0.00000000 </v>
   <v>       0.08333333       0.00000000       0.00000000 </v>
   <v>       0.12500000       0.00000000       0.00000000 </v>
   <v>       0.16666667       0.00000000       0.00000000 </v>
   <v>       0.20833333       0.00000000       0.00000000 </v>
   <v>       0.25000000       0.00000000       0.00000000 </v>
   <v>       0.29166667       0.00000000       0.00000000 </v>
   <v>       0.33333333       0.00000000       0.00000000 </v>
   <v>       0.37500000       0.00000000       0.00000000 </v>
   <v>       0.41666667       0.00000000       0.00000000 </v>
   <v>       0.45833333       0.00000000       0.00000000 </v>
   <v>       0.50000000       0.00000000       0.00000000 </v>
   <v>       0.00000000       0.04166667       0.00000000 </v>
   <v>       0.04166667       0.04166667       0.00000000 </v>
   <v>       0.08333333       0.04166667       0.00000000 </v>
   <v>       0.12500000       0.04166667       0.00000000 </v>
   <v>       0.16666667       0.04166667       0.00000000 </v>
   <v>       0.20833333       0.04166667       0.00000000 </v>
   <v>       0.25000000       0.04166667       0.00000000 </v>
   <v>       0.29166667       0.04166667       0.00000000 </v>
   <v>       0.33333333       0.04166667       0.00000000 </v>
   <v>       0.37500000       0.04166667       0.00000000 </v>
   <v>       0.41666667       0.04166667       0.00000000 </v>
   <v>       0.45833333       0.04166667       0.00000000 </v>
   <v>       0.50000000       0.04166667       0.00000000 </v>
   <v>      -0.45833333       0.04166667       0.00000000 </v>
   <v>      -0.41666667       0.04166667       0.00000000 </v>
   <v>      -0.37500000       0.04166667       0.00000000 </v>
   <v>      -0.33333333       0.04166667       0.00000000 </v>
   <v>      -0.29166667       0.04166667       0.00000000 </v>
   <v>      -0.25000000       0.04166667       0.00000000 </v>
   <v>      -0.20833333       0.04166667       0.00000000 </v>
   <v>      -0.16666667       0.04166667       0.00000000 </v>
   <v>      -0.12500000       0.04166667       0.00000000 </v>
   <v>      -0.08333333       0.04166667       0.00000000 </v>
   <v>       0.00000000       0.08333333       0.00000000 </v>
   <v>       0.04166667       0.08333333       0.00000000 </v>
   <v>       0.08333333       0.08333333       0.00000000 </v>
   <v>       0.12500000       0.08333333       0.00000000 </v>
   <v>       0.16666667       0.08333333       0.00000000 </v>
   <v>       0.20833333       0.08333333       0.00000000 </v>
   <v>       0.25000000       0.08333333       0.00000000 </v>
   <v>       0.29166667       0.08333333       0.00000000 </v>
   <v>       0.33333333       0.08333333       0.00000000 </v>
   <v>       0.37500000       0.08333333       0.00000000 </v>
   <v>       0.41666667       0.08333333       0.00000000 </v>
   <v>       0.45833333       0.08333333       0.00000000 </v>
   <v>       0.50000000       0.08333333       0.00000000 </v>
   <v>      -0.45833333       0.08333333       0.00000000 </v>
   <v>      -0.41666667       0.08333333       0.00000000 </v>
   <v>      -0.37500000       0.08333333       0.00000000 </v>
   <v>      -0.33333333       0.08333333       0.00000000 </v>
   <v>      -0.29166667       0.08333333       0.00000000 </v>
   <v>      -0.25000000       0.08333333       0.00000000 </v>
   <v>      -0.20833333       0.08333333       0.00000000 </v>
   <v>      -0.16666667       0.08333333       0.00000000 </v>
   <v>       0.00000000       0.12500000       0.00000000 </v>
   <v>       0.04166667       0.12500000       0.00000000 </v>
   <v>       0.08333333       0.12500000       0.00000000 </v>
   <v>       0.12500000       0.12500000       0.00000000 </v>
   <v>       0.16666667       0.12500000       0.00000000 </v>
   <v>       0.20833333       0.12500000       0.00000000 </v>
   <v>       0.25000000       0.12500000       0.00000000 </v>
   <v>       0.29166667       0.12500000       0.00000000 </v>
   <v>       0.33333333       0.12500000       0.00000000 </v>
   <v>       0.37500000       0.12500000       0.00000000 </v>
   <v>       0.41666667       0.12500000       0.00000000 </v>
   <v>       0.45833333       0.12500000       0.00000000 </v>
   <v>       0.50000000       0.12500000       0.00000000 </v>
   <v>      -0.45833333       0.12500000       0.00000000 </v>
   <v>      -0.41666667       0.12500000       0.00000000 </v>
   <v>      -0.37500000       0.12500000       0.00000000 </v>
   <v>      -0.33333333       0.12500000       0.00000000 </v>
   <v>      -0.29166667       0.12500000       0.00000000 </v>
   <v>      -0.25000000       0.12500000       0.00000000 </v>
   <v>       0.00000000       0.16666667       0.00000000 </v>
   <v>       0.04166667       0.16666667       0.00000000 </v>
   <v>       0.08333333       0.16666667       0.00000000 </v>
   <v>       0.12500000       0.16666667       0.00000000 </v>
   <v>       0.16666667       0.16666667       0.00000000 </v>
   <v>       0.20833333       0.16666667       0.00000000 </v>
   <v>       0.25000000       0.16666667       0.00000000 </v>
   <v>       0.29166667       0.16666667       0.00000000 </v>
   <v>       0.33333333       0.16666667       0.00000000 </v>
   <v>       0.37500000       0.16666667       0.00000000 </v>
   <v>       0.41666667       0.16666667       0.00000000 </v>
   <v>       0.45833333       0.16666667       0.00000000 </v>
   <v>       0.50000000       0.16666667       0.00000000 </v>
   <v>      -0.45833333       0.16666667       0.00000000 </v>
   <v>      -0.41666667       0.16666667       0.00000000 </v>
   <v>      -0.37500000       0.16666667       0.00000000 </v>
   <v>      -0.33333333       0.16666667       0.00000000 </v>
   <v>       0.00000000       0.20833333       0.00000000 </v>
   <v>       0.04166667       0.20833333       0.00000000 </v>
   <v>       0.08333333       0.20833333       0.00000000 </v>
   <v>       0.12500000       0.20833333       0.00000000 </v>
   <v>       0.16666667       0.20833333       0.00000000 </v>
   <v>       0.20833333       0.20833333       0.00000000 </v>
   <v>       0.25000000       0.20833333       0.00000000 </v>
   <v>       0.29166667       0.20833333       0.00000000 </v>
   <v>       0.33333333       0.20833333       0.00000000 </v>
   <v>       0.37500000       0.20833333       0.00000000 </v>
   <v>       0.41666667       0.20833333       0.00000000 </v>
   <v>       0.45833333       0.20833333       0.00000000 </v>
   <v>       0.50000000       0.20833333       0.00000000 </v>
   <v>      -0.45833333       0.20833333       0.00000000 </v>
   <v>      -0.41666667       0.20833333       0.00000000 </v>
   <v>       0.00000000       0.25000000       0.00000000 </v>
   <v>       0.04166667       0.25000000       0.00000000 </v>
   <v>       0.08333333       0.25000000       0.00000000 </v>
   <v>       0.12500000       0.25000000       0.00000000 </v>
   <v>       0.16666667       0.25000000       0.00000000 </v>
   <v>       0.20833333       0.25000000       0.00000000 </v>
   <v>       0.25000000       0.25000000       0.00000000 </v>
   <v>       0.29166667       0.25000000       0.00000000 </v>
   <v>       0.33333333       0.25000000       0.00000000 </v>
   <v>       0.37500000       0.25000000       0.00000000 </v>
   <v>       0.41666667       0.25000000       0.00000000 </v>
   <v>       0.45833333       0.25000000       0.00000000 </v>
   <v>       0.50000000       0.25000000       0.00000000 </v>
   <v>       0.00000000       0.29166667       0.00000000 </v>
   <v>       0.04166667       0.29166667       0.00000000 </v>
   <v>       0.08333333       0.29166667       0.00000000 </v>
   <v>       0.12500000       0.29166667       0.00000000 </v>
   <v>       0.16666667       0.29166667       0.00000000 </v>
   <v>       0.20833333       0.29166667       0.00000000 </v>
   <v>       0.25000000       0.29166667       0.00000000 </v>
   <v>       0.29166667       0.29166667       0.00000000 </v>
   <v>       0.33333333       0.29166667       0.00000000 </v>
   <v>       0.37500000       0.29166667       0.00000000 </v>
   <v>       0.41666667       0.29166667       0.00000000 </v>
   <v>       0.00000000       0.33333333       0.00000000 </v>
   <v>       0.04166667       0.33333333       0.00000000 </v>
   <v>       0.08333333       0.33333333       0.00000000 </v>
   <v>       0.12500000       0.33333333       0.00000000 </v>
   <v>       0.16666667       0.33333333       0.00000000 </v>
   <v>       0.20833333       0.33333333       0.00000000 </v>
   <v>       0.25000000       0.33333333       0.00000000 </v>
   <v>       0.29166667       0.33333333       0.00000000 </v>
   <v>       0.33333333       0.33333333       0.00000000 </v>
   <v>       0.00000000       0.37500000       0.00000000 </v>
   <v>       0.04166667       0.37500000       0.00000000 </v>
   <v>       0.08333333       0.37500000       0.00000000 </v>
   <v>       0.12500000       0.37500000       0.00000000 </v>
   <v>       0.16666667       0.37500000       0.00000000 </v>
   <v>       0.20833333       0.37500000       0.00000000 </v>
   <v>       0.25000000       0.37500000       0.00000000 </v>
   <v>       0.00000000       0.41666667       0.00000000 </v>
   <v>       0.04166667       0.41666667       0.00000000 </v>
   <v>       0.08333333       0.41666667       0.00000000 </v>
   <v>       0.12500000       0.41666667       0.00000000 </v>
   <v>       0.16666667       0.41666667       0.00000000 </v>
   <v>       0.00000000       0.45833333       0.00000000 </v>
   <v>       0.04166667       0.45833333       0.00000000 </v>
   <v>       0.08333333       0.45833333       0.00000000 </v>
   <v>       0.00000000       0.50000000       0.00000000 </v>
  </varray>
  <varray name="weights" >
   <v>       0.00173611 </v>
   <v>       0.00694444 </v>
   <v>       0.00694444 </v>
   <v>       0.00694444 </v>
   <v>       0.00694444 </v>
   <v>       0.00694444 </v>
   <v>       0.00694444 </v>
   <v>       0.00694444 </v>
   <v>       0.00694444 </v>
   <v>       0.00694444 </v>
   <v>       0.00694444 </v>
   <v>       0.00694444 </v>
   <v>       0.00347222 </v>
   <v>       0.00347222 </v>
   <v>       0.00694444 </v>
   <v>       0.00694444 </v>
   <v>       0.00694444 </v>
   <v>       0.00694444 </v>
   <v>       0.00694444 </v>
   <v>       0.00694444 </v>
   <v>       0.00694444 </v>
   <v>       0.00694444 </v>
   <v>       0.00694444 </v>
   <v>       0.00694444 </v>
   <v>       0.00694444 </v>
   <v>       0.00694444 </v>
   <v>       0.00694444 </v>
   <v>       0.00694444 </v>
   <v>       0.00694444 </v>
   <v>       0.00694444 </v>
   <v>       0.00694444 </v>
   <v>       0.00694444 </v>
   <v>       0.00694444 </v>
   <v>       0.00694444 </v>
   <v>       0.00694444 </v>
   <v>       0.00347222 </v>
   <v>       0.00347222 </v>
   <v>       0.00694444 </v>
   <v>       0.00694444 </v>
   <v>       0.00694444 </v>
   <v>       0.00694444 </v>
   <v>       0.00694444 </v>
   <v>       0.00694444 </v>
   <v>       0.00694444 </v>
   <v>       0.00694444 </v>
   <v>       0.00694444 </v>
   <v>       0.00694444 </v>
   <v>       0.00694444 </v>
   <v>       0.00694444 </v>
   <v>       0.00694444 </v>
   <v>       0.00694444 </v>
   <v>       0.00694444 </v>
   <v>       0.00694444 </v>
   <v>       0.00694444 </v>
   <v>       0.00694444 </v>
   <v>       0.00694444 </v>
   <v>       0.00347222 </v>
   <v>       0.00347222 </v>
   <v>       0.00694444 </v>
   <v>       0.00694444 </v>
   <v>       0.00694444 </v>
   <v>       0.00694444 </v>
   <v>       0.00694444 </v>
   <v>       0.00694444 </v>
   <v>       0.00694444 </v>
   <v>       0.00694444 </v>
   <v>       0.00694444 </v>
   <v>       0.00694444 </v>
   <v>       0.00694444 </v>
   <v>       0.00694444 </v>
   <v>       0.00694444 </v>
   <v>       0.00694444 </v>
   <v>       0.00694444 </v>
   <v>       0.00694444 </v>
   <v>       0.00694444 </v>
   <v>       0.00347222 </v>
   <v>       0.00347222 </v>
   <v>       0.00694444 </v>
   <v>       0.00694444 </v>
   <v>       0.00694444 </v>
   <v>       0.00694444 </v>
   <v>       0.00694444 </v>
   <v>       0.00694444 </v>
   <v>       0.00694444 </v>
   <v>       0.00694444 </v>
   <v>       0.00694444 </v>
   <v>       0.00694444 </v>
   <v>       0.00694444 </v>
   <v>       0.00694444 </v>
   <v>       0.00694444 </v>
   <v>       0.00694444 </v>
   <v>       0.00694444 </v>
   <v>       0.00347222 </v>
   <v>       0.00347222 </v>
   <v>       0.00694444 </v>
   <v>       0.00694444 </v>
   <v>       0.00694444 </v>
   <v>       0.00694444 </v>
   <v>       0.00694444 </v>
   <v>       0.00694444 </v>
   <v>       0.00694444 </v>
   <v>       0.00694444 </v>
   <v>       0.00694444 </v>
   <v>       0.00694444 </v>
   <v>       0.00694444 </v>
   <v>       0.00694444 </v>
   <v>       0.00694444 </v>
   <v>       0.00347222 </v>
   <v>       0.00347222 </v>
   <v>       0.00694444 </v>
   <v>       0.00694444 </v>
   <v>       0.00694444 </v>
   <v>       0.00694444 </v>
   <v>       0.00694444 </v>
   <v>       0.00694444 </v>
   <v>       0.00694444 </v>
   <v>       0.00694444 </v>
   <v>       0.00694444 </v>
   <v>       0.00694444 </v>
   <v>       0.00694444 </v>
   <v>       0.00347222 </v>
   <v>       0.00347222 </v>
   <v>       0.00694444 </v>
   <v>       0.00694444 </v>
   <v>       0.00694444 </v>
   <v>       0.00694444 </v>
   <v>       0.00694444 </v>
   <v>       0.00694444 </v>
   <v>       0.00694444 </v>
   <v>       0.00694444 </v>
   <v>       0.00694444 </v>
   <v>       0.00347222 </v>
   <v>       0.00347222 </v>
   <v>       0.00694444 </v>
   <v>       0.00694444 </v>
   <v>       0.00694444 </v>
   <v>       0.00694444 </v>
   <v>       0.00694444 </v>
   <v>       0.00694444 </v>
   <v>       0.00694444 </v>
   <v>       0.00347222 </v>
   <v>       0.00347222 </v>
   <v>       0.00694444 </v>
   <v>       0.00694444 </v>
   <v>       0.00694444 </v>
   <v>       0.00694444 </v>
   <v>       0.00694444 </v>
   <v>       0.00347222 </v>
   <v>       0.00347222 </v>
   <v>       0.00694444 </v>
   <v>       0.00694444 </v>
   <v>       0.00694444 </v>
   <v>       0.00347222 </v>
   <v>       0.00347222 </v>
   <v>       0.00694444 </v>
   <v>       0.00347222 </v>
   <v>       0.00173611 </v>
  </varray>
 </kpoints>
 <parameters>
  <separator name="general" >
   <i type="string" name="SYSTEM">unknown system</i>
   <i type="logical" name="LCOMPAT"> F  </i>
  </separator>
  <separator name="electronic" >
   <i type="string" name="PREC">a</i>
   <i name="ENMAX">    520.00000000</i>
   <i name="ENAUG">    644.87300000</i>
   <i name="EDIFF">      0.00001000</i>
   <i type="int" name="IALGO">    38</i>
   <i type="int" name="IWAVPR">    10</i>
   <i type="int" name="NBANDS">    12</i>
   <i name="NELECT">      8.00000000</i>
   <i type="int" name="TURBO">     0</i>
   <i type="int" name="IRESTART">     0</i>
   <i type="int" name="NREBOOT">     0</i>
   <i type="int" name="NMIN">     0</i>
   <i name="EREF">      0.00000000</i>
   <separator name="electronic smearing" >
    <i type="int" name="ISMEAR">     0</i>
    <i name="SIGMA">      0.02000000</i>
    <i name="KSPACING">      0.50000000</i>
    <i type="logical" name="KGAMMA"> T  </i>
   </separator>
   <separator name="electronic projectors" >
    <i type="logical" name="LREAL"> T  </i>
    <v name="ROPT">     -0.00025000</v>
    <i type="int" name="LMAXPAW">  -100</i>
    <i type="int" name="LMAXMIX">     2</i>
    <i type="logical" name="NLSPLINE"> F  </i>
   </separator>
   <separator name="electronic startup" >
    <i type="int" name="ISTART">     0</i>
    <i type="int" name="ICHARG">     2</i>
    <i type="int" name="INIWAV">     1</i>
   </separator>
   <separator name="electronic spin" >
    <i type="int" name="ISPIN">     1</i>
    <i type="logical" name="LNONCOLLINEAR"> F  </i>
    <v name="MAGMOM">      0.60000000      0.60000000</v>
    <i name="NUPDOWN">     -1.00000000</i>
    <i type="logical" name="LSORBIT"> F  </i>
    <v name="SAXIS">      0.00000000      0.00000000      1.00000000</v>
    <i type="logical" name="LSPIRAL"> F  </i>
    <v name="QSPIRAL">      0.00000000      0.00000000      0.00000000</v>
    <i type="logical" name="LZEROZ"> F  </i>
   </separator>
   <separator name="electronic exchange-correlation" >
    <i type="logical" name="LASPH"> F  </i>
    <i type="logical" name="LMETAGGA"> F  </i>
   </separator>
   <separator name="electronic convergence" >
    <i type="int" name="NELM">   250</i>
    <i type="int" name="NELMDL">    -5</i>
    <i type="int" name="NELMIN">     6</i>
    <i name="ENINI">    520.00000000</i>
    <separator name="electronic convergence detail" >
     <i type="logical" name="LDIAG"> T  </i>
     <i type="logical" name="LSUBROT"> F  </i>
     <i name="WEIMIN">      0.00000000</i>
     <i name="EBREAK">      0.00000021</i>
     <i name="DEPER">      0.30000000</i>
     <i type="int" name="NRMM">     4</i>
     <i name="TIME">      0.40000000</i>
    </separator>
   </separator>
   <separator name="electronic mixer" >
    <i name="AMIX">      0.40000000</i>
    <i name="BMIX">      1.00000000</i>
    <i name="AMIN">      0.10000000</i>
    <i name="AMIX_MAG">      1.60000000</i>
    <i name="BMIX_MAG">      1.00000000</i>
    <separator name="electronic mixer details" >
     <i type="int" name="IMIX">     4</i>
     <i type="logical" name="MIXFIRST"> F  </i>
     <i type="int" name="MAXMIX">   -45</i>
     <i name="WC">    100.00000000</i>
     <i type="int" name="INIMIX">     1</i>
     <i type="int" name="MIXPRE">     1</i>
     <i type="int" name="MREMOVE">     5</i>
    </separator>
   </separator>
   <separator name="electronic dipolcorrection" >
    <i type="logical" name="LDIPOL"> F  </i>
    <i type="logical" name="LMONO"> F  </i>
    <i type="int" name="IDIPOL">     0</i>
    <i name="EPSILON">      1.00000000</i>
    <v name="DIPOL">   -100.00000000   -100.00000000   -100.00000000</v>
    <i name="EFIELD">      0.00000000</i>
   </separator>
  </separator>
  <separator name="grids" >
   <i type="int" name="NGX">    20</i>
   <i type="int" name="NGY">    18</i>
   <i type="int" name="NGZ">   112</i>
   <i type="int" name="NGXF">    40</i>
   <i type="int" name="NGYF">    36</i>
   <i type="int" name="NGZF">   224</i>
   <i type="logical" name="ADDGRID"> F  </i>
  </separator>
  <separator name="ionic" >
   <i type="int" name="NSW">     0</i>
   <i type="int" name="IBRION">    -1</i>
   <i type="int" name="ISIF">     2</i>
   <i name="PSTRESS">      0.00000000</i>
   <i name="EDIFFG">     -0.00500000</i>
   <i type="int" name="NFREE">     1</i>
   <i name="POTIM">      0.25000000</i>
   <i name="SMASS">     -3.00000000</i>
   <i name="SCALEE">      1.00000000</i>
  </separator>
  <separator name="ionic md" >
   <i name="TEBEG">      0.00010000</i>
   <i name="TEEND">      0.00010000</i>
   <i type="int" name="NBLOCK">     1</i>
   <i type="int" name="KBLOCK">     1</i>
   <i type="int" name="NPACO">   256</i>
   <i name="APACO">     16.00000000</i>
  </separator>
  <separator name="symmetry" >
   <i type="int" name="ISYM">     2</i>
   <i name="SYMPREC">      0.00001000</i>
  </separator>
  <separator name="dos" >
   <i type="logical" name="LORBIT"> F  </i>
   <v name="RWIGS">     -1.00000000</v>
   <i type="int" name="NEDOS">   301</i>
   <i name="EMIN">     10.00000000</i>
   <i name="EMAX">    -10.00000000</i>
   <i name="EFERMI">      0.00000000</i>
  </separator>
  <separator name="writing" >
   <i type="int" name="NWRITE">     2</i>
   <i type="logical" name="LWAVE"> F  </i>
   <i type="logical" name="LCHARG"> F  </i>
   <i type="logical" name="LPARD"> F  </i>
   <i type="logical" name="LVTOT"> F  </i>
   <i type="logical" name="LVHAR"> F  </i>
   <i type="logical" name="LELF"> F  </i>
   <i type="logical" name="LOPTICS"> F  </i>
   <v name="STM">      0.00000000      0.00000000      0.00000000      0.00000000      0.00000000      0.00000000      0.00000000</v>
  </separator>
  <separator name="performance" >
   <i type="int" name="NPAR">     6</i>
   <i type="int" name="NSIM">     4</i>
   <i type="int" name="NBLK">    -1</i>
   <i type="logical" name="LPLANE"> T  </i>
   <i type="logical" name="LSCALAPACK"> T  </i>
   <i type="logical" name="LSCAAWARE"> F  </i>
   <i type="logical" name="LSCALU"> F  </i>
   <i type="logical" name="LASYNC"> F  </i>
   <i type="logical" name="LORBITALREAL"> F  </i>
  </separator>
  <separator name="miscellaneous" >
   <i type="int" name="IDIOT">     3</i>
   <i type="logical" name="LMUSIC"> F  </i>
   <v name="POMASS">     12.01100000</v>
   <v name="DARWINR">      0.00000000</v>
   <v name="DARWINV">      1.00000000</v>
   <i type="logical" name="LCORR"> T  </i>
  </separator>
  <i type="logical" name="GGA_COMPAT"> T  </i>
  <i type="logical" name="LBERRY"> F  </i>
  <i type="int" name="ICORELEVEL">     0</i>
  <i type="logical" name="LDAU"> F  </i>
  <i type="int" name="I_CONSTRAINED_M">     0</i>
  <separator name="electronic exchange-correlation" >
   <i type="string" name="GGA">--</i>
   <i type="int" name="VOSKOWN">     0</i>
   <i type="logical" name="LHFCALC"> F  </i>
   <i type="string" name="PRECFOCK"></i>
   <i type="logical" name="LSYMGRAD"> F  </i>
   <i type="logical" name="LHFONE"> F  </i>
   <i type="logical" name="LRHFCALC"> F  </i>
   <i type="logical" name="LTHOMAS"> F  </i>
   <i type="logical" name="LMODELHF"> F  </i>
   <i name="ENCUT4O">     -1.00000000</i>
   <i type="int" name="EXXOEP">     0</i>
   <i type="int" name="FOURORBIT">     0</i>
   <i name="AEXX">      0.00000000</i>
   <i name="HFALPHA">      0.00000000</i>
   <i name="MCALPHA">      0.00000000</i>
   <i name="ALDAX">      1.00000000</i>
   <i name="AGGAX">      1.00000000</i>
   <i name="ALDAC">      1.00000000</i>
   <i name="AGGAC">      1.00000000</i>
   <i type="int" name="NKREDX">     1</i>
   <i type="int" name="NKREDY">     1</i>
   <i type="int" name="NKREDZ">     1</i>
   <i type="logical" name="SHIFTRED"> F  </i>
   <i type="logical" name="ODDONLY"> F  </i>
   <i type="logical" name="EVENONLY"> F  </i>
   <i type="int" name="LMAXFOCK">     0</i>
   <i type="int" name="NMAXFOCKAE">     0</i>
   <i type="logical" name="LFOCKAEDFT"> F  </i>
   <i name="HFSCREEN">      0.00000000</i>
   <i name="HFSCREENC">      0.00000000</i>
   <i type="int" name="NBANDSGWLOW">     0</i>
  </separator>
  <separator name="vdW DFT" >
   <i type="logical" name="LUSE_VDW"> F  </i>
   <i name="Zab_VDW">     -0.84910000</i>
   <i name="PARAM1">      0.12340000</i>
   <i name="PARAM2">      1.00000000</i>
   <i name="PARAM3">      0.00000000</i>
  </separator>
  <separator name="model GW" >
   <i type="int" name="MODEL_GW">     0</i>
   <i name="MODEL_EPS0">     24.17862807</i>
   <i name="MODEL_ALPHA">      1.00000000</i>
  </separator>
  <separator name="linear response parameters" >
   <i type="logical" name="LEPSILON"> F  </i>
   <i type="logical" name="LRPA"> F  </i>
   <i type="logical" name="LNABLA"> F  </i>
   <i type="logical" name="LVEL"> F  </i>
   <i type="int" name="KINTER">     0</i>
   <i name="CSHIFT">      0.10000000</i>
   <i name="OMEGAMAX">     -1.00000000</i>
   <i name="DEG_THRESHOLD">      0.00200000</i>
  </separator>
  <separator name="orbital magnetization" >
   <i type="logical" name="NUCIND"> F  </i>
   <v name="MAGPOS">      0.00000000      0.00000000      0.00000000</v>
   <i type="logical" name="LNICSALL"> T  </i>
   <i type="logical" name="ORBITALMAG"> F  </i>
   <i type="logical" name="LMAGBLOCH"> F  </i>
   <i type="logical" name="LCHIMAG"> F  </i>
   <i type="logical" name="LGAUGE"> T  </i>
   <i type="int" name="MAGATOM">     0</i>
   <v name="MAGDIPOL">      0.00000000      0.00000000      0.00000000</v>
   <v name="AVECCONST">      0.00000000      0.00000000      0.00000000</v>
  </separator>
  <separator name="response functions" >
   <i type="logical" name="LADDER"> F  </i>
   <i type="logical" name="LFXC"> F  </i>
   <i type="logical" name="LHARTREE"> T  </i>
   <i type="int" name="IBSE">     0</i>
   <v type="int" name="KPOINT">    -1     0     0     0</v>
   <i type="logical" name="LTCTE"> F  </i>
   <i type="logical" name="LTETE"> F  </i>
   <i type="logical" name="LTRIPLET"> F  </i>
   <i type="logical" name="LFXCEPS"> F  </i>
   <i type="logical" name="LFXHEG"> F  </i>
   <i type="int" name="NATURALO">     0</i>
   <i type="logical" name="L2ORDER"> F  </i>
   <i type="logical" name="LUSEW"> F  </i>
   <i name="ENCUTGW">     -2.00000000</i>
   <i name="ENCUTGWSOFT">     -2.00000000</i>
   <i name="ENCUTLF">     -1.00000000</i>
   <i type="int" name="LMAXMP2">    -1</i>
   <i name="SCISSOR">      0.00000000</i>
   <i type="int" name="NOMEGA">     0</i>
   <i type="int" name="NOMEGAR">     0</i>
   <i type="int" name="NBANDSGW">    -1</i>
   <i type="int" name="NBANDSO">    -1</i>
   <i type="int" name="NBANDSV">    -1</i>
   <i type="int" name="NELM">   250</i>
   <i type="int" name="NELMHF">     1</i>
   <i type="int" name="DIM">     3</i>
   <i type="int" name="ANTIRES">     0</i>
   <i name="OMEGAMAX">    -30.00000000</i>
   <i name="OMEGAMIN">    -30.00000000</i>
   <i name="OMEGATL">   -200.00000000</i>
   <i type="int" name="OMEGAGRID">     0</i>
   <i name="CSHIFT">     -0.10000000</i>
   <i type="logical" name="SELFENERGY"> F  </i>
   <i type="logical" name="LSPECTRAL"> F  </i>
   <i type="logical" name="LSPECTRALGW"> F  </i>
   <i type="logical" name="LSINGLES"> F  </i>
   <i type="logical" name="LFERMIGW"> F  </i>
   <i type="logical" name="ODDONLYGW"> F  </i>
   <i type="logical" name="EVENONLYGW"> F  </i>
   <i type="int" name="NKREDLFX">     1</i>
   <i type="int" name="NKREDLFY">     1</i>
   <i type="int" name="NKREDLFZ">     1</i>
   <i type="int" name="MAXMEM">  1800</i>
   <i type="int" name="TELESCOPE">     0</i>
   <i type="int" name="TAUPAR">     1</i>
   <i type="int" name="OMEGAPAR">    -1</i>
   <i name="LAMBDA">      1.00000000</i>
  </separator>
  <separator name="External order field" >
   <i name="OFIELD_KAPPA">      0.00000000</i>
   <v name="OFIELD_K">      0.00000000      0.00000000      0.00000000</v>
   <i name="OFIELD_Q6_NEAR">      0.00000000</i>
   <i name="OFIELD_Q6_FAR">      0.00000000</i>
   <i name="OFIELD_A">      0.00000000</i>
  </separator>
 </parameters>
 <atominfo>
  <atoms>       2 </atoms>
  <types>       1 </types>
  <array name="atoms" >
   <dimension dim="1">ion</dimension>
   <field type="string">element</field>
   <field type="int">atomtype</field>
   <set>
    <rc><c>C </c><c>   1</c></rc>
    <rc><c>C </c><c>   1</c></rc>
   </set>
  </array>
  <array name="atomtypes" >
   <dimension dim="1">type</dimension>
   <field type="int">atomspertype</field>
   <field type="string">element</field>
   <field>mass</field>
   <field>valence</field>
   <field type="string">pseudopotential</field>
   <set>
    <rc><c>   2</c><c>C </c><c>     12.01100000</c><c>      4.00000000</c><c>  PAW_PBE C 08Apr2002                   </c></rc>
   </set>
  </array>
 </atominfo>
 <structure name="initialpos" >
  <crystal>
   <varray name="basis" >
    <v>       2.51386100       0.00000000       0.00000000 </v>
    <v>      -1.25693100       2.13736100       0.00000000 </v>
    <v>       0.00000000       0.00000000      15.00000000 </v>
   </varray>
   <i name="volume">     80.59542691 </i>
   <varray name="rec_basis" >
    <v>       0.39779447       0.23393343       0.00000000 </v>
    <v>       0.00000000       0.46786668       0.00000000 </v>
    <v>       0.00000000       0.00000000       0.06666667 </v>
   </varray>
  </crystal>
  <varray name="positions" >
   <v>       0.99993204       0.99986408       0.50000000 </v>
   <v>       0.33340096       0.66680292       0.50000000 </v>
  </varray>
 </structure>
 <calculation>
  <scstep>
   <time name="dav">    0.44    0.44</time>
   <time name="total">    0.45    0.46</time>
   <energy>
    <i name="alphaZ">      4.07699142 </i>
    <i name="ewald">    814.74588815 </i>
    <i name="hartreedc">  -1035.06685309 </i>
    <i name="XCdc">     26.22597047 </i>
    <i name="pawpsdc">    217.04409276 </i>
    <i name="pawaedc">   -218.18290438 </i>
    <i name="eentropy">     -0.00020895 </i>
    <i name="bandstr">    -67.62413984 </i>
    <i name="atom">    294.29778662 </i>
    <i name="e_fr_energy">     35.51662317 </i>
    <i name="e_wo_entrp">     35.51683212 </i>
    <i name="e_0_energy">     35.51672764 </i>
   </energy>
  </scstep>
  <scstep>
   <time name="dav">    0.60    0.60</time>
   <time name="total">    0.60    0.61</time>
   <energy>
    <i name="e_fr_energy">    -18.02239420 </i>
    <i name="e_wo_entrp">    -18.02239420 </i>
    <i name="e_0_energy">    -18.02239420 </i>
   </energy>
  </scstep>
  <scstep>
   <time name="dav">    0.67    0.68</time>
   <time name="total">    0.68    0.68</time>
   <energy>
    <i name="e_fr_energy">    -19.58683773 </i>
    <i name="e_wo_entrp">    -19.58683773 </i>
    <i name="e_0_energy">    -19.58683773 </i>
   </energy>
  </scstep>
  <scstep>
   <time name="dav">    0.67    0.67</time>
   <time name="total">    0.67    0.67</time>
   <energy>
    <i name="e_fr_energy">    -19.59301404 </i>
    <i name="e_wo_entrp">    -19.59301404 </i>
    <i name="e_0_energy">    -19.59301404 </i>
   </energy>
  </scstep>
  <scstep>
   <time name="dav">    0.67    0.67</time>
   <time name="total">    0.69    0.69</time>
   <energy>
    <i name="e_fr_energy">    -19.59302101 </i>
    <i name="e_wo_entrp">    -19.59302101 </i>
    <i name="e_0_energy">    -19.59302101 </i>
   </energy>
  </scstep>
  <scstep>
   <time name="dav">    0.58    0.58</time>
   <time name="total">    0.61    0.61</time>
   <energy>
    <i name="e_fr_energy">    -18.76066212 </i>
    <i name="e_wo_entrp">    -18.76066212 </i>
    <i name="e_0_energy">    -18.76066212 </i>
   </energy>
  </scstep>
  <scstep>
   <time name="dav">    0.62    0.62</time>
   <time name="total">    0.64    0.64</time>
   <energy>
    <i name="e_fr_energy">    -18.43902216 </i>
    <i name="e_wo_entrp">    -18.43902216 </i>
    <i name="e_0_energy">    -18.43902216 </i>
   </energy>
  </scstep>
  <scstep>
   <time name="dav">    0.61    0.61</time>
   <time name="total">    0.64    0.64</time>
   <energy>
    <i name="e_fr_energy">    -18.43210460 </i>
    <i name="e_wo_entrp">    -18.43210460 </i>
    <i name="e_0_energy">    -18.43210460 </i>
   </energy>
  </scstep>
  <scstep>
   <time name="dav">    0.56    0.57</time>
   <time name="total">    0.59    0.59</time>
   <energy>
    <i name="e_fr_energy">    -18.43024577 </i>
    <i name="e_wo_entrp">    -18.43024577 </i>
    <i name="e_0_energy">    -18.43024577 </i>
   </energy>
  </scstep>
  <scstep>
   <time name="dav">    0.51    0.51</time>
   <time name="total">    0.53    0.53</time>
   <energy>
    <i name="e_fr_energy">    -18.42902679 </i>
    <i name="e_wo_entrp">    -18.42902679 </i>
    <i name="e_0_energy">    -18.42902679 </i>
   </energy>
  </scstep>
  <scstep>
   <time name="dav">    0.48    0.48</time>
   <time name="total">    0.51    0.51</time>
   <energy>
    <i name="e_fr_energy">    -18.42918286 </i>
    <i name="e_wo_entrp">    -18.42918286 </i>
    <i name="e_0_energy">    -18.42918286 </i>
   </energy>
  </scstep>
  <scstep>
   <time name="dav">    0.49    0.49</time>
   <time name="total">    0.52    0.52</time>
   <energy>
    <i name="e_fr_energy">    -18.42944246 </i>
    <i name="e_wo_entrp">    -18.42944246 </i>
    <i name="e_0_energy">    -18.42944246 </i>
   </energy>
  </scstep>
  <scstep>
   <time name="dav">    0.49    0.49</time>
   <time name="total">    0.51    0.52</time>
   <energy>
    <i name="e_fr_energy">    -18.43012906 </i>
    <i name="e_wo_entrp">    -18.43012906 </i>
    <i name="e_0_energy">    -18.43012906 </i>
   </energy>
  </scstep>
  <scstep>
   <time name="dav">    0.58    0.58</time>
   <time name="total">    0.60    0.61</time>
   <energy>
    <i name="e_fr_energy">    -18.43019070 </i>
    <i name="e_wo_entrp">    -18.43019070 </i>
    <i name="e_0_energy">    -18.43019070 </i>
   </energy>
  </scstep>
  <scstep>
   <time name="dav">    0.48    0.48</time>
   <time name="total">    0.50    0.50</time>
   <energy>
    <i name="e_fr_energy">    -18.43027941 </i>
    <i name="e_wo_entrp">    -18.43027941 </i>
    <i name="e_0_energy">    -18.43027941 </i>
   </energy>
  </scstep>
  <scstep>
   <time name="dav">    0.50    0.50</time>
   <time name="total">    0.50    0.51</time>
   <energy>
    <i name="alphaZ">      4.07699142 </i>
    <i name="ewald">    814.74588815 </i>
    <i name="hartreedc">  -1066.55372851 </i>
    <i name="XCdc">     27.36353261 </i>
    <i name="pawpsdc">    798.19587386 </i>
    <i name="pawaedc">   -799.54906774 </i>
    <i name="eentropy">     -0.00000000 </i>
    <i name="bandstr">    -91.00756533 </i>
    <i name="atom">    294.29778662 </i>
    <i name="e_fr_energy">    -18.43028891 </i>
    <i name="e_wo_entrp">    -18.43028891 </i>
    <i name="e_0_energy">    -18.43028891 </i>
   </energy>
  </scstep>
  <structure>
   <crystal>
    <varray name="basis" >
     <v>       2.51386100       0.00000000       0.00000000 </v>
     <v>      -1.25693100       2.13736100       0.00000000 </v>
     <v>       0.00000000       0.00000000      15.00000000 </v>
    </varray>
    <i name="volume">     80.59542691 </i>
    <varray name="rec_basis" >
     <v>       0.39779447       0.23393343       0.00000000 </v>
     <v>       0.00000000       0.46786668       0.00000000 </v>
     <v>       0.00000000       0.00000000       0.06666667 </v>
    </varray>
   </crystal>
   <varray name="positions" >
    <v>       0.99993204       0.99986408       0.50000000 </v>
    <v>       0.33340096       0.66680292       0.50000000 </v>
   </varray>
  </structure>
  <varray name="forces" >
   <v>       0.00000003      -0.12049447       0.00000000 </v>
   <v>      -0.00000003       0.12049447       0.00000000 </v>
  </varray>
  <varray name="stress" >
   <v>     -41.13894496       0.00000162       0.00000000 </v>
   <v>       0.00000162      -6.90457168       0.00000000 </v>
   <v>       0.00000000       0.00000000      -0.11467934 </v>
  </varray>
  <energy>
   <i name="e_fr_energy">    -18.43028891 </i>
   <i name="e_wo_entrp">    -18.43028891 </i>
   <i name="e_0_energy">     -0.00000000 </i>
  </energy>
  <time name="totalsc">    9.63    9.66</time>
  <eigenvalues>
   <array>
    <dimension dim="1">band</dimension>
    <dimension dim="2">kpoint</dimension>
    <dimension dim="3">spin</dimension>
    <field>eigene</field>
    <field>occ</field>
    <set>
     <set comment="spin 1">
      <set comment="kpoint 1">
       <r>  -21.6282    1.0000 </r>
       <r>   -9.7694    1.0000 </r>
       <r>   -5.4351    1.0000 </r>
       <r>   -5.3521    1.0000 </r>
       <r>    0.9955    0.0000 </r>
       <r>    1.9046    0.0000 </r>
       <r>    2.3626    0.0000 </r>
       <r>    4.3231    0.0000 </r>
       <r>    5.0678    0.0000 </r>
       <r>    5.5822    0.0000 </r>
       <r>    5.9218    0.0000 </r>
       <r>    8.1977    0.0000 </r>
      </set>
      <set comment="kpoint 2">
       <r>  -21.5883    1.0000 </r>
       <r>   -9.7220    1.0000 </r>
       <r>   -5.5926    1.0000 </r>
       <r>   -5.4490    1.0000 </r>
       <r>    1.0496    0.0000 </r>
       <r>    1.9592    0.0000 </r>
       <r>    2.4177    0.0000 </r>
       <r>    4.3773    0.0000 </r>
       <r>    5.1195    0.0000 </r>
       <r>    5.6501    0.0000 </r>
       <r>    6.0669    0.0000 </r>
       <r>    8.2500    0.0000 </r>
      </set>
      <set comment="kpoint 3">
       <r>  -21.4686    1.0000 </r>
       <r>   -9.5803    1.0000 </r>
       <r>   -6.0710    1.0000 </r>
       <r>   -5.6892    1.0000 </r>
       <r>    1.2119    0.0000 </r>
       <r>    2.1226    0.0000 </r>
       <r>    2.5831    0.0000 </r>
       <r>    4.5397    0.0000 </r>
       <r>    5.2743    0.0000 </r>
       <r>    5.7758    0.0000 </r>
       <r>    6.5252    0.0000 </r>
       <r>    8.1558    0.0000 </r>
      </set>
      <set comment="kpoint 4">
       <r>  -21.2694    1.0000 </r>
       <r>   -9.3451    1.0000 </r>
       <r>   -6.8014    1.0000 </r>
       <r>   -6.0334    1.0000 </r>
       <r>    1.4824    0.0000 </r>
       <r>    2.3947    0.0000 </r>
       <r>    2.8587    0.0000 </r>
       <r>    4.8097    0.0000 </r>
       <r>    5.5234    0.0000 </r>
       <r>    5.8702    0.0000 </r>
       <r>    7.2733    0.0000 </r>
       <r>    7.5222    0.0000 </r>
      </set>
      <set comment="kpoint 5">
       <r>  -20.9914    1.0000 </r>
       <r>   -9.0183    1.0000 </r>
       <r>   -7.7040    1.0000 </r>
       <r>   -6.4377    1.0000 </r>
       <r>    1.8611    0.0000 </r>
       <r>    2.7746    0.0000 </r>
       <r>    3.2446    0.0000 </r>
       <r>    5.1851    0.0000 </r>
       <r>    5.7445    0.0000 </r>
       <r>    6.0158    0.0000 </r>
       <r>    6.7029    0.0000 </r>
       <r>    8.2478    0.0000 </r>
      </set>
      <set comment="kpoint 6">
       <r>  -20.6354    1.0000 </r>
       <r>   -8.7127    1.0000 </r>
       <r>   -8.6027    1.0000 </r>
       <r>   -6.8611    1.0000 </r>
       <r>    2.3475    0.0000 </r>
       <r>    3.2599    0.0000 </r>
       <r>    3.7405    0.0000 </r>
       <r>    5.5881    0.0000 </r>
       <r>    5.7063    0.0000 </r>
       <r>    5.8247    0.0000 </r>
       <r>    6.4505    0.0000 </r>
       <r>    9.4989    0.0000 </r>
      </set>
      <set comment="kpoint 7">
       <r>  -20.2027    1.0000 </r>
       <r>   -9.7776    1.0000 </r>
       <r>   -8.1028    1.0000 </r>
       <r>   -7.2717    1.0000 </r>
       <r>    2.9410    0.0000 </r>
       <r>    3.8308    0.0000 </r>
       <r>    4.3458    0.0000 </r>
       <r>    4.6885    0.0000 </r>
       <r>    5.5797    0.0000 </r>
       <r>    6.2824    0.0000 </r>
       <r>    7.0342    0.0000 </r>
       <r>   10.0601    0.0000 </r>
      </set>
      <set comment="kpoint 8">
       <r>  -19.6953    1.0000 </r>
       <r>  -10.8622    1.0000 </r>
       <r>   -7.6466    1.0000 </r>
       <r>   -7.5260    1.0000 </r>
       <r>    3.5055    0.0000 </r>
       <r>    3.6401    0.0000 </r>
       <r>    4.6093    0.0000 </r>
       <r>    5.0538    0.0000 </r>
       <r>    5.4374    0.0000 </r>
       <r>    6.9766    0.0000 </r>
       <r>    7.7312    0.0000 </r>
       <r>   10.7102    0.0000 </r>
      </set>
      <set comment="kpoint 9">
       <r>  -19.1159    1.0000 </r>
       <r>  -11.9391    1.0000 </r>
       <r>   -7.9697    1.0000 </r>
       <r>   -6.8846    1.0000 </r>
       <r>    2.4049    0.0000 </r>
       <r>    4.4392    0.0000 </r>
       <r>    5.2750    0.0000 </r>
       <r>    5.4004    0.0000 </r>
       <r>    5.9009    0.0000 </r>
       <r>    7.7768    0.0000 </r>
       <r>    8.5360    0.0000 </r>
       <r>   11.4317    0.0000 </r>
      </set>
      <set comment="kpoint 10">
       <r>  -18.4699    1.0000 </r>
       <r>  -12.9866    1.0000 </r>
       <r>   -8.2303    1.0000 </r>
       <r>   -6.2020    1.0000 </r>
       <r>    1.3284    0.0000 </r>
       <r>    5.0878    0.0000 </r>
       <r>    5.4128    0.0000 </r>
       <r>    6.3110    0.0000 </r>
       <r>    6.8325    0.0000 </r>
       <r>    8.6766    0.0000 </r>
       <r>    9.4453    0.0000 </r>
       <r>   12.1598    0.0000 </r>
      </set>
      <set comment="kpoint 11">
       <r>  -17.7688    1.0000 </r>
       <r>  -13.9814    1.0000 </r>
       <r>   -8.4209    1.0000 </r>
       <r>   -5.5268    1.0000 </r>
       <r>    0.3571    0.0000 </r>
       <r>    5.0259    0.0000 </r>
       <r>    6.3898    0.0000 </r>
       <r>    7.3243    0.0000 </r>
       <r>    7.8767    0.0000 </r>
       <r>    9.6663    0.0000 </r>
       <r>   10.4533    0.0000 </r>
       <r>   11.2611    0.0000 </r>
      </set>
      <set comment="kpoint 12">
       <r>  -17.0551    1.0000 </r>
       <r>  -14.8741    1.0000 </r>
       <r>   -8.5369    1.0000 </r>
       <r>   -4.9680    1.0000 </r>
       <r>   -0.3847    0.0000 </r>
       <r>    4.9683    0.0000 </r>
       <r>    7.4956    0.0000 </r>
       <r>    8.4312    0.0000 </r>
       <r>    9.0291    0.0000 </r>
       <r>    9.9702    0.0000 </r>
       <r>   10.6331    0.0000 </r>
       <r>   11.0248    0.0000 </r>
      </set>
      <set comment="kpoint 13">
       <r>  -16.6141    1.0000 </r>
       <r>  -15.3751    1.0000 </r>
       <r>   -8.5759    1.0000 </r>
       <r>   -4.7327    1.0000 </r>
       <r>   -0.6819    0.0000 </r>
       <r>    4.9482    0.0000 </r>
       <r>    8.6134    0.0000 </r>
       <r>    8.7805    0.0000 </r>
       <r>    9.5129    0.0000 </r>
       <r>    9.7404    0.0000 </r>
       <r>   10.2766    0.0000 </r>
       <r>   10.3044    0.0000 </r>
      </set>
      <set comment="kpoint 14">
       <r>  -21.5871    1.0000 </r>
       <r>   -9.7206    1.0000 </r>
       <r>   -5.5271    1.0000 </r>
       <r>   -5.5134    1.0000 </r>
       <r>    1.0512    0.0000 </r>
       <r>    1.9607    0.0000 </r>
       <r>    2.4193    0.0000 </r>
       <r>    4.3788    0.0000 </r>
       <r>    5.1223    0.0000 </r>
       <r>    5.7631    0.0000 </r>
       <r>    5.9093    0.0000 </r>
       <r>    8.2515    0.0000 </r>
      </set>
      <set comment="kpoint 15">
       <r>  -21.5061    1.0000 </r>
       <r>   -9.6246    1.0000 </r>
       <r>   -5.8722    1.0000 </r>
       <r>   -5.6540    1.0000 </r>
       <r>    1.1611    0.0000 </r>
       <r>    2.0712    0.0000 </r>
       <r>    2.5311    0.0000 </r>
       <r>    4.4887    0.0000 </r>
       <r>    5.2286    0.0000 </r>
       <r>    5.8718    0.0000 </r>
       <r>    6.1538    0.0000 </r>
       <r>    8.2909    0.0000 </r>
      </set>
      <set comment="kpoint 16">
       <r>  -21.3456    1.0000 </r>
       <r>   -9.4346    1.0000 </r>
       <r>   -6.4848    1.0000 </r>
       <r>   -5.9373    1.0000 </r>
       <r>    1.3791    0.0000 </r>
       <r>    2.2905    0.0000 </r>
       <r>    2.7532    0.0000 </r>
       <r>    4.7065    0.0000 </r>
       <r>    5.4378    0.0000 </r>
       <r>    5.9647    0.0000 </r>
       <r>    6.7091    0.0000 </r>
       <r>    7.7770    0.0000 </r>
      </set>
      <set comment="kpoint 17">
       <r>  -21.1058    1.0000 </r>
       <r>   -9.1522    1.0000 </r>
       <r>   -7.2962    1.0000 </r>
       <r>   -6.3165    1.0000 </r>
       <r>    1.7053    0.0000 </r>
       <r>    2.6181    0.0000 </r>
       <r>    3.0856    0.0000 </r>
       <r>    5.0312    0.0000 </r>
       <r>    5.7321    0.0000 </r>
       <r>    6.0357    0.0000 </r>
       <r>    7.0526    0.0000 </r>
       <r>    7.4770    0.0000 </r>
      </set>
      <set comment="kpoint 18">
       <r>  -20.7876    1.0000 </r>
       <r>   -8.7795    1.0000 </r>
       <r>   -8.2429    1.0000 </r>
       <r>   -6.7398    1.0000 </r>
       <r>    2.1396    0.0000 </r>
       <r>    3.0528    0.0000 </r>
       <r>    3.5282    0.0000 </r>
       <r>    5.4549    0.0000 </r>
       <r>    5.8915    0.0000 </r>
       <r>    6.1739    0.0000 </r>
       <r>    6.2649    0.0000 </r>
       <r>    8.4229    0.0000 </r>
      </set>
      <set comment="kpoint 19">
       <r>  -20.3921    1.0000 </r>
       <r>   -9.2710    1.0000 </r>
       <r>   -8.3201    1.0000 </r>
       <r>   -7.1671    1.0000 </r>
       <r>    2.6813    0.0000 </r>
       <r>    3.5886    0.0000 </r>
       <r>    4.0807    0.0000 </r>
       <r>    5.1438    0.0000 </r>
       <r>    5.8076    0.0000 </r>
       <r>    6.0257    0.0000 </r>
       <r>    6.7780    0.0000 </r>
       <r>    9.4954    0.0000 </r>
      </set>
      <set comment="kpoint 20">
       <r>  -19.9208    1.0000 </r>
       <r>  -10.3382    1.0000 </r>
       <r>   -7.7798    1.0000 </r>
       <r>   -7.5693    1.0000 </r>
       <r>    3.3297    0.0000 </r>
       <r>    3.9500    0.0000 </r>
       <r>    4.3601    0.0000 </r>
       <r>    4.7419    0.0000 </r>
       <r>    5.6699    0.0000 </r>
       <r>    6.6639    0.0000 </r>
       <r>    7.4202    0.0000 </r>
       <r>   10.4169    0.0000 </r>
      </set>
      <set comment="kpoint 21">
       <r>  -19.3761    1.0000 </r>
       <r>  -11.4131    1.0000 </r>
       <r>   -7.9268    1.0000 </r>
       <r>   -7.1680    1.0000 </r>
       <r>    2.9209    0.0000 </r>
       <r>    4.0826    0.0000 </r>
       <r>    5.0357    0.0000 </r>
       <r>    5.4531    0.0000 </r>
       <r>    5.5840    0.0000 </r>
       <r>    7.4126    0.0000 </r>
       <r>    8.1728    0.0000 </r>
       <r>   11.0996    0.0000 </r>
      </set>
      <set comment="kpoint 22">
       <r>  -18.7618    1.0000 </r>
       <r>  -12.4710    1.0000 </r>
       <r>   -8.2261    1.0000 </r>
       <r>   -6.5017    1.0000 </r>
       <r>    1.8279    0.0000 </r>
       <r>    4.9260    0.0000 </r>
       <r>    5.3921    0.0000 </r>
       <r>    5.8925    0.0000 </r>
       <r>    6.4073    0.0000 </r>
       <r>    8.2627    0.0000 </r>
       <r>    9.0316    0.0000 </r>
       <r>   11.8225    0.0000 </r>
      </set>
      <set comment="kpoint 23">
       <r>  -18.0855    1.0000 </r>
       <r>  -13.4900    1.0000 </r>
       <r>   -8.4584    1.0000 </r>
       <r>   -5.8141    1.0000 </r>
       <r>    0.7991    0.0000 </r>
       <r>    5.2389    0.0000 </r>
       <r>    5.9333    0.0000 </r>
       <r>    6.8553    0.0000 </r>
       <r>    7.3976    0.0000 </r>
       <r>    9.2063    0.0000 </r>
       <r>    9.9927    0.0000 </r>
       <r>   11.7899    0.0000 </r>
      </set>
      <set comment="kpoint 24">
       <r>  -17.3684    1.0000 </r>
       <r>  -14.4393    1.0000 </r>
       <r>   -8.6178    1.0000 </r>
       <r>   -5.1784    1.0000 </r>
       <r>   -0.0728    0.0000 </r>
       <r>    5.1723    0.0000 </r>
       <r>    6.9866    0.0000 </r>
       <r>    7.9146    0.0000 </r>
       <r>    8.4977    0.0000 </r>
       <r>   10.2179    0.0000 </r>
       <r>   10.6059    0.0000 </r>
       <r>   11.0613    0.0000 </r>
      </set>
      <set comment="kpoint 25">
       <r>  -16.7176    1.0000 </r>
       <r>  -15.2062    1.0000 </r>
       <r>   -8.7009    1.0000 </r>
       <r>   -4.7546    1.0000 </r>
       <r>   -0.6167    0.0000 </r>
       <r>    5.1367    0.0000 </r>
       <r>    8.1383    0.0000 </r>
       <r>    9.0519    0.0000 </r>
       <r>    9.3408    0.0000 </r>
       <r>    9.7094    0.0000 </r>
       <r>   10.2429    0.0000 </r>
       <r>   10.9788    0.0000 </r>
      </set>
      <set comment="kpoint 26">
       <r>  -16.7337    1.0000 </r>
       <r>  -15.1872    1.0000 </r>
       <r>   -8.7060    1.0000 </r>
       <r>   -4.7620    1.0000 </r>
       <r>   -0.6084    0.0000 </r>
       <r>    5.1407    0.0000 </r>
       <r>    8.1011    0.0000 </r>
       <r>    9.0177    0.0000 </r>
       <r>    9.3839    0.0000 </r>
       <r>    9.6739    0.0000 </r>
       <r>   10.2752    0.0000 </r>
       <r>   11.0194    0.0000 </r>
      </set>
      <set comment="kpoint 27">
       <r>  -17.3914    1.0000 </r>
       <r>  -14.4077    1.0000 </r>
       <r>   -8.6330    1.0000 </r>
       <r>   -5.1955    1.0000 </r>
       <r>   -0.0528    0.0000 </r>
       <r>    5.1838    0.0000 </r>
       <r>    6.9541    0.0000 </r>
       <r>    7.8818    0.0000 </r>
       <r>    8.4650    0.0000 </r>
       <r>   10.1858    0.0000 </r>
       <r>   10.6631    0.0000 </r>
       <r>   11.0280    0.0000 </r>
      </set>
      <set comment="kpoint 28">
       <r>  -18.1075    1.0000 </r>
       <r>  -13.4536    1.0000 </r>
       <r>   -8.4834    1.0000 </r>
       <r>   -5.8347    1.0000 </r>
       <r>    0.8239    0.0000 </r>
       <r>    5.2546    0.0000 </r>
       <r>    5.9075    0.0000 </r>
       <r>    6.8251    0.0000 </r>
       <r>    7.3682    0.0000 </r>
       <r>    9.1757    0.0000 </r>
       <r>    9.9624    0.0000 </r>
       <r>   11.9060    0.0000 </r>
      </set>
      <set comment="kpoint 29">
       <r>  -18.7817    1.0000 </r>
       <r>  -12.4311    1.0000 </r>
       <r>   -8.2605    1.0000 </r>
       <r>   -6.5225    1.0000 </r>
       <r>    1.8533    0.0000 </r>
       <r>    4.8982    0.0000 </r>
       <r>    5.4186    0.0000 </r>
       <r>    5.8652    0.0000 </r>
       <r>    6.3816    0.0000 </r>
       <r>    8.2350    0.0000 </r>
       <r>    9.0052    0.0000 </r>
       <r>   11.7903    0.0000 </r>
      </set>
      <set comment="kpoint 30">
       <r>  -19.3936    1.0000 </r>
       <r>  -11.3702    1.0000 </r>
       <r>   -7.9697    1.0000 </r>
       <r>   -7.1876    1.0000 </r>
       <r>    2.9443    0.0000 </r>
       <r>    4.0582    0.0000 </r>
       <r>    5.0112    0.0000 </r>
       <r>    5.4476    0.0000 </r>
       <r>    5.5966    0.0000 </r>
       <r>    7.3880    0.0000 </r>
       <r>    8.1502    0.0000 </r>
       <r>   11.0716    0.0000 </r>
      </set>
      <set comment="kpoint 31">
       <r>  -19.9360    1.0000 </r>
       <r>  -10.2931    1.0000 </r>
       <r>   -7.7975    1.0000 </r>
       <r>   -7.6192    1.0000 </r>
       <r>    3.3087    0.0000 </r>
       <r>    3.9638    0.0000 </r>
       <r>    4.3441    0.0000 </r>
       <r>    4.7213    0.0000 </r>
       <r>    5.6989    0.0000 </r>
       <r>    6.6422    0.0000 </r>
       <r>    7.4016    0.0000 </r>
       <r>   10.3932    0.0000 </r>
      </set>
      <set comment="kpoint 32">
       <r>  -20.4049    1.0000 </r>
       <r>   -9.2252    1.0000 </r>
       <r>   -8.3355    1.0000 </r>
       <r>   -7.2209    1.0000 </r>
       <r>    2.6636    0.0000 </r>
       <r>    3.5727    0.0000 </r>
       <r>    4.0633    0.0000 </r>
       <r>    5.1555    0.0000 </r>
       <r>    5.8258    0.0000 </r>
       <r>    6.0063    0.0000 </r>
       <r>    6.7645    0.0000 </r>
       <r>    9.7925    0.0000 </r>
      </set>
      <set comment="kpoint 33">
       <r>  -20.7980    1.0000 </r>
       <r>   -8.7923    1.0000 </r>
       <r>   -8.2001    1.0000 </r>
       <r>   -6.7924    1.0000 </r>
       <r>    2.1250    0.0000 </r>
       <r>    3.0391    0.0000 </r>
       <r>    3.5140    0.0000 </r>
       <r>    5.4431    0.0000 </r>
       <r>    5.8821    0.0000 </r>
       <r>    6.1754    0.0000 </r>
       <r>    6.2597    0.0000 </r>
       <r>    8.8583    0.0000 </r>
      </set>
      <set comment="kpoint 34">
       <r>  -21.1139    1.0000 </r>
       <r>   -9.1622    1.0000 </r>
       <r>   -7.2633    1.0000 </r>
       <r>   -6.3586    1.0000 </r>
       <r>    1.6940    0.0000 </r>
       <r>    2.6074    0.0000 </r>
       <r>    3.0745    0.0000 </r>
       <r>    5.0207    0.0000 </r>
       <r>    5.7079    0.0000 </r>
       <r>    6.0063    0.0000 </r>
       <r>    7.0502    0.0000 </r>
       <r>    7.8557    0.0000 </r>
      </set>
      <set comment="kpoint 35">
       <r>  -21.3513    1.0000 </r>
       <r>   -9.4419    1.0000 </r>
       <r>   -6.4751    1.0000 </r>
       <r>   -5.9539    1.0000 </r>
       <r>    1.3710    0.0000 </r>
       <r>    2.2828    0.0000 </r>
       <r>    2.7453    0.0000 </r>
       <r>    4.6988    0.0000 </r>
       <r>    5.4228    0.0000 </r>
       <r>    5.8678    0.0000 </r>
       <r>    7.0474    0.0000 </r>
       <r>    7.7717    0.0000 </r>
      </set>
      <set comment="kpoint 36">
       <r>  -21.5096    1.0000 </r>
       <r>   -9.6289    1.0000 </r>
       <r>   -5.9040    1.0000 </r>
       <r>   -5.6260    1.0000 </r>
       <r>    1.1562    0.0000 </r>
       <r>    2.0666    0.0000 </r>
       <r>    2.5264    0.0000 </r>
       <r>    4.4840    0.0000 </r>
       <r>    5.2199    0.0000 </r>
       <r>    5.7125    0.0000 </r>
       <r>    6.4517    0.0000 </r>
       <r>    8.3532    0.0000 </r>
      </set>
      <set comment="kpoint 37">
       <r>  -21.4639    1.0000 </r>
       <r>   -9.5744    1.0000 </r>
       <r>   -5.9744    1.0000 </r>
       <r>   -5.7837    1.0000 </r>
       <r>    1.2184    0.0000 </r>
       <r>    2.1288    0.0000 </r>
       <r>    2.5894    0.0000 </r>
       <r>    4.5459    0.0000 </r>
       <r>    5.2842    0.0000 </r>
       <r>    5.8597    0.0000 </r>
       <r>    6.2851    0.0000 </r>
       <r>    8.1670    0.0000 </r>
      </set>
      <set comment="kpoint 38">
       <r>  -21.3421    1.0000 </r>
       <r>   -9.4303    1.0000 </r>
       <r>   -6.4139    1.0000 </r>
       <r>   -6.0092    1.0000 </r>
       <r>    1.3839    0.0000 </r>
       <r>    2.2952    0.0000 </r>
       <r>    2.7579    0.0000 </r>
       <r>    4.7113    0.0000 </r>
       <r>    5.4430    0.0000 </r>
       <r>    5.9259    0.0000 </r>
       <r>    6.6613    0.0000 </r>
       <r>    7.7866    0.0000 </r>
      </set>
      <set comment="kpoint 39">
       <r>  -21.1409    1.0000 </r>
       <r>   -9.1930    1.0000 </r>
       <r>   -7.0703    1.0000 </r>
       <r>   -6.3667    1.0000 </r>
       <r>    1.6577    0.0000 </r>
       <r>    2.5702    0.0000 </r>
       <r>    3.0368    0.0000 </r>
       <r>    4.9842    0.0000 </r>
       <r>    5.7066    0.0000 </r>
       <r>    6.1548    0.0000 </r>
       <r>    7.0665    0.0000 </r>
       <r>    7.1839    0.0000 </r>
      </set>
      <set comment="kpoint 40">
       <r>  -20.8610    1.0000 </r>
       <r>   -8.8645    1.0000 </r>
       <r>   -7.8897    1.0000 </r>
       <r>   -6.8028    1.0000 </r>
       <r>    2.0396    0.0000 </r>
       <r>    2.9530    0.0000 </r>
       <r>    3.4259    0.0000 </r>
       <r>    5.3626    0.0000 </r>
       <r>    6.0573    0.0000 </r>
       <r>    6.3697    0.0000 </r>
       <r>    6.4031    0.0000 </r>
       <r>    7.6072    0.0000 </r>
      </set>
      <set comment="kpoint 41">
       <r>  -20.5033    1.0000 </r>
       <r>   -8.8266    1.0000 </r>
       <r>   -8.4475    1.0000 </r>
       <r>   -7.2605    1.0000 </r>
       <r>    2.5294    0.0000 </r>
       <r>    3.4413    0.0000 </r>
       <r>    3.9253    0.0000 </r>
       <r>    5.4651    0.0000 </r>
       <r>    5.8705    0.0000 </r>
       <r>    6.2806    0.0000 </r>
       <r>    6.6574    0.0000 </r>
       <r>    8.3868    0.0000 </r>
      </set>
      <set comment="kpoint 42">
       <r>  -20.0691    1.0000 </r>
       <r>   -9.8359    1.0000 </r>
       <r>   -7.9467    1.0000 </r>
       <r>   -7.7011    1.0000 </r>
       <r>    3.1263    0.0000 </r>
       <r>    4.0053    0.0000 </r>
       <r>    4.4952    0.0000 </r>
       <r>    4.5345    0.0000 </r>
       <r>    6.2240    0.0000 </r>
       <r>    6.4525    0.0000 </r>
       <r>    7.2215    0.0000 </r>
       <r>    9.3430    0.0000 </r>
      </set>
      <set comment="kpoint 43">
       <r>  -19.5604    1.0000 </r>
       <r>  -10.8794    1.0000 </r>
       <r>   -8.1005    1.0000 </r>
       <r>   -7.3693    1.0000 </r>
       <r>    3.3647    0.0000 </r>
       <r>    3.8294    0.0000 </r>
       <r>    4.7717    0.0000 </r>
       <r>    5.2522    0.0000 </r>
       <r>    6.0993    0.0000 </r>
       <r>    7.1483    0.0000 </r>
       <r>    7.9177    0.0000 </r>
       <r>   10.3733    0.0000 </r>
      </set>
      <set comment="kpoint 44">
       <r>  -18.9802    1.0000 </r>
       <r>  -11.9262    1.0000 </r>
       <r>   -8.4434    1.0000 </r>
       <r>   -6.7276    1.0000 </r>
       <r>    2.2887    0.0000 </r>
       <r>    4.6363    0.0000 </r>
       <r>    5.5736    0.0000 </r>
       <r>    5.9356    0.0000 </r>
       <r>    6.1110    0.0000 </r>
       <r>    7.9445    0.0000 </r>
       <r>    8.7238    0.0000 </r>
       <r>   11.5076    0.0000 </r>
      </set>
      <set comment="kpoint 45">
       <r>  -18.3339    1.0000 </r>
       <r>  -12.9512    1.0000 </r>
       <r>   -8.7202    1.0000 </r>
       <r>   -6.0447    1.0000 </r>
       <r>    1.2397    0.0000 </r>
       <r>    5.5260    0.0000 </r>
       <r>    5.8591    0.0000 </r>
       <r>    6.4825    0.0000 </r>
       <r>    7.0287    0.0000 </r>
       <r>    8.8330    0.0000 </r>
       <r>    9.6343    0.0000 </r>
       <r>   11.8177    0.0000 </r>
      </set>
      <set comment="kpoint 46">
       <r>  -17.6339    1.0000 </r>
       <r>  -13.9287    1.0000 </r>
       <r>   -8.9244    1.0000 </r>
       <r>   -5.3691    1.0000 </r>
       <r>    0.2894    0.0000 </r>
       <r>    5.7255    0.0000 </r>
       <r>    6.5833    0.0000 </r>
       <r>    7.4872    0.0000 </r>
       <r>    8.0752    0.0000 </r>
       <r>    9.7922    0.0000 </r>
       <r>   10.6391    0.0000 </r>
       <r>   11.2163    0.0000 </r>
      </set>
      <set comment="kpoint 47">
       <r>  -16.9247    1.0000 </r>
       <r>  -14.8051    1.0000 </r>
       <r>   -9.0523    1.0000 </r>
       <r>   -4.8114    1.0000 </r>
       <r>   -0.4375    0.0000 </r>
       <r>    5.6770    0.0000 </r>
       <r>    7.6864    0.0000 </r>
       <r>    8.5703    0.0000 </r>
       <r>    9.2294    0.0000 </r>
       <r>   10.0413    0.0000 </r>
       <r>   10.5872    0.0000 </r>
       <r>   11.1737    0.0000 </r>
      </set>
      <set comment="kpoint 48">
       <r>  -16.5092    1.0000 </r>
       <r>  -15.2729    1.0000 </r>
       <r>   -9.1015    1.0000 </r>
       <r>   -4.5855    1.0000 </r>
       <r>   -0.7194    0.0000 </r>
       <r>    5.6641    0.0000 </r>
       <r>    8.7453    0.0000 </r>
       <r>    8.9412    0.0000 </r>
       <r>    9.4897    0.0000 </r>
       <r>    9.9102    0.0000 </r>
       <r>   10.4129    0.0000 </r>
       <r>   10.4955    0.0000 </r>
      </set>
      <set comment="kpoint 49">
       <r>  -16.9683    1.0000 </r>
       <r>  -14.7497    1.0000 </r>
       <r>   -9.0714    1.0000 </r>
       <r>   -4.8383    1.0000 </r>
       <r>   -0.4073    0.0000 </r>
       <r>    5.6907    0.0000 </r>
       <r>    7.6169    0.0000 </r>
       <r>    8.5035    0.0000 </r>
       <r>    9.1606    0.0000 </r>
       <r>   10.1426    0.0000 </r>
       <r>   10.5704    0.0000 </r>
       <r>   11.1897    0.0000 </r>
      </set>
      <set comment="kpoint 50">
       <r>  -17.6794    1.0000 </r>
       <r>  -13.8598    1.0000 </r>
       <r>   -8.9623    1.0000 </r>
       <r>   -5.4084    1.0000 </r>
       <r>    0.3347    0.0000 </r>
       <r>    5.7490    0.0000 </r>
       <r>    6.5257    0.0000 </r>
       <r>    7.4243    0.0000 </r>
       <r>    8.0132    0.0000 </r>
       <r>    9.7294    0.0000 </r>
       <r>   10.5760    0.0000 </r>
       <r>   11.3796    0.0000 </r>
      </set>
      <set comment="kpoint 51">
       <r>  -18.3759    1.0000 </r>
       <r>  -12.8745    1.0000 </r>
       <r>   -8.7763    1.0000 </r>
       <r>   -6.0869    1.0000 </r>
       <r>    1.2889    0.0000 </r>
       <r>    5.4680    0.0000 </r>
       <r>    5.9010    0.0000 </r>
       <r>    6.4252    0.0000 </r>
       <r>    6.9739    0.0000 </r>
       <r>    8.7749    0.0000 </r>
       <r>    9.5779    0.0000 </r>
       <r>   12.0160    0.0000 </r>
      </set>
      <set comment="kpoint 52">
       <r>  -19.0177    1.0000 </r>
       <r>  -11.8431    1.0000 </r>
       <r>   -8.5163    1.0000 </r>
       <r>   -6.7684    1.0000 </r>
       <r>    2.3354    0.0000 </r>
       <r>    4.5842    0.0000 </r>
       <r>    5.5220    0.0000 </r>
       <r>    5.9533    0.0000 </r>
       <r>    6.0950    0.0000 </r>
       <r>    7.8924    0.0000 </r>
       <r>    8.6753    0.0000 </r>
       <r>   11.4478    0.0000 </r>
      </set>
      <set comment="kpoint 53">
       <r>  -19.5931    1.0000 </r>
       <r>  -10.7916    1.0000 </r>
       <r>   -8.1875    1.0000 </r>
       <r>   -7.4068    1.0000 </r>
       <r>    3.4047    0.0000 </r>
       <r>    3.7843    0.0000 </r>
       <r>    4.7255    0.0000 </r>
       <r>    5.2078    0.0000 </r>
       <r>    6.1507    0.0000 </r>
       <r>    7.1024    0.0000 </r>
       <r>    7.8773    0.0000 </r>
       <r>   10.7894    0.0000 </r>
      </set>
      <set comment="kpoint 54">
       <r>  -20.0970    1.0000 </r>
       <r>   -9.7470    1.0000 </r>
       <r>   -7.9799    1.0000 </r>
       <r>   -7.7966    1.0000 </r>
       <r>    3.0878    0.0000 </r>
       <r>    3.9791    0.0000 </r>
       <r>    4.4966    0.0000 </r>
       <r>    4.5108    0.0000 </r>
       <r>    6.2596    0.0000 </r>
       <r>    6.4126    0.0000 </r>
       <r>    7.1913    0.0000 </r>
       <r>   10.1698    0.0000 </r>
      </set>
      <set comment="kpoint 55">
       <r>  -20.5265    1.0000 </r>
       <r>   -8.7448    1.0000 </r>
       <r>   -8.4757    1.0000 </r>
       <r>   -7.3535    1.0000 </r>
       <r>    2.4973    0.0000 </r>
       <r>    3.4113    0.0000 </r>
       <r>    3.8938    0.0000 </r>
       <r>    5.4809    0.0000 </r>
       <r>    5.8334    0.0000 </r>
       <r>    6.2713    0.0000 </r>
       <r>    6.6471    0.0000 </r>
       <r>    9.0814    0.0000 </r>
      </set>
      <set comment="kpoint 56">
       <r>  -20.8795    1.0000 </r>
       <r>   -8.8874    1.0000 </r>
       <r>   -7.8325    1.0000 </r>
       <r>   -6.8725    1.0000 </r>
       <r>    2.0139    0.0000 </r>
       <r>    2.9284    0.0000 </r>
       <r>    3.4007    0.0000 </r>
       <r>    5.3390    0.0000 </r>
       <r>    6.0163    0.0000 </r>
       <r>    6.3510    0.0000 </r>
       <r>    6.3994    0.0000 </r>
       <r>    8.2583    0.0000 </r>
      </set>
      <set comment="kpoint 57">
       <r>  -21.1547    1.0000 </r>
       <r>   -9.2103    1.0000 </r>
       <r>   -7.0643    1.0000 </r>
       <r>   -6.3829    1.0000 </r>
       <r>    1.6383    0.0000 </r>
       <r>    2.5517    0.0000 </r>
       <r>    3.0178    0.0000 </r>
       <r>    4.9657    0.0000 </r>
       <r>    5.6766    0.0000 </r>
       <r>    6.1072    0.0000 </r>
       <r>    7.1720    0.0000 </r>
       <r>    7.6118    0.0000 </r>
      </set>
      <set comment="kpoint 58">
       <r>  -21.2591    1.0000 </r>
       <r>   -9.3320    1.0000 </r>
       <r>   -6.6786    1.0000 </r>
       <r>   -6.1573    1.0000 </r>
       <r>    1.4968    0.0000 </r>
       <r>    2.4087    0.0000 </r>
       <r>    2.8729    0.0000 </r>
       <r>    4.8240    0.0000 </r>
       <r>    5.5317    0.0000 </r>
       <r>    5.7741    0.0000 </r>
       <r>    7.0967    0.0000 </r>
       <r>    7.5454    0.0000 </r>
      </set>
      <set comment="kpoint 59">
       <r>  -21.0966    1.0000 </r>
       <r>   -9.1404    1.0000 </r>
       <r>   -7.1715    1.0000 </r>
       <r>   -6.4488    1.0000 </r>
       <r>    1.7180    0.0000 </r>
       <r>    2.6308    0.0000 </r>
       <r>    3.0981    0.0000 </r>
       <r>    5.0445    0.0000 </r>
       <r>    5.6950    0.0000 </r>
       <r>    5.8965    0.0000 </r>
       <r>    7.0760    0.0000 </r>
       <r>    7.5058    0.0000 </r>
      </set>
      <set comment="kpoint 60">
       <r>  -20.8552    1.0000 </r>
       <r>   -8.8570    1.0000 </r>
       <r>   -7.8087    1.0000 </r>
       <r>   -6.8918    1.0000 </r>
       <r>    2.0475    0.0000 </r>
       <r>    2.9610    0.0000 </r>
       <r>    3.4337    0.0000 </r>
       <r>    5.3721    0.0000 </r>
       <r>    6.0101    0.0000 </r>
       <r>    6.2365    0.0000 </r>
       <r>    6.4171    0.0000 </r>
       <r>    7.7414    0.0000 </r>
      </set>
      <set comment="kpoint 61">
       <r>  -20.5358    1.0000 </r>
       <r>   -8.5699    1.0000 </r>
       <r>   -8.4841    1.0000 </r>
       <r>   -7.4115    1.0000 </r>
       <r>    2.4849    0.0000 </r>
       <r>    3.3985    0.0000 </r>
       <r>    3.8796    0.0000 </r>
       <r>    5.6067    0.0000 </r>
       <r>    5.8097    0.0000 </r>
       <r>    6.4460    0.0000 </r>
       <r>    6.7038    0.0000 </r>
       <r>    7.9081    0.0000 </r>
      </set>
      <set comment="kpoint 62">
       <r>  -20.1394    1.0000 </r>
       <r>   -9.4421    1.0000 </r>
       <r>   -8.0252    1.0000 </r>
       <r>   -7.9293    1.0000 </r>
       <r>    3.0299    0.0000 </r>
       <r>    3.9377    0.0000 </r>
       <r>    4.4357    0.0000 </r>
       <r>    4.6973    0.0000 </r>
       <r>    6.3468    0.0000 </r>
       <r>    6.8334    0.0000 </r>
       <r>    7.1747    0.0000 </r>
       <r>    8.3213    0.0000 </r>
      </set>
      <set comment="kpoint 63">
       <r>  -19.6677    1.0000 </r>
       <r>  -10.3948    1.0000 </r>
       <r>   -8.4002    1.0000 </r>
       <r>   -7.4859    1.0000 </r>
       <r>    3.6816    0.0000 </r>
       <r>    3.6870    0.0000 </r>
       <r>    4.6075    0.0000 </r>
       <r>    5.1017    0.0000 </r>
       <r>    6.9028    0.0000 </r>
       <r>    6.9886    0.0000 </r>
       <r>    7.7781    0.0000 </r>
       <r>    9.1154    0.0000 </r>
      </set>
      <set comment="kpoint 64">
       <r>  -19.1233    1.0000 </r>
       <r>  -11.3896    1.0000 </r>
       <r>   -8.8057    1.0000 </r>
       <r>   -6.8755    1.0000 </r>
       <r>    2.6616    0.0000 </r>
       <r>    4.4388    0.0000 </r>
       <r>    5.3572    0.0000 </r>
       <r>    5.8763    0.0000 </r>
       <r>    6.8154    0.0000 </r>
       <r>    7.7285    0.0000 </r>
       <r>    8.5244    0.0000 </r>
       <r>   10.0737    0.0000 </r>
      </set>
      <set comment="kpoint 65">
       <r>  -18.5102    1.0000 </r>
       <r>  -12.3918    1.0000 </r>
       <r>   -9.1382    1.0000 </r>
       <r>   -6.2100    1.0000 </r>
       <r>    1.6321    0.0000 </r>
       <r>    5.2991    0.0000 </r>
       <r>    6.2107    0.0000 </r>
       <r>    6.6653    0.0000 </r>
       <r>    6.7965    0.0000 </r>
       <r>    8.5566    0.0000 </r>
       <r>    9.3812    0.0000 </r>
       <r>   10.9707    0.0000 </r>
      </set>
      <set comment="kpoint 66">
       <r>  -17.8365    1.0000 </r>
       <r>  -13.3713    1.0000 </r>
       <r>   -9.3938    1.0000 </r>
       <r>   -5.5215    1.0000 </r>
       <r>    0.6534    0.0000 </r>
       <r>    6.2466    0.0000 </r>
       <r>    6.6061    0.0000 </r>
       <r>    7.1559    0.0000 </r>
       <r>    7.7629    0.0000 </r>
       <r>    9.4466    0.0000 </r>
       <r>   10.3371    0.0000 </r>
       <r>   11.3644    0.0000 </r>
      </set>
      <set comment="kpoint 67">
       <r>  -17.1246    1.0000 </r>
       <r>  -14.2912    1.0000 </r>
       <r>   -9.5700    1.0000 </r>
       <r>   -4.8817    1.0000 </r>
       <r>   -0.1877    0.0000 </r>
       <r>    6.5035    0.0000 </r>
       <r>    7.3383    0.0000 </r>
       <r>    8.1714    0.0000 </r>
       <r>    8.8639    0.0000 </r>
       <r>   10.2831    0.0000 </r>
       <r>   10.6952    0.0000 </r>
       <r>   11.4053    0.0000 </r>
      </set>
      <set comment="kpoint 68">
       <r>  -16.4890    1.0000 </r>
       <r>  -15.0285    1.0000 </r>
       <r>   -9.6651    1.0000 </r>
       <r>   -4.4555    1.0000 </r>
       <r>   -0.7159    0.0000 </r>
       <r>    6.4750    0.0000 </r>
       <r>    8.4763    0.0000 </r>
       <r>    9.1637    0.0000 </r>
       <r>    9.5654    0.0000 </r>
       <r>   10.0757    0.0000 </r>
       <r>   10.2936    0.0000 </r>
       <r>   11.2571    0.0000 </r>
      </set>
      <set comment="kpoint 69">
       <r>  -16.5375    1.0000 </r>
       <r>  -14.9710    1.0000 </r>
       <r>   -9.6783    1.0000 </r>
       <r>   -4.4787    1.0000 </r>
       <r>   -0.6908    0.0000 </r>
       <r>    6.4833    0.0000 </r>
       <r>    8.3654    0.0000 </r>
       <r>    9.0811    0.0000 </r>
       <r>    9.6980    0.0000 </r>
       <r>    9.9691    0.0000 </r>
       <r>   10.3415    0.0000 </r>
       <r>   11.3804    0.0000 </r>
      </set>
      <set comment="kpoint 70">
       <r>  -17.1939    1.0000 </r>
       <r>  -14.1952    1.0000 </r>
       <r>   -9.6095    1.0000 </r>
       <r>   -4.9349    1.0000 </r>
       <r>   -0.1295    0.0000 </r>
       <r>    6.5235    0.0000 </r>
       <r>    7.2461    0.0000 </r>
       <r>    8.0758    0.0000 </r>
       <r>    8.7658    0.0000 </r>
       <r>   10.2064    0.0000 </r>
       <r>   10.8872    0.0000 </r>
       <r>   11.3063    0.0000 </r>
      </set>
      <set comment="kpoint 71">
       <r>  -17.9026    1.0000 </r>
       <r>  -13.2610    1.0000 </r>
       <r>   -9.4590    1.0000 </r>
       <r>   -5.5845    1.0000 </r>
       <r>    0.7225    0.0000 </r>
       <r>    6.1521    0.0000 </r>
       <r>    6.6541    0.0000 </r>
       <r>    7.0664    0.0000 </r>
       <r>    7.6758    0.0000 </r>
       <r>    9.3577    0.0000 </r>
       <r>   10.2482    0.0000 </r>
       <r>   11.7846    0.0000 </r>
      </set>
      <set comment="kpoint 72">
       <r>  -18.5699    1.0000 </r>
       <r>  -12.2713    1.0000 </r>
       <r>   -9.2272    1.0000 </r>
       <r>   -6.2733    1.0000 </r>
       <r>    1.6996    0.0000 </r>
       <r>    5.2163    0.0000 </r>
       <r>    6.1295    0.0000 </r>
       <r>    6.6437    0.0000 </r>
       <r>    6.7976    0.0000 </r>
       <r>    8.4749    0.0000 </r>
       <r>    9.3037    0.0000 </r>
       <r>   11.6684    0.0000 </r>
      </set>
      <set comment="kpoint 73">
       <r>  -19.1760    1.0000 </r>
       <r>  -11.2623    1.0000 </r>
       <r>   -8.9143    1.0000 </r>
       <r>   -6.9349    1.0000 </r>
       <r>    2.7195    0.0000 </r>
       <r>    4.3668    0.0000 </r>
       <r>    5.2848    0.0000 </r>
       <r>    5.8053    0.0000 </r>
       <r>    6.8751    0.0000 </r>
       <r>    7.6561    0.0000 </r>
       <r>    8.4597    0.0000 </r>
       <r>   10.8418    0.0000 </r>
      </set>
      <set comment="kpoint 74">
       <r>  -19.7132    1.0000 </r>
       <r>  -10.2688    1.0000 </r>
       <r>   -8.5186    1.0000 </r>
       <r>   -7.5393    1.0000 </r>
       <r>    3.6194    0.0000 </r>
       <r>    3.7306    0.0000 </r>
       <r>    4.5428    0.0000 </r>
       <r>    5.0403    0.0000 </r>
       <r>    6.9258    0.0000 </r>
       <r>    6.9438    0.0000 </r>
       <r>    7.7308    0.0000 </r>
       <r>    9.9035    0.0000 </r>
      </set>
      <set comment="kpoint 75">
       <r>  -20.1778    1.0000 </r>
       <r>   -9.3362    1.0000 </r>
       <r>   -8.0715    1.0000 </r>
       <r>   -8.0356    1.0000 </r>
       <r>    2.9773    0.0000 </r>
       <r>    3.8900    0.0000 </r>
       <r>    4.3839    0.0000 </r>
       <r>    4.7138    0.0000 </r>
       <r>    6.2935    0.0000 </r>
       <r>    6.8294    0.0000 </r>
       <r>    7.1713    0.0000 </r>
       <r>    9.0961    0.0000 </r>
      </set>
      <set comment="kpoint 76">
       <r>  -20.5671    1.0000 </r>
       <r>   -8.5226    1.0000 </r>
       <r>   -8.5166    1.0000 </r>
       <r>   -7.4694    1.0000 </r>
       <r>    2.4419    0.0000 </r>
       <r>    3.3570    0.0000 </r>
       <r>    3.8372    0.0000 </r>
       <r>    5.6082    0.0000 </r>
       <r>    5.7638    0.0000 </r>
       <r>    6.4270    0.0000 </r>
       <r>    6.7795    0.0000 </r>
       <r>    8.5768    0.0000 </r>
      </set>
      <set comment="kpoint 77">
       <r>  -20.9729    1.0000 </r>
       <r>   -8.9948    1.0000 </r>
       <r>   -7.5586    1.0000 </r>
       <r>   -6.5945    1.0000 </r>
       <r>    1.8864    0.0000 </r>
       <r>    2.7998    0.0000 </r>
       <r>    3.2696    0.0000 </r>
       <r>    5.2120    0.0000 </r>
       <r>    5.5309    0.0000 </r>
       <r>    5.9884    0.0000 </r>
       <r>    6.7391    0.0000 </r>
       <r>    8.1376    0.0000 </r>
      </set>
      <set comment="kpoint 78">
       <r>  -20.7703    1.0000 </r>
       <r>   -8.7573    1.0000 </r>
       <r>   -8.0841    1.0000 </r>
       <r>   -6.9198    1.0000 </r>
       <r>    2.1631    0.0000 </r>
       <r>    3.0770    0.0000 </r>
       <r>    3.5515    0.0000 </r>
       <r>    5.4857    0.0000 </r>
       <r>    5.5964    0.0000 </r>
       <r>    6.2073    0.0000 </r>
       <r>    6.2590    0.0000 </r>
       <r>    8.5562    0.0000 </r>
      </set>
      <set comment="kpoint 79">
       <r>  -20.4894    1.0000 </r>
       <r>   -8.6855    1.0000 </r>
       <r>   -8.4295    1.0000 </r>
       <r>   -7.4242    1.0000 </r>
       <r>    2.5479    0.0000 </r>
       <r>    3.4618    0.0000 </r>
       <r>    3.9438    0.0000 </r>
       <r>    5.5153    0.0000 </r>
       <r>    5.8715    0.0000 </r>
       <r>    5.9617    0.0000 </r>
       <r>    6.6451    0.0000 </r>
       <r>    8.6690    0.0000 </r>
      </set>
      <set comment="kpoint 80">
       <r>  -20.1313    1.0000 </r>
       <r>   -9.3547    1.0000 </r>
       <r>   -8.0316    1.0000 </r>
       <r>   -8.0145    1.0000 </r>
       <r>    3.0406    0.0000 </r>
       <r>    3.9533    0.0000 </r>
       <r>    4.4465    0.0000 </r>
       <r>    4.7152    0.0000 </r>
       <r>    6.3539    0.0000 </r>
       <r>    6.5661    0.0000 </r>
       <r>    7.1447    0.0000 </r>
       <r>    8.6143    0.0000 </r>
      </set>
      <set comment="kpoint 81">
       <r>  -19.6973    1.0000 </r>
       <r>  -10.1096    1.0000 </r>
       <r>   -8.6405    1.0000 </r>
       <r>   -7.5166    1.0000 </r>
       <r>    3.6403    0.0000 </r>
       <r>    3.8282    0.0000 </r>
       <r>    4.5503    0.0000 </r>
       <r>    5.0593    0.0000 </r>
       <r>    6.9400    0.0000 </r>
       <r>    7.2710    0.0000 </r>
       <r>    7.7592    0.0000 </r>
       <r>    8.5762    0.0000 </r>
      </set>
      <set comment="kpoint 82">
       <r>  -19.1897    1.0000 </r>
       <r>  -10.9573    1.0000 </r>
       <r>   -9.1739    1.0000 </r>
       <r>   -6.9427    1.0000 </r>
       <r>    2.8859    0.0000 </r>
       <r>    4.3461    0.0000 </r>
       <r>    5.2493    0.0000 </r>
       <r>    5.7817    0.0000 </r>
       <r>    7.6220    0.0000 </r>
       <r>    7.7230    0.0000 </r>
       <r>    8.4491    0.0000 </r>
       <r>    8.9341    0.0000 </r>
      </set>
      <set comment="kpoint 83">
       <r>  -18.6118    1.0000 </r>
       <r>  -11.8710    1.0000 </r>
       <r>   -9.6058    1.0000 </r>
       <r>   -6.3044    1.0000 </r>
       <r>    1.9173    0.0000 </r>
       <r>    5.1561    0.0000 </r>
       <r>    6.0455    0.0000 </r>
       <r>    6.6131    0.0000 </r>
       <r>    7.7425    0.0000 </r>
       <r>    8.3866    0.0000 </r>
       <r>    9.2331    0.0000 </r>
       <r>    9.7904    0.0000 </r>
      </set>
      <set comment="kpoint 84">
       <r>  -17.9696    1.0000 </r>
       <r>  -12.8084    1.0000 </r>
       <r>   -9.9378    1.0000 </r>
       <r>   -5.6228    1.0000 </r>
       <r>    0.9597    0.0000 </r>
       <r>    6.0675    0.0000 </r>
       <r>    6.9274    0.0000 </r>
       <r>    7.5339    0.0000 </r>
       <r>    7.6710    0.0000 </r>
       <r>    9.1985    0.0000 </r>
       <r>   10.1293    0.0000 </r>
       <r>   10.6573    0.0000 </r>
      </set>
      <set comment="kpoint 85">
       <r>  -17.2760    1.0000 </r>
       <r>  -13.7270    1.0000 </r>
       <r>  -10.1761    1.0000 </r>
       <r>   -4.9425    1.0000 </r>
       <r>    0.0717    0.0000 </r>
       <r>    7.0694    0.0000 </r>
       <r>    7.5655    0.0000 </r>
       <r>    7.8652    0.0000 </r>
       <r>    8.6083    0.0000 </r>
       <r>    9.9412    0.0000 </r>
       <r>   10.9091    0.0000 </r>
       <r>   11.2067    0.0000 </r>
      </set>
      <set comment="kpoint 86">
       <r>  -16.5786    1.0000 </r>
       <r>  -14.5612    1.0000 </r>
       <r>  -10.3246    1.0000 </r>
       <r>   -4.3721    1.0000 </r>
       <r>   -0.6272    0.0000 </r>
       <r>    7.4906    0.0000 </r>
       <r>    8.1867    0.0000 </r>
       <r>    8.7546    0.0000 </r>
       <r>    9.7588    0.0000 </r>
       <r>   10.2954    0.0000 </r>
       <r>   10.3382    0.0000 </r>
       <r>   11.6703    0.0000 </r>
      </set>
      <set comment="kpoint 87">
       <r>  -16.1951    1.0000 </r>
       <r>  -14.9829    1.0000 </r>
       <r>  -10.3848    1.0000 </r>
       <r>   -4.1459    1.0000 </r>
       <r>   -0.8961    0.0000 </r>
       <r>    7.4809    0.0000 </r>
       <r>    9.1322    0.0000 </r>
       <r>    9.1696    0.0000 </r>
       <r>    9.4071    0.0000 </r>
       <r>   10.4090    0.0000 </r>
       <r>   10.8609    0.0000 </r>
       <r>   11.0215    0.0000 </r>
      </set>
      <set comment="kpoint 88">
       <r>  -16.6669    1.0000 </r>
       <r>  -14.4483    1.0000 </r>
       <r>  -10.3571    1.0000 </r>
       <r>   -4.4298    1.0000 </r>
       <r>   -0.5675    0.0000 </r>
       <r>    7.4968    0.0000 </r>
       <r>    8.0587    0.0000 </r>
       <r>    8.6475    0.0000 </r>
       <r>    9.6225    0.0000 </r>
       <r>   10.3024    0.0000 </r>
       <r>   10.5179    0.0000 </r>
       <r>   11.6628    0.0000 </r>
      </set>
      <set comment="kpoint 89">
       <r>  -17.3679    1.0000 </r>
       <r>  -13.5867    1.0000 </r>
       <r>  -10.2405    1.0000 </r>
       <r>   -5.0242    1.0000 </r>
       <r>    0.1555    0.0000 </r>
       <r>    6.9347    0.0000 </r>
       <r>    7.6094    0.0000 </r>
       <r>    7.7458    0.0000 </r>
       <r>    8.4861    0.0000 </r>
       <r>    9.8416    0.0000 </r>
       <r>   10.9835    0.0000 </r>
       <r>   11.4248    0.0000 </r>
      </set>
      <set comment="kpoint 90">
       <r>  -18.0540    1.0000 </r>
       <r>  -12.6534    1.0000 </r>
       <r>  -10.0313    1.0000 </r>
       <r>   -5.7092    1.0000 </r>
       <r>    1.0445    0.0000 </r>
       <r>    5.9509    0.0000 </r>
       <r>    6.8156    0.0000 </r>
       <r>    7.4273    0.0000 </r>
       <r>    7.7185    0.0000 </r>
       <r>    9.0894    0.0000 </r>
       <r>   10.0287    0.0000 </r>
       <r>   11.3285    0.0000 </r>
      </set>
      <set comment="kpoint 91">
       <r>  -18.6871    1.0000 </r>
       <r>  -11.7098    1.0000 </r>
       <r>   -9.7206    1.0000 </r>
       <r>   -6.3875    1.0000 </r>
       <r>    1.9902    0.0000 </r>
       <r>    5.0540    0.0000 </r>
[...]
       <r>    9.7872    0.0000 </r>
       <r>   10.6085    0.0000 </r>
       <r>   11.5433    0.0000 </r>
      </set>
      <set comment="kpoint 150">
       <r>  -17.2278    1.0000 </r>
       <r>  -14.3458    1.0000 </r>
       <r>   -8.9105    1.0000 </r>
       <r>   -4.9999    1.0000 </r>
       <r>   -0.0516    0.0000 </r>
       <r>    4.5315    0.0000 </r>
       <r>    7.1344    0.0000 </r>
       <r>    8.0388    0.0000 </r>
       <r>    8.6502    0.0000 </r>
       <r>   10.3184    0.0000 </r>
       <r>   10.9044    0.0000 </r>
       <r>   11.2086    0.0000 </r>
      </set>
      <set comment="kpoint 151">
       <r>  -16.7645    1.0000 </r>
       <r>  -14.7369    1.0000 </r>
       <r>   -9.3345    1.0000 </r>
       <r>   -4.6199    1.0000 </r>
       <r>   -0.4417    0.0000 </r>
       <r>    5.0184    0.0000 </r>
       <r>    7.8297    0.0000 </r>
       <r>    8.6723    0.0000 </r>
       <r>    9.3777    0.0000 </r>
       <r>   10.3379    0.0000 </r>
       <r>   10.6546    0.0000 </r>
       <r>   11.4000    0.0000 </r>
      </set>
      <set comment="kpoint 152">
       <r>  -16.2836    1.0000 </r>
       <r>  -15.0196    1.0000 </r>
       <r>   -9.9227    1.0000 </r>
       <r>   -4.2494    1.0000 </r>
       <r>   -0.7576    0.0000 </r>
       <r>    5.7915    0.0000 </r>
       <r>    8.6131    0.0000 </r>
       <r>    9.2008    0.0000 </r>
       <r>    9.8560    0.0000 </r>
       <r>   10.2141    0.0000 </r>
       <r>   10.4515    0.0000 </r>
       <r>   11.5504    0.0000 </r>
      </set>
      <set comment="kpoint 153">
       <r>  -15.9230    1.0000 </r>
       <r>  -15.0651    1.0000 </r>
       <r>  -10.6050    1.0000 </r>
       <r>   -3.9267    1.0000 </r>
       <r>   -0.9826    0.0000 </r>
       <r>    6.7727    0.0000 </r>
       <r>    9.1562    0.0000 </r>
       <r>    9.3875    0.0000 </r>
       <r>    9.5537    0.0000 </r>
       <r>   10.6147    0.0000 </r>
       <r>   11.1309    0.0000 </r>
       <r>   11.1608    0.0000 </r>
      </set>
      <set comment="kpoint 154">
       <r>  -16.8698    1.0000 </r>
       <r>  -14.8267    1.0000 </r>
       <r>   -8.8300    1.0000 </r>
       <r>   -4.7580    1.0000 </r>
       <r>   -0.3891    0.0000 </r>
       <r>    4.3207    0.0000 </r>
       <r>    7.6781    0.0000 </r>
       <r>    8.5835    0.0000 </r>
       <r>    9.2161    0.0000 </r>
       <r>   10.2196    0.0000 </r>
       <r>   10.7404    0.0000 </r>
       <r>   11.2536    0.0000 </r>
      </set>
      <set comment="kpoint 155">
       <r>  -16.4902    1.0000 </r>
       <r>  -15.2016    1.0000 </r>
       <r>   -8.9930    1.0000 </r>
       <r>   -4.5321    1.0000 </r>
       <r>   -0.6369    0.0000 </r>
       <r>    4.4829    0.0000 </r>
       <r>    8.3195    0.0000 </r>
       <r>    9.1842    0.0000 </r>
       <r>    9.5935    0.0000 </r>
       <r>    9.8927    0.0000 </r>
       <r>   10.4291    0.0000 </r>
       <r>   11.2387    0.0000 </r>
      </set>
      <set comment="kpoint 156">
       <r>  -16.2306    1.0000 </r>
       <r>  -15.3283    1.0000 </r>
       <r>   -9.3767    1.0000 </r>
       <r>   -4.3551    1.0000 </r>
       <r>   -0.7620    0.0000 </r>
       <r>    4.9939    0.0000 </r>
       <r>    8.9880    0.0000 </r>
       <r>    9.1223    0.0000 </r>
       <r>    9.5733    0.0000 </r>
       <r>   10.1272    0.0000 </r>
       <r>   10.6609    0.0000 </r>
       <r>   10.6818    0.0000 </r>
      </set>
      <set comment="kpoint 157">
       <r>  -16.3333    1.0000 </r>
       <r>  -15.4230    1.0000 </r>
       <r>   -8.8712    1.0000 </r>
       <r>   -4.4985    1.0000 </r>
       <r>   -0.7088    0.0000 </r>
       <r>    4.2962    0.0000 </r>
       <r>    8.8499    0.0000 </r>
       <r>    8.9755    0.0000 </r>
       <r>    9.6337    0.0000 </r>
       <r>    9.9645    0.0000 </r>
       <r>   10.5028    0.0000 </r>
       <r>   10.5214    0.0000 </r>
      </set>
     </set>
    </set>
   </array>
  </eigenvalues>
  <separator name="orbital magnetization" >
   <v name="MAGDIPOLOUT">      0.00000000      0.00000000      0.00000000</v>
  </separator>
  <dos>
   <i name="efermi">     -2.32747103 </i>
   <total>
    <array>
     <dimension dim="1">gridpoints</dimension>
     <dimension dim="2">spin</dimension>
     <field>energy</field>
     <field>total</field>
     <field>integrated</field>
     <set>
      <set comment="spin 1">
       <r>   -23.3554     0.0000     0.0000 </r>
       <r>   -23.2288     0.0000     0.0000 </r>
       <r>   -23.1021     0.0000     0.0000 </r>
       <r>   -22.9755     0.0000     0.0000 </r>
       <r>   -22.8488     0.0000     0.0000 </r>
       <r>   -22.7221     0.0000     0.0000 </r>
       <r>   -22.5955     0.0000     0.0000 </r>
       <r>   -22.4688     0.0000     0.0000 </r>
       <r>   -22.3421     0.0000     0.0000 </r>
       <r>   -22.2155     0.0000     0.0000 </r>
       <r>   -22.0888     0.0000     0.0000 </r>
       <r>   -21.9622     0.0000     0.0000 </r>
       <r>   -21.8355     0.0000     0.0000 </r>
       <r>   -21.7088     0.0000     0.0000 </r>
       <r>   -21.5822     0.1355     0.0172 </r>
       <r>   -21.4555     0.3507     0.0616 </r>
       <r>   -21.3288     0.3253     0.1028 </r>
       <r>   -21.2022     0.2028     0.1285 </r>
       <r>   -21.0755     0.4838     0.1898 </r>
       <r>   -20.9489     0.1711     0.2115 </r>
       <r>   -20.8222     0.3356     0.2540 </r>
       <r>   -20.6955     0.3244     0.2951 </r>
       <r>   -20.5689     0.1901     0.3192 </r>
       <r>   -20.4422     0.4680     0.3785 </r>
       <r>   -20.3155     0.3284     0.4201 </r>
       <r>   -20.1889     0.1168     0.4349 </r>
       <r>   -20.0622     0.5728     0.5075 </r>
       <r>   -19.9356     0.2046     0.5335 </r>
       <r>   -19.8089     0.2565     0.5660 </r>
       <r>   -19.6822     0.3647     0.6122 </r>
       <r>   -19.5556     0.4730     0.6721 </r>
       <r>   -19.4289     0.1494     0.6911 </r>
       <r>   -19.3022     0.3162     0.7311 </r>
       <r>   -19.1756     0.3354     0.7736 </r>
       <r>   -19.0489     0.4600     0.8319 </r>
       <r>   -18.9223     0.3257     0.8731 </r>
       <r>   -18.7956     0.0609     0.8808 </r>
       <r>   -18.6689     0.4525     0.9382 </r>
       <r>   -18.5423     0.4593     0.9963 </r>
       <r>   -18.4156     0.3307     1.0382 </r>
       <r>   -18.2889     0.2757     1.0732 </r>
       <r>   -18.1623     0.1090     1.0870 </r>
       <r>   -18.0356     0.4727     1.1468 </r>
       <r>   -17.9090     0.5374     1.2149 </r>
       <r>   -17.7823     0.2243     1.2433 </r>
       <r>   -17.6556     0.3071     1.2822 </r>
       <r>   -17.5290     0.2199     1.3101 </r>
       <r>   -17.4023     0.2461     1.3413 </r>
       <r>   -17.2756     0.6788     1.4272 </r>
       <r>   -17.1490     0.3872     1.4763 </r>
       <r>   -17.0223     0.2447     1.5073 </r>
       <r>   -16.8957     0.2986     1.5451 </r>
       <r>   -16.7690     0.2962     1.5826 </r>
       <r>   -16.6423     0.7353     1.6757 </r>
       <r>   -16.5157     0.4300     1.7303 </r>
       <r>   -16.3890     0.4025     1.7813 </r>
       <r>   -16.2623     0.1305     1.7978 </r>
       <r>   -16.1357     0.3793     1.8458 </r>
       <r>   -16.0090     0.2979     1.8836 </r>
       <r>   -15.8823     0.2954     1.9210 </r>
       <r>   -15.7557     0.0754     1.9306 </r>
       <r>   -15.6290     0.1096     1.9444 </r>
       <r>   -15.5024     0.1095     1.9583 </r>
       <r>   -15.3757     0.2158     1.9857 </r>
       <r>   -15.2490     0.2999     2.0237 </r>
       <r>   -15.1224     0.3338     2.0660 </r>
       <r>   -14.9957     0.3358     2.1085 </r>
       <r>   -14.8690     0.2827     2.1443 </r>
       <r>   -14.7424     0.3661     2.1907 </r>
       <r>   -14.6157     0.4262     2.2447 </r>
       <r>   -14.4891     0.4930     2.3071 </r>
       <r>   -14.3624     0.4679     2.3664 </r>
       <r>   -14.2357     0.4310     2.4210 </r>
       <r>   -14.1091     0.3254     2.4622 </r>
       <r>   -13.9824     0.3425     2.5056 </r>
       <r>   -13.8557     0.4826     2.5668 </r>
       <r>   -13.7291     0.3164     2.6068 </r>
       <r>   -13.6024     0.1080     2.6205 </r>
       <r>   -13.4758     0.4830     2.6817 </r>
       <r>   -13.3491     0.3753     2.7292 </r>
       <r>   -13.2224     0.2414     2.7598 </r>
       <r>   -13.0958     0.1724     2.7817 </r>
       <r>   -12.9691     0.3236     2.8227 </r>
       <r>   -12.8424     0.3715     2.8697 </r>
       <r>   -12.7158     0.2364     2.8997 </r>
       <r>   -12.5891     0.3260     2.9410 </r>
       <r>   -12.4625     0.1486     2.9598 </r>
       <r>   -12.3358     0.5982     3.0356 </r>
       <r>   -12.2091     0.4405     3.0914 </r>
       <r>   -12.0825     0.2929     3.1285 </r>
       <r>   -11.9558     0.0698     3.1373 </r>
       <r>   -11.8291     0.6633     3.2213 </r>
       <r>   -11.7025     0.5469     3.2906 </r>
       <r>   -11.5758     0.2733     3.3253 </r>
       <r>   -11.4492     0.2029     3.3510 </r>
       <r>   -11.3225     0.3944     3.4009 </r>
       <r>   -11.1958     0.4524     3.4582 </r>
       <r>   -11.0692     0.4814     3.5192 </r>
       <r>   -10.9425     0.3264     3.5606 </r>
       <r>   -10.8158     0.5741     3.6333 </r>
       <r>   -10.6892     0.4138     3.6858 </r>
       <r>   -10.5625     0.1328     3.7026 </r>
       <r>   -10.4359     0.3010     3.7407 </r>
       <r>   -10.3092     0.7553     3.8364 </r>
       <r>   -10.1825     0.4865     3.8980 </r>
       <r>   -10.0559     0.3984     3.9485 </r>
       <r>    -9.9292     0.3473     3.9925 </r>
       <r>    -9.8025     0.4344     4.0475 </r>
       <r>    -9.6759     0.7287     4.1399 </r>
       <r>    -9.5492     1.0219     4.2694 </r>
       <r>    -9.4226     0.4907     4.3315 </r>
       <r>    -9.2959     0.8930     4.4447 </r>
       <r>    -9.1692     0.8785     4.5561 </r>
       <r>    -9.0426     0.8776     4.6673 </r>
       <r>    -8.9159     0.7684     4.7646 </r>
       <r>    -8.7892     0.8871     4.8770 </r>
       <r>    -8.6626     1.3290     5.0454 </r>
       <r>    -8.5359     0.9076     5.1605 </r>
       <r>    -8.4093     1.3876     5.3363 </r>
       <r>    -8.2826     0.5070     5.4007 </r>
       <r>    -8.1559     0.8634     5.5101 </r>
       <r>    -8.0293     0.6849     5.5970 </r>
       <r>    -7.9026     1.1053     5.7370 </r>
       <r>    -7.7759     0.7832     5.8362 </r>
       <r>    -7.6493     0.4363     5.8915 </r>
       <r>    -7.5226     0.5892     5.9662 </r>
       <r>    -7.3960     0.8251     6.0707 </r>
       <r>    -7.2693     0.6909     6.1582 </r>
       <r>    -7.1426     0.7409     6.2521 </r>
       <r>    -7.0160     0.4027     6.3031 </r>
       <r>    -6.8893     0.6189     6.3816 </r>
       <r>    -6.7626     0.9807     6.5058 </r>
       <r>    -6.6360     0.4094     6.5578 </r>
       <r>    -6.5093     0.1928     6.5822 </r>
       <r>    -6.3827     0.9073     6.6971 </r>
       <r>    -6.2560     0.7993     6.7984 </r>
       <r>    -6.1293     0.3910     6.8479 </r>
       <r>    -6.0027     0.5893     6.9225 </r>
       <r>    -5.8760     0.5164     6.9880 </r>
       <r>    -5.7493     0.4465     7.0445 </r>
       <r>    -5.6227     0.7440     7.1388 </r>
       <r>    -5.4960     0.7284     7.2311 </r>
       <r>    -5.3694     0.4392     7.2867 </r>
       <r>    -5.2427     0.1371     7.3041 </r>
       <r>    -5.1160     0.3296     7.3459 </r>
       <r>    -4.9894     0.3782     7.3938 </r>
       <r>    -4.8627     0.7580     7.4899 </r>
       <r>    -4.7360     0.6510     7.5724 </r>
       <r>    -4.6094     0.2038     7.5982 </r>
       <r>    -4.4827     0.3088     7.6373 </r>
       <r>    -4.3561     0.6284     7.7169 </r>
       <r>    -4.2294     0.5070     7.7811 </r>
       <r>    -4.1027     0.3026     7.8194 </r>
       <r>    -3.9761     0.0000     7.8194 </r>
       <r>    -3.8494     0.2654     7.8531 </r>
       <r>    -3.7227     0.1607     7.8734 </r>
       <r>    -3.5961     0.2405     7.9039 </r>
       <r>    -3.4694     0.2106     7.9306 </r>
       <r>    -3.3428     0.1096     7.9444 </r>
       <r>    -3.2161     0.0310     7.9484 </r>
       <r>    -3.0894     0.1311     7.9650 </r>
       <r>    -2.9628     0.1121     7.9792 </r>
       <r>    -2.8361     0.1096     7.9931 </r>
       <r>    -2.7094     0.0000     7.9931 </r>
       <r>    -2.5828     0.0000     7.9931 </r>
       <r>    -2.4561     0.0437     7.9986 </r>
       <r>    -2.3295     0.0111     8.0000 </r>
       <r>    -2.2028     0.0546     8.0069 </r>
       <r>    -2.0761     0.0000     8.0069 </r>
       <r>    -1.9495     0.0000     8.0069 </r>
       <r>    -1.8228     0.0017     8.0072 </r>
       <r>    -1.6961     0.1974     8.0322 </r>
       <r>    -1.5695     0.1298     8.0486 </r>
       <r>    -1.4428     0.0548     8.0556 </r>
       <r>    -1.3161     0.1097     8.0694 </r>
       <r>    -1.1895     0.0005     8.0695 </r>
       <r>    -1.0628     0.4384     8.1250 </r>
       <r>    -0.9362     0.4381     8.1806 </r>
       <r>    -0.8095     0.1094     8.1944 </r>
       <r>    -0.6828     0.5165     8.2599 </r>
       <r>    -0.5562     0.6950     8.3480 </r>
       <r>    -0.4295     0.5682     8.4199 </r>
       <r>    -0.3028     0.5889     8.4945 </r>
       <r>    -0.1762     0.1574     8.5145 </r>
       <r>    -0.0495     0.4175     8.5673 </r>
       <r>     0.0771     0.1889     8.5913 </r>
       <r>     0.2038     0.2388     8.6215 </r>
       <r>     0.3305     0.4361     8.6768 </r>
       <r>     0.4571     0.5306     8.7440 </r>
       <r>     0.5838     0.0199     8.7465 </r>
       <r>     0.7105     0.2129     8.7735 </r>
       <r>     0.8371     0.3251     8.8147 </r>
       <r>     0.9638     0.1880     8.8385 </r>
       <r>     1.0904     0.4520     8.8958 </r>
       <r>     1.2171     0.5052     8.9598 </r>
       <r>     1.3438     0.5794     9.0332 </r>
       <r>     1.4704     0.4184     9.0863 </r>
       <r>     1.5971     0.1419     9.1043 </r>
       <r>     1.7238     0.7643     9.2011 </r>
       <r>     1.8504     0.2320     9.2305 </r>
       <r>     1.9771     0.7246     9.3222 </r>
       <r>     2.1037     0.7747     9.4204 </r>
       <r>     2.2304     0.4914     9.4826 </r>
       <r>     2.3571     0.6542     9.5655 </r>
       <r>     2.4837     0.7846     9.6649 </r>
       <r>     2.6104     0.9886     9.7901 </r>
       <r>     2.7371     0.8997     9.9041 </r>
       <r>     2.8637     0.5737     9.9768 </r>
       <r>     2.9904     1.1743    10.1255 </r>
       <r>     3.1170     1.3259    10.2935 </r>
       <r>     3.2437     0.2722    10.3280 </r>
       <r>     3.3704     0.6227    10.4069 </r>
       <r>     3.4970     1.1621    10.5541 </r>
       <r>     3.6237     0.8486    10.6617 </r>
       <r>     3.7504     0.9624    10.7837 </r>
       <r>     3.8770     0.7975    10.8848 </r>
       <r>     4.0037     1.1738    11.0335 </r>
       <r>     4.1303     0.8182    11.1371 </r>
       <r>     4.2570     0.1775    11.1596 </r>
       <r>     4.3837     1.0649    11.2945 </r>
       <r>     4.5103     1.4529    11.4787 </r>
       <r>     4.6370     1.5029    11.6691 </r>
       <r>     4.7637     1.5819    11.8695 </r>
       <r>     4.8903     0.5629    11.9408 </r>
       <r>     5.0170     1.0174    12.0697 </r>
       <r>     5.1436     2.2376    12.3531 </r>
       <r>     5.2703     2.2866    12.6428 </r>
       <r>     5.3970     1.5252    12.8360 </r>
       <r>     5.5236     2.0848    13.1003 </r>
       <r>     5.6503     1.5511    13.2968 </r>
       <r>     5.7770     2.1276    13.5663 </r>
       <r>     5.9036     2.9040    13.9342 </r>
       <r>     6.0303     2.5638    14.2592 </r>
       <r>     6.1569     1.9317    14.5041 </r>
       <r>     6.2836     1.8632    14.7401 </r>
       <r>     6.4103     1.5384    14.9350 </r>
       <r>     6.5369     2.0959    15.2006 </r>
       <r>     6.6636     1.5781    15.4007 </r>
       <r>     6.7903     1.5295    15.5944 </r>
       <r>     6.9169     2.0209    15.8504 </r>
       <r>     7.0436     2.0860    16.1146 </r>
       <r>     7.1702     1.7239    16.3331 </r>
       <r>     7.2969     1.2904    16.4966 </r>
       <r>     7.4236     1.1136    16.6377 </r>
       <r>     7.5502     2.1851    16.9145 </r>
       <r>     7.6769     1.5039    17.1050 </r>
       <r>     7.8036     2.5607    17.4294 </r>
       <r>     7.9302     1.9165    17.6722 </r>
       <r>     8.0569     0.8952    17.7857 </r>
       <r>     8.1835     1.3469    17.9564 </r>
       <r>     8.3102     2.3752    18.2573 </r>
       <r>     8.4369     1.8922    18.4970 </r>
       <r>     8.5635     2.2668    18.7842 </r>
       <r>     8.6902     2.0271    19.0409 </r>
       <r>     8.8169     1.7903    19.2678 </r>
       <r>     8.9435     1.0446    19.4003 </r>
       <r>     9.0702     1.2217    19.5551 </r>
       <r>     9.1968     2.2857    19.8447 </r>
       <r>     9.3235     1.3413    20.0147 </r>
       <r>     9.4502     1.2746    20.1761 </r>
       <r>     9.5768     1.5862    20.3770 </r>
       <r>     9.7035     1.5203    20.5696 </r>
       <r>     9.8302     1.8101    20.7989 </r>
       <r>     9.9568     1.6914    21.0134 </r>
       <r>    10.0835     1.7527    21.2354 </r>
       <r>    10.2101     1.6586    21.4456 </r>
       <r>    10.3368     2.0044    21.6995 </r>
       <r>    10.4635     1.9138    21.9421 </r>
       <r>    10.5901     1.3180    22.1092 </r>
       <r>    10.7168     2.1682    22.3839 </r>
       <r>    10.8435     1.3984    22.5611 </r>
       <r>    10.9701     1.2677    22.7216 </r>
       <r>    11.0968     1.4219    22.9018 </r>
       <r>    11.2234     1.2492    23.0602 </r>
       <r>    11.3501     0.8823    23.1721 </r>
       <r>    11.4768     1.0230    23.3017 </r>
       <r>    11.6034     1.2199    23.4562 </r>
       <r>    11.7301     0.4974    23.5192 </r>
       <r>    11.8568     1.4508    23.7030 </r>
       <r>    11.9834     0.6449    23.7849 </r>
       <r>    12.1101     0.3277    23.8265 </r>
       <r>    12.2368     0.3824    23.8749 </r>
       <r>    12.3634     0.0513    23.8814 </r>
       <r>    12.4901     0.1859    23.9049 </r>
       <r>    12.6167     0.3111    23.9443 </r>
       <r>    12.7434     0.2141    23.9715 </r>
       <r>    12.8701     0.1157    23.9861 </r>
       <r>    12.9967     0.1096    24.0000 </r>
       <r>    13.1234     0.0000    24.0000 </r>
       <r>    13.2501     0.0000    24.0000 </r>
       <r>    13.3767     0.0000    24.0000 </r>
       <r>    13.5034     0.0000    24.0000 </r>
       <r>    13.6300     0.0000    24.0000 </r>
       <r>    13.7567     0.0000    24.0000 </r>
       <r>    13.8834     0.0000    24.0000 </r>
       <r>    14.0100     0.0000    24.0000 </r>
       <r>    14.1367     0.0000    24.0000 </r>
       <r>    14.2634     0.0000    24.0000 </r>
       <r>    14.3900     0.0000    24.0000 </r>
       <r>    14.5167     0.0000    24.0000 </r>
       <r>    14.6433     0.0000    24.0000 </r>
      </set>
     </set>
    </array>
   </total>
  </dos>
 </calculation>
 <structure name="finalpos" >
  <crystal>
   <varray name="basis" >
    <v>       2.51386100       0.00000000       0.00000000 </v>
    <v>      -1.25693100       2.13736100       0.00000000 </v>
    <v>       0.00000000       0.00000000      15.00000000 </v>
   </varray>
   <i name="volume">     80.59542691 </i>
   <varray name="rec_basis" >
    <v>       0.39779447       0.23393343       0.00000000 </v>
    <v>       0.00000000       0.46786668       0.00000000 </v>
    <v>       0.00000000       0.00000000       0.06666667 </v>
   </varray>
  </crystal>
  <varray name="positions" >
   <v>       0.99993204       0.99986408       0.50000000 </v>
   <v>       0.33340096       0.66680292       0.50000000 </v>
  </varray>
 </structure>
</modeling>
