<?xml version="1.0" encoding="ISO-8859-1"?>
<modeling>
 <generator>
  <i name="program" type="string">vasp </i>
  <i name="version" type="string">5.4.1  </i>
  <i name="subversion" type="string">24Jun15 (build Nov 20 2020 10:29:34) complex                          parallel </i>
  <i name="platform" type="string">IFC91_ompi </i>
  <i name="date" type="string">2021 09 09 </i>
  <i name="time" type="string">15:24:21 </i>
 </generator>
 <incar>
  <i type="string" name="PREC">a</i>
  <i type="string" name="ALGO"> Normal</i>
  <i type="int" name="ISPIN">     1</i>
  <i type="int" name="ICHARG">     2</i>
  <i type="int" name="NELM">   250</i>
  <i type="int" name="NELMDL">    -5</i>
  <i type="int" name="NELMIN">     6</i>
  <i type="int" name="IBRION">     2</i>
  <i name="EDIFF">      0.00001000</i>
  <i name="EDIFFG">     -0.01000000</i>
  <i type="int" name="NSW">   200</i>
  <i type="int" name="ISIF">     2</i>
  <i name="ENCUT">    520.00000000</i>
  <i name="POTIM">      0.30000000</i>
  <i type="logical" name="LREAL"> F  </i>
  <i type="int" name="ISMEAR">     0</i>
  <i name="SIGMA">      0.02000000</i>
  <i type="logical" name="LWAVE"> F  </i>
  <i type="logical" name="LCHARG"> F  </i>
  <i type="logical" name="LAECHG"> F  </i>
  <v type="int" name="KPOINT_BSE">    -1     0     0     0</v>
  <i type="int" name="NELM">   250</i>
 </incar>
 <kpoints>
  <generation param="Gamma">
   <v type="int" name="divisions">      21       15        1 </v>
   <v name="usershift">      0.00000000       0.00000000       0.00000000 </v>
   <v name="genvec1">      0.04761905      -0.00000000       0.00000000 </v>
   <v name="genvec2">      0.00000000       0.06666667       0.00000000 </v>
   <v name="genvec3">      0.00000000       0.00000000       1.00000000 </v>
   <v name="shift">      0.00000000       0.00000000       0.00000000 </v>
  </generation>
  <varray name="kpointlist" >
   <v>       0.00000000       0.00000000       0.00000000 </v>
   <v>       0.04761905       0.00000000       0.00000000 </v>
   <v>       0.09523810       0.00000000       0.00000000 </v>
   <v>       0.14285714       0.00000000       0.00000000 </v>
   <v>       0.19047619       0.00000000       0.00000000 </v>
   <v>       0.23809524       0.00000000       0.00000000 </v>
   <v>       0.28571429       0.00000000       0.00000000 </v>
   <v>       0.33333333       0.00000000       0.00000000 </v>
   <v>       0.38095238       0.00000000       0.00000000 </v>
   <v>       0.42857143       0.00000000       0.00000000 </v>
   <v>       0.47619048       0.00000000       0.00000000 </v>
   <v>      -0.00000000       0.06666667       0.00000000 </v>
   <v>       0.04761905       0.06666667       0.00000000 </v>
   <v>       0.09523810       0.06666667       0.00000000 </v>
   <v>       0.14285714       0.06666667       0.00000000 </v>
   <v>       0.19047619       0.06666667       0.00000000 </v>
   <v>       0.23809524       0.06666667       0.00000000 </v>
   <v>       0.28571429       0.06666667       0.00000000 </v>
   <v>       0.33333333       0.06666667       0.00000000 </v>
   <v>       0.38095238       0.06666667       0.00000000 </v>
   <v>       0.42857143       0.06666667       0.00000000 </v>
   <v>       0.47619048       0.06666667       0.00000000 </v>
   <v>      -0.47619048       0.06666667       0.00000000 </v>
   <v>      -0.42857143       0.06666667       0.00000000 </v>
   <v>      -0.38095238       0.06666667       0.00000000 </v>
   <v>      -0.33333333       0.06666667       0.00000000 </v>
   <v>      -0.28571429       0.06666667       0.00000000 </v>
   <v>      -0.23809524       0.06666667       0.00000000 </v>
   <v>      -0.19047619       0.06666667       0.00000000 </v>
   <v>      -0.14285714       0.06666667       0.00000000 </v>
   <v>      -0.09523810       0.06666667       0.00000000 </v>
   <v>      -0.04761905       0.06666667       0.00000000 </v>
   <v>      -0.00000000       0.13333333       0.00000000 </v>
   <v>       0.04761905       0.13333333       0.00000000 </v>
   <v>       0.09523810       0.13333333       0.00000000 </v>
   <v>       0.14285714       0.13333333       0.00000000 </v>
   <v>       0.19047619       0.13333333       0.00000000 </v>
   <v>       0.23809524       0.13333333       0.00000000 </v>
   <v>       0.28571429       0.13333333       0.00000000 </v>
   <v>       0.33333333       0.13333333       0.00000000 </v>
   <v>       0.38095238       0.13333333       0.00000000 </v>
   <v>       0.42857143       0.13333333       0.00000000 </v>
   <v>       0.47619048       0.13333333       0.00000000 </v>
   <v>      -0.47619048       0.13333333       0.00000000 </v>
   <v>      -0.42857143       0.13333333       0.00000000 </v>
   <v>      -0.38095238       0.13333333       0.00000000 </v>
   <v>      -0.33333333       0.13333333       0.00000000 </v>
   <v>      -0.28571429       0.13333333       0.00000000 </v>
   <v>      -0.23809524       0.13333333       0.00000000 </v>
   <v>      -0.19047619       0.13333333       0.00000000 </v>
   <v>      -0.14285714       0.13333333       0.00000000 </v>
   <v>      -0.09523810       0.13333333       0.00000000 </v>
   <v>      -0.04761905       0.13333333       0.00000000 </v>
   <v>      -0.00000000       0.20000000       0.00000000 </v>
   <v>       0.04761905       0.20000000       0.00000000 </v>
   <v>       0.09523810       0.20000000       0.00000000 </v>
   <v>       0.14285714       0.20000000       0.00000000 </v>
   <v>       0.19047619       0.20000000       0.00000000 </v>
   <v>       0.23809524       0.20000000       0.00000000 </v>
   <v>       0.28571429       0.20000000       0.00000000 </v>
   <v>       0.33333333       0.20000000       0.00000000 </v>
   <v>       0.38095238       0.20000000       0.00000000 </v>
   <v>       0.42857143       0.20000000       0.00000000 </v>
   <v>       0.47619048       0.20000000       0.00000000 </v>
   <v>      -0.47619048       0.20000000       0.00000000 </v>
   <v>      -0.42857143       0.20000000       0.00000000 </v>
   <v>      -0.38095238       0.20000000       0.00000000 </v>
   <v>      -0.33333333       0.20000000       0.00000000 </v>
   <v>      -0.28571429       0.20000000       0.00000000 </v>
   <v>      -0.23809524       0.20000000       0.00000000 </v>
   <v>      -0.19047619       0.20000000       0.00000000 </v>
   <v>      -0.14285714       0.20000000       0.00000000 </v>
   <v>      -0.09523810       0.20000000       0.00000000 </v>
   <v>      -0.04761905       0.20000000       0.00000000 </v>
   <v>      -0.00000000       0.26666667       0.00000000 </v>
   <v>       0.04761905       0.26666667       0.00000000 </v>
   <v>       0.09523810       0.26666667       0.00000000 </v>
   <v>       0.14285714       0.26666667       0.00000000 </v>
   <v>       0.19047619       0.26666667       0.00000000 </v>
   <v>       0.23809524       0.26666667       0.00000000 </v>
   <v>       0.28571429       0.26666667       0.00000000 </v>
   <v>       0.33333333       0.26666667       0.00000000 </v>
   <v>       0.38095238       0.26666667       0.00000000 </v>
   <v>       0.42857143       0.26666667       0.00000000 </v>
   <v>       0.47619048       0.26666667       0.00000000 </v>
   <v>      -0.47619048       0.26666667       0.00000000 </v>
   <v>      -0.42857143       0.26666667       0.00000000 </v>
   <v>      -0.38095238       0.26666667       0.00000000 </v>
   <v>      -0.33333333       0.26666667       0.00000000 </v>
   <v>      -0.28571429       0.26666667       0.00000000 </v>
   <v>      -0.23809524       0.26666667       0.00000000 </v>
   <v>      -0.19047619       0.26666667       0.00000000 </v>
   <v>      -0.14285714       0.26666667       0.00000000 </v>
   <v>      -0.09523810       0.26666667       0.00000000 </v>
   <v>      -0.04761905       0.26666667       0.00000000 </v>
   <v>      -0.00000000       0.33333333       0.00000000 </v>
   <v>       0.04761905       0.33333333       0.00000000 </v>
   <v>       0.09523810       0.33333333       0.00000000 </v>
   <v>       0.14285714       0.33333333       0.00000000 </v>
   <v>       0.19047619       0.33333333       0.00000000 </v>
   <v>       0.23809524       0.33333333       0.00000000 </v>
   <v>       0.28571429       0.33333333       0.00000000 </v>
   <v>       0.33333333       0.33333333       0.00000000 </v>
   <v>       0.38095238       0.33333333       0.00000000 </v>
   <v>       0.42857143       0.33333333       0.00000000 </v>
   <v>       0.47619048       0.33333333       0.00000000 </v>
   <v>      -0.47619048       0.33333333       0.00000000 </v>
   <v>      -0.42857143       0.33333333       0.00000000 </v>
   <v>      -0.38095238       0.33333333       0.00000000 </v>
   <v>      -0.33333333       0.33333333       0.00000000 </v>
   <v>      -0.28571429       0.33333333       0.00000000 </v>
   <v>      -0.23809524       0.33333333       0.00000000 </v>
   <v>      -0.19047619       0.33333333       0.00000000 </v>
   <v>      -0.14285714       0.33333333       0.00000000 </v>
   <v>      -0.09523810       0.33333333       0.00000000 </v>
   <v>      -0.04761905       0.33333333       0.00000000 </v>
   <v>      -0.00000000       0.40000000       0.00000000 </v>
   <v>       0.04761905       0.40000000       0.00000000 </v>
   <v>       0.09523810       0.40000000       0.00000000 </v>
   <v>       0.14285714       0.40000000       0.00000000 </v>
   <v>       0.19047619       0.40000000       0.00000000 </v>
   <v>       0.23809524       0.40000000       0.00000000 </v>
   <v>       0.28571429       0.40000000       0.00000000 </v>
   <v>       0.33333333       0.40000000       0.00000000 </v>
   <v>       0.38095238       0.40000000       0.00000000 </v>
   <v>       0.42857143       0.40000000       0.00000000 </v>
   <v>       0.47619048       0.40000000       0.00000000 </v>
   <v>      -0.47619048       0.40000000       0.00000000 </v>
   <v>      -0.42857143       0.40000000       0.00000000 </v>
   <v>      -0.38095238       0.40000000       0.00000000 </v>
   <v>      -0.33333333       0.40000000       0.00000000 </v>
   <v>      -0.28571429       0.40000000       0.00000000 </v>
   <v>      -0.23809524       0.40000000       0.00000000 </v>
   <v>      -0.19047619       0.40000000       0.00000000 </v>
   <v>      -0.14285714       0.40000000       0.00000000 </v>
   <v>      -0.09523810       0.40000000       0.00000000 </v>
   <v>      -0.04761905       0.40000000       0.00000000 </v>
   <v>      -0.00000000       0.46666667       0.00000000 </v>
   <v>       0.04761905       0.46666667       0.00000000 </v>
   <v>       0.09523810       0.46666667       0.00000000 </v>
   <v>       0.14285714       0.46666667       0.00000000 </v>
   <v>       0.19047619       0.46666667       0.00000000 </v>
   <v>       0.23809524       0.46666667       0.00000000 </v>
   <v>       0.28571429       0.46666667       0.00000000 </v>
   <v>       0.33333333       0.46666667       0.00000000 </v>
   <v>       0.38095238       0.46666667       0.00000000 </v>
   <v>       0.42857143       0.46666667       0.00000000 </v>
   <v>       0.47619048       0.46666667       0.00000000 </v>
   <v>      -0.47619048       0.46666667       0.00000000 </v>
   <v>      -0.42857143       0.46666667       0.00000000 </v>
   <v>      -0.38095238       0.46666667       0.00000000 </v>
   <v>      -0.33333333       0.46666667       0.00000000 </v>
   <v>      -0.28571429       0.46666667       0.00000000 </v>
   <v>      -0.23809524       0.46666667       0.00000000 </v>
   <v>      -0.19047619       0.46666667       0.00000000 </v>
   <v>      -0.14285714       0.46666667       0.00000000 </v>
   <v>      -0.09523810       0.46666667       0.00000000 </v>
   <v>      -0.04761905       0.46666667       0.00000000 </v>
  </varray>
  <varray name="weights" >
   <v>       0.00317460 </v>
   <v>       0.00634921 </v>
   <v>       0.00634921 </v>
   <v>       0.00634921 </v>
   <v>       0.00634921 </v>
   <v>       0.00634921 </v>
   <v>       0.00634921 </v>
   <v>       0.00634921 </v>
   <v>       0.00634921 </v>
   <v>       0.00634921 </v>
   <v>       0.00634921 </v>
   <v>       0.00634921 </v>
   <v>       0.00634921 </v>
   <v>       0.00634921 </v>
   <v>       0.00634921 </v>
   <v>       0.00634921 </v>
   <v>       0.00634921 </v>
   <v>       0.00634921 </v>
   <v>       0.00634921 </v>
   <v>       0.00634921 </v>
   <v>       0.00634921 </v>
   <v>       0.00634921 </v>
   <v>       0.00634921 </v>
   <v>       0.00634921 </v>
   <v>       0.00634921 </v>
   <v>       0.00634921 </v>
   <v>       0.00634921 </v>
   <v>       0.00634921 </v>
   <v>       0.00634921 </v>
   <v>       0.00634921 </v>
   <v>       0.00634921 </v>
   <v>       0.00634921 </v>
   <v>       0.00634921 </v>
   <v>       0.00634921 </v>
   <v>       0.00634921 </v>
   <v>       0.00634921 </v>
   <v>       0.00634921 </v>
   <v>       0.00634921 </v>
   <v>       0.00634921 </v>
   <v>       0.00634921 </v>
   <v>       0.00634921 </v>
   <v>       0.00634921 </v>
   <v>       0.00634921 </v>
   <v>       0.00634921 </v>
   <v>       0.00634921 </v>
   <v>       0.00634921 </v>
   <v>       0.00634921 </v>
   <v>       0.00634921 </v>
   <v>       0.00634921 </v>
   <v>       0.00634921 </v>
   <v>       0.00634921 </v>
   <v>       0.00634921 </v>
   <v>       0.00634921 </v>
   <v>       0.00634921 </v>
   <v>       0.00634921 </v>
   <v>       0.00634921 </v>
   <v>       0.00634921 </v>
   <v>       0.00634921 </v>
   <v>       0.00634921 </v>
   <v>       0.00634921 </v>
   <v>       0.00634921 </v>
   <v>       0.00634921 </v>
   <v>       0.00634921 </v>
   <v>       0.00634921 </v>
   <v>       0.00634921 </v>
   <v>       0.00634921 </v>
   <v>       0.00634921 </v>
   <v>       0.00634921 </v>
   <v>       0.00634921 </v>
   <v>       0.00634921 </v>
   <v>       0.00634921 </v>
   <v>       0.00634921 </v>
   <v>       0.00634921 </v>
   <v>       0.00634921 </v>
   <v>       0.00634921 </v>
   <v>       0.00634921 </v>
   <v>       0.00634921 </v>
   <v>       0.00634921 </v>
   <v>       0.00634921 </v>
   <v>       0.00634921 </v>
   <v>       0.00634921 </v>
   <v>       0.00634921 </v>
   <v>       0.00634921 </v>
   <v>       0.00634921 </v>
   <v>       0.00634921 </v>
   <v>       0.00634921 </v>
   <v>       0.00634921 </v>
   <v>       0.00634921 </v>
   <v>       0.00634921 </v>
   <v>       0.00634921 </v>
   <v>       0.00634921 </v>
   <v>       0.00634921 </v>
   <v>       0.00634921 </v>
   <v>       0.00634921 </v>
   <v>       0.00634921 </v>
   <v>       0.00634921 </v>
   <v>       0.00634921 </v>
   <v>       0.00634921 </v>
   <v>       0.00634921 </v>
   <v>       0.00634921 </v>
   <v>       0.00634921 </v>
   <v>       0.00634921 </v>
   <v>       0.00634921 </v>
   <v>       0.00634921 </v>
   <v>       0.00634921 </v>
   <v>       0.00634921 </v>
   <v>       0.00634921 </v>
   <v>       0.00634921 </v>
   <v>       0.00634921 </v>
   <v>       0.00634921 </v>
   <v>       0.00634921 </v>
   <v>       0.00634921 </v>
   <v>       0.00634921 </v>
   <v>       0.00634921 </v>
   <v>       0.00634921 </v>
   <v>       0.00634921 </v>
   <v>       0.00634921 </v>
   <v>       0.00634921 </v>
   <v>       0.00634921 </v>
   <v>       0.00634921 </v>
   <v>       0.00634921 </v>
   <v>       0.00634921 </v>
   <v>       0.00634921 </v>
   <v>       0.00634921 </v>
   <v>       0.00634921 </v>
   <v>       0.00634921 </v>
   <v>       0.00634921 </v>
   <v>       0.00634921 </v>
   <v>       0.00634921 </v>
   <v>       0.00634921 </v>
   <v>       0.00634921 </v>
   <v>       0.00634921 </v>
   <v>       0.00634921 </v>
   <v>       0.00634921 </v>
   <v>       0.00634921 </v>
   <v>       0.00634921 </v>
   <v>       0.00634921 </v>
   <v>       0.00634921 </v>
   <v>       0.00634921 </v>
   <v>       0.00634921 </v>
   <v>       0.00634921 </v>
   <v>       0.00634921 </v>
   <v>       0.00634921 </v>
   <v>       0.00634921 </v>
   <v>       0.00634921 </v>
   <v>       0.00634921 </v>
   <v>       0.00634921 </v>
   <v>       0.00634921 </v>
   <v>       0.00634921 </v>
   <v>       0.00634921 </v>
   <v>       0.00634921 </v>
   <v>       0.00634921 </v>
   <v>       0.00634921 </v>
   <v>       0.00634921 </v>
   <v>       0.00634921 </v>
   <v>       0.00634921 </v>
   <v>       0.00634921 </v>
   <v>       0.00634921 </v>
  </varray>
 </kpoints>
 <parameters>
  <separator name="general" >
   <i type="string" name="SYSTEM">unknown system</i>
   <i type="logical" name="LCOMPAT"> F  </i>
  </separator>
  <separator name="electronic" >
   <i type="string" name="PREC">a</i>
   <i name="ENMAX">    520.00000000</i>
   <i name="ENAUG">    342.92400000</i>
   <i name="EDIFF">      0.00001000</i>
   <i type="int" name="IALGO">    38</i>
   <i type="int" name="IWAVPR">    11</i>
   <i type="int" name="NBANDS">    16</i>
   <i name="NELECT">     20.00000000</i>
   <i type="int" name="TURBO">     0</i>
   <i type="int" name="IRESTART">     0</i>
   <i type="int" name="NREBOOT">     0</i>
   <i type="int" name="NMIN">     0</i>
   <i name="EREF">      0.00000000</i>
   <separator name="electronic smearing" >
    <i type="int" name="ISMEAR">     0</i>
    <i name="SIGMA">      0.02000000</i>
    <i name="KSPACING">      0.50000000</i>
    <i type="logical" name="KGAMMA"> T  </i>
   </separator>
   <separator name="electronic projectors" >
    <i type="logical" name="LREAL"> F  </i>
    <v name="ROPT">      0.00000000</v>
    <i type="int" name="LMAXPAW">  -100</i>
    <i type="int" name="LMAXMIX">     2</i>
    <i type="logical" name="NLSPLINE"> F  </i>
   </separator>
   <separator name="electronic startup" >
    <i type="int" name="ISTART">     0</i>
    <i type="int" name="ICHARG">     2</i>
    <i type="int" name="INIWAV">     1</i>
   </separator>
   <separator name="electronic spin" >
    <i type="int" name="ISPIN">     1</i>
    <i type="logical" name="LNONCOLLINEAR"> F  </i>
    <v name="MAGMOM">      1.00000000      1.00000000      1.00000000      1.00000000</v>
    <i name="NUPDOWN">     -1.00000000</i>
    <i type="logical" name="LSORBIT"> F  </i>
    <v name="SAXIS">      0.00000000      0.00000000      1.00000000</v>
    <i type="logical" name="LSPIRAL"> F  </i>
    <v name="QSPIRAL">      0.00000000      0.00000000      0.00000000</v>
    <i type="logical" name="LZEROZ"> F  </i>
   </separator>
   <separator name="electronic exchange-correlation" >
    <i type="logical" name="LASPH"> F  </i>
    <i type="logical" name="LMETAGGA"> F  </i>
   </separator>
   <separator name="electronic convergence" >
    <i type="int" name="NELM">   250</i>
    <i type="int" name="NELMDL">    -5</i>
    <i type="int" name="NELMIN">     6</i>
    <i name="ENINI">    520.00000000</i>
    <separator name="electronic convergence detail" >
     <i type="logical" name="LDIAG"> T  </i>
     <i type="logical" name="LSUBROT"> F  </i>
     <i name="WEIMIN">      0.00100000</i>
     <i name="EBREAK">      0.00000016</i>
     <i name="DEPER">      0.30000000</i>
     <i type="int" name="NRMM">     4</i>
     <i name="TIME">      0.40000000</i>
    </separator>
   </separator>
   <separator name="electronic mixer" >
    <i name="AMIX">      0.40000000</i>
    <i name="BMIX">      1.00000000</i>
    <i name="AMIN">      0.10000000</i>
    <i name="AMIX_MAG">      1.60000000</i>
    <i name="BMIX_MAG">      1.00000000</i>
    <separator name="electronic mixer details" >
     <i type="int" name="IMIX">     4</i>
     <i type="logical" name="MIXFIRST"> F  </i>
     <i type="int" name="MAXMIX">   -45</i>
     <i name="WC">    100.00000000</i>
     <i type="int" name="INIMIX">     1</i>
     <i type="int" name="MIXPRE">     1</i>
     <i type="int" name="MREMOVE">     5</i>
    </separator>
   </separator>
   <separator name="electronic dipolcorrection" >
    <i type="logical" name="LDIPOL"> F  </i>
    <i type="logical" name="LMONO"> F  </i>
    <i type="int" name="IDIPOL">     0</i>
    <i name="EPSILON">      1.00000000</i>
    <v name="DIPOL">   -100.00000000   -100.00000000   -100.00000000</v>
    <i name="EFIELD">      0.00000000</i>
   </separator>
  </separator>
  <separator name="grids" >
   <i type="int" name="NGX">    28</i>
   <i type="int" name="NGY">    36</i>
   <i type="int" name="NGZ">   150</i>
   <i type="int" name="NGXF">    56</i>
   <i type="int" name="NGYF">    72</i>
   <i type="int" name="NGZF">   300</i>
   <i type="logical" name="ADDGRID"> F  </i>
  </separator>
  <separator name="ionic" >
   <i type="int" name="NSW">   200</i>
   <i type="int" name="IBRION">     2</i>
   <i type="int" name="ISIF">     2</i>
   <i name="PSTRESS">      0.00000000</i>
   <i name="EDIFFG">     -0.01000000</i>
   <i type="int" name="NFREE">     1</i>
   <i name="POTIM">      0.30000000</i>
   <i name="SMASS">     -3.00000000</i>
   <i name="SCALEE">      1.00000000</i>
  </separator>
  <separator name="ionic md" >
   <i name="TEBEG">      0.00010000</i>
   <i name="TEEND">      0.00010000</i>
   <i type="int" name="NBLOCK">     1</i>
   <i type="int" name="KBLOCK">   200</i>
   <i type="int" name="NPACO">   256</i>
   <i name="APACO">     16.00000000</i>
  </separator>
  <separator name="symmetry" >
   <i type="int" name="ISYM">     2</i>
   <i name="SYMPREC">      0.00001000</i>
  </separator>
  <separator name="dos" >
   <i type="logical" name="LORBIT"> F  </i>
   <v name="RWIGS">     -1.00000000</v>
   <i type="int" name="NEDOS">   301</i>
   <i name="EMIN">     10.00000000</i>
   <i name="EMAX">    -10.00000000</i>
   <i name="EFERMI">      0.00000000</i>
  </separator>
  <separator name="writing" >
   <i type="int" name="NWRITE">     2</i>
   <i type="logical" name="LWAVE"> F  </i>
   <i type="logical" name="LCHARG"> F  </i>
   <i type="logical" name="LPARD"> F  </i>
   <i type="logical" name="LVTOT"> F  </i>
   <i type="logical" name="LVHAR"> F  </i>
   <i type="logical" name="LELF"> F  </i>
   <i type="logical" name="LOPTICS"> F  </i>
   <v name="STM">      0.00000000      0.00000000      0.00000000      0.00000000      0.00000000      0.00000000      0.00000000</v>
  </separator>
  <separator name="performance" >
   <i type="int" name="NPAR">     4</i>
   <i type="int" name="NSIM">     4</i>
   <i type="int" name="NBLK">    -1</i>
   <i type="logical" name="LPLANE"> T  </i>
   <i type="logical" name="LSCALAPACK"> T  </i>
   <i type="logical" name="LSCAAWARE"> F  </i>
   <i type="logical" name="LSCALU"> F  </i>
   <i type="logical" name="LASYNC"> F  </i>
   <i type="logical" name="LORBITALREAL"> F  </i>
  </separator>
  <separator name="miscellaneous" >
   <i type="int" name="IDIOT">     3</i>
   <i type="logical" name="LMUSIC"> F  </i>
   <v name="POMASS">     30.97400000</v>
   <v name="DARWINR">      0.00000000</v>
   <v name="DARWINV">      1.00000000</v>
   <i type="logical" name="LCORR"> T  </i>
  </separator>
  <i type="logical" name="GGA_COMPAT"> T  </i>
  <i type="logical" name="LBERRY"> F  </i>
  <i type="int" name="ICORELEVEL">     0</i>
  <i type="logical" name="LDAU"> F  </i>
  <i type="int" name="I_CONSTRAINED_M">     0</i>
  <separator name="electronic exchange-correlation" >
   <i type="string" name="GGA">--</i>
   <i type="int" name="VOSKOWN">     0</i>
   <i type="logical" name="LHFCALC"> F  </i>
   <i type="string" name="PRECFOCK"></i>
   <i type="logical" name="LSYMGRAD"> F  </i>
   <i type="logical" name="LHFONE"> F  </i>
   <i type="logical" name="LRHFCALC"> F  </i>
   <i type="logical" name="LTHOMAS"> F  </i>
   <i type="logical" name="LMODELHF"> F  </i>
   <i name="ENCUT4O">     -1.00000000</i>
   <i type="int" name="EXXOEP">     0</i>
   <i type="int" name="FOURORBIT">     0</i>
   <i name="AEXX">      0.00000000</i>
   <i name="HFALPHA">      0.00000000</i>
   <i name="MCALPHA">      0.00000000</i>
   <i name="ALDAX">      1.00000000</i>
   <i name="AGGAX">      1.00000000</i>
   <i name="ALDAC">      1.00000000</i>
   <i name="AGGAC">      1.00000000</i>
   <i type="int" name="NKREDX">     1</i>
   <i type="int" name="NKREDY">     1</i>
   <i type="int" name="NKREDZ">     1</i>
   <i type="logical" name="SHIFTRED"> F  </i>
   <i type="logical" name="ODDONLY"> F  </i>
   <i type="logical" name="EVENONLY"> F  </i>
   <i type="int" name="LMAXFOCK">     0</i>
   <i type="int" name="NMAXFOCKAE">     0</i>
   <i type="logical" name="LFOCKAEDFT"> F  </i>
   <i name="HFSCREEN">      0.00000000</i>
   <i name="HFSCREENC">      0.00000000</i>
   <i type="int" name="NBANDSGWLOW">     0</i>
  </separator>
  <separator name="vdW DFT" >
   <i type="logical" name="LUSE_VDW"> F  </i>
   <i name="Zab_VDW">     -0.84910000</i>
   <i name="PARAM1">      0.12340000</i>
   <i name="PARAM2">      1.00000000</i>
   <i name="PARAM3">      0.00000000</i>
  </separator>
  <separator name="model GW" >
   <i type="int" name="MODEL_GW">     0</i>
   <i name="MODEL_EPS0">     45.55865853</i>
   <i name="MODEL_ALPHA">      1.00000000</i>
  </separator>
  <separator name="linear response parameters" >
   <i type="logical" name="LEPSILON"> F  </i>
   <i type="logical" name="LRPA"> F  </i>
   <i type="logical" name="LNABLA"> F  </i>
   <i type="logical" name="LVEL"> F  </i>
   <i type="int" name="KINTER">     0</i>
   <i name="CSHIFT">      0.10000000</i>
   <i name="OMEGAMAX">     -1.00000000</i>
   <i name="DEG_THRESHOLD">      0.00200000</i>
  </separator>
  <separator name="orbital magnetization" >
   <i type="logical" name="NUCIND"> F  </i>
   <v name="MAGPOS">      0.00000000      0.00000000      0.00000000</v>
   <i type="logical" name="LNICSALL"> T  </i>
   <i type="logical" name="ORBITALMAG"> F  </i>
   <i type="logical" name="LMAGBLOCH"> F  </i>
   <i type="logical" name="LCHIMAG"> F  </i>
   <i type="logical" name="LGAUGE"> T  </i>
   <i type="int" name="MAGATOM">     0</i>
   <v name="MAGDIPOL">      0.00000000      0.00000000      0.00000000</v>
   <v name="AVECCONST">      0.00000000      0.00000000      0.00000000</v>
  </separator>
  <separator name="response functions" >
   <i type="logical" name="LADDER"> F  </i>
   <i type="logical" name="LFXC"> F  </i>
   <i type="logical" name="LHARTREE"> T  </i>
   <i type="int" name="IBSE">     0</i>
   <v type="int" name="KPOINT">    -1     0     0     0</v>
   <i type="logical" name="LTCTE"> F  </i>
   <i type="logical" name="LTETE"> F  </i>
   <i type="logical" name="LTRIPLET"> F  </i>
   <i type="logical" name="LFXCEPS"> F  </i>
   <i type="logical" name="LFXHEG"> F  </i>
   <i type="int" name="NATURALO">     0</i>
   <i type="logical" name="L2ORDER"> F  </i>
   <i type="logical" name="LUSEW"> F  </i>
   <i name="ENCUTGW">     -2.00000000</i>
   <i name="ENCUTGWSOFT">     -2.00000000</i>
   <i name="ENCUTLF">     -1.00000000</i>
   <i type="int" name="LMAXMP2">    -1</i>
   <i name="SCISSOR">      0.00000000</i>
   <i type="int" name="NOMEGA">     0</i>
   <i type="int" name="NOMEGAR">     0</i>
   <i type="int" name="NBANDSGW">    -1</i>
   <i type="int" name="NBANDSO">    -1</i>
   <i type="int" name="NBANDSV">    -1</i>
   <i type="int" name="NELM">   250</i>
   <i type="int" name="NELMHF">     1</i>
   <i type="int" name="DIM">     3</i>
   <i type="int" name="ANTIRES">     0</i>
   <i name="OMEGAMAX">    -30.00000000</i>
   <i name="OMEGAMIN">    -30.00000000</i>
   <i name="OMEGATL">   -200.00000000</i>
   <i type="int" name="OMEGAGRID">     0</i>
   <i name="CSHIFT">     -0.10000000</i>
   <i type="logical" name="SELFENERGY"> F  </i>
   <i type="logical" name="LSPECTRAL"> F  </i>
   <i type="logical" name="LSPECTRALGW"> F  </i>
   <i type="logical" name="LSINGLES"> F  </i>
   <i type="logical" name="LFERMIGW"> F  </i>
   <i type="logical" name="ODDONLYGW"> F  </i>
   <i type="logical" name="EVENONLYGW"> F  </i>
   <i type="int" name="NKREDLFX">     1</i>
   <i type="int" name="NKREDLFY">     1</i>
   <i type="int" name="NKREDLFZ">     1</i>
   <i type="int" name="MAXMEM">  1800</i>
   <i type="int" name="TELESCOPE">     0</i>
   <i type="int" name="TAUPAR">     1</i>
   <i type="int" name="OMEGAPAR">    -1</i>
   <i name="LAMBDA">      1.00000000</i>
  </separator>
  <separator name="External order field" >
   <i name="OFIELD_KAPPA">      0.00000000</i>
   <v name="OFIELD_K">      0.00000000      0.00000000      0.00000000</v>
   <i name="OFIELD_Q6_NEAR">      0.00000000</i>
   <i name="OFIELD_Q6_FAR">      0.00000000</i>
   <i name="OFIELD_A">      0.00000000</i>
  </separator>
 </parameters>
 <atominfo>
  <atoms>       4 </atoms>
  <types>       1 </types>
  <array name="atoms" >
   <dimension dim="1">ion</dimension>
   <field type="string">element</field>
   <field type="int">atomtype</field>
   <set>
    <rc><c>P </c><c>   1</c></rc>
    <rc><c>P </c><c>   1</c></rc>
    <rc><c>P </c><c>   1</c></rc>
    <rc><c>P </c><c>   1</c></rc>
   </set>
  </array>
  <array name="atomtypes" >
   <dimension dim="1">type</dimension>
   <field type="int">atomspertype</field>
   <field type="string">element</field>
   <field>mass</field>
   <field>valence</field>
   <field type="string">pseudopotential</field>
   <set>
    <rc><c>   4</c><c>P </c><c>     30.97400000</c><c>      5.00000000</c><c>  PAW_PBE P 06Sep2000                   </c></rc>
   </set>
  </array>
 </atominfo>
 <structure name="initialpos" >
  <crystal>
   <varray name="basis" >
    <v>       3.29307000       0.16506700       0.00000000 </v>
    <v>       0.23145800       4.61755400      -0.00005300 </v>
    <v>       0.00000000       0.00000000      20.02439000 </v>
   </varray>
   <i name="volume">    303.72439021 </i>
   <varray name="rec_basis" >
    <v>       0.30443292      -0.01525990       0.00000000 </v>
    <v>      -0.01088278       0.21711038       0.00000000 </v>
    <v>      -0.00000003       0.00000057       0.04993910 </v>
   </varray>
  </crystal>
  <varray name="positions" >
   <v>       0.50000000       0.91077300       0.55252100 </v>
   <v>       0.50000000       0.08922700       0.44747900 </v>
   <v>       0.00000000       0.41076900       0.44747900 </v>
   <v>       0.00000000       0.58923100       0.55252100 </v>
  </varray>
 </structure>
 <calculation>
  <scstep>
   <time name="dav">    1.49    1.49</time>
   <time name="total">    1.52    1.52</time>
   <energy>
    <i name="alphaZ">      5.28163391 </i>
    <i name="ewald">   1876.30937915 </i>
    <i name="hartreedc">  -2469.19351831 </i>
    <i name="XCdc">     13.10381490 </i>
    <i name="pawpsdc">    559.04011960 </i>
    <i name="pawaedc">   -526.39432044 </i>
    <i name="eentropy">     -0.00056138 </i>
    <i name="bandstr">    -28.05223600 </i>
    <i name="atom">    704.16778566 </i>
    <i name="e_fr_energy">    134.26209710 </i>
    <i name="e_wo_entrp">    134.26265848 </i>
    <i name="e_0_energy">    134.26237779 </i>
   </energy>
  </scstep>
  <scstep>
   <time name="dav">    1.99    1.99</time>
   <time name="total">    1.99    2.00</time>
   <energy>
    <i name="e_fr_energy">     -5.90276536 </i>
    <i name="e_wo_entrp">     -5.90263718 </i>
    <i name="e_0_energy">     -5.90270127 </i>
   </energy>
  </scstep>
  <scstep>
   <time name="dav">    1.81    1.82</time>
   <time name="total">    1.81    1.82</time>
   <energy>
    <i name="e_fr_energy">    -21.10685176 </i>
    <i name="e_wo_entrp">    -21.10685176 </i>
    <i name="e_0_energy">    -21.10685176 </i>
   </energy>
  </scstep>
  <scstep>
   <time name="dav">    1.87    1.88</time>
   <time name="total">    1.88    1.88</time>
   <energy>
    <i name="e_fr_energy">    -21.42469200 </i>
    <i name="e_wo_entrp">    -21.42469200 </i>
    <i name="e_0_energy">    -21.42469200 </i>
   </energy>
  </scstep>
  <scstep>
   <time name="dav">    1.97    1.97</time>
   <time name="total">    2.07    2.07</time>
   <energy>
    <i name="e_fr_energy">    -21.43433732 </i>
    <i name="e_wo_entrp">    -21.43433732 </i>
    <i name="e_0_energy">    -21.43433732 </i>
   </energy>
  </scstep>
  <scstep>
   <time name="dav">    1.80    1.80</time>
   <time name="total">    1.92    1.92</time>
   <energy>
    <i name="e_fr_energy">    -21.25494380 </i>
    <i name="e_wo_entrp">    -21.25494380 </i>
    <i name="e_0_energy">    -21.25494380 </i>
   </energy>
  </scstep>
  <scstep>
   <time name="dav">    1.76    1.76</time>
   <time name="total">    1.87    1.88</time>
   <energy>
    <i name="e_fr_energy">    -21.17917978 </i>
    <i name="e_wo_entrp">    -21.17917978 </i>
    <i name="e_0_energy">    -21.17917978 </i>
   </energy>
  </scstep>
  <scstep>
   <time name="dav">    1.83    1.83</time>
   <time name="total">    1.94    1.94</time>
   <energy>
    <i name="e_fr_energy">    -21.17805336 </i>
    <i name="e_wo_entrp">    -21.17805336 </i>
    <i name="e_0_energy">    -21.17805336 </i>
   </energy>
  </scstep>
  <scstep>
   <time name="dav">    2.12    2.12</time>
   <time name="total">    2.23    2.23</time>
   <energy>
    <i name="e_fr_energy">    -21.17790463 </i>
    <i name="e_wo_entrp">    -21.17790463 </i>
    <i name="e_0_energy">    -21.17790463 </i>
   </energy>
  </scstep>
  <scstep>
   <time name="dav">    1.80    1.80</time>
   <time name="total">    1.91    1.91</time>
   <energy>
    <i name="e_fr_energy">    -21.17743597 </i>
    <i name="e_wo_entrp">    -21.17743597 </i>
    <i name="e_0_energy">    -21.17743597 </i>
   </energy>
  </scstep>
  <scstep>
   <time name="dav">    1.85    1.86</time>
   <time name="total">    1.97    1.97</time>
   <energy>
    <i name="e_fr_energy">    -21.17735510 </i>
    <i name="e_wo_entrp">    -21.17735510 </i>
    <i name="e_0_energy">    -21.17735510 </i>
   </energy>
  </scstep>
  <scstep>
   <time name="dav">    1.59    1.59</time>
   <time name="total">    1.70    1.70</time>
   <energy>
    <i name="e_fr_energy">    -21.17764801 </i>
    <i name="e_wo_entrp">    -21.17764801 </i>
    <i name="e_0_energy">    -21.17764801 </i>
   </energy>
  </scstep>
  <scstep>
   <time name="dav">    1.61    1.61</time>
   <time name="total">    1.72    1.72</time>
   <energy>
    <i name="e_fr_energy">    -21.17775505 </i>
    <i name="e_wo_entrp">    -21.17775505 </i>
    <i name="e_0_energy">    -21.17775505 </i>
   </energy>
  </scstep>
  <scstep>
   <time name="dav">    1.50    1.51</time>
   <time name="total">    1.61    1.62</time>
   <energy>
    <i name="e_fr_energy">    -21.17787796 </i>
    <i name="e_wo_entrp">    -21.17787796 </i>
    <i name="e_0_energy">    -21.17787796 </i>
   </energy>
  </scstep>
  <scstep>
   <time name="dav">    1.51    1.51</time>
   <time name="total">    1.62    1.62</time>
   <energy>
    <i name="e_fr_energy">    -21.17799946 </i>
    <i name="e_wo_entrp">    -21.17799946 </i>
    <i name="e_0_energy">    -21.17799946 </i>
   </energy>
  </scstep>
  <scstep>
   <time name="dav">    1.53    1.53</time>
   <time name="total">    1.65    1.65</time>
   <energy>
    <i name="e_fr_energy">    -21.17804336 </i>
    <i name="e_wo_entrp">    -21.17804336 </i>
    <i name="e_0_energy">    -21.17804336 </i>
   </energy>
  </scstep>
  <scstep>
   <time name="dav">    1.51    1.51</time>
   <time name="total">    1.62    1.62</time>
   <energy>
    <i name="e_fr_energy">    -21.17805577 </i>
    <i name="e_wo_entrp">    -21.17805577 </i>
    <i name="e_0_energy">    -21.17805577 </i>
   </energy>
  </scstep>
  <scstep>
   <time name="dav">    1.48    1.49</time>
   <time name="total">    1.51    1.51</time>
   <energy>
    <i name="alphaZ">      5.28163391 </i>
    <i name="ewald">   1876.30937915 </i>
    <i name="hartreedc">  -2485.37620590 </i>
    <i name="XCdc">     14.19876237 </i>
    <i name="pawpsdc">   2172.35133605 </i>
    <i name="pawaedc">  -2140.07368090 </i>
    <i name="eentropy">     -0.00000000 </i>
    <i name="bandstr">   -168.03707499 </i>
    <i name="atom">    704.16778566 </i>
    <i name="e_fr_energy">    -21.17806464 </i>
    <i name="e_wo_entrp">    -21.17806464 </i>
    <i name="e_0_energy">    -21.17806464 </i>
   </energy>
  </scstep>
  <structure>
   <crystal>
    <varray name="basis" >
     <v>       3.29307000       0.16506700       0.00000000 </v>
     <v>       0.23145800       4.61755400      -0.00005300 </v>
     <v>       0.00000000       0.00000000      20.02439000 </v>
    </varray>
    <i name="volume">    303.72439021 </i>
    <varray name="rec_basis" >
     <v>       0.30443292      -0.01525990       0.00000000 </v>
     <v>      -0.01088278       0.21711038       0.00000000 </v>
     <v>      -0.00000003       0.00000057       0.04993910 </v>
    </varray>
   </crystal>
   <varray name="positions" >
    <v>       0.50000000       0.91077300       0.55252100 </v>
    <v>       0.50000000       0.08922700       0.44747900 </v>
    <v>       0.00000000       0.41076900       0.44747900 </v>
    <v>       0.00000000       0.58923100       0.55252100 </v>
   </varray>
  </structure>
  <varray name="forces" >
   <v>      -1.35140954       0.39122700       0.00140703 </v>
   <v>       1.35140954      -0.39122700      -0.00140703 </v>
   <v>      -1.35139776       0.39119287      -0.00141261 </v>
   <v>       1.35139776      -0.39119287       0.00141261 </v>
  </varray>
  <varray name="stress" >
   <v>       7.53163974     -29.23533771       0.00021018 </v>
   <v>     -29.23533769       7.34137410       0.00027365 </v>
   <v>       0.00021025       0.00027357      -0.03841689 </v>
  </varray>
  <energy>
   <i name="e_fr_energy">    -21.17806464 </i>
   <i name="e_wo_entrp">    -21.17806464 </i>
   <i name="e_0_energy">     -0.00000000 </i>
  </energy>
  <time name="totalsc">   33.30   33.37</time>
 </calculation>
 <calculation>
  <scstep>
   <time name="dav">    1.52    1.52</time>
   <time name="total">    1.63    1.64</time>
   <energy>
    <i name="alphaZ">      5.28163391 </i>
    <i name="ewald">   1873.19538609 </i>
    <i name="hartreedc">  -2483.53714930 </i>
    <i name="XCdc">     14.11474023 </i>
    <i name="pawpsdc">   2172.19611885 </i>
    <i name="pawaedc">  -2139.91841301 </i>
    <i name="eentropy">     -0.00000000 </i>
    <i name="bandstr">   -166.80191678 </i>
    <i name="atom">    704.16778566 </i>
    <i name="e_fr_energy">    -21.30181434 </i>
    <i name="e_wo_entrp">    -21.30181434 </i>
    <i name="e_0_energy">    -21.30181434 </i>
   </energy>
  </scstep>
  <scstep>
   <time name="dav">    1.84    1.84</time>
   <time name="total">    1.95    1.95</time>
   <energy>
    <i name="e_fr_energy">    -21.32466544 </i>
    <i name="e_wo_entrp">    -21.32466544 </i>
    <i name="e_0_energy">    -21.32466544 </i>
   </energy>
  </scstep>
  <scstep>
   <time name="dav">    1.96    1.96</time>
   <time name="total">    2.07    2.08</time>
   <energy>
    <i name="e_fr_energy">    -21.32311225 </i>
    <i name="e_wo_entrp">    -21.32311225 </i>
    <i name="e_0_energy">    -21.32311225 </i>
   </energy>
  </scstep>
  <scstep>
   <time name="dav">    1.84    1.84</time>
   <time name="total">    1.95    1.95</time>
   <energy>
    <i name="e_fr_energy">    -21.32275814 </i>
    <i name="e_wo_entrp">    -21.32275814 </i>
    <i name="e_0_energy">    -21.32275814 </i>
   </energy>
  </scstep>
  <scstep>
   <time name="dav">    1.77    1.77</time>
   <time name="total">    1.88    1.88</time>
   <energy>
    <i name="e_fr_energy">    -21.32277759 </i>
    <i name="e_wo_entrp">    -21.32277759 </i>
    <i name="e_0_energy">    -21.32277759 </i>
   </energy>
  </scstep>
  <scstep>
   <time name="dav">    1.49    1.49</time>
   <time name="total">    1.51    1.52</time>
   <energy>
    <i name="alphaZ">      5.28163391 </i>
    <i name="ewald">   1873.19538609 </i>
    <i name="hartreedc">  -2483.37240040 </i>
    <i name="XCdc">     14.08978985 </i>
    <i name="pawpsdc">   2084.49394335 </i>
    <i name="pawaedc">  -2052.18019205 </i>
    <i name="eentropy">     -0.00000000 </i>
    <i name="bandstr">   -166.99872672 </i>
    <i name="atom">    704.16778566 </i>
    <i name="e_fr_energy">    -21.32278031 </i>
    <i name="e_wo_entrp">    -21.32278031 </i>
    <i name="e_0_energy">    -21.32278031 </i>
   </energy>
  </scstep>
  <structure>
   <crystal>
    <varray name="basis" >
     <v>       3.29307000       0.16506700       0.00000000 </v>
     <v>       0.23145800       4.61755400      -0.00005300 </v>
     <v>       0.00000000       0.00000000      20.02439000 </v>
    </varray>
    <i name="volume">    303.72439021 </i>
    <varray name="rec_basis" >
     <v>       0.30443292      -0.01525990       0.00000000 </v>
     <v>      -0.01088278       0.21711038       0.00000000 </v>
     <v>      -0.00000003       0.00000057       0.04993910 </v>
    </varray>
   </crystal>
   <varray name="positions" >
    <v>       0.48791858       0.91365733       0.55252304 </v>
    <v>       0.51208142       0.08634267       0.44747696 </v>
    <v>      -0.01208130       0.41365311       0.44747697 </v>
    <v>       0.01208130       0.58634689       0.55252303 </v>
   </varray>
  </structure>
  <varray name="forces" >
   <v>      -0.45584471      -0.13190994       0.00622767 </v>
   <v>       0.45584471       0.13190994      -0.00622767 </v>
   <v>      -0.45583664      -0.13193775      -0.00622438 </v>
   <v>       0.45583664       0.13193775       0.00622438 </v>
  </varray>
  <varray name="stress" >
   <v>       1.67398620     -17.28454516       0.00010457 </v>
   <v>     -17.28454517       0.84591169       0.00028453 </v>
   <v>       0.00010452       0.00028458       0.11713825 </v>
  </varray>
  <energy>
   <i name="e_fr_energy">    -21.32278031 </i>
   <i name="e_wo_entrp">    -21.32278031 </i>
   <i name="e_0_energy">     -0.00000000 </i>
  </energy>
  <time name="totalsc">   11.76   11.79</time>
 </calculation>
 <calculation>
  <scstep>
   <time name="dav">    1.53    1.53</time>
   <time name="total">    1.64    1.64</time>
   <energy>
    <i name="alphaZ">      5.28163391 </i>
    <i name="ewald">   1871.97912858 </i>
    <i name="hartreedc">  -2482.62124156 </i>
    <i name="XCdc">     14.05456626 </i>
    <i name="pawpsdc">   2085.40662573 </i>
    <i name="pawaedc">  -2053.09322252 </i>
    <i name="eentropy">     -0.00000000 </i>
    <i name="bandstr">   -166.50851942 </i>
    <i name="atom">    704.16778566 </i>
    <i name="e_fr_energy">    -21.33324336 </i>
    <i name="e_wo_entrp">    -21.33324336 </i>
    <i name="e_0_energy">    -21.33324336 </i>
   </energy>
  </scstep>
  <scstep>
   <time name="dav">    1.82    1.82</time>
   <time name="total">    1.93    1.94</time>
   <energy>
    <i name="e_fr_energy">    -21.33798786 </i>
    <i name="e_wo_entrp">    -21.33798786 </i>
    <i name="e_0_energy">    -21.33798786 </i>
   </energy>
  </scstep>
  <scstep>
   <time name="dav">    1.96    1.96</time>
   <time name="total">    2.07    2.07</time>
   <energy>
    <i name="e_fr_energy">    -21.33774776 </i>
    <i name="e_wo_entrp">    -21.33774776 </i>
    <i name="e_0_energy">    -21.33774776 </i>
   </energy>
  </scstep>
  <scstep>
   <time name="dav">    1.86    1.87</time>
   <time name="total">    1.97    1.98</time>
   <energy>
    <i name="e_fr_energy">    -21.33768814 </i>
    <i name="e_wo_entrp">    -21.33768814 </i>
    <i name="e_0_energy">    -21.33768814 </i>
   </energy>
  </scstep>
  <scstep>
   <time name="dav">    1.68    1.68</time>
   <time name="total">    1.79    1.79</time>
   <energy>
    <i name="e_fr_energy">    -21.33769196 </i>
    <i name="e_wo_entrp">    -21.33769196 </i>
    <i name="e_0_energy">    -21.33769196 </i>
   </energy>
  </scstep>
  <scstep>
   <time name="dav">    1.33    1.33</time>
   <time name="total">    1.35    1.36</time>
   <energy>
    <i name="alphaZ">      5.28163391 </i>
    <i name="ewald">   1871.97912858 </i>
    <i name="hartreedc">  -2482.61308432 </i>
    <i name="XCdc">     14.04617634 </i>
    <i name="pawpsdc">   2053.84224152 </i>
    <i name="pawaedc">  -2021.51620452 </i>
    <i name="eentropy">     -0.00000000 </i>
    <i name="bandstr">   -166.52536922 </i>
    <i name="atom">    704.16778566 </i>
    <i name="e_fr_energy">    -21.33769203 </i>
    <i name="e_wo_entrp">    -21.33769203 </i>
    <i name="e_0_energy">    -21.33769203 </i>
   </energy>
  </scstep>
  <structure>
   <crystal>
    <varray name="basis" >
     <v>       3.29307000       0.16506700       0.00000000 </v>
     <v>       0.23145800       4.61755400      -0.00005300 </v>
     <v>       0.00000000       0.00000000      20.02439000 </v>
    </varray>
    <i name="volume">    303.72439021 </i>
    <varray name="rec_basis" >
     <v>       0.30443292      -0.01525990       0.00000000 </v>
     <v>      -0.01088278       0.21711038       0.00000000 </v>
     <v>      -0.00000003       0.00000057       0.04993910 </v>
    </varray>
   </crystal>
   <varray name="positions" >
    <v>       0.48233863       0.91498949       0.55252398 </v>
    <v>       0.51766137       0.08501051       0.44747602 </v>
    <v>      -0.01766120       0.41498517       0.44747603 </v>
    <v>       0.01766120       0.58501483       0.55252397 </v>
   </varray>
  </structure>
  <varray name="forces" >
   <v>      -0.08786970      -0.30284963       0.00748520 </v>
   <v>       0.08786970       0.30284963      -0.00748520 </v>
   <v>      -0.08786300      -0.30287474      -0.00747908 </v>
   <v>       0.08786300       0.30287474       0.00747908 </v>
  </varray>
  <varray name="stress" >
   <v>      -0.08497994     -12.38702184       0.00006257 </v>
   <v>     -12.38702188      -1.15627514       0.00028148 </v>
   <v>       0.00006254       0.00028154       0.12040941 </v>
  </varray>
  <energy>
   <i name="e_fr_energy">    -21.33769203 </i>
   <i name="e_wo_entrp">    -21.33769203 </i>
   <i name="e_0_energy">     -0.00000000 </i>
  </energy>
  <time name="totalsc">   11.52   11.55</time>
 </calculation>
 <calculation>
  <scstep>
   <time name="dav">    1.55    1.56</time>
   <time name="total">    1.66    1.67</time>
   <energy>
    <i name="alphaZ">      5.28163391 </i>
    <i name="ewald">   1872.94381476 </i>
    <i name="hartreedc">  -2483.21498966 </i>
    <i name="XCdc">     14.08230373 </i>
    <i name="pawpsdc">   2054.00840781 </i>
    <i name="pawaedc">  -2021.68247362 </i>
    <i name="eentropy">     -0.00000000 </i>
    <i name="bandstr">   -166.93154062 </i>
    <i name="atom">    704.16778566 </i>
    <i name="e_fr_energy">    -21.34505803 </i>
    <i name="e_wo_entrp">    -21.34505803 </i>
    <i name="e_0_energy">    -21.34505803 </i>
   </energy>
  </scstep>
  <scstep>
   <time name="dav">    1.80    1.80</time>
   <time name="total">    1.91    1.92</time>
   <energy>
    <i name="e_fr_energy">    -21.34642540 </i>
    <i name="e_wo_entrp">    -21.34642540 </i>
    <i name="e_0_energy">    -21.34642540 </i>
   </energy>
  </scstep>
  <scstep>
   <time name="dav">    1.97    1.97</time>
   <time name="total">    2.08    2.09</time>
   <energy>
    <i name="e_fr_energy">    -21.34639587 </i>
    <i name="e_wo_entrp">    -21.34639587 </i>
    <i name="e_0_energy">    -21.34639587 </i>
   </energy>
  </scstep>
  <scstep>
   <time name="dav">    1.87    1.87</time>
   <time name="total">    1.98    1.99</time>
   <energy>
    <i name="e_fr_energy">    -21.34638944 </i>
    <i name="e_wo_entrp">    -21.34638944 </i>
    <i name="e_0_energy">    -21.34638944 </i>
   </energy>
  </scstep>
  <scstep>
   <time name="dav">    1.39    1.40</time>
   <time name="total">    1.50    1.51</time>
   <energy>
    <i name="e_fr_energy">    -21.34639072 </i>
    <i name="e_wo_entrp">    -21.34639072 </i>
    <i name="e_0_energy">    -21.34639072 </i>
   </energy>
  </scstep>
  <scstep>
   <time name="dav">    1.36    1.36</time>
   <time name="total">    1.38    1.39</time>
   <energy>
    <i name="alphaZ">      5.28163391 </i>
    <i name="ewald">   1872.94381476 </i>
    <i name="hartreedc">  -2483.21380890 </i>
    <i name="XCdc">     14.08619263 </i>
    <i name="pawpsdc">   2078.19100169 </i>
    <i name="pawaedc">  -2045.87391168 </i>
    <i name="eentropy">     -0.00000000 </i>
    <i name="bandstr">   -166.92909866 </i>
    <i name="atom">    704.16778566 </i>
    <i name="e_fr_energy">    -21.34639058 </i>
    <i name="e_wo_entrp">    -21.34639058 </i>
    <i name="e_0_energy">    -21.34639058 </i>
   </energy>
  </scstep>
  <structure>
   <crystal>
    <varray name="basis" >
     <v>       3.29307000       0.16506700       0.00000000 </v>
     <v>       0.23145800       4.61755400      -0.00005300 </v>
     <v>       0.00000000       0.00000000      20.02439000 </v>
    </varray>
    <i name="volume">    303.72439021 </i>
    <varray name="rec_basis" >
     <v>       0.30443292      -0.01525990       0.00000000 </v>
     <v>      -0.01088278       0.21711038       0.00000000 </v>
     <v>      -0.00000003       0.00000057       0.04993910 </v>
    </varray>
   </crystal>
   <varray name="positions" >
    <v>       0.48097729       0.91309866       0.55253591 </v>
    <v>       0.51902271       0.08690134       0.44746409 </v>
    <v>      -0.01902245       0.41309415       0.44746410 </v>
    <v>       0.01902245       0.58690585       0.55253590 </v>
   </varray>
  </structure>
  <varray name="forces" >
   <v>      -0.01183067      -0.12501992      -0.02432050 </v>
   <v>       0.01183067       0.12501992       0.02432050 </v>
   <v>      -0.01182475      -0.12503899       0.02432254 </v>
   <v>       0.01182475       0.12503899      -0.02432254 </v>
  </varray>
  <varray name="stress" >
   <v>       0.29467246     -11.48877562       0.00006667 </v>
   <v>     -11.48877562       1.33997901       0.00018855 </v>
   <v>       0.00006673       0.00018858      -0.63905024 </v>
  </varray>
  <energy>
   <i name="e_fr_energy">    -21.34639058 </i>
   <i name="e_wo_entrp">    -21.34639058 </i>
   <i name="e_0_energy">     -0.00000000 </i>
  </energy>
  <time name="totalsc">   11.30   11.33</time>
 </calculation>
 <calculation>
  <scstep>
   <time name="dav">    1.56    1.56</time>
   <time name="total">    1.67    1.67</time>
   <energy>
    <i name="alphaZ">      5.28163391 </i>
    <i name="ewald">   1873.49476590 </i>
    <i name="hartreedc">  -2483.54492767 </i>
    <i name="XCdc">     14.10631321 </i>
    <i name="pawpsdc">   2078.16412039 </i>
    <i name="pawaedc">  -2045.84695970 </i>
    <i name="eentropy">     -0.00000000 </i>
    <i name="bandstr">   -167.17005513 </i>
    <i name="atom">    704.16778566 </i>
    <i name="e_fr_energy">    -21.34732342 </i>
    <i name="e_wo_entrp">    -21.34732342 </i>
    <i name="e_0_energy">    -21.34732342 </i>
   </energy>
  </scstep>
  <scstep>
   <time name="dav">    1.81    1.81</time>
   <time name="total">    1.92    1.92</time>
   <energy>
    <i name="e_fr_energy">    -21.34774999 </i>
    <i name="e_wo_entrp">    -21.34774999 </i>
    <i name="e_0_energy">    -21.34774999 </i>
   </energy>
  </scstep>
  <scstep>
   <time name="dav">    1.99    1.99</time>
   <time name="total">    2.10    2.10</time>
   <energy>
    <i name="e_fr_energy">    -21.34773977 </i>
    <i name="e_wo_entrp">    -21.34773977 </i>
    <i name="e_0_energy">    -21.34773977 </i>
   </energy>
  </scstep>
  <scstep>
   <time name="dav">    1.49    1.49</time>
   <time name="total">    1.60    1.61</time>
   <energy>
    <i name="e_fr_energy">    -21.34773776 </i>
    <i name="e_wo_entrp">    -21.34773776 </i>
    <i name="e_0_energy">    -21.34773776 </i>
   </energy>
  </scstep>
  <scstep>
   <time name="dav">    1.28    1.28</time>
   <time name="total">    1.39    1.40</time>
   <energy>
    <i name="e_fr_energy">    -21.34773866 </i>
    <i name="e_wo_entrp">    -21.34773866 </i>
    <i name="e_0_energy">    -21.34773866 </i>
   </energy>
  </scstep>
  <scstep>
   <time name="dav">    1.25    1.25</time>
   <time name="total">    1.27    1.27</time>
   <energy>
    <i name="alphaZ">      5.28163391 </i>
    <i name="ewald">   1873.49476590 </i>
    <i name="hartreedc">  -2483.53470182 </i>
    <i name="XCdc">     14.10842440 </i>
    <i name="pawpsdc">   2092.07594541 </i>
    <i name="pawaedc">  -2059.76391739 </i>
    <i name="eentropy">     -0.00000000 </i>
    <i name="bandstr">   -167.17767509 </i>
    <i name="atom">    704.16778566 </i>
    <i name="e_fr_energy">    -21.34773902 </i>
    <i name="e_wo_entrp">    -21.34773902 </i>
    <i name="e_0_energy">    -21.34773902 </i>
   </energy>
  </scstep>
  <structure>
   <crystal>
    <varray name="basis" >
     <v>       3.29307000       0.16506700       0.00000000 </v>
     <v>       0.23145800       4.61755400      -0.00005300 </v>
     <v>       0.00000000       0.00000000      20.02439000 </v>
    </varray>
    <i name="volume">    303.72439021 </i>
    <varray name="rec_basis" >
     <v>       0.30443292      -0.01525990       0.00000000 </v>
     <v>      -0.01088278       0.21711038       0.00000000 </v>
     <v>      -0.00000003       0.00000057       0.04993910 </v>
    </varray>
   </crystal>
   <varray name="positions" >
    <v>       0.48022336       0.91205148       0.55254251 </v>
    <v>       0.51977664       0.08794852       0.44745749 </v>
    <v>      -0.01977634       0.41204687       0.44745749 </v>
    <v>       0.01977634       0.58795313       0.55254251 </v>
   </varray>
  </structure>
  <varray name="forces" >
   <v>       0.03374778      -0.02309283      -0.04136004 </v>
   <v>      -0.03374778       0.02309283       0.04136004 </v>
   <v>       0.03375316      -0.02310876       0.04135954 </v>
   <v>      -0.03375316       0.02310876      -0.04135954 </v>
  </varray>
  <varray name="stress" >
   <v>       0.55297597     -10.92808073       0.00006621 </v>
   <v>     -10.92808060       2.76686188       0.00013646 </v>
   <v>       0.00006617       0.00013652      -1.01244174 </v>
  </varray>
  <energy>
   <i name="e_fr_energy">    -21.34773902 </i>
   <i name="e_wo_entrp">    -21.34773902 </i>
   <i name="e_0_energy">     -0.00000000 </i>
  </energy>
  <time name="totalsc">   10.71   10.74</time>
 </calculation>
 <calculation>
  <scstep>
   <time name="dav">    1.64    1.64</time>
   <time name="total">    1.75    1.75</time>
   <energy>
    <i name="alphaZ">      5.28163391 </i>
    <i name="ewald">   1873.50987493 </i>
    <i name="hartreedc">  -2483.53856287 </i>
    <i name="XCdc">     14.10891361 </i>
    <i name="pawpsdc">   2092.11348761 </i>
    <i name="pawaedc">  -2059.80141880 </i>
    <i name="eentropy">     -0.00000000 </i>
    <i name="bandstr">   -167.18945403 </i>
    <i name="atom">    704.16778566 </i>
    <i name="e_fr_energy">    -21.34773997 </i>
    <i name="e_wo_entrp">    -21.34773997 </i>
    <i name="e_0_energy">    -21.34773997 </i>
   </energy>
  </scstep>
  <scstep>
   <time name="dav">    1.19    1.19</time>
   <time name="total">    1.30    1.30</time>
   <energy>
    <i name="e_fr_energy">    -21.34774055 </i>
    <i name="e_wo_entrp">    -21.34774055 </i>
    <i name="e_0_energy">    -21.34774055 </i>
   </energy>
  </scstep>
  <scstep>
   <time name="dav">    1.19    1.20</time>
   <time name="total">    1.30    1.31</time>
   <energy>
    <i name="e_fr_energy">    -21.34774088 </i>
    <i name="e_wo_entrp">    -21.34774088 </i>
    <i name="e_0_energy">    -21.34774088 </i>
   </energy>
  </scstep>
  <scstep>
   <time name="dav">    1.18    1.18</time>
   <time name="total">    1.29    1.29</time>
   <energy>
    <i name="e_fr_energy">    -21.34774116 </i>
    <i name="e_wo_entrp">    -21.34774116 </i>
    <i name="e_0_energy">    -21.34774116 </i>
   </energy>
  </scstep>
  <scstep>
   <time name="dav">    1.26    1.26</time>
   <time name="total">    1.37    1.37</time>
   <energy>
    <i name="e_fr_energy">    -21.34774147 </i>
    <i name="e_wo_entrp">    -21.34774147 </i>
    <i name="e_0_energy">    -21.34774147 </i>
   </energy>
  </scstep>
  <scstep>
   <time name="dav">    1.18    1.18</time>
   <time name="total">    1.20    1.20</time>
   <energy>
    <i name="alphaZ">      5.28163391 </i>
    <i name="ewald">   1873.50987493 </i>
    <i name="hartreedc">  -2483.53005585 </i>
    <i name="XCdc">     14.10889230 </i>
    <i name="pawpsdc">   2092.48503134 </i>
    <i name="pawaedc">  -2060.17310694 </i>
    <i name="eentropy">     -0.00000000 </i>
    <i name="bandstr">   -167.19779698 </i>
    <i name="atom">    704.16778566 </i>
    <i name="e_fr_energy">    -21.34774163 </i>
    <i name="e_wo_entrp">    -21.34774163 </i>
    <i name="e_0_energy">    -21.34774163 </i>
   </energy>
  </scstep>
  <structure>
   <crystal>
    <varray name="basis" >
     <v>       3.29307000       0.16506700       0.00000000 </v>
     <v>       0.23145800       4.61755400      -0.00005300 </v>
     <v>       0.00000000       0.00000000      20.02439000 </v>
    </varray>
    <i name="volume">    303.72439021 </i>
    <varray name="rec_basis" >
     <v>       0.30443292      -0.01525990       0.00000000 </v>
     <v>      -0.01088278       0.21711038       0.00000000 </v>
     <v>      -0.00000003       0.00000057       0.04993910 </v>
    </varray>
   </crystal>
   <varray name="positions" >
    <v>       0.48020291       0.91202308       0.55254269 </v>
    <v>       0.51979709       0.08797692       0.44745731 </v>
    <v>      -0.01979679       0.41201847       0.44745732 </v>
    <v>       0.01979679       0.58798153       0.55254268 </v>
   </varray>
  </structure>
  <varray name="forces" >
   <v>       0.03497935      -0.02018994      -0.04175360 </v>
   <v>      -0.03497935       0.02018994       0.04175360 </v>
   <v>       0.03498469      -0.02020585       0.04175313 </v>
   <v>      -0.03498469       0.02020585      -0.04175313 </v>
  </varray>
  <varray name="stress" >
   <v>       0.55537343     -10.91904680       0.00006651 </v>
   <v>     -10.91904672       2.81026509       0.00013597 </v>
   <v>       0.00006646       0.00013598      -1.00331603 </v>
  </varray>
  <energy>
   <i name="e_fr_energy">    -21.34774163 </i>
   <i name="e_wo_entrp">    -21.34774163 </i>
   <i name="e_0_energy">     -0.00000000 </i>
  </energy>
  <time name="totalsc">    8.98    9.00</time>
 </calculation>
 <calculation>
  <scstep>
   <time name="dav">    1.45    1.45</time>
   <time name="total">    1.57    1.57</time>
   <energy>
    <i name="alphaZ">      5.28163391 </i>
    <i name="ewald">   1875.00832912 </i>
    <i name="hartreedc">  -2484.90457566 </i>
    <i name="XCdc">     14.12215721 </i>
    <i name="pawpsdc">   2092.49653063 </i>
    <i name="pawaedc">  -2060.18460660 </i>
    <i name="eentropy">     -0.00000000 </i>
    <i name="bandstr">   -167.33526048 </i>
    <i name="atom">    704.16778566 </i>
    <i name="e_fr_energy">    -21.34800620 </i>
    <i name="e_wo_entrp">    -21.34800620 </i>
    <i name="e_0_energy">    -21.34800620 </i>
   </energy>
  </scstep>
  <scstep>
   <time name="dav">    1.86    1.86</time>
   <time name="total">    1.97    1.97</time>
   <energy>
    <i name="e_fr_energy">    -21.34807726 </i>
    <i name="e_wo_entrp">    -21.34807726 </i>
    <i name="e_0_energy">    -21.34807726 </i>
   </energy>
  </scstep>
  <scstep>
   <time name="dav">    1.61    1.61</time>
   <time name="total">    1.72    1.73</time>
   <energy>
    <i name="e_fr_energy">    -21.34807567 </i>
    <i name="e_wo_entrp">    -21.34807567 </i>
    <i name="e_0_energy">    -21.34807567 </i>
   </energy>
  </scstep>
  <scstep>
   <time name="dav">    1.21    1.21</time>
   <time name="total">    1.32    1.32</time>
   <energy>
    <i name="e_fr_energy">    -21.34807581 </i>
    <i name="e_wo_entrp">    -21.34807581 </i>
    <i name="e_0_energy">    -21.34807581 </i>
   </energy>
  </scstep>
  <scstep>
   <time name="dav">    1.17    1.17</time>
   <time name="total">    1.28    1.28</time>
   <energy>
    <i name="e_fr_energy">    -21.34807590 </i>
    <i name="e_wo_entrp">    -21.34807590 </i>
    <i name="e_0_energy">    -21.34807590 </i>
   </energy>
  </scstep>
  <scstep>
   <time name="dav">    1.13    1.13</time>
   <time name="total">    1.15    1.15</time>
   <energy>
    <i name="alphaZ">      5.28163391 </i>
    <i name="ewald">   1875.00832912 </i>
    <i name="hartreedc">  -2484.90848285 </i>
    <i name="XCdc">     14.12345967 </i>
    <i name="pawpsdc">   2099.96861543 </i>
    <i name="pawaedc">  -2067.65944473 </i>
    <i name="eentropy">     -0.00000000 </i>
    <i name="bandstr">   -167.32997212 </i>
    <i name="atom">    704.16778566 </i>
    <i name="e_fr_energy">    -21.34807591 </i>
    <i name="e_wo_entrp">    -21.34807591 </i>
    <i name="e_0_energy">    -21.34807591 </i>
   </energy>
  </scstep>
  <structure>
   <crystal>
    <varray name="basis" >
     <v>       3.29307000       0.16506700       0.00000000 </v>
     <v>       0.23145800       4.61755400      -0.00005300 </v>
     <v>       0.00000000       0.00000000      20.02439000 </v>
    </varray>
    <i name="volume">    303.72439021 </i>
    <varray name="rec_basis" >
     <v>       0.30443292      -0.01525990       0.00000000 </v>
     <v>      -0.01088278       0.21711038       0.00000000 </v>
     <v>      -0.00000003       0.00000057       0.04993910 </v>
    </varray>
   </crystal>
   <varray name="positions" >
    <v>       0.48057896       0.91184167       0.55246935 </v>
    <v>       0.51942104       0.08815833       0.44753065 </v>
    <v>      -0.01942067       0.41183694       0.44753066 </v>
    <v>       0.01942067       0.58816306       0.55246934 </v>
   </varray>
  </structure>
  <varray name="forces" >
   <v>       0.00809981      -0.00521456      -0.02224403 </v>
   <v>      -0.00809981       0.00521456       0.02224403 </v>
   <v>       0.00810443      -0.00522759       0.02224330 </v>
   <v>      -0.00810443       0.00522759      -0.02224330 </v>
  </varray>
  <varray name="stress" >
   <v>       0.73554001     -11.25389802       0.00007890 </v>
   <v>     -11.25389798       3.11514853       0.00010049 </v>
   <v>       0.00007886       0.00010051      -0.57898691 </v>
  </varray>
  <energy>
   <i name="e_fr_energy">    -21.34807591 </i>
   <i name="e_wo_entrp">    -21.34807591 </i>
   <i name="e_0_energy">     -0.00000000 </i>
  </energy>
  <time name="totalsc">    9.77    9.79</time>
 </calculation>
 <calculation>
  <scstep>
   <time name="dav">    1.46    1.46</time>
   <time name="total">    1.57    1.57</time>
   <energy>
    <i name="alphaZ">      5.28163391 </i>
    <i name="ewald">   1875.96894518 </i>
    <i name="hartreedc">  -2485.78598677 </i>
    <i name="XCdc">     14.13192573 </i>
    <i name="pawpsdc">   2100.09186459 </i>
    <i name="pawaedc">  -2067.78265483 </i>
    <i name="eentropy">     -0.00000000 </i>
    <i name="bandstr">   -167.42162138 </i>
    <i name="atom">    704.16778566 </i>
    <i name="e_fr_energy">    -21.34810790 </i>
    <i name="e_wo_entrp">    -21.34810790 </i>
    <i name="e_0_energy">    -21.34810790 </i>
   </energy>
  </scstep>
  <scstep>
   <time name="dav">    1.86    1.86</time>
   <time name="total">    1.97    1.98</time>
   <energy>
    <i name="e_fr_energy">    -21.34813772 </i>
    <i name="e_wo_entrp">    -21.34813772 </i>
    <i name="e_0_energy">    -21.34813772 </i>
   </energy>
  </scstep>
  <scstep>
   <time name="dav">    1.30    1.30</time>
   <time name="total">    1.41    1.41</time>
   <energy>
    <i name="e_fr_energy">    -21.34813707 </i>
    <i name="e_wo_entrp">    -21.34813707 </i>
    <i name="e_0_energy">    -21.34813707 </i>
   </energy>
  </scstep>
  <scstep>
   <time name="dav">    1.19    1.19</time>
   <time name="total">    1.30    1.31</time>
   <energy>
    <i name="e_fr_energy">    -21.34813758 </i>
    <i name="e_wo_entrp">    -21.34813758 </i>
    <i name="e_0_energy">    -21.34813758 </i>
   </energy>
  </scstep>
  <scstep>
   <time name="dav">    1.14    1.14</time>
   <time name="total">    1.25    1.25</time>
   <energy>
    <i name="e_fr_energy">    -21.34813749 </i>
    <i name="e_wo_entrp">    -21.34813749 </i>
    <i name="e_0_energy">    -21.34813749 </i>
   </energy>
  </scstep>
  <scstep>
   <time name="dav">    1.07    1.08</time>
   <time name="total">    1.09    1.10</time>
   <energy>
    <i name="alphaZ">      5.28163391 </i>
    <i name="ewald">   1875.96894518 </i>
    <i name="hartreedc">  -2485.78451646 </i>
    <i name="XCdc">     14.13272638 </i>
    <i name="pawpsdc">   2104.86034402 </i>
    <i name="pawaedc">  -2072.55290870 </i>
    <i name="eentropy">     -0.00000000 </i>
    <i name="bandstr">   -167.42214755 </i>
    <i name="atom">    704.16778566 </i>
    <i name="e_fr_energy">    -21.34813755 </i>
    <i name="e_wo_entrp">    -21.34813755 </i>
    <i name="e_0_energy">    -21.34813755 </i>
   </energy>
  </scstep>
  <structure>
   <crystal>
    <varray name="basis" >
     <v>       3.29307000       0.16506700       0.00000000 </v>
     <v>       0.23145800       4.61755400      -0.00005300 </v>
     <v>       0.00000000       0.00000000      20.02439000 </v>
    </varray>
    <i name="volume">    303.72439021 </i>
    <varray name="rec_basis" >
     <v>       0.30443292      -0.01525990       0.00000000 </v>
     <v>      -0.01088278       0.21711038       0.00000000 </v>
     <v>      -0.00000003       0.00000057       0.04993910 </v>
    </varray>
   </crystal>
   <varray name="positions" >
    <v>       0.48081993       0.91172543       0.55242235 </v>
    <v>       0.51918007       0.08827457       0.44757765 </v>
    <v>      -0.01917966       0.41172062       0.44757766 </v>
    <v>       0.01917966       0.58827938       0.55242234 </v>
   </varray>
  </structure>
  <varray name="forces" >
   <v>      -0.00929468       0.00453393      -0.00959168 </v>
   <v>       0.00929468      -0.00453393       0.00959168 </v>
   <v>      -0.00929064       0.00452282       0.00959072 </v>
   <v>       0.00929064      -0.00452282      -0.00959072 </v>
  </varray>
  <varray name="stress" >
   <v>       0.85460104     -11.46642889       0.00008736 </v>
   <v>     -11.46642891       3.31503925       0.00007830 </v>
   <v>       0.00008729       0.00007836      -0.29582794 </v>
  </varray>
  <energy>
   <i name="e_fr_energy">    -21.34813755 </i>
   <i name="e_wo_entrp">    -21.34813755 </i>
   <i name="e_0_energy">     -0.00000000 </i>
  </energy>
  <time name="totalsc">    9.37    9.39</time>
 </calculation>
 <calculation>
  <scstep>
   <time name="dav">    1.46    1.46</time>
   <time name="total">    1.57    1.58</time>
   <energy>
    <i name="alphaZ">      5.28163391 </i>
    <i name="ewald">   1876.39595074 </i>
    <i name="hartreedc">  -2486.19388567 </i>
    <i name="XCdc">     14.13498487 </i>
    <i name="pawpsdc">   2104.98531679 </i>
    <i name="pawaedc">  -2072.67787196 </i>
    <i name="eentropy">     -0.00000000 </i>
    <i name="bandstr">   -167.44206671 </i>
    <i name="atom">    704.16778566 </i>
    <i name="e_fr_energy">    -21.34815237 </i>
    <i name="e_wo_entrp">    -21.34815237 </i>
    <i name="e_0_energy">    -21.34815237 </i>
   </energy>
  </scstep>
  <scstep>
   <time name="dav">    1.78    1.79</time>
   <time name="total">    1.90    1.90</time>
   <energy>
    <i name="e_fr_energy">    -21.34815854 </i>
    <i name="e_wo_entrp">    -21.34815854 </i>
    <i name="e_0_energy">    -21.34815854 </i>
   </energy>
  </scstep>
  <scstep>
   <time name="dav">    1.18    1.18</time>
   <time name="total">    1.29    1.29</time>
   <energy>
    <i name="e_fr_energy">    -21.34815842 </i>
    <i name="e_wo_entrp">    -21.34815842 </i>
    <i name="e_0_energy">    -21.34815842 </i>
   </energy>
  </scstep>
  <scstep>
   <time name="dav">    1.11    1.11</time>
   <time name="total">    1.22    1.22</time>
   <energy>
    <i name="e_fr_energy">    -21.34815856 </i>
    <i name="e_wo_entrp">    -21.34815856 </i>
    <i name="e_0_energy">    -21.34815856 </i>
   </energy>
  </scstep>
  <scstep>
   <time name="dav">    1.16    1.16</time>
   <time name="total">    1.27    1.27</time>
   <energy>
    <i name="e_fr_energy">    -21.34815859 </i>
    <i name="e_wo_entrp">    -21.34815859 </i>
    <i name="e_0_energy">    -21.34815859 </i>
   </energy>
  </scstep>
  <scstep>
   <time name="dav">    1.09    1.09</time>
   <time name="total">    1.11    1.11</time>
   <energy>
    <i name="alphaZ">      5.28163391 </i>
    <i name="ewald">   1876.39595074 </i>
    <i name="hartreedc">  -2486.19140690 </i>
    <i name="XCdc">     14.13500857 </i>
    <i name="pawpsdc">   2105.94923587 </i>
    <i name="pawaedc">  -2073.64204702 </i>
    <i name="eentropy">     -0.00000000 </i>
    <i name="bandstr">   -167.44431944 </i>
    <i name="atom">    704.16778566 </i>
    <i name="e_fr_energy">    -21.34815862 </i>
    <i name="e_wo_entrp">    -21.34815862 </i>
    <i name="e_0_energy">    -21.34815862 </i>
   </energy>
  </scstep>
  <structure>
   <crystal>
    <varray name="basis" >
     <v>       3.29307000       0.16506700       0.00000000 </v>
     <v>       0.23145800       4.61755400      -0.00005300 </v>
     <v>       0.00000000       0.00000000      20.02439000 </v>
    </varray>
    <i name="volume">    303.72439021 </i>
    <varray name="rec_basis" >
     <v>       0.30443292      -0.01525990       0.00000000 </v>
     <v>      -0.01088278       0.21711038       0.00000000 </v>
     <v>      -0.00000003       0.00000057       0.04993910 </v>
    </varray>
   </crystal>
   <varray name="positions" >
    <v>       0.48073177       0.91175553       0.55239805 </v>
    <v>       0.51926823       0.08824447       0.44760195 </v>
    <v>      -0.01926775       0.41175060       0.44760195 </v>
    <v>       0.01926775       0.58824940       0.55239805 </v>
   </varray>
  </structure>
  <varray name="forces" >
   <v>      -0.00347677      -0.00017858      -0.00261375 </v>
   <v>       0.00347677       0.00017858       0.00261375 </v>
   <v>      -0.00347351      -0.00018700       0.00261316 </v>
   <v>       0.00347351       0.00018700      -0.00261316 </v>
  </varray>
  <varray name="stress" >
   <v>       0.83987194     -11.37645522       0.00009483 </v>
   <v>     -11.37645518       3.30718949       0.00004844 </v>
   <v>       0.00009480       0.00004846      -0.13551462 </v>
  </varray>
  <energy>
   <i name="e_fr_energy">    -21.34815862 </i>
   <i name="e_wo_entrp">    -21.34815862 </i>
   <i name="e_0_energy">     -0.00000000 </i>
  </energy>
  <time name="totalsc">    9.05    9.07</time>
  <eigenvalues>
   <array>
    <dimension dim="1">band</dimension>
    <dimension dim="2">kpoint</dimension>
    <dimension dim="3">spin</dimension>
    <field>eigene</field>
    <field>occ</field>
    <set>
     <set comment="spin 1">
      <set comment="kpoint 1">
       <r>  -17.2282    1.0000 </r>
       <r>  -14.7304    1.0000 </r>
       <r>  -11.3645    1.0000 </r>
       <r>   -7.9088    1.0000 </r>
       <r>   -6.9056    1.0000 </r>
       <r>   -6.8277    1.0000 </r>
       <r>   -5.4791    1.0000 </r>
       <r>   -4.0119    1.0000 </r>
       <r>   -3.9473    1.0000 </r>
       <r>   -2.2169    1.0000 </r>
       <r>   -1.3548    0.0000 </r>
       <r>   -0.5775    0.0000 </r>
       <r>    0.0753    0.0000 </r>
       <r>    1.3099    0.0000 </r>
       <r>    2.1578    0.0000 </r>
       <r>    2.3098    0.0000 </r>
      </set>
      <set comment="kpoint 2">
       <r>  -17.2010    1.0000 </r>
       <r>  -14.7024    1.0000 </r>
       <r>  -11.3741    1.0000 </r>
       <r>   -7.8891    1.0000 </r>
       <r>   -6.9260    1.0000 </r>
       <r>   -6.8037    1.0000 </r>
       <r>   -5.6574    1.0000 </r>
       <r>   -4.1853    1.0000 </r>
       <r>   -3.9441    1.0000 </r>
       <r>   -2.2191    1.0000 </r>
       <r>   -1.3313    0.0000 </r>
       <r>   -0.3281    0.0000 </r>
       <r>    0.2033    0.0000 </r>
       <r>    1.2600    0.0000 </r>
       <r>    2.1848    0.0000 </r>
       <r>    2.3402    0.0000 </r>
      </set>
      <set comment="kpoint 3">
       <r>  -17.1193    1.0000 </r>
       <r>  -14.6185    1.0000 </r>
       <r>  -11.4083    1.0000 </r>
       <r>   -7.8306    1.0000 </r>
       <r>   -7.0083    1.0000 </r>
       <r>   -6.7361    1.0000 </r>
       <r>   -6.0865    1.0000 </r>
       <r>   -4.6004    1.0000 </r>
       <r>   -3.9115    1.0000 </r>
       <r>   -2.2439    1.0000 </r>
       <r>   -1.2599    0.0000 </r>
       <r>    0.1977    0.0000 </r>
       <r>    0.3342    0.0000 </r>
       <r>    1.4576    0.0000 </r>
       <r>    2.2544    0.0000 </r>
       <r>    2.4315    0.0000 </r>
      </set>
      <set comment="kpoint 4">
       <r>  -16.9836    1.0000 </r>
       <r>  -14.4789    1.0000 </r>
       <r>  -11.4833    1.0000 </r>
       <r>   -7.7359    1.0000 </r>
       <r>   -7.2155    1.0000 </r>
       <r>   -6.7203    1.0000 </r>
       <r>   -6.4973    1.0000 </r>
       <r>   -5.0159    1.0000 </r>
       <r>   -3.8683    1.0000 </r>
       <r>   -2.3110    1.0000 </r>
       <r>   -1.1426    0.0000 </r>
       <r>   -0.1772    0.0000 </r>
       <r>    1.2473    0.0000 </r>
       <r>    2.0052    0.0000 </r>
       <r>    2.1967    0.0000 </r>
       <r>    2.5869    0.0000 </r>
      </set>
      <set comment="kpoint 5">
       <r>  -16.7946    1.0000 </r>
       <r>  -14.2840    1.0000 </r>
       <r>  -11.6244    1.0000 </r>
       <r>   -7.6140    1.0000 </r>
       <r>   -7.6079    1.0000 </r>
       <r>   -7.1195    1.0000 </r>
       <r>   -6.4024    1.0000 </r>
       <r>   -5.2646    1.0000 </r>
       <r>   -3.8396    1.0000 </r>
       <r>   -2.4310    1.0000 </r>
       <r>   -0.9851    0.0000 </r>
       <r>   -0.6213    0.0000 </r>
       <r>    1.6765    0.0000 </r>
       <r>    2.1098    0.0000 </r>
       <r>    2.3137    0.0000 </r>
       <r>    2.7209    0.0000 </r>
      </set>
      <set comment="kpoint 6">
       <r>  -16.5531    1.0000 </r>
       <r>  -14.0345    1.0000 </r>
       <r>  -11.8570    1.0000 </r>
       <r>   -8.1777    1.0000 </r>
       <r>   -7.4672    1.0000 </r>
       <r>   -7.4594    1.0000 </r>
       <r>   -6.1961    1.0000 </r>
       <r>   -5.3229    1.0000 </r>
       <r>   -3.8622    1.0000 </r>
       <r>   -2.6131    1.0000 </r>
       <r>   -0.9768    0.0000 </r>
       <r>   -0.7992    0.0000 </r>
       <r>    1.1605    0.0000 </r>
       <r>    1.5430    0.0000 </r>
       <r>    2.8668    0.0000 </r>
       <r>    3.0053    0.0000 </r>
      </set>
      <set comment="kpoint 7">
       <r>  -16.2607    1.0000 </r>
       <r>  -13.7318    1.0000 </r>
       <r>  -12.1914    1.0000 </r>
       <r>   -8.8296    1.0000 </r>
       <r>   -7.6650    1.0000 </r>
       <r>   -7.2997    1.0000 </r>
       <r>   -5.9495    1.0000 </r>
       <r>   -5.2556    1.0000 </r>
       <r>   -3.9670    1.0000 </r>
       <r>   -2.8596    1.0000 </r>
       <r>   -1.1617    0.0000 </r>
       <r>   -0.6180    0.0000 </r>
       <r>    0.7035    0.0000 </r>
       <r>    0.8740    0.0000 </r>
       <r>    2.4956    0.0000 </r>
       <r>    3.2266    0.0000 </r>
      </set>
      <set comment="kpoint 8">
       <r>  -15.9193    1.0000 </r>
       <r>  -13.3814    1.0000 </r>
       <r>  -12.6089    1.0000 </r>
       <r>   -9.5058    1.0000 </r>
       <r>   -7.7131    1.0000 </r>
       <r>   -7.1538    1.0000 </r>
       <r>   -5.6776    1.0000 </r>
       <r>   -5.1252    1.0000 </r>
       <r>   -4.1405    1.0000 </r>
       <r>   -3.1608    1.0000 </r>
       <r>   -1.1568    0.0000 </r>
       <r>   -0.5460    0.0000 </r>
       <r>    0.2569    0.0000 </r>
       <r>    0.4394    0.0000 </r>
       <r>    1.9919    0.0000 </r>
       <r>    2.9799    0.0000 </r>
      </set>
      <set comment="kpoint 9">
       <r>  -15.5317    1.0000 </r>
       <r>  -13.1697    1.0000 </r>
       <r>  -12.8939    1.0000 </r>
       <r>  -10.1724    1.0000 </r>
       <r>   -7.6414    1.0000 </r>
       <r>   -7.0570    1.0000 </r>
       <r>   -5.3994    1.0000 </r>
       <r>   -4.9789    1.0000 </r>
       <r>   -4.3130    1.0000 </r>
       <r>   -3.4936    1.0000 </r>
       <r>   -1.0202    0.0000 </r>
       <r>   -0.6992    0.0000 </r>
       <r>   -0.2286    0.0000 </r>
       <r>    0.4921    0.0000 </r>
       <r>    1.4873    0.0000 </r>
       <r>    2.5825    0.0000 </r>
      </set>
      <set comment="kpoint 10">
       <r>  -15.1018    1.0000 </r>
       <r>  -13.6336    1.0000 </r>
       <r>  -12.4785    1.0000 </r>
       <r>  -10.8117    1.0000 </r>
       <r>   -7.4907    1.0000 </r>
       <r>   -7.0481    1.0000 </r>
       <r>   -5.1427    1.0000 </r>
       <r>   -4.8644    1.0000 </r>
       <r>   -4.3978    1.0000 </r>
       <r>   -3.8264    1.0000 </r>
       <r>   -0.9586    0.0000 </r>
       <r>   -0.9288    0.0000 </r>
       <r>   -0.3791    0.0000 </r>
       <r>    0.6226    0.0000 </r>
       <r>    1.1208    0.0000 </r>
       <r>    2.1429    0.0000 </r>
      </set>
      <set comment="kpoint 11">
       <r>  -14.6354    1.0000 </r>
       <r>  -14.1412    1.0000 </r>
       <r>  -11.9710    1.0000 </r>
       <r>  -11.4134    1.0000 </r>
       <r>   -7.3067    1.0000 </r>
       <r>   -7.1413    1.0000 </r>
       <r>   -4.9449    1.0000 </r>
       <r>   -4.8441    1.0000 </r>
       <r>   -4.3305    1.0000 </r>
       <r>   -4.1210    1.0000 </r>
       <r>   -1.0739    0.0000 </r>
       <r>   -1.0683    0.0000 </r>
       <r>   -0.0980    0.0000 </r>
       <r>    0.3164    0.0000 </r>
       <r>    1.3059    0.0000 </r>
       <r>    1.7037    0.0000 </r>
      </set>
      <set comment="kpoint 12">
       <r>  -17.2063    1.0000 </r>
       <r>  -14.7599    1.0000 </r>
       <r>  -11.3785    1.0000 </r>
       <r>   -8.0622    1.0000 </r>
       <r>   -6.8194    1.0000 </r>
       <r>   -6.7274    1.0000 </r>
       <r>   -5.4654    1.0000 </r>
       <r>   -4.0213    1.0000 </r>
       <r>   -3.8499    1.0000 </r>
       <r>   -2.4252    1.0000 </r>
       <r>   -1.1633    0.0000 </r>
       <r>   -0.5605    0.0000 </r>
       <r>    0.0512    0.0000 </r>
       <r>    1.2955    0.0000 </r>
       <r>    2.2180    0.0000 </r>
       <r>    2.3409    0.0000 </r>
      </set>
      <set comment="kpoint 13">
       <r>  -17.1840    1.0000 </r>
       <r>  -14.7271    1.0000 </r>
       <r>  -11.3718    1.0000 </r>
       <r>   -8.0304    1.0000 </r>
       <r>   -6.8284    1.0000 </r>
       <r>   -6.7646    1.0000 </r>
       <r>   -5.5923    1.0000 </r>
       <r>   -4.2459    1.0000 </r>
       <r>   -3.8708    1.0000 </r>
       <r>   -2.3977    1.0000 </r>
       <r>   -1.1623    0.0000 </r>
       <r>   -0.3406    0.0000 </r>
       <r>    0.1707    0.0000 </r>
       <r>    1.2900    0.0000 </r>
       <r>    2.2344    0.0000 </r>
       <r>    2.3637    0.0000 </r>
      </set>
      <set comment="kpoint 14">
       <r>  -17.1074    1.0000 </r>
       <r>  -14.6386    1.0000 </r>
       <r>  -11.3874    1.0000 </r>
       <r>   -7.9721    1.0000 </r>
       <r>   -6.8846    1.0000 </r>
       <r>   -6.7932    1.0000 </r>
       <r>   -5.9480    1.0000 </r>
       <r>   -4.6860    1.0000 </r>
       <r>   -3.8832    1.0000 </r>
       <r>   -2.3863    1.0000 </r>
       <r>   -1.1155    0.0000 </r>
       <r>    0.1449    0.0000 </r>
       <r>    0.3000    0.0000 </r>
       <r>    1.5507    0.0000 </r>
       <r>    2.2847    0.0000 </r>
       <r>    2.4471    0.0000 </r>
      </set>
      <set comment="kpoint 15">
       <r>  -16.9768    1.0000 </r>
       <r>  -14.4946    1.0000 </r>
       <r>  -11.4428    1.0000 </r>
       <r>   -7.9097    1.0000 </r>
       <r>   -7.0382    1.0000 </r>
       <r>   -6.9187    1.0000 </r>
       <r>   -6.2524    1.0000 </r>
       <r>   -5.1089    1.0000 </r>
       <r>   -3.8912    1.0000 </r>
       <r>   -2.4153    1.0000 </r>
       <r>   -1.0240    0.0000 </r>
       <r>   -0.2127    0.0000 </r>
       <r>    1.2078    0.0000 </r>
       <r>    1.9326    0.0000 </r>
       <r>    2.1635    0.0000 </r>
       <r>    2.4839    0.0000 </r>
      </set>
      <set comment="kpoint 16">
       <r>  -16.7930    1.0000 </r>
       <r>  -14.2953    1.0000 </r>
[...]
       <r>    2.8364    0.0000 </r>
       <r>    3.7583    0.0000 </r>
      </set>
      <set comment="kpoint 153">
       <r>  -15.2547    1.0000 </r>
       <r>  -15.1433    1.0000 </r>
       <r>  -10.9725    1.0000 </r>
       <r>  -10.5023    1.0000 </r>
       <r>   -7.8828    1.0000 </r>
       <r>   -7.7774    1.0000 </r>
       <r>   -5.4017    1.0000 </r>
       <r>   -4.8161    1.0000 </r>
       <r>   -3.6929    1.0000 </r>
       <r>   -3.6786    1.0000 </r>
       <r>    0.4244    0.0000 </r>
       <r>    0.6606    0.0000 </r>
       <r>    0.9398    0.0000 </r>
       <r>    1.6715    0.0000 </r>
       <r>    3.0005    0.0000 </r>
       <r>    3.5866    0.0000 </r>
      </set>
      <set comment="kpoint 154">
       <r>  -15.4863    1.0000 </r>
       <r>  -15.4475    1.0000 </r>
       <r>  -10.7848    1.0000 </r>
       <r>  -10.4012    1.0000 </r>
       <r>   -7.6375    1.0000 </r>
       <r>   -7.3446    1.0000 </r>
       <r>   -5.1749    1.0000 </r>
       <r>   -4.8003    1.0000 </r>
       <r>   -3.6916    1.0000 </r>
       <r>   -3.4701    1.0000 </r>
       <r>    0.4021    0.0000 </r>
       <r>    0.6509    0.0000 </r>
       <r>    1.1103    0.0000 </r>
       <r>    1.7006    0.0000 </r>
       <r>    2.9495    0.0000 </r>
       <r>    3.3981    0.0000 </r>
      </set>
      <set comment="kpoint 155">
       <r>  -15.7061    1.0000 </r>
       <r>  -15.6790    1.0000 </r>
       <r>  -10.7185    1.0000 </r>
       <r>  -10.4020    1.0000 </r>
       <r>   -7.1814    1.0000 </r>
       <r>   -6.7385    1.0000 </r>
       <r>   -5.1148    1.0000 </r>
       <r>   -4.8587    1.0000 </r>
       <r>   -3.5565    1.0000 </r>
       <r>   -3.2899    1.0000 </r>
       <r>    0.4173    0.0000 </r>
       <r>    0.7339    0.0000 </r>
       <r>    1.2128    0.0000 </r>
       <r>    1.6214    0.0000 </r>
       <r>    2.4416    0.0000 </r>
       <r>    2.8345    0.0000 </r>
      </set>
      <set comment="kpoint 156">
       <r>  -15.9158    1.0000 </r>
       <r>  -15.8268    1.0000 </r>
       <r>  -10.7280    1.0000 </r>
       <r>  -10.4425    1.0000 </r>
       <r>   -6.5806    1.0000 </r>
       <r>   -6.0515    1.0000 </r>
       <r>   -5.1499    1.0000 </r>
       <r>   -4.9270    1.0000 </r>
       <r>   -3.3831    1.0000 </r>
       <r>   -3.2170    1.0000 </r>
       <r>    0.4031    0.0000 </r>
       <r>    0.8808    0.0000 </r>
       <r>    1.2370    0.0000 </r>
       <r>    1.3839    0.0000 </r>
       <r>    1.9619    0.0000 </r>
       <r>    2.0375    0.0000 </r>
      </set>
      <set comment="kpoint 157">
       <r>  -16.0747    1.0000 </r>
       <r>  -15.9261    1.0000 </r>
       <r>  -10.7658    1.0000 </r>
       <r>  -10.4842    1.0000 </r>
       <r>   -5.9161    1.0000 </r>
       <r>   -5.4289    1.0000 </r>
       <r>   -5.1556    1.0000 </r>
       <r>   -4.9780    1.0000 </r>
       <r>   -3.2720    1.0000 </r>
       <r>   -3.2696    1.0000 </r>
       <r>    0.1578    0.0000 </r>
       <r>    0.7201    0.0000 </r>
       <r>    1.1963    0.0000 </r>
       <r>    1.3350    0.0000 </r>
       <r>    1.4929    0.0000 </r>
       <r>    1.7877    0.0000 </r>
      </set>
      <set comment="kpoint 158">
       <r>  -16.1815    1.0000 </r>
       <r>  -15.9749    1.0000 </r>
       <r>  -10.8017    1.0000 </r>
       <r>  -10.5083    1.0000 </r>
       <r>   -5.3303    1.0000 </r>
       <r>   -5.2876    1.0000 </r>
       <r>   -4.9990    1.0000 </r>
       <r>   -4.7888    1.0000 </r>
       <r>   -3.4487    1.0000 </r>
       <r>   -3.2372    1.0000 </r>
       <r>   -0.1649    0.0000 </r>
       <r>    0.2021    0.0000 </r>
       <r>    1.2397    0.0000 </r>
       <r>    1.2473    0.0000 </r>
       <r>    1.6147    0.0000 </r>
       <r>    1.7162    0.0000 </r>
      </set>
     </set>
    </set>
   </array>
  </eigenvalues>
  <separator name="orbital magnetization" >
   <v name="MAGDIPOLOUT">      0.00000000      0.00000000      0.00000000</v>
  </separator>
  <dos>
   <i name="efermi">     -2.12047447 </i>
   <total>
    <array>
     <dimension dim="1">gridpoints</dimension>
     <dimension dim="2">spin</dimension>
     <field>energy</field>
     <field>total</field>
     <field>integrated</field>
     <set>
      <set comment="spin 1">
       <r>   -18.2875     0.0000     0.0000 </r>
       <r>   -18.2098     0.0000     0.0000 </r>
       <r>   -18.1321     0.0000     0.0000 </r>
       <r>   -18.0545     0.0000     0.0000 </r>
       <r>   -17.9768     0.0000     0.0000 </r>
       <r>   -17.8991     0.0000     0.0000 </r>
       <r>   -17.8214     0.0000     0.0000 </r>
       <r>   -17.7437     0.0000     0.0000 </r>
       <r>   -17.6661     0.0000     0.0000 </r>
       <r>   -17.5884     0.0000     0.0000 </r>
       <r>   -17.5107     0.0000     0.0000 </r>
       <r>   -17.4330     0.0000     0.0000 </r>
       <r>   -17.3553     0.0000     0.0000 </r>
       <r>   -17.2777     0.0000     0.0000 </r>
       <r>   -17.2000     0.3028     0.0235 </r>
       <r>   -17.1223     0.7772     0.0839 </r>
       <r>   -17.0446     0.7938     0.1456 </r>
       <r>   -16.9670     0.9639     0.2204 </r>
       <r>   -16.8893     0.7299     0.2771 </r>
       <r>   -16.8116     0.8832     0.3457 </r>
       <r>   -16.7339     0.9065     0.4161 </r>
       <r>   -16.6562     0.9203     0.4876 </r>
       <r>   -16.5786     0.4830     0.5252 </r>
       <r>   -16.5009     1.2776     0.6244 </r>
       <r>   -16.4232     0.7896     0.6857 </r>
       <r>   -16.3455     0.7452     0.7436 </r>
       <r>   -16.2678     0.7865     0.8047 </r>
       <r>   -16.1902     1.0127     0.8834 </r>
       <r>   -16.1125     1.2120     0.9775 </r>
       <r>   -16.0348     0.5552     1.0207 </r>
       <r>   -15.9571     0.6750     1.0731 </r>
       <r>   -15.8794     1.6390     1.2004 </r>
       <r>   -15.8018     0.7408     1.2580 </r>
       <r>   -15.7241     0.5947     1.3042 </r>
       <r>   -15.6464     1.2820     1.4037 </r>
       <r>   -15.5687     0.7069     1.4587 </r>
       <r>   -15.4910     0.9971     1.5361 </r>
       <r>   -15.4134     1.4459     1.6484 </r>
       <r>   -15.3357     1.0920     1.7332 </r>
       <r>   -15.2580     0.6433     1.7832 </r>
       <r>   -15.1803     1.0995     1.8686 </r>
       <r>   -15.1026     1.5842     1.9917 </r>
       <r>   -15.0250     1.0254     2.0713 </r>
       <r>   -14.9473     1.1351     2.1595 </r>
       <r>   -14.8696     1.6058     2.2842 </r>
       <r>   -14.7919     1.2195     2.3790 </r>
       <r>   -14.7142     1.4985     2.4954 </r>
       <r>   -14.6366     2.4228     2.6836 </r>
       <r>   -14.5589     1.1800     2.7752 </r>
       <r>   -14.4812     1.3859     2.8829 </r>
       <r>   -14.4035     1.4746     2.9974 </r>
       <r>   -14.3259     1.0490     3.0789 </r>
       <r>   -14.2482     1.5429     3.1988 </r>
       <r>   -14.1705     1.2988     3.2997 </r>
       <r>   -14.0928     0.6312     3.3487 </r>
       <r>   -14.0151     1.3217     3.4514 </r>
       <r>   -13.9375     0.9043     3.5216 </r>
       <r>   -13.8598     0.4484     3.5565 </r>
       <r>   -13.7821     0.9773     3.6324 </r>
       <r>   -13.7044     1.1248     3.7197 </r>
       <r>   -13.6267     0.8585     3.7864 </r>
       <r>   -13.5491     0.5044     3.8256 </r>
       <r>   -13.4714     0.7355     3.8827 </r>
       <r>   -13.3937     0.4500     3.9177 </r>
       <r>   -13.3160     0.5690     3.9619 </r>
       <r>   -13.2383     0.0008     3.9620 </r>
       <r>   -13.1607     0.2831     3.9839 </r>
       <r>   -13.0830     0.0734     3.9896 </r>
       <r>   -13.0053     0.1333     4.0000 </r>
       <r>   -12.9276     0.0192     4.0015 </r>
       <r>   -12.8499     0.3076     4.0254 </r>
       <r>   -12.7723     0.0289     4.0276 </r>
       <r>   -12.6946     0.2259     4.0452 </r>
       <r>   -12.6169     0.1778     4.0590 </r>
       <r>   -12.5392     0.4310     4.0925 </r>
       <r>   -12.4615     0.7114     4.1477 </r>
       <r>   -12.3839     0.9699     4.2231 </r>
       <r>   -12.3062     0.5037     4.2622 </r>
       <r>   -12.2285     0.4645     4.2983 </r>
       <r>   -12.1508     0.8541     4.3646 </r>
       <r>   -12.0731     1.4245     4.4753 </r>
       <r>   -11.9955     1.5244     4.5937 </r>
       <r>   -11.9178     1.5961     4.7177 </r>
       <r>   -11.8401     0.8727     4.7855 </r>
       <r>   -11.7624     1.2905     4.8857 </r>
       <r>   -11.6848     0.5488     4.9284 </r>
       <r>   -11.6071     1.1647     5.0188 </r>
       <r>   -11.5294     1.8807     5.1649 </r>
       <r>   -11.4517     1.6257     5.2912 </r>
       <r>   -11.3740     4.1754     5.6156 </r>
       <r>   -11.2964     1.9652     5.7682 </r>
       <r>   -11.2187     1.6055     5.8929 </r>
       <r>   -11.1410     1.0420     5.9739 </r>
       <r>   -11.0633     0.8647     6.0410 </r>
       <r>   -10.9856     1.4682     6.1551 </r>
       <r>   -10.9080     1.0413     6.2360 </r>
       <r>   -10.8303     0.6237     6.2844 </r>
       <r>   -10.7526     1.5176     6.4023 </r>
       <r>   -10.6749     1.1977     6.4953 </r>
       <r>   -10.5972     0.3256     6.5206 </r>
       <r>   -10.5196     0.0873     6.5274 </r>
       <r>   -10.4419     1.4375     6.6391 </r>
       <r>   -10.3642     1.0383     6.7197 </r>
       <r>   -10.2865     0.5383     6.7615 </r>
       <r>   -10.2088     0.3514     6.7888 </r>
       <r>   -10.1312     1.1124     6.8753 </r>
       <r>   -10.0535     1.0076     6.9535 </r>
       <r>    -9.9758     0.5372     6.9952 </r>
       <r>    -9.8981     0.3439     7.0220 </r>
       <r>    -9.8204     0.2484     7.0413 </r>
       <r>    -9.7428     0.3123     7.0655 </r>
       <r>    -9.6651     1.3203     7.1681 </r>
       <r>    -9.5874     0.6149     7.2158 </r>
       <r>    -9.5097     0.7094     7.2709 </r>
       <r>    -9.4320     0.1492     7.2825 </r>
       <r>    -9.3544     0.0651     7.2876 </r>
       <r>    -9.2767     1.1208     7.3747 </r>
       <r>    -9.1990     0.5281     7.4157 </r>
       <r>    -9.1213     0.4102     7.4476 </r>
       <r>    -9.0437     0.1727     7.4610 </r>
       <r>    -8.9660     0.1994     7.4765 </r>
       <r>    -8.8883     0.4606     7.5122 </r>
       <r>    -8.8106     1.1704     7.6032 </r>
       <r>    -8.7329     0.3517     7.6305 </r>
       <r>    -8.6553     0.2615     7.6508 </r>
       <r>    -8.5776     0.2832     7.6728 </r>
       <r>    -8.4999     0.0437     7.6762 </r>
       <r>    -8.4222     0.3183     7.7009 </r>
       <r>    -8.3445     0.6870     7.7543 </r>
       <r>    -8.2669     0.7633     7.8136 </r>
       <r>    -8.1892     0.2924     7.8363 </r>
       <r>    -8.1115     1.0048     7.9143 </r>
       <r>    -8.0338     2.0804     8.0759 </r>
       <r>    -7.9561     2.1344     8.2417 </r>
       <r>    -7.8785     1.9394     8.3924 </r>
       <r>    -7.8008     1.9419     8.5432 </r>
       <r>    -7.7231     2.3625     8.7268 </r>
       <r>    -7.6454     2.0824     8.8885 </r>
       <r>    -7.5677     1.5244     9.0069 </r>
       <r>    -7.4901     2.2168     9.1791 </r>
       <r>    -7.4124     2.1517     9.3463 </r>
       <r>    -7.3347     2.4296     9.5350 </r>
       <r>    -7.2570     3.0164     9.7693 </r>
       <r>    -7.1793     2.5557     9.9678 </r>
       <r>    -7.1017     2.8273    10.1875 </r>
       <r>    -7.0240     3.0781    10.4266 </r>
       <r>    -6.9463     2.5837    10.6273 </r>
       <r>    -6.8686     1.4305    10.7384 </r>
       <r>    -6.7909     2.2021    10.9094 </r>
       <r>    -6.7133     1.4747    11.0240 </r>
       <r>    -6.6356     2.0027    11.1796 </r>
       <r>    -6.5579     1.2801    11.2790 </r>
       <r>    -6.4802     1.0299    11.3590 </r>
       <r>    -6.4026     1.5542    11.4797 </r>
       <r>    -6.3249     1.0759    11.5633 </r>
       <r>    -6.2472     1.4829    11.6785 </r>
       <r>    -6.1695     2.5222    11.8744 </r>
       <r>    -6.0918     1.1158    11.9611 </r>
       <r>    -6.0142     1.2446    12.0578 </r>
       <r>    -5.9365     2.7757    12.2734 </r>
       <r>    -5.8588     1.4182    12.3836 </r>
       <r>    -5.7811     1.6589    12.5124 </r>
       <r>    -5.7034     1.7155    12.6457 </r>
       <r>    -5.6258     4.3179    12.9811 </r>
       <r>    -5.5481     2.8468    13.2022 </r>
       <r>    -5.4704     3.7825    13.4961 </r>
       <r>    -5.3927     2.7331    13.7084 </r>
       <r>    -5.3150     4.4255    14.0521 </r>
       <r>    -5.2374     2.5242    14.2482 </r>
       <r>    -5.1597     2.1758    14.4172 </r>
       <r>    -5.0820     3.4543    14.6856 </r>
       <r>    -5.0043     1.4555    14.7986 </r>
       <r>    -4.9266     2.2341    14.9722 </r>
       <r>    -4.8490     2.1268    15.1374 </r>
       <r>    -4.7713     2.0901    15.2997 </r>
       <r>    -4.6936     1.1780    15.3912 </r>
       <r>    -4.6159     1.5019    15.5079 </r>
       <r>    -4.5382     2.0362    15.6661 </r>
       <r>    -4.4606     0.9627    15.7409 </r>
       <r>    -4.3829     0.7159    15.7965 </r>
       <r>    -4.3052     1.3479    15.9012 </r>
       <r>    -4.2275     2.4116    16.0885 </r>
       <r>    -4.1498     2.6984    16.2981 </r>
       <r>    -4.0722     2.1303    16.4636 </r>
       <r>    -3.9945     1.9997    16.6189 </r>
       <r>    -3.9168     2.5683    16.8184 </r>
       <r>    -3.8391     2.5310    17.0150 </r>
       <r>    -3.7615     3.7338    17.3051 </r>
       <r>    -3.6838     3.9244    17.6099 </r>
       <r>    -3.6061     3.5449    17.8853 </r>
       <r>    -3.5284     2.9749    18.1164 </r>
       <r>    -3.4507     2.9129    18.3426 </r>
       <r>    -3.3731     2.6605    18.5493 </r>
       <r>    -3.2954     2.1000    18.7124 </r>
       <r>    -3.2177     2.8784    18.9360 </r>
       <r>    -3.1400     2.3754    19.1205 </r>
       <r>    -3.0623     1.9479    19.2719 </r>
       <r>    -2.9847     1.6207    19.3977 </r>
       <r>    -2.9070     1.2734    19.4967 </r>
       <r>    -2.8293     1.7088    19.6294 </r>
       <r>    -2.7516     1.2337    19.7252 </r>
       <r>    -2.6739     0.8986    19.7950 </r>
       <r>    -2.5963     0.5378    19.8368 </r>
       <r>    -2.5186     0.1698    19.8500 </r>
       <r>    -2.4409     0.5544    19.8931 </r>
       <r>    -2.3632     0.7947    19.9548 </r>
       <r>    -2.2855     0.1674    19.9678 </r>
       <r>    -2.2079     0.3572    19.9956 </r>
       <r>    -2.1302     0.0572    20.0000 </r>
       <r>    -2.0525     0.0000    20.0000 </r>
       <r>    -1.9748     0.0000    20.0000 </r>
       <r>    -1.8971     0.0000    20.0000 </r>
       <r>    -1.8195     0.0000    20.0000 </r>
       <r>    -1.7418     0.0000    20.0000 </r>
       <r>    -1.6641     0.0000    20.0000 </r>
       <r>    -1.5864     0.0000    20.0000 </r>
       <r>    -1.5087     0.0000    20.0000 </r>
       <r>    -1.4311     0.0000    20.0000 </r>
       <r>    -1.3534     0.2034    20.0158 </r>
       <r>    -1.2757     0.7431    20.0735 </r>
       <r>    -1.1980     0.6114    20.1210 </r>
       <r>    -1.1204     1.5985    20.2452 </r>
       <r>    -1.0427     1.3625    20.3510 </r>
       <r>    -0.9650     1.4405    20.4629 </r>
       <r>    -0.8873     1.2414    20.5593 </r>
       <r>    -0.8096     1.3122    20.6613 </r>
       <r>    -0.7320     2.0919    20.8238 </r>
       <r>    -0.6543     1.5310    20.9427 </r>
       <r>    -0.5766     1.6620    21.0718 </r>
       <r>    -0.4989     2.1732    21.2406 </r>
       <r>    -0.4212     2.2913    21.4186 </r>
       <r>    -0.3436     2.7193    21.6298 </r>
       <r>    -0.2659     2.5422    21.8273 </r>
       <r>    -0.1882     2.6927    22.0365 </r>
       <r>    -0.1105     3.0743    22.2753 </r>
       <r>    -0.0328     3.1246    22.5180 </r>
       <r>     0.0448     4.0568    22.8331 </r>
       <r>     0.1225     3.8069    23.1289 </r>
       <r>     0.2002     4.0815    23.4459 </r>
       <r>     0.2779     3.7013    23.7334 </r>
       <r>     0.3556     3.7158    24.0221 </r>
       <r>     0.4332     3.8329    24.3198 </r>
       <r>     0.5109     3.2296    24.5707 </r>
       <r>     0.5886     2.1584    24.7383 </r>
       <r>     0.6663     3.4151    25.0036 </r>
       <r>     0.7440     2.4011    25.1901 </r>
       <r>     0.8216     2.7203    25.4015 </r>
       <r>     0.8993     2.2952    25.5797 </r>
       <r>     0.9770     2.3039    25.7587 </r>
       <r>     1.0547     2.1311    25.9243 </r>
       <r>     1.1324     2.2696    26.1006 </r>
       <r>     1.2100     4.3207    26.4362 </r>
       <r>     1.2877     3.9448    26.7426 </r>
       <r>     1.3654     3.4692    27.0121 </r>
       <r>     1.4431     2.5163    27.2076 </r>
       <r>     1.5207     2.4058    27.3944 </r>
       <r>     1.5984     2.4814    27.5872 </r>
       <r>     1.6761     3.3169    27.8449 </r>
       <r>     1.7538     2.5369    28.0419 </r>
       <r>     1.8315     1.9471    28.1932 </r>
       <r>     1.9091     2.2910    28.3711 </r>
       <r>     1.9868     2.4172    28.5589 </r>
       <r>     2.0645     1.6899    28.6902 </r>
       <r>     2.1422     2.1192    28.8548 </r>
       <r>     2.2199     2.7568    29.0689 </r>
       <r>     2.2975     2.8407    29.2896 </r>
       <r>     2.3752     2.3311    29.4707 </r>
       <r>     2.4529     3.5929    29.7498 </r>
       <r>     2.5306     3.2574    30.0028 </r>
       <r>     2.6083     3.1504    30.2475 </r>
       <r>     2.6859     3.0255    30.4825 </r>
       <r>     2.7636     2.4450    30.6725 </r>
       <r>     2.8413     1.8005    30.8123 </r>
       <r>     2.9190     2.5855    31.0132 </r>
       <r>     2.9967     2.3613    31.1966 </r>
       <r>     3.0743     2.2276    31.3696 </r>
       <r>     3.1520     1.6686    31.4992 </r>
       <r>     3.2297     1.5087    31.6164 </r>
       <r>     3.3074     1.5894    31.7399 </r>
       <r>     3.3851     0.4354    31.7737 </r>
       <r>     3.4627     0.4471    31.8084 </r>
       <r>     3.5404     0.4923    31.8467 </r>
       <r>     3.6181     0.5395    31.8886 </r>
       <r>     3.6958     0.4436    31.9231 </r>
       <r>     3.7735     0.3117    31.9473 </r>
       <r>     3.8511     0.2254    31.9648 </r>
       <r>     3.9288     0.2935    31.9876 </r>
       <r>     4.0065     0.1597    32.0000 </r>
       <r>     4.0842     0.0000    32.0000 </r>
       <r>     4.1618     0.0000    32.0000 </r>
       <r>     4.2395     0.0000    32.0000 </r>
       <r>     4.3172     0.0000    32.0000 </r>
       <r>     4.3949     0.0000    32.0000 </r>
       <r>     4.4726     0.0000    32.0000 </r>
       <r>     4.5502     0.0000    32.0000 </r>
       <r>     4.6279     0.0000    32.0000 </r>
       <r>     4.7056     0.0000    32.0000 </r>
       <r>     4.7833     0.0000    32.0000 </r>
       <r>     4.8610     0.0000    32.0000 </r>
       <r>     4.9386     0.0000    32.0000 </r>
       <r>     5.0163     0.0000    32.0000 </r>
      </set>
     </set>
    </array>
   </total>
  </dos>
 </calculation>
 <structure name="finalpos" >
  <crystal>
   <varray name="basis" >
    <v>       3.29307000       0.16506700       0.00000000 </v>
    <v>       0.23145800       4.61755400      -0.00005300 </v>
    <v>       0.00000000       0.00000000      20.02439000 </v>
   </varray>
   <i name="volume">    303.72439021 </i>
   <varray name="rec_basis" >
    <v>       0.30443292      -0.01525990       0.00000000 </v>
    <v>      -0.01088278       0.21711038       0.00000000 </v>
    <v>      -0.00000003       0.00000057       0.04993910 </v>
   </varray>
  </crystal>
  <varray name="positions" >
   <v>       0.48073177       0.91175553       0.55239805 </v>
   <v>       0.51926823       0.08824447       0.44760195 </v>
   <v>      -0.01926775       0.41175060       0.44760195 </v>
   <v>       0.01926775       0.58824940       0.55239805 </v>
  </varray>
 </structure>
</modeling>
