<?xml version="1.0" encoding="ISO-8859-1"?>
<modeling>
 <generator>
  <i name="program" type="string">vasp </i>
  <i name="version" type="string">5.4.1  </i>
  <i name="subversion" type="string">24Jun15 (build Nov 20 2020 10:29:34) complex                          parallel </i>
  <i name="platform" type="string">IFC91_ompi </i>
  <i name="date" type="string">2021 09 13 </i>
  <i name="time" type="string">23:29:51 </i>
 </generator>
 <incar>
  <i type="int" name="ISTART">     1</i>
  <i type="string" name="PREC">a</i>
  <i type="string" name="ALGO"> Normal</i>
  <i type="int" name="ISPIN">     1</i>
  <i type="int" name="ICHARG">     2</i>
  <i type="int" name="NELM">   250</i>
  <i type="int" name="NELMDL">    -5</i>
  <i type="int" name="NELMIN">     6</i>
  <i type="int" name="IBRION">     2</i>
  <i name="EDIFF">      0.00001000</i>
  <i name="EDIFFG">     -0.00500000</i>
  <i type="int" name="NSW">     0</i>
  <i type="int" name="ISIF">     2</i>
  <i name="ENCUT">    520.00000000</i>
  <i name="POTIM">      0.25000000</i>
  <v name="MAGMOM">      0.60000000      0.60000000</v>
  <i type="string" name="LREAL"> Auto</i>
  <i type="int" name="ISMEAR">     0</i>
  <i name="SIGMA">      0.02000000</i>
  <i type="logical" name="LWAVE"> F  </i>
  <i type="logical" name="LCHARG"> F  </i>
  <i type="logical" name="LVHAR"> F  </i>
  <v type="int" name="KPOINT_BSE">    -1     0     0     0</v>
  <i type="int" name="NELM">   250</i>
 </incar>
 <kpoints>
  <generation param="Gamma">
   <v type="int" name="divisions">      24       24        1 </v>
   <v name="usershift">      0.00000000       0.00000000       0.00000000 </v>
   <v name="genvec1">      0.04166667       0.00000000       0.00000000 </v>
   <v name="genvec2">      0.00000000       0.04166667       0.00000000 </v>
   <v name="genvec3">      0.00000000       0.00000000       1.00000000 </v>
   <v name="shift">      0.00000000       0.00000000       0.00000000 </v>
  </generation>
  <varray name="kpointlist" >
   <v>       0.00000000       0.00000000       0.00000000 </v>
   <v>       0.04166667      -0.00000000       0.00000000 </v>
   <v>       0.08333333      -0.00000000       0.00000000 </v>
   <v>       0.12500000      -0.00000000       0.00000000 </v>
   <v>       0.16666667      -0.00000000       0.00000000 </v>
   <v>       0.20833333      -0.00000000       0.00000000 </v>
   <v>       0.25000000      -0.00000000       0.00000000 </v>
   <v>       0.29166667      -0.00000000       0.00000000 </v>
   <v>       0.33333333      -0.00000000       0.00000000 </v>
   <v>       0.37500000      -0.00000000       0.00000000 </v>
   <v>       0.41666667      -0.00000000       0.00000000 </v>
   <v>       0.45833333      -0.00000000       0.00000000 </v>
   <v>       0.50000000      -0.00000000       0.00000000 </v>
   <v>      -0.00000000       0.04166667       0.00000000 </v>
   <v>       0.04166667       0.04166667       0.00000000 </v>
   <v>       0.08333333       0.04166667       0.00000000 </v>
   <v>       0.12500000       0.04166667       0.00000000 </v>
   <v>       0.16666667       0.04166667       0.00000000 </v>
   <v>       0.20833333       0.04166667       0.00000000 </v>
   <v>       0.25000000       0.04166667       0.00000000 </v>
   <v>       0.29166667       0.04166667       0.00000000 </v>
   <v>       0.33333333       0.04166667       0.00000000 </v>
   <v>       0.37500000       0.04166667       0.00000000 </v>
   <v>       0.41666667       0.04166667       0.00000000 </v>
   <v>       0.45833333       0.04166667       0.00000000 </v>
   <v>       0.50000000       0.04166667       0.00000000 </v>
   <v>      -0.45833333       0.04166667       0.00000000 </v>
   <v>      -0.41666667       0.04166667       0.00000000 </v>
   <v>      -0.37500000       0.04166667       0.00000000 </v>
   <v>      -0.33333333       0.04166667       0.00000000 </v>
   <v>      -0.29166667       0.04166667       0.00000000 </v>
   <v>      -0.25000000       0.04166667       0.00000000 </v>
   <v>      -0.20833333       0.04166667       0.00000000 </v>
   <v>      -0.16666667       0.04166667       0.00000000 </v>
   <v>      -0.12500000       0.04166667       0.00000000 </v>
   <v>      -0.08333333       0.04166667       0.00000000 </v>
   <v>      -0.04166667       0.04166667       0.00000000 </v>
   <v>      -0.00000000       0.08333333       0.00000000 </v>
   <v>       0.04166667       0.08333333       0.00000000 </v>
   <v>       0.08333333       0.08333333       0.00000000 </v>
   <v>       0.12500000       0.08333333       0.00000000 </v>
   <v>       0.16666667       0.08333333       0.00000000 </v>
   <v>       0.20833333       0.08333333       0.00000000 </v>
   <v>       0.25000000       0.08333333       0.00000000 </v>
   <v>       0.29166667       0.08333333       0.00000000 </v>
   <v>       0.33333333       0.08333333       0.00000000 </v>
   <v>       0.37500000       0.08333333       0.00000000 </v>
   <v>       0.41666667       0.08333333       0.00000000 </v>
   <v>       0.45833333       0.08333333       0.00000000 </v>
   <v>       0.50000000       0.08333333       0.00000000 </v>
   <v>      -0.45833333       0.08333333       0.00000000 </v>
   <v>      -0.41666667       0.08333333       0.00000000 </v>
   <v>      -0.37500000       0.08333333       0.00000000 </v>
   <v>      -0.33333333       0.08333333       0.00000000 </v>
   <v>      -0.29166667       0.08333333       0.00000000 </v>
   <v>      -0.25000000       0.08333333       0.00000000 </v>
   <v>      -0.20833333       0.08333333       0.00000000 </v>
   <v>      -0.16666667       0.08333333       0.00000000 </v>
   <v>      -0.12500000       0.08333333       0.00000000 </v>
   <v>      -0.08333333       0.08333333       0.00000000 </v>
   <v>      -0.04166667       0.08333333       0.00000000 </v>
   <v>      -0.00000000       0.12500000       0.00000000 </v>
   <v>       0.04166667       0.12500000       0.00000000 </v>
   <v>       0.08333333       0.12500000       0.00000000 </v>
   <v>       0.12500000       0.12500000       0.00000000 </v>
   <v>       0.16666667       0.12500000       0.00000000 </v>
   <v>       0.20833333       0.12500000       0.00000000 </v>
   <v>       0.25000000       0.12500000       0.00000000 </v>
   <v>       0.29166667       0.12500000       0.00000000 </v>
   <v>       0.33333333       0.12500000       0.00000000 </v>
   <v>       0.37500000       0.12500000       0.00000000 </v>
   <v>       0.41666667       0.12500000       0.00000000 </v>
   <v>       0.45833333       0.12500000       0.00000000 </v>
   <v>       0.50000000       0.12500000       0.00000000 </v>
   <v>      -0.45833333       0.12500000       0.00000000 </v>
   <v>      -0.41666667       0.12500000       0.00000000 </v>
   <v>      -0.37500000       0.12500000       0.00000000 </v>
   <v>      -0.33333333       0.12500000       0.00000000 </v>
   <v>      -0.29166667       0.12500000       0.00000000 </v>
   <v>      -0.25000000       0.12500000       0.00000000 </v>
   <v>      -0.20833333       0.12500000       0.00000000 </v>
   <v>      -0.16666667       0.12500000       0.00000000 </v>
   <v>      -0.12500000       0.12500000       0.00000000 </v>
   <v>      -0.08333333       0.12500000       0.00000000 </v>
   <v>      -0.04166667       0.12500000       0.00000000 </v>
   <v>      -0.00000000       0.16666667       0.00000000 </v>
   <v>       0.04166667       0.16666667       0.00000000 </v>
   <v>       0.08333333       0.16666667       0.00000000 </v>
   <v>       0.12500000       0.16666667       0.00000000 </v>
   <v>       0.16666667       0.16666667       0.00000000 </v>
   <v>       0.20833333       0.16666667       0.00000000 </v>
   <v>       0.25000000       0.16666667       0.00000000 </v>
   <v>       0.29166667       0.16666667       0.00000000 </v>
   <v>       0.33333333       0.16666667       0.00000000 </v>
   <v>       0.37500000       0.16666667       0.00000000 </v>
   <v>       0.41666667       0.16666667       0.00000000 </v>
   <v>       0.45833333       0.16666667       0.00000000 </v>
   <v>       0.50000000       0.16666667       0.00000000 </v>
   <v>      -0.45833333       0.16666667       0.00000000 </v>
   <v>      -0.41666667       0.16666667       0.00000000 </v>
   <v>      -0.37500000       0.16666667       0.00000000 </v>
   <v>      -0.33333333       0.16666667       0.00000000 </v>
   <v>      -0.29166667       0.16666667       0.00000000 </v>
   <v>      -0.25000000       0.16666667       0.00000000 </v>
   <v>      -0.20833333       0.16666667       0.00000000 </v>
   <v>      -0.16666667       0.16666667       0.00000000 </v>
   <v>      -0.12500000       0.16666667       0.00000000 </v>
   <v>      -0.08333333       0.16666667       0.00000000 </v>
   <v>      -0.04166667       0.16666667       0.00000000 </v>
   <v>      -0.00000000       0.20833333       0.00000000 </v>
   <v>       0.04166667       0.20833333       0.00000000 </v>
   <v>       0.08333333       0.20833333       0.00000000 </v>
   <v>       0.12500000       0.20833333       0.00000000 </v>
   <v>       0.16666667       0.20833333       0.00000000 </v>
   <v>       0.20833333       0.20833333       0.00000000 </v>
   <v>       0.25000000       0.20833333       0.00000000 </v>
   <v>       0.29166667       0.20833333       0.00000000 </v>
   <v>       0.33333333       0.20833333       0.00000000 </v>
   <v>       0.37500000       0.20833333       0.00000000 </v>
   <v>       0.41666667       0.20833333       0.00000000 </v>
   <v>       0.45833333       0.20833333       0.00000000 </v>
   <v>       0.50000000       0.20833333       0.00000000 </v>
   <v>      -0.45833333       0.20833333       0.00000000 </v>
   <v>      -0.41666667       0.20833333       0.00000000 </v>
   <v>      -0.37500000       0.20833333       0.00000000 </v>
   <v>      -0.33333333       0.20833333       0.00000000 </v>
   <v>      -0.29166667       0.20833333       0.00000000 </v>
   <v>      -0.25000000       0.20833333       0.00000000 </v>
   <v>      -0.20833333       0.20833333       0.00000000 </v>
   <v>      -0.16666667       0.20833333       0.00000000 </v>
   <v>      -0.12500000       0.20833333       0.00000000 </v>
   <v>      -0.08333333       0.20833333       0.00000000 </v>
   <v>      -0.04166667       0.20833333       0.00000000 </v>
   <v>      -0.00000000       0.25000000       0.00000000 </v>
   <v>       0.04166667       0.25000000       0.00000000 </v>
   <v>       0.08333333       0.25000000       0.00000000 </v>
   <v>       0.12500000       0.25000000       0.00000000 </v>
   <v>       0.16666667       0.25000000       0.00000000 </v>
   <v>       0.20833333       0.25000000       0.00000000 </v>
   <v>       0.25000000       0.25000000       0.00000000 </v>
   <v>       0.29166667       0.25000000       0.00000000 </v>
   <v>       0.33333333       0.25000000       0.00000000 </v>
   <v>       0.37500000       0.25000000       0.00000000 </v>
   <v>       0.41666667       0.25000000       0.00000000 </v>
   <v>       0.45833333       0.25000000       0.00000000 </v>
   <v>       0.50000000       0.25000000       0.00000000 </v>
   <v>      -0.45833333       0.25000000       0.00000000 </v>
   <v>      -0.41666667       0.25000000       0.00000000 </v>
   <v>      -0.37500000       0.25000000       0.00000000 </v>
   <v>      -0.33333333       0.25000000       0.00000000 </v>
   <v>      -0.29166667       0.25000000       0.00000000 </v>
   <v>      -0.25000000       0.25000000       0.00000000 </v>
   <v>      -0.20833333       0.25000000       0.00000000 </v>
   <v>      -0.16666667       0.25000000       0.00000000 </v>
   <v>      -0.12500000       0.25000000       0.00000000 </v>
   <v>      -0.08333333       0.25000000       0.00000000 </v>
   <v>      -0.04166667       0.25000000       0.00000000 </v>
   <v>      -0.00000000       0.29166667       0.00000000 </v>
   <v>       0.04166667       0.29166667       0.00000000 </v>
   <v>       0.08333333       0.29166667       0.00000000 </v>
   <v>       0.12500000       0.29166667       0.00000000 </v>
   <v>       0.16666667       0.29166667       0.00000000 </v>
   <v>       0.20833333       0.29166667       0.00000000 </v>
   <v>       0.25000000       0.29166667       0.00000000 </v>
   <v>       0.29166667       0.29166667       0.00000000 </v>
   <v>       0.33333333       0.29166667       0.00000000 </v>
   <v>       0.37500000       0.29166667       0.00000000 </v>
   <v>       0.41666667       0.29166667       0.00000000 </v>
   <v>       0.45833333       0.29166667       0.00000000 </v>
   <v>       0.50000000       0.29166667       0.00000000 </v>
   <v>      -0.45833333       0.29166667       0.00000000 </v>
   <v>      -0.41666667       0.29166667       0.00000000 </v>
   <v>      -0.37500000       0.29166667       0.00000000 </v>
   <v>      -0.33333333       0.29166667       0.00000000 </v>
   <v>      -0.29166667       0.29166667       0.00000000 </v>
   <v>      -0.25000000       0.29166667       0.00000000 </v>
   <v>      -0.20833333       0.29166667       0.00000000 </v>
   <v>      -0.16666667       0.29166667       0.00000000 </v>
   <v>      -0.12500000       0.29166667       0.00000000 </v>
   <v>      -0.08333333       0.29166667       0.00000000 </v>
   <v>      -0.04166667       0.29166667       0.00000000 </v>
   <v>      -0.00000000       0.33333333       0.00000000 </v>
   <v>       0.04166667       0.33333333       0.00000000 </v>
   <v>       0.08333333       0.33333333       0.00000000 </v>
   <v>       0.12500000       0.33333333       0.00000000 </v>
   <v>       0.16666667       0.33333333       0.00000000 </v>
   <v>       0.20833333       0.33333333       0.00000000 </v>
   <v>       0.25000000       0.33333333       0.00000000 </v>
   <v>       0.29166667       0.33333333       0.00000000 </v>
   <v>       0.33333333       0.33333333       0.00000000 </v>
   <v>       0.37500000       0.33333333       0.00000000 </v>
   <v>       0.41666667       0.33333333       0.00000000 </v>
   <v>       0.45833333       0.33333333       0.00000000 </v>
   <v>       0.50000000       0.33333333       0.00000000 </v>
   <v>      -0.45833333       0.33333333       0.00000000 </v>
   <v>      -0.41666667       0.33333333       0.00000000 </v>
   <v>      -0.37500000       0.33333333       0.00000000 </v>
   <v>      -0.33333333       0.33333333       0.00000000 </v>
   <v>      -0.29166667       0.33333333       0.00000000 </v>
   <v>      -0.25000000       0.33333333       0.00000000 </v>
   <v>      -0.20833333       0.33333333       0.00000000 </v>
   <v>      -0.16666667       0.33333333       0.00000000 </v>
   <v>      -0.12500000       0.33333333       0.00000000 </v>
   <v>      -0.08333333       0.33333333       0.00000000 </v>
   <v>      -0.04166667       0.33333333       0.00000000 </v>
   <v>      -0.00000000       0.37500000       0.00000000 </v>
   <v>       0.04166667       0.37500000       0.00000000 </v>
   <v>       0.08333333       0.37500000       0.00000000 </v>
   <v>       0.12500000       0.37500000       0.00000000 </v>
   <v>       0.16666667       0.37500000       0.00000000 </v>
   <v>       0.20833333       0.37500000       0.00000000 </v>
   <v>       0.25000000       0.37500000       0.00000000 </v>
   <v>       0.29166667       0.37500000       0.00000000 </v>
   <v>       0.33333333       0.37500000       0.00000000 </v>
   <v>       0.37500000       0.37500000       0.00000000 </v>
   <v>       0.41666667       0.37500000       0.00000000 </v>
   <v>       0.45833333       0.37500000       0.00000000 </v>
   <v>       0.50000000       0.37500000       0.00000000 </v>
   <v>      -0.45833333       0.37500000       0.00000000 </v>
   <v>      -0.41666667       0.37500000       0.00000000 </v>
   <v>      -0.37500000       0.37500000       0.00000000 </v>
   <v>      -0.33333333       0.37500000       0.00000000 </v>
   <v>      -0.29166667       0.37500000       0.00000000 </v>
   <v>      -0.25000000       0.37500000       0.00000000 </v>
   <v>      -0.20833333       0.37500000       0.00000000 </v>
   <v>      -0.16666667       0.37500000       0.00000000 </v>
   <v>      -0.12500000       0.37500000       0.00000000 </v>
   <v>      -0.08333333       0.37500000       0.00000000 </v>
   <v>      -0.04166667       0.37500000       0.00000000 </v>
   <v>      -0.00000000       0.41666667       0.00000000 </v>
   <v>       0.04166667       0.41666667       0.00000000 </v>
   <v>       0.08333333       0.41666667       0.00000000 </v>
   <v>       0.12500000       0.41666667       0.00000000 </v>
   <v>       0.16666667       0.41666667       0.00000000 </v>
   <v>       0.20833333       0.41666667       0.00000000 </v>
   <v>       0.25000000       0.41666667       0.00000000 </v>
   <v>       0.29166667       0.41666667       0.00000000 </v>
   <v>       0.33333333       0.41666667       0.00000000 </v>
   <v>       0.37500000       0.41666667       0.00000000 </v>
   <v>       0.41666667       0.41666667       0.00000000 </v>
   <v>       0.45833333       0.41666667       0.00000000 </v>
   <v>       0.50000000       0.41666667       0.00000000 </v>
   <v>      -0.45833333       0.41666667       0.00000000 </v>
   <v>      -0.41666667       0.41666667       0.00000000 </v>
   <v>      -0.37500000       0.41666667       0.00000000 </v>
   <v>      -0.33333333       0.41666667       0.00000000 </v>
   <v>      -0.29166667       0.41666667       0.00000000 </v>
   <v>      -0.25000000       0.41666667       0.00000000 </v>
   <v>      -0.20833333       0.41666667       0.00000000 </v>
   <v>      -0.16666667       0.41666667       0.00000000 </v>
   <v>      -0.12500000       0.41666667       0.00000000 </v>
   <v>      -0.08333333       0.41666667       0.00000000 </v>
   <v>      -0.04166667       0.41666667       0.00000000 </v>
   <v>      -0.00000000       0.45833333       0.00000000 </v>
   <v>       0.04166667       0.45833333       0.00000000 </v>
   <v>       0.08333333       0.45833333       0.00000000 </v>
   <v>       0.12500000       0.45833333       0.00000000 </v>
   <v>       0.16666667       0.45833333       0.00000000 </v>
   <v>       0.20833333       0.45833333       0.00000000 </v>
   <v>       0.25000000       0.45833333       0.00000000 </v>
   <v>       0.29166667       0.45833333       0.00000000 </v>
   <v>       0.33333333       0.45833333       0.00000000 </v>
   <v>       0.37500000       0.45833333       0.00000000 </v>
   <v>       0.41666667       0.45833333       0.00000000 </v>
   <v>       0.45833333       0.45833333       0.00000000 </v>
   <v>       0.50000000       0.45833333       0.00000000 </v>
   <v>      -0.45833333       0.45833333       0.00000000 </v>
   <v>      -0.41666667       0.45833333       0.00000000 </v>
   <v>      -0.37500000       0.45833333       0.00000000 </v>
   <v>      -0.33333333       0.45833333       0.00000000 </v>
   <v>      -0.29166667       0.45833333       0.00000000 </v>
   <v>      -0.25000000       0.45833333       0.00000000 </v>
   <v>      -0.20833333       0.45833333       0.00000000 </v>
   <v>      -0.16666667       0.45833333       0.00000000 </v>
   <v>      -0.12500000       0.45833333       0.00000000 </v>
   <v>      -0.08333333       0.45833333       0.00000000 </v>
   <v>      -0.04166667       0.45833333       0.00000000 </v>
   <v>      -0.00000000       0.50000000       0.00000000 </v>
   <v>       0.04166667       0.50000000       0.00000000 </v>
   <v>       0.08333333       0.50000000       0.00000000 </v>
   <v>       0.12500000       0.50000000       0.00000000 </v>
   <v>       0.16666667       0.50000000       0.00000000 </v>
   <v>       0.20833333       0.50000000       0.00000000 </v>
   <v>       0.25000000       0.50000000       0.00000000 </v>
   <v>       0.29166667       0.50000000       0.00000000 </v>
   <v>       0.33333333       0.50000000       0.00000000 </v>
   <v>       0.37500000       0.50000000       0.00000000 </v>
   <v>       0.41666667       0.50000000       0.00000000 </v>
   <v>       0.45833333       0.50000000       0.00000000 </v>
   <v>       0.50000000       0.50000000       0.00000000 </v>
  </varray>
  <varray name="weights" >
   <v>       0.00173611 </v>
   <v>       0.00347222 </v>
   <v>       0.00347222 </v>
   <v>       0.00347222 </v>
   <v>       0.00347222 </v>
   <v>       0.00347222 </v>
   <v>       0.00347222 </v>
   <v>       0.00347222 </v>
   <v>       0.00347222 </v>
   <v>       0.00347222 </v>
   <v>       0.00347222 </v>
   <v>       0.00347222 </v>
   <v>       0.00173611 </v>
   <v>       0.00347222 </v>
   <v>       0.00347222 </v>
   <v>       0.00347222 </v>
   <v>       0.00347222 </v>
   <v>       0.00347222 </v>
   <v>       0.00347222 </v>
   <v>       0.00347222 </v>
   <v>       0.00347222 </v>
   <v>       0.00347222 </v>
   <v>       0.00347222 </v>
   <v>       0.00347222 </v>
   <v>       0.00347222 </v>
   <v>       0.00347222 </v>
   <v>       0.00347222 </v>
   <v>       0.00347222 </v>
   <v>       0.00347222 </v>
   <v>       0.00347222 </v>
   <v>       0.00347222 </v>
   <v>       0.00347222 </v>
   <v>       0.00347222 </v>
   <v>       0.00347222 </v>
   <v>       0.00347222 </v>
   <v>       0.00347222 </v>
   <v>       0.00347222 </v>
   <v>       0.00347222 </v>
   <v>       0.00347222 </v>
   <v>       0.00347222 </v>
   <v>       0.00347222 </v>
   <v>       0.00347222 </v>
   <v>       0.00347222 </v>
   <v>       0.00347222 </v>
   <v>       0.00347222 </v>
   <v>       0.00347222 </v>
   <v>       0.00347222 </v>
   <v>       0.00347222 </v>
   <v>       0.00347222 </v>
   <v>       0.00347222 </v>
   <v>       0.00347222 </v>
   <v>       0.00347222 </v>
   <v>       0.00347222 </v>
   <v>       0.00347222 </v>
   <v>       0.00347222 </v>
   <v>       0.00347222 </v>
   <v>       0.00347222 </v>
   <v>       0.00347222 </v>
   <v>       0.00347222 </v>
   <v>       0.00347222 </v>
   <v>       0.00347222 </v>
   <v>       0.00347222 </v>
   <v>       0.00347222 </v>
   <v>       0.00347222 </v>
   <v>       0.00347222 </v>
   <v>       0.00347222 </v>
   <v>       0.00347222 </v>
   <v>       0.00347222 </v>
   <v>       0.00347222 </v>
   <v>       0.00347222 </v>
   <v>       0.00347222 </v>
   <v>       0.00347222 </v>
   <v>       0.00347222 </v>
   <v>       0.00347222 </v>
   <v>       0.00347222 </v>
   <v>       0.00347222 </v>
   <v>       0.00347222 </v>
   <v>       0.00347222 </v>
   <v>       0.00347222 </v>
   <v>       0.00347222 </v>
   <v>       0.00347222 </v>
   <v>       0.00347222 </v>
   <v>       0.00347222 </v>
   <v>       0.00347222 </v>
   <v>       0.00347222 </v>
   <v>       0.00347222 </v>
   <v>       0.00347222 </v>
   <v>       0.00347222 </v>
   <v>       0.00347222 </v>
   <v>       0.00347222 </v>
   <v>       0.00347222 </v>
   <v>       0.00347222 </v>
   <v>       0.00347222 </v>
   <v>       0.00347222 </v>
   <v>       0.00347222 </v>
   <v>       0.00347222 </v>
   <v>       0.00347222 </v>
   <v>       0.00347222 </v>
   <v>       0.00347222 </v>
   <v>       0.00347222 </v>
   <v>       0.00347222 </v>
   <v>       0.00347222 </v>
   <v>       0.00347222 </v>
   <v>       0.00347222 </v>
   <v>       0.00347222 </v>
   <v>       0.00347222 </v>
   <v>       0.00347222 </v>
   <v>       0.00347222 </v>
   <v>       0.00347222 </v>
   <v>       0.00347222 </v>
   <v>       0.00347222 </v>
   <v>       0.00347222 </v>
   <v>       0.00347222 </v>
   <v>       0.00347222 </v>
   <v>       0.00347222 </v>
   <v>       0.00347222 </v>
   <v>       0.00347222 </v>
   <v>       0.00347222 </v>
   <v>       0.00347222 </v>
   <v>       0.00347222 </v>
   <v>       0.00347222 </v>
   <v>       0.00347222 </v>
   <v>       0.00347222 </v>
   <v>       0.00347222 </v>
   <v>       0.00347222 </v>
   <v>       0.00347222 </v>
   <v>       0.00347222 </v>
   <v>       0.00347222 </v>
   <v>       0.00347222 </v>
   <v>       0.00347222 </v>
   <v>       0.00347222 </v>
   <v>       0.00347222 </v>
   <v>       0.00347222 </v>
   <v>       0.00347222 </v>
   <v>       0.00347222 </v>
   <v>       0.00347222 </v>
   <v>       0.00347222 </v>
   <v>       0.00347222 </v>
   <v>       0.00347222 </v>
   <v>       0.00347222 </v>
   <v>       0.00347222 </v>
   <v>       0.00347222 </v>
   <v>       0.00347222 </v>
   <v>       0.00347222 </v>
   <v>       0.00347222 </v>
   <v>       0.00347222 </v>
   <v>       0.00347222 </v>
   <v>       0.00347222 </v>
   <v>       0.00347222 </v>
   <v>       0.00347222 </v>
   <v>       0.00347222 </v>
   <v>       0.00347222 </v>
   <v>       0.00347222 </v>
   <v>       0.00347222 </v>
   <v>       0.00347222 </v>
   <v>       0.00347222 </v>
   <v>       0.00347222 </v>
   <v>       0.00347222 </v>
   <v>       0.00347222 </v>
   <v>       0.00347222 </v>
   <v>       0.00347222 </v>
   <v>       0.00347222 </v>
   <v>       0.00347222 </v>
   <v>       0.00347222 </v>
   <v>       0.00347222 </v>
   <v>       0.00347222 </v>
   <v>       0.00347222 </v>
   <v>       0.00347222 </v>
   <v>       0.00347222 </v>
   <v>       0.00347222 </v>
   <v>       0.00347222 </v>
   <v>       0.00347222 </v>
   <v>       0.00347222 </v>
   <v>       0.00347222 </v>
   <v>       0.00347222 </v>
   <v>       0.00347222 </v>
   <v>       0.00347222 </v>
   <v>       0.00347222 </v>
   <v>       0.00347222 </v>
   <v>       0.00347222 </v>
   <v>       0.00347222 </v>
   <v>       0.00347222 </v>
   <v>       0.00347222 </v>
   <v>       0.00347222 </v>
   <v>       0.00347222 </v>
   <v>       0.00347222 </v>
   <v>       0.00347222 </v>
   <v>       0.00347222 </v>
   <v>       0.00347222 </v>
   <v>       0.00347222 </v>
   <v>       0.00347222 </v>
   <v>       0.00347222 </v>
   <v>       0.00347222 </v>
   <v>       0.00347222 </v>
   <v>       0.00347222 </v>
   <v>       0.00347222 </v>
   <v>       0.00347222 </v>
   <v>       0.00347222 </v>
   <v>       0.00347222 </v>
   <v>       0.00347222 </v>
   <v>       0.00347222 </v>
   <v>       0.00347222 </v>
   <v>       0.00347222 </v>
   <v>       0.00347222 </v>
   <v>       0.00347222 </v>
   <v>       0.00347222 </v>
   <v>       0.00347222 </v>
   <v>       0.00347222 </v>
   <v>       0.00347222 </v>
   <v>       0.00347222 </v>
   <v>       0.00347222 </v>
   <v>       0.00347222 </v>
   <v>       0.00347222 </v>
   <v>       0.00347222 </v>
   <v>       0.00347222 </v>
   <v>       0.00347222 </v>
   <v>       0.00347222 </v>
   <v>       0.00347222 </v>
   <v>       0.00347222 </v>
   <v>       0.00347222 </v>
   <v>       0.00347222 </v>
   <v>       0.00347222 </v>
   <v>       0.00347222 </v>
   <v>       0.00347222 </v>
   <v>       0.00347222 </v>
   <v>       0.00347222 </v>
   <v>       0.00347222 </v>
   <v>       0.00347222 </v>
   <v>       0.00347222 </v>
   <v>       0.00347222 </v>
   <v>       0.00347222 </v>
   <v>       0.00347222 </v>
   <v>       0.00347222 </v>
   <v>       0.00347222 </v>
   <v>       0.00347222 </v>
   <v>       0.00347222 </v>
   <v>       0.00347222 </v>
   <v>       0.00347222 </v>
   <v>       0.00347222 </v>
   <v>       0.00347222 </v>
   <v>       0.00347222 </v>
   <v>       0.00347222 </v>
   <v>       0.00347222 </v>
   <v>       0.00347222 </v>
   <v>       0.00347222 </v>
   <v>       0.00347222 </v>
   <v>       0.00347222 </v>
   <v>       0.00347222 </v>
   <v>       0.00347222 </v>
   <v>       0.00347222 </v>
   <v>       0.00347222 </v>
   <v>       0.00347222 </v>
   <v>       0.00347222 </v>
   <v>       0.00347222 </v>
   <v>       0.00347222 </v>
   <v>       0.00347222 </v>
   <v>       0.00347222 </v>
   <v>       0.00347222 </v>
   <v>       0.00347222 </v>
   <v>       0.00347222 </v>
   <v>       0.00347222 </v>
   <v>       0.00347222 </v>
   <v>       0.00347222 </v>
   <v>       0.00347222 </v>
   <v>       0.00347222 </v>
   <v>       0.00347222 </v>
   <v>       0.00347222 </v>
   <v>       0.00347222 </v>
   <v>       0.00347222 </v>
   <v>       0.00347222 </v>
   <v>       0.00347222 </v>
   <v>       0.00347222 </v>
   <v>       0.00347222 </v>
   <v>       0.00347222 </v>
   <v>       0.00347222 </v>
   <v>       0.00347222 </v>
   <v>       0.00347222 </v>
   <v>       0.00173611 </v>
   <v>       0.00347222 </v>
   <v>       0.00347222 </v>
   <v>       0.00347222 </v>
   <v>       0.00347222 </v>
   <v>       0.00347222 </v>
   <v>       0.00347222 </v>
   <v>       0.00347222 </v>
   <v>       0.00347222 </v>
   <v>       0.00347222 </v>
   <v>       0.00347222 </v>
   <v>       0.00347222 </v>
   <v>       0.00173611 </v>
  </varray>
 </kpoints>
 <parameters>
  <separator name="general" >
   <i type="string" name="SYSTEM">unknown system</i>
   <i type="logical" name="LCOMPAT"> F  </i>
  </separator>
  <separator name="electronic" >
   <i type="string" name="PREC">a</i>
   <i name="ENMAX">    520.00000000</i>
   <i name="ENAUG">    644.87300000</i>
   <i name="EDIFF">      0.00001000</i>
   <i type="int" name="IALGO">    38</i>
   <i type="int" name="IWAVPR">    10</i>
   <i type="int" name="NBANDS">    12</i>
   <i name="NELECT">      8.00000000</i>
   <i type="int" name="TURBO">     0</i>
   <i type="int" name="IRESTART">     0</i>
   <i type="int" name="NREBOOT">     0</i>
   <i type="int" name="NMIN">     0</i>
   <i name="EREF">      0.00000000</i>
   <separator name="electronic smearing" >
    <i type="int" name="ISMEAR">     0</i>
    <i name="SIGMA">      0.02000000</i>
    <i name="KSPACING">      0.50000000</i>
    <i type="logical" name="KGAMMA"> T  </i>
   </separator>
   <separator name="electronic projectors" >
    <i type="logical" name="LREAL"> T  </i>
    <v name="ROPT">     -0.00025000</v>
    <i type="int" name="LMAXPAW">  -100</i>
    <i type="int" name="LMAXMIX">     2</i>
    <i type="logical" name="NLSPLINE"> F  </i>
   </separator>
   <separator name="electronic startup" >
    <i type="int" name="ISTART">     0</i>
    <i type="int" name="ICHARG">     2</i>
    <i type="int" name="INIWAV">     1</i>
   </separator>
   <separator name="electronic spin" >
    <i type="int" name="ISPIN">     1</i>
    <i type="logical" name="LNONCOLLINEAR"> F  </i>
    <v name="MAGMOM">      0.60000000      0.60000000</v>
    <i name="NUPDOWN">     -1.00000000</i>
    <i type="logical" name="LSORBIT"> F  </i>
    <v name="SAXIS">      0.00000000      0.00000000      1.00000000</v>
    <i type="logical" name="LSPIRAL"> F  </i>
    <v name="QSPIRAL">      0.00000000      0.00000000      0.00000000</v>
    <i type="logical" name="LZEROZ"> F  </i>
   </separator>
   <separator name="electronic exchange-correlation" >
    <i type="logical" name="LASPH"> F  </i>
    <i type="logical" name="LMETAGGA"> F  </i>
   </separator>
   <separator name="electronic convergence" >
    <i type="int" name="NELM">   250</i>
    <i type="int" name="NELMDL">    -5</i>
    <i type="int" name="NELMIN">     6</i>
    <i name="ENINI">    520.00000000</i>
    <separator name="electronic convergence detail" >
     <i type="logical" name="LDIAG"> T  </i>
     <i type="logical" name="LSUBROT"> F  </i>
     <i name="WEIMIN">      0.00000000</i>
     <i name="EBREAK">      0.00000021</i>
     <i name="DEPER">      0.30000000</i>
     <i type="int" name="NRMM">     4</i>
     <i name="TIME">      0.40000000</i>
    </separator>
   </separator>
   <separator name="electronic mixer" >
    <i name="AMIX">      0.40000000</i>
    <i name="BMIX">      1.00000000</i>
    <i name="AMIN">      0.10000000</i>
    <i name="AMIX_MAG">      1.60000000</i>
    <i name="BMIX_MAG">      1.00000000</i>
    <separator name="electronic mixer details" >
     <i type="int" name="IMIX">     4</i>
     <i type="logical" name="MIXFIRST"> F  </i>
     <i type="int" name="MAXMIX">   -45</i>
     <i name="WC">    100.00000000</i>
     <i type="int" name="INIMIX">     1</i>
     <i type="int" name="MIXPRE">     1</i>
     <i type="int" name="MREMOVE">     5</i>
    </separator>
   </separator>
   <separator name="electronic dipolcorrection" >
    <i type="logical" name="LDIPOL"> F  </i>
    <i type="logical" name="LMONO"> F  </i>
    <i type="int" name="IDIPOL">     0</i>
    <i name="EPSILON">      1.00000000</i>
    <v name="DIPOL">   -100.00000000   -100.00000000   -100.00000000</v>
    <i name="EFIELD">      0.00000000</i>
   </separator>
  </separator>
  <separator name="grids" >
   <i type="int" name="NGX">    18</i>
   <i type="int" name="NGY">    18</i>
   <i type="int" name="NGZ">   112</i>
   <i type="int" name="NGXF">    36</i>
   <i type="int" name="NGYF">    36</i>
   <i type="int" name="NGZF">   224</i>
   <i type="logical" name="ADDGRID"> F  </i>
  </separator>
  <separator name="ionic" >
   <i type="int" name="NSW">     0</i>
   <i type="int" name="IBRION">    -1</i>
   <i type="int" name="ISIF">     2</i>
   <i name="PSTRESS">      0.00000000</i>
   <i name="EDIFFG">     -0.00500000</i>
   <i type="int" name="NFREE">     1</i>
   <i name="POTIM">      0.25000000</i>
   <i name="SMASS">     -3.00000000</i>
   <i name="SCALEE">      1.00000000</i>
  </separator>
  <separator name="ionic md" >
   <i name="TEBEG">      0.00010000</i>
   <i name="TEEND">      0.00010000</i>
   <i type="int" name="NBLOCK">     1</i>
   <i type="int" name="KBLOCK">     1</i>
   <i type="int" name="NPACO">   256</i>
   <i name="APACO">     16.00000000</i>
  </separator>
  <separator name="symmetry" >
   <i type="int" name="ISYM">     2</i>
   <i name="SYMPREC">      0.00001000</i>
  </separator>
  <separator name="dos" >
   <i type="logical" name="LORBIT"> F  </i>
   <v name="RWIGS">     -1.00000000</v>
   <i type="int" name="NEDOS">   301</i>
   <i name="EMIN">     10.00000000</i>
   <i name="EMAX">    -10.00000000</i>
   <i name="EFERMI">      0.00000000</i>
  </separator>
  <separator name="writing" >
   <i type="int" name="NWRITE">     2</i>
   <i type="logical" name="LWAVE"> F  </i>
   <i type="logical" name="LCHARG"> F  </i>
   <i type="logical" name="LPARD"> F  </i>
   <i type="logical" name="LVTOT"> F  </i>
   <i type="logical" name="LVHAR"> F  </i>
   <i type="logical" name="LELF"> F  </i>
   <i type="logical" name="LOPTICS"> F  </i>
   <v name="STM">      0.00000000      0.00000000      0.00000000      0.00000000      0.00000000      0.00000000      0.00000000</v>
  </separator>
  <separator name="performance" >
   <i type="int" name="NPAR">     6</i>
   <i type="int" name="NSIM">     4</i>
   <i type="int" name="NBLK">    -1</i>
   <i type="logical" name="LPLANE"> T  </i>
   <i type="logical" name="LSCALAPACK"> T  </i>
   <i type="logical" name="LSCAAWARE"> F  </i>
   <i type="logical" name="LSCALU"> F  </i>
   <i type="logical" name="LASYNC"> F  </i>
   <i type="logical" name="LORBITALREAL"> F  </i>
  </separator>
  <separator name="miscellaneous" >
   <i type="int" name="IDIOT">     3</i>
   <i type="logical" name="LMUSIC"> F  </i>
   <v name="POMASS">     12.01100000</v>
   <v name="DARWINR">      0.00000000</v>
   <v name="DARWINV">      1.00000000</v>
   <i type="logical" name="LCORR"> T  </i>
  </separator>
  <i type="logical" name="GGA_COMPAT"> T  </i>
  <i type="logical" name="LBERRY"> F  </i>
  <i type="int" name="ICORELEVEL">     0</i>
  <i type="logical" name="LDAU"> F  </i>
  <i type="int" name="I_CONSTRAINED_M">     0</i>
  <separator name="electronic exchange-correlation" >
   <i type="string" name="GGA">--</i>
   <i type="int" name="VOSKOWN">     0</i>
   <i type="logical" name="LHFCALC"> F  </i>
   <i type="string" name="PRECFOCK"></i>
   <i type="logical" name="LSYMGRAD"> F  </i>
   <i type="logical" name="LHFONE"> F  </i>
   <i type="logical" name="LRHFCALC"> F  </i>
   <i type="logical" name="LTHOMAS"> F  </i>
   <i type="logical" name="LMODELHF"> F  </i>
   <i name="ENCUT4O">     -1.00000000</i>
   <i type="int" name="EXXOEP">     0</i>
   <i type="int" name="FOURORBIT">     0</i>
   <i name="AEXX">      0.00000000</i>
   <i name="HFALPHA">      0.00000000</i>
   <i name="MCALPHA">      0.00000000</i>
   <i name="ALDAX">      1.00000000</i>
   <i name="AGGAX">      1.00000000</i>
   <i name="ALDAC">      1.00000000</i>
   <i name="AGGAC">      1.00000000</i>
   <i type="int" name="NKREDX">     1</i>
   <i type="int" name="NKREDY">     1</i>
   <i type="int" name="NKREDZ">     1</i>
   <i type="logical" name="SHIFTRED"> F  </i>
   <i type="logical" name="ODDONLY"> F  </i>
   <i type="logical" name="EVENONLY"> F  </i>
   <i type="int" name="LMAXFOCK">     0</i>
   <i type="int" name="NMAXFOCKAE">     0</i>
   <i type="logical" name="LFOCKAEDFT"> F  </i>
   <i name="HFSCREEN">      0.00000000</i>
   <i name="HFSCREENC">      0.00000000</i>
   <i type="int" name="NBANDSGWLOW">     0</i>
  </separator>
  <separator name="vdW DFT" >
   <i type="logical" name="LUSE_VDW"> F  </i>
   <i name="Zab_VDW">     -0.84910000</i>
   <i name="PARAM1">      0.12340000</i>
   <i name="PARAM2">      1.00000000</i>
   <i name="PARAM3">      0.00000000</i>
  </separator>
  <separator name="model GW" >
   <i type="int" name="MODEL_GW">     0</i>
   <i name="MODEL_EPS0">     23.55623570</i>
   <i name="MODEL_ALPHA">      1.00000000</i>
  </separator>
  <separator name="linear response parameters" >
   <i type="logical" name="LEPSILON"> F  </i>
   <i type="logical" name="LRPA"> F  </i>
   <i type="logical" name="LNABLA"> F  </i>
   <i type="logical" name="LVEL"> F  </i>
   <i type="int" name="KINTER">     0</i>
   <i name="CSHIFT">      0.10000000</i>
   <i name="OMEGAMAX">     -1.00000000</i>
   <i name="DEG_THRESHOLD">      0.00200000</i>
  </separator>
  <separator name="orbital magnetization" >
   <i type="logical" name="NUCIND"> F  </i>
   <v name="MAGPOS">      0.00000000      0.00000000      0.00000000</v>
   <i type="logical" name="LNICSALL"> T  </i>
   <i type="logical" name="ORBITALMAG"> F  </i>
   <i type="logical" name="LMAGBLOCH"> F  </i>
   <i type="logical" name="LCHIMAG"> F  </i>
   <i type="logical" name="LGAUGE"> T  </i>
   <i type="int" name="MAGATOM">     0</i>
   <v name="MAGDIPOL">      0.00000000      0.00000000      0.00000000</v>
   <v name="AVECCONST">      0.00000000      0.00000000      0.00000000</v>
  </separator>
  <separator name="response functions" >
   <i type="logical" name="LADDER"> F  </i>
   <i type="logical" name="LFXC"> F  </i>
   <i type="logical" name="LHARTREE"> T  </i>
   <i type="int" name="IBSE">     0</i>
   <v type="int" name="KPOINT">    -1     0     0     0</v>
   <i type="logical" name="LTCTE"> F  </i>
   <i type="logical" name="LTETE"> F  </i>
   <i type="logical" name="LTRIPLET"> F  </i>
   <i type="logical" name="LFXCEPS"> F  </i>
   <i type="logical" name="LFXHEG"> F  </i>
   <i type="int" name="NATURALO">     0</i>
   <i type="logical" name="L2ORDER"> F  </i>
   <i type="logical" name="LUSEW"> F  </i>
   <i name="ENCUTGW">     -2.00000000</i>
   <i name="ENCUTGWSOFT">     -2.00000000</i>
   <i name="ENCUTLF">     -1.00000000</i>
   <i type="int" name="LMAXMP2">    -1</i>
   <i name="SCISSOR">      0.00000000</i>
   <i type="int" name="NOMEGA">     0</i>
   <i type="int" name="NOMEGAR">     0</i>
   <i type="int" name="NBANDSGW">    -1</i>
   <i type="int" name="NBANDSO">    -1</i>
   <i type="int" name="NBANDSV">    -1</i>
   <i type="int" name="NELM">   250</i>
   <i type="int" name="NELMHF">     1</i>
   <i type="int" name="DIM">     3</i>
   <i type="int" name="ANTIRES">     0</i>
   <i name="OMEGAMAX">    -30.00000000</i>
   <i name="OMEGAMIN">    -30.00000000</i>
   <i name="OMEGATL">   -200.00000000</i>
   <i type="int" name="OMEGAGRID">     0</i>
   <i name="CSHIFT">     -0.10000000</i>
   <i type="logical" name="SELFENERGY"> F  </i>
   <i type="logical" name="LSPECTRAL"> F  </i>
   <i type="logical" name="LSPECTRALGW"> F  </i>
   <i type="logical" name="LSINGLES"> F  </i>
   <i type="logical" name="LFERMIGW"> F  </i>
   <i type="logical" name="ODDONLYGW"> F  </i>
   <i type="logical" name="EVENONLYGW"> F  </i>
   <i type="int" name="NKREDLFX">     1</i>
   <i type="int" name="NKREDLFY">     1</i>
   <i type="int" name="NKREDLFZ">     1</i>
   <i type="int" name="MAXMEM">  1800</i>
   <i type="int" name="TELESCOPE">     0</i>
   <i type="int" name="TAUPAR">     1</i>
   <i type="int" name="OMEGAPAR">    -1</i>
   <i name="LAMBDA">      1.00000000</i>
  </separator>
  <separator name="External order field" >
   <i name="OFIELD_KAPPA">      0.00000000</i>
   <v name="OFIELD_K">      0.00000000      0.00000000      0.00000000</v>
   <i name="OFIELD_Q6_NEAR">      0.00000000</i>
   <i name="OFIELD_Q6_FAR">      0.00000000</i>
   <i name="OFIELD_A">      0.00000000</i>
  </separator>
 </parameters>
 <atominfo>
  <atoms>       2 </atoms>
  <types>       1 </types>
  <array name="atoms" >
   <dimension dim="1">ion</dimension>
   <field type="string">element</field>
   <field type="int">atomtype</field>
   <set>
    <rc><c>C </c><c>   1</c></rc>
    <rc><c>C </c><c>   1</c></rc>
   </set>
  </array>
  <array name="atomtypes" >
   <dimension dim="1">type</dimension>
   <field type="int">atomspertype</field>
   <field type="string">element</field>
   <field>mass</field>
   <field>valence</field>
   <field type="string">pseudopotential</field>
   <set>
    <rc><c>   2</c><c>C </c><c>     12.01100000</c><c>      4.00000000</c><c>  PAW_PBE C 08Apr2002                   </c></rc>
   </set>
  </array>
 </atominfo>
 <structure name="initialpos" >
  <crystal>
   <varray name="basis" >
    <v>       2.44936100      -0.01858100       0.00000000 </v>
    <v>      -1.24077200       2.14659000       0.00000000 </v>
    <v>       0.00000000       0.00000000      15.00000000 </v>
   </varray>
   <i name="volume">     78.52078567 </i>
   <varray name="rec_basis" >
    <v>       0.41006785       0.23702743       0.00000000 </v>
    <v>       0.00354957       0.46790687       0.00000000 </v>
    <v>       0.00000000       0.00000000       0.06666667 </v>
   </varray>
  </crystal>
  <varray name="positions" >
   <v>       0.00024941       0.00011821       0.50000000 </v>
   <v>       0.33308359       0.66654879       0.50000000 </v>
  </varray>
 </structure>
 <calculation>
  <scstep>
   <time name="dav">    0.84    0.84</time>
   <time name="total">    0.85    0.85</time>
   <energy>
    <i name="alphaZ">      4.18471187 </i>
    <i name="ewald">    843.34834556 </i>
    <i name="hartreedc">  -1061.70209099 </i>
    <i name="XCdc">     26.40053992 </i>
    <i name="pawpsdc">    217.04409276 </i>
    <i name="pawaedc">   -218.18290438 </i>
    <i name="eentropy">     -0.00010536 </i>
    <i name="bandstr">    -69.69587829 </i>
    <i name="atom">    294.29778662 </i>
    <i name="e_fr_energy">     35.69449772 </i>
    <i name="e_wo_entrp">     35.69460308 </i>
    <i name="e_0_energy">     35.69455040 </i>
   </energy>
  </scstep>
  <scstep>
   <time name="dav">    1.08    1.08</time>
   <time name="total">    1.08    1.09</time>
   <energy>
    <i name="e_fr_energy">    -18.09430463 </i>
    <i name="e_wo_entrp">    -18.09430463 </i>
    <i name="e_0_energy">    -18.09430463 </i>
   </energy>
  </scstep>
  <scstep>
   <time name="dav">    1.25    1.25</time>
   <time name="total">    1.25    1.25</time>
   <energy>
    <i name="e_fr_energy">    -19.74531655 </i>
    <i name="e_wo_entrp">    -19.74531655 </i>
    <i name="e_0_energy">    -19.74531655 </i>
   </energy>
  </scstep>
  <scstep>
   <time name="dav">    1.19    1.19</time>
   <time name="total">    1.19    1.20</time>
   <energy>
    <i name="e_fr_energy">    -19.75252358 </i>
    <i name="e_wo_entrp">    -19.75252358 </i>
    <i name="e_0_energy">    -19.75252358 </i>
   </energy>
  </scstep>
  <scstep>
   <time name="dav">    1.18    1.18</time>
   <time name="total">    1.21    1.22</time>
   <energy>
    <i name="e_fr_energy">    -19.75253063 </i>
    <i name="e_wo_entrp">    -19.75253063 </i>
    <i name="e_0_energy">    -19.75253063 </i>
   </energy>
  </scstep>
  <scstep>
   <time name="dav">    1.05    1.05</time>
   <time name="total">    1.09    1.09</time>
   <energy>
    <i name="e_fr_energy">    -18.81187679 </i>
    <i name="e_wo_entrp">    -18.81187679 </i>
    <i name="e_0_energy">    -18.81187679 </i>
   </energy>
  </scstep>
  <scstep>
   <time name="dav">    1.17    1.17</time>
   <time name="total">    1.21    1.21</time>
   <energy>
    <i name="e_fr_energy">    -18.44972888 </i>
    <i name="e_wo_entrp">    -18.44972888 </i>
    <i name="e_0_energy">    -18.44972888 </i>
   </energy>
  </scstep>
  <scstep>
   <time name="dav">    1.15    1.16</time>
   <time name="total">    1.19    1.19</time>
   <energy>
    <i name="e_fr_energy">    -18.44185226 </i>
    <i name="e_wo_entrp">    -18.44185226 </i>
    <i name="e_0_energy">    -18.44185226 </i>
   </energy>
  </scstep>
  <scstep>
   <time name="dav">    1.05    1.05</time>
   <time name="total">    1.08    1.08</time>
   <energy>
    <i name="e_fr_energy">    -18.43994225 </i>
    <i name="e_wo_entrp">    -18.43994225 </i>
    <i name="e_0_energy">    -18.43994225 </i>
   </energy>
  </scstep>
  <scstep>
   <time name="dav">    0.94    0.94</time>
   <time name="total">    0.97    0.98</time>
   <energy>
    <i name="e_fr_energy">    -18.43830799 </i>
    <i name="e_wo_entrp">    -18.43830799 </i>
    <i name="e_0_energy">    -18.43830799 </i>
   </energy>
  </scstep>
  <scstep>
   <time name="dav">    0.90    0.90</time>
   <time name="total">    0.93    0.93</time>
   <energy>
    <i name="e_fr_energy">    -18.43850279 </i>
    <i name="e_wo_entrp">    -18.43850279 </i>
    <i name="e_0_energy">    -18.43850279 </i>
   </energy>
  </scstep>
  <scstep>
   <time name="dav">    0.92    0.92</time>
   <time name="total">    0.96    0.96</time>
   <energy>
    <i name="e_fr_energy">    -18.43875014 </i>
    <i name="e_wo_entrp">    -18.43875014 </i>
    <i name="e_0_energy">    -18.43875014 </i>
   </energy>
  </scstep>
  <scstep>
   <time name="dav">    0.89    0.89</time>
   <time name="total">    0.93    0.93</time>
   <energy>
    <i name="e_fr_energy">    -18.43947885 </i>
    <i name="e_wo_entrp">    -18.43947885 </i>
    <i name="e_0_energy">    -18.43947885 </i>
   </energy>
  </scstep>
  <scstep>
   <time name="dav">    1.12    1.12</time>
   <time name="total">    1.15    1.15</time>
   <energy>
    <i name="e_fr_energy">    -18.43953525 </i>
    <i name="e_wo_entrp">    -18.43953525 </i>
    <i name="e_0_energy">    -18.43953525 </i>
   </energy>
  </scstep>
  <scstep>
   <time name="dav">    0.88    0.88</time>
   <time name="total">    0.91    0.91</time>
   <energy>
    <i name="e_fr_energy">    -18.43963801 </i>
    <i name="e_wo_entrp">    -18.43963801 </i>
    <i name="e_0_energy">    -18.43963801 </i>
   </energy>
  </scstep>
  <scstep>
   <time name="dav">    0.90    0.90</time>
   <time name="total">    0.90    0.91</time>
   <energy>
    <i name="alphaZ">      4.18471187 </i>
    <i name="ewald">    843.34834556 </i>
    <i name="hartreedc">  -1095.41686261 </i>
    <i name="XCdc">     27.59855591 </i>
    <i name="pawpsdc">    847.62877490 </i>
    <i name="pawaedc">   -849.00154933 </i>
    <i name="eentropy">     -0.00000000 </i>
    <i name="bandstr">    -91.07940955 </i>
    <i name="atom">    294.29778662 </i>
    <i name="e_fr_energy">    -18.43964663 </i>
    <i name="e_wo_entrp">    -18.43964663 </i>
    <i name="e_0_energy">    -18.43964663 </i>
   </energy>
  </scstep>
  <structure>
   <crystal>
    <varray name="basis" >
     <v>       2.44936100      -0.01858100       0.00000000 </v>
     <v>      -1.24077200       2.14659000       0.00000000 </v>
     <v>       0.00000000       0.00000000      15.00000000 </v>
    </varray>
    <i name="volume">     78.52078567 </i>
    <varray name="rec_basis" >
     <v>       0.41006785       0.23702743       0.00000000 </v>
     <v>       0.00354957       0.46790687       0.00000000 </v>
     <v>       0.00000000       0.00000000       0.06666667 </v>
    </varray>
   </crystal>
   <varray name="positions" >
    <v>       0.00024941       0.00011821       0.50000000 </v>
    <v>       0.33308359       0.66654879       0.50000000 </v>
   </varray>
  </structure>
  <varray name="forces" >
   <v>       0.10925132       0.05528703       0.00000000 </v>
   <v>      -0.10925132      -0.05528703       0.00000000 </v>
  </varray>
  <varray name="stress" >
   <v>      18.48175928      14.85966062       0.00000000 </v>
   <v>      14.85966059       3.66856678       0.00000000 </v>
   <v>       0.00000000       0.00000000      -0.03762036 </v>
  </varray>
  <energy>
   <i name="e_fr_energy">    -18.43964663 </i>
   <i name="e_wo_entrp">    -18.43964663 </i>
   <i name="e_0_energy">     -0.00000000 </i>
  </energy>
  <time name="totalsc">   17.59   17.63</time>
  <eigenvalues>
   <array>
    <dimension dim="1">band</dimension>
    <dimension dim="2">kpoint</dimension>
    <dimension dim="3">spin</dimension>
    <field>eigene</field>
    <field>occ</field>
    <set>
     <set comment="spin 1">
      <set comment="kpoint 1">
       <r>  -21.8019    1.0000 </r>
       <r>   -9.8925    1.0000 </r>
       <r>   -5.2895    1.0000 </r>
       <r>   -5.1908    1.0000 </r>
       <r>    1.0156    0.0000 </r>
       <r>    1.9332    0.0000 </r>
       <r>    2.3752    0.0000 </r>
       <r>    4.3456    0.0000 </r>
       <r>    5.0872    0.0000 </r>
       <r>    5.9939    0.0000 </r>
       <r>    6.3076    0.0000 </r>
       <r>    8.2224    0.0000 </r>
      </set>
      <set comment="kpoint 2">
       <r>  -21.7599    1.0000 </r>
       <r>   -9.8422    1.0000 </r>
       <r>   -5.3850    1.0000 </r>
       <r>   -5.3548    1.0000 </r>
       <r>    1.0727    0.0000 </r>
       <r>    1.9907    0.0000 </r>
       <r>    2.4333    0.0000 </r>
       <r>    4.4029    0.0000 </r>
       <r>    5.1432    0.0000 </r>
       <r>    6.1804    0.0000 </r>
       <r>    6.3021    0.0000 </r>
       <r>    8.2779    0.0000 </r>
      </set>
      <set comment="kpoint 3">
       <r>  -21.6341    1.0000 </r>
       <r>   -9.6916    1.0000 </r>
       <r>   -5.8247    1.0000 </r>
       <r>   -5.6501    1.0000 </r>
       <r>    1.2439    0.0000 </r>
       <r>    2.1631    0.0000 </r>
       <r>    2.6076    0.0000 </r>
       <r>    4.5744    0.0000 </r>
       <r>    5.3107    0.0000 </r>
       <r>    6.2670    0.0000 </r>
       <r>    6.7223    0.0000 </r>
       <r>    8.4440    0.0000 </r>
      </set>
      <set comment="kpoint 4">
       <r>  -21.4247    1.0000 </r>
       <r>   -9.4418    1.0000 </r>
       <r>   -6.5425    1.0000 </r>
       <r>   -6.0364    1.0000 </r>
       <r>    1.5291    0.0000 </r>
       <r>    2.4502    0.0000 </r>
       <r>    2.8981    0.0000 </r>
       <r>    4.8598    0.0000 </r>
       <r>    5.5850    0.0000 </r>
       <r>    6.1880    0.0000 </r>
       <r>    7.5623    0.0000 </r>
       <r>    8.0900    0.0000 </r>
      </set>
      <set comment="kpoint 5">
       <r>  -21.1323    1.0000 </r>
       <r>   -9.0943    1.0000 </r>
       <r>   -7.4403    1.0000 </r>
       <r>   -6.4880    1.0000 </r>
       <r>    1.9283    0.0000 </r>
       <r>    2.8514    0.0000 </r>
       <r>    3.3048    0.0000 </r>
       <r>    5.2582    0.0000 </r>
       <r>    5.8882    0.0000 </r>
       <r>    6.1354    0.0000 </r>
       <r>    7.2410    0.0000 </r>
       <r>    8.6397    0.0000 </r>
      </set>
      <set comment="kpoint 6">
       <r>  -20.7578    1.0000 </r>
       <r>   -8.6520    1.0000 </r>
       <r>   -8.4558    1.0000 </r>
       <r>   -6.9576    1.0000 </r>
       <r>    2.4408    0.0000 </r>
       <r>    3.3653    0.0000 </r>
       <r>    3.8274    0.0000 </r>
       <r>    5.7591    0.0000 </r>
       <r>    5.8021    0.0000 </r>
       <r>    6.2567    0.0000 </r>
       <r>    6.5442    0.0000 </r>
       <r>    9.5957    0.0000 </r>
      </set>
      <set comment="kpoint 7">
       <r>  -20.3024    1.0000 </r>
       <r>   -9.5387    1.0000 </r>
       <r>   -8.1192    1.0000 </r>
       <r>   -7.4104    1.0000 </r>
       <r>    3.0661    0.0000 </r>
       <r>    3.9830    0.0000 </r>
       <r>    4.4650    0.0000 </r>
       <r>    5.1453    0.0000 </r>
       <r>    5.6065    0.0000 </r>
       <r>    6.4067    0.0000 </r>
       <r>    7.1594    0.0000 </r>
       <r>   10.1881    0.0000 </r>
      </set>
      <set comment="kpoint 8">
       <r>  -19.7676    1.0000 </r>
       <r>  -10.6508    1.0000 </r>
       <r>   -7.8217    1.0000 </r>
       <r>   -7.5030    1.0000 </r>
       <r>    3.8022    0.0000 </r>
       <r>    3.9370    0.0000 </r>
       <r>    4.7772    0.0000 </r>
       <r>    5.2012    0.0000 </r>
       <r>    5.4258    0.0000 </r>
       <r>    7.1391    0.0000 </r>
       <r>    7.8950    0.0000 </r>
       <r>   10.8735    0.0000 </r>
      </set>
      <set comment="kpoint 9">
       <r>  -19.1557    1.0000 </r>
       <r>  -11.7635    1.0000 </r>
       <r>   -8.1751    1.0000 </r>
       <r>   -6.8154    1.0000 </r>
       <r>    2.7828    0.0000 </r>
       <r>    4.6380    0.0000 </r>
       <r>    5.2273    0.0000 </r>
       <r>    5.6103    0.0000 </r>
       <r>    6.1012    0.0000 </r>
       <r>    7.9823    0.0000 </r>
       <r>    8.7444    0.0000 </r>
       <r>   11.6330    0.0000 </r>
      </set>
      <set comment="kpoint 10">
       <r>  -18.4704    1.0000 </r>
       <r>  -12.8547    1.0000 </r>
       <r>   -8.4592    1.0000 </r>
       <r>   -6.0789    1.0000 </r>
       <r>    1.6433    0.0000 </r>
       <r>    5.0301    0.0000 </r>
       <r>    5.6452    0.0000 </r>
       <r>    6.5697    0.0000 </r>
       <r>    7.0851    0.0000 </r>
       <r>    8.9294    0.0000 </r>
       <r>    9.7045    0.0000 </r>
       <r>   12.4014    0.0000 </r>
      </set>
      <set comment="kpoint 11">
       <r>  -17.7184    1.0000 </r>
       <r>  -13.9047    1.0000 </r>
       <r>   -8.6666    1.0000 </r>
       <r>   -5.3416    1.0000 </r>
       <r>    0.6028    0.0000 </r>
       <r>    4.9307    0.0000 </r>
       <r>    6.6987    0.0000 </r>
       <r>    7.6354    0.0000 </r>
       <r>    8.1861    0.0000 </r>
       <r>    9.9683    0.0000 </r>
       <r>   10.7714    0.0000 </r>
       <r>   11.8527    0.0000 </r>
      </set>
      <set comment="kpoint 12">
       <r>  -16.9229    1.0000 </r>
       <r>  -14.8822    1.0000 </r>
       <r>   -8.7928    1.0000 </r>
       <r>   -4.7183    1.0000 </r>
       <r>   -0.2084    0.0000 </r>
       <r>    4.8629    0.0000 </r>
       <r>    7.8669    0.0000 </r>
       <r>    8.7960    0.0000 </r>
       <r>    9.4016    0.0000 </r>
       <r>   10.4788    0.0000 </r>
       <r>   10.9891    0.0000 </r>
       <r>   11.5021    0.0000 </r>
      </set>
      <set comment="kpoint 13">
       <r>  -16.3439    1.0000 </r>
       <r>  -15.5223    1.0000 </r>
       <r>   -8.8351    1.0000 </r>
       <r>   -4.4492    1.0000 </r>
       <r>   -0.5411    0.0000 </r>
       <r>    4.8398    0.0000 </r>
       <r>    9.0708    0.0000 </r>
       <r>    9.1969    0.0000 </r>
       <r>    9.8977    0.0000 </r>
       <r>   10.1970    0.0000 </r>
       <r>   10.7215    0.0000 </r>
       <r>   10.7404    0.0000 </r>
      </set>
      <set comment="kpoint 14">
       <r>  -21.7610    1.0000 </r>
       <r>   -9.8435    1.0000 </r>
       <r>   -5.4460    1.0000 </r>
       <r>   -5.2947    1.0000 </r>
       <r>    1.0712    0.0000 </r>
       <r>    1.9893    0.0000 </r>
       <r>    2.4319    0.0000 </r>
       <r>    4.4014    0.0000 </r>
       <r>    5.1412    0.0000 </r>
       <r>    6.0643    0.0000 </r>
       <r>    6.4544    0.0000 </r>
       <r>    8.2764    0.0000 </r>
      </set>
      <set comment="kpoint 15">
       <r>  -21.6770    1.0000 </r>
       <r>   -9.7430    1.0000 </r>
       <r>   -5.7221    1.0000 </r>
       <r>   -5.5150    1.0000 </r>
       <r>    1.1855    0.0000 </r>
       <r>    2.1043    0.0000 </r>
       <r>    2.5482    0.0000 </r>
       <r>    4.5159    0.0000 </r>
       <r>    5.2535    0.0000 </r>
       <r>    6.2823    0.0000 </r>
       <r>    6.5686    0.0000 </r>
       <r>    8.3871    0.0000 </r>
      </set>
      <set comment="kpoint 16">
       <r>  -21.5093    1.0000 </r>
       <r>   -9.5427    1.0000 </r>
       <r>   -6.2708    1.0000 </r>
       <r>   -5.8849    1.0000 </r>
       <r>    1.4139    0.0000 </r>
       <r>    2.3342    0.0000 </r>
       <r>    2.7807    0.0000 </r>
       <r>    4.7445    0.0000 </r>
       <r>    5.4768    0.0000 </r>
       <r>    6.3391    0.0000 </r>
       <r>    7.1176    0.0000 </r>
       <r>    8.3447    0.0000 </r>
      </set>
      <set comment="kpoint 17">
       <r>  -21.2583    1.0000 </r>
       <r>   -9.2439    1.0000 </r>
       <r>   -7.0435    1.0000 </r>
       <r>   -6.3386    1.0000 </r>
       <r>    1.7562    0.0000 </r>
       <r>    2.6785    0.0000 </r>
       <r>    3.1295    0.0000 </r>
       <r>    5.0867    0.0000 </r>
       <r>    5.8007    0.0000 </r>
       <r>    6.2743    0.0000 </r>
       <r>    7.5965    0.0000 </r>
       <r>    7.9962    0.0000 </r>
      </set>
      <set comment="kpoint 18">
       <r>  -20.9248    1.0000 </r>
       <r>   -8.8488    1.0000 </r>
       <r>   -7.9757    1.0000 </r>
       <r>   -6.8237    1.0000 </r>
       <r>    2.2123    0.0000 </r>
       <r>    3.1364    0.0000 </r>
       <r>    3.5943    0.0000 </r>
       <r>    5.5403    0.0000 </r>
       <r>    6.0251    0.0000 </r>
       <r>    6.3533    0.0000 </r>
       <r>    6.6825    0.0000 </r>
       <r>    9.3755    0.0000 </r>
      </set>
      <set comment="kpoint 19">
       <r>  -20.5097    1.0000 </r>
       <r>   -9.0086    1.0000 </r>
       <r>   -8.3609    1.0000 </r>
       <r>   -7.3014    1.0000 </r>
       <r>    2.7816    0.0000 </r>
       <r>    3.7050    0.0000 </r>
       <r>    4.1749    0.0000 </r>
       <r>    5.6289    0.0000 </r>
       <r>    5.8772    0.0000 </r>
       <r>    6.1257    0.0000 </r>
       <r>    6.8796    0.0000 </r>
       <r>    9.9155    0.0000 </r>
      </set>
      <set comment="kpoint 20">
       <r>  -20.0146    1.0000 </r>
       <r>  -10.0957    1.0000 </r>
       <r>   -7.7857    1.0000 </r>
       <r>   -7.7443    1.0000 </r>
       <r>    3.4630    0.0000 </r>
       <r>    4.3014    0.0000 </r>
       <r>    4.6053    0.0000 </r>
       <r>    4.8695    0.0000 </r>
       <r>    5.6841    0.0000 </r>
       <r>    6.7968    0.0000 </r>
       <r>    7.5551    0.0000 </r>
       <r>   10.5517    0.0000 </r>
      </set>
      <set comment="kpoint 21">
       <r>  -19.4411    1.0000 </r>
       <r>  -11.2015    1.0000 </r>
       <r>   -8.1336    1.0000 </r>
       <r>   -7.1322    1.0000 </r>
       <r>    3.3330    0.0000 </r>
       <r>    4.2536    0.0000 </r>
       <r>    5.2114    0.0000 </r>
       <r>    5.4695    0.0000 </r>
       <r>    5.7093    0.0000 </r>
       <r>    7.5848    0.0000 </r>
       <r>    8.3476    0.0000 </r>
       <r>   11.2691    0.0000 </r>
      </set>
      <set comment="kpoint 22">
       <r>  -18.7923    1.0000 </r>
       <r>  -12.2992    1.0000 </r>
       <r>   -8.4568    1.0000 </r>
       <r>   -6.4165    1.0000 </r>
       <r>    2.1827    0.0000 </r>
       <r>    5.1065    0.0000 </r>
       <r>    5.3704    0.0000 </r>
       <r>    6.1135    0.0000 </r>
       <r>    6.6213    0.0000 </r>
       <r>    8.4785    0.0000 </r>
       <r>    9.2524    0.0000 </r>
       <r>   12.0271    0.0000 </r>
      </set>
      <set comment="kpoint 23">
       <r>  -18.0729    1.0000 </r>
       <r>  -13.3678    1.0000 </r>
       <r>   -8.7054    1.0000 </r>
       <r>   -5.6708    1.0000 </r>
       <r>    1.0883    0.0000 </r>
       <r>    5.1610    0.0000 </r>
       <r>    6.1975    0.0000 </r>
       <r>    7.1253    0.0000 </r>
       <r>    7.6641    0.0000 </r>
       <r>    9.4687    0.0000 </r>
       <r>   10.2661    0.0000 </r>
       <r>   12.5004    0.0000 </r>
      </set>
      <set comment="kpoint 24">
       <r>  -17.2944    1.0000 </r>
       <r>  -14.3846    1.0000 </r>
       <r>   -8.8740    1.0000 </r>
       <r>   -4.9684    1.0000 </r>
       <r>    0.1436    0.0000 </r>
       <r>    5.0749    0.0000 </r>
       <r>    7.3109    0.0000 </r>
       <r>    8.2361    0.0000 </r>
       <r>    8.8225    0.0000 </r>
       <r>   10.5252    0.0000 </r>
       <r>   11.1850    0.0000 </r>
       <r>   11.3909    0.0000 </r>
      </set>
      <set comment="kpoint 25">
       <r>  -16.5206    1.0000 </r>
       <r>  -15.2791    1.0000 </r>
       <r>   -8.9592    1.0000 </r>
       <r>   -4.4838    1.0000 </r>
       <r>   -0.4650    0.0000 </r>
       <r>    5.0293    0.0000 </r>
       <r>    8.5264    0.0000 </r>
       <r>    9.4204    0.0000 </r>
       <r>    9.8325    0.0000 </r>
       <r>   10.0970    0.0000 </r>
       <r>   10.6951    0.0000 </r>
       <r>   11.4756    0.0000 </r>
      </set>
      <set comment="kpoint 26">
       <r>  -16.5220    1.0000 </r>
       <r>  -15.2775    1.0000 </r>
       <r>   -8.9596    1.0000 </r>
       <r>   -4.4844    1.0000 </r>
       <r>   -0.4644    0.0000 </r>
       <r>    5.0296    0.0000 </r>
       <r>    8.5240    0.0000 </r>
       <r>    9.4182    0.0000 </r>
       <r>    9.8354    0.0000 </r>
       <r>   10.0947    0.0000 </r>
       <r>   10.6970    0.0000 </r>
       <r>   11.4782    0.0000 </r>
      </set>
      <set comment="kpoint 27">
       <r>  -17.2960    1.0000 </r>
       <r>  -14.3824    1.0000 </r>
       <r>   -8.8750    1.0000 </r>
       <r>   -4.9696    1.0000 </r>
       <r>    0.1450    0.0000 </r>
       <r>    5.0758    0.0000 </r>
       <r>    7.3088    0.0000 </r>
       <r>    8.2340    0.0000 </r>
       <r>    8.8204    0.0000 </r>
       <r>   10.5231    0.0000 </r>
       <r>   11.1886    0.0000 </r>
       <r>   11.3888    0.0000 </r>
      </set>
      <set comment="kpoint 28">
       <r>  -18.0744    1.0000 </r>
       <r>  -13.3653    1.0000 </r>
       <r>   -8.7071    1.0000 </r>
       <r>   -5.6722    1.0000 </r>
       <r>    1.0899    0.0000 </r>
       <r>    5.1623    0.0000 </r>
       <r>    6.1957    0.0000 </r>
       <r>    7.1233    0.0000 </r>
       <r>    7.6622    0.0000 </r>
       <r>    9.4667    0.0000 </r>
       <r>   10.2641    0.0000 </r>
       <r>   12.5074    0.0000 </r>
      </set>
      <set comment="kpoint 29">
       <r>  -18.7936    1.0000 </r>
       <r>  -12.2965    1.0000 </r>
       <r>   -8.4591    1.0000 </r>
       <r>   -6.4179    1.0000 </r>
       <r>    2.1842    0.0000 </r>
       <r>    5.1052    0.0000 </r>
       <r>    5.3719    0.0000 </r>
       <r>    6.1117    0.0000 </r>
       <r>    6.6196    0.0000 </r>
       <r>    8.4767    0.0000 </r>
       <r>    9.2507    0.0000 </r>
       <r>   12.0250    0.0000 </r>
      </set>
      <set comment="kpoint 30">
       <r>  -19.4423    1.0000 </r>
       <r>  -11.1985    1.0000 </r>
       <r>   -8.1365    1.0000 </r>
       <r>   -7.1335    1.0000 </r>
       <r>    3.3344    0.0000 </r>
       <r>    4.2520    0.0000 </r>
       <r>    5.2098    0.0000 </r>
       <r>    5.4713    0.0000 </r>
       <r>    5.7083    0.0000 </r>
       <r>    7.5832    0.0000 </r>
       <r>    8.3461    0.0000 </r>
       <r>   11.2673    0.0000 </r>
      </set>
      <set comment="kpoint 31">
       <r>  -20.0156    1.0000 </r>
       <r>  -10.0926    1.0000 </r>
       <r>   -7.7868    1.0000 </r>
       <r>   -7.7477    1.0000 </r>
       <r>    3.4616    0.0000 </r>
       <r>    4.3012    0.0000 </r>
       <r>    4.6052    0.0000 </r>
       <r>    4.8682    0.0000 </r>
       <r>    5.6864    0.0000 </r>
       <r>    6.7954    0.0000 </r>
       <r>    7.5539    0.0000 </r>
       <r>   10.5502    0.0000 </r>
      </set>
      <set comment="kpoint 32">
       <r>  -20.5106    1.0000 </r>
       <r>   -9.0056    1.0000 </r>
       <r>   -8.3619    1.0000 </r>
       <r>   -7.3051    1.0000 </r>
       <r>    2.7804    0.0000 </r>
       <r>    3.7039    0.0000 </r>
       <r>    4.1738    0.0000 </r>
       <r>    5.6294    0.0000 </r>
       <r>    5.8791    0.0000 </r>
       <r>    6.1245    0.0000 </r>
       <r>    6.8787    0.0000 </r>
       <r>    9.9143    0.0000 </r>
      </set>
      <set comment="kpoint 33">
       <r>  -20.9255    1.0000 </r>
       <r>   -8.8496    1.0000 </r>
       <r>   -7.9730    1.0000 </r>
       <r>   -6.8271    1.0000 </r>
       <r>    2.2114    0.0000 </r>
       <r>    3.1355    0.0000 </r>
       <r>    3.5934    0.0000 </r>
       <r>    5.5394    0.0000 </r>
       <r>    6.0252    0.0000 </r>
       <r>    6.3533    0.0000 </r>
       <r>    6.6823    0.0000 </r>
       <r>    9.3745    0.0000 </r>
      </set>
      <set comment="kpoint 34">
       <r>  -21.2588    1.0000 </r>
       <r>   -9.2445    1.0000 </r>
       <r>   -7.0422    1.0000 </r>
       <r>   -6.3405    1.0000 </r>
       <r>    1.7555    0.0000 </r>
       <r>    2.6778    0.0000 </r>
       <r>    3.1288    0.0000 </r>
       <r>    5.0859    0.0000 </r>
       <r>    5.7995    0.0000 </r>
       <r>    6.2728    0.0000 </r>
       <r>    7.5960    0.0000 </r>
       <r>    8.0176    0.0000 </r>
      </set>
      <set comment="kpoint 35">
       <r>  -21.5096    1.0000 </r>
       <r>   -9.5432    1.0000 </r>
       <r>   -6.2725    1.0000 </r>
       <r>   -5.8837    1.0000 </r>
       <r>    1.4133    0.0000 </r>
       <r>    2.3337    0.0000 </r>
       <r>    2.7802    0.0000 </r>
       <r>    4.7440    0.0000 </r>
       <r>    5.4760    0.0000 </r>
       <r>    6.3308    0.0000 </r>
       <r>    7.1401    0.0000 </r>
       <r>    8.3439    0.0000 </r>
      </set>
      <set comment="kpoint 36">
       <r>  -21.6772    1.0000 </r>
       <r>   -9.7433    1.0000 </r>
       <r>   -5.7280    1.0000 </r>
       <r>   -5.5093    1.0000 </r>
       <r>    1.1852    0.0000 </r>
       <r>    2.1040    0.0000 </r>
       <r>    2.5479    0.0000 </r>
       <r>    4.5156    0.0000 </r>
       <r>    5.2531    0.0000 </r>
       <r>    6.2636    0.0000 </r>
       <r>    6.5958    0.0000 </r>
       <r>    8.3868    0.0000 </r>
      </set>
      <set comment="kpoint 37">
       <r>  -21.7611    1.0000 </r>
       <r>   -9.8436    1.0000 </r>
       <r>   -5.4499    1.0000 </r>
       <r>   -5.2908    1.0000 </r>
       <r>    1.0711    0.0000 </r>
       <r>    1.9892    0.0000 </r>
       <r>    2.4318    0.0000 </r>
       <r>    4.4013    0.0000 </r>
       <r>    5.1410    0.0000 </r>
       <r>    6.0597    0.0000 </r>
       <r>    6.4619    0.0000 </r>
       <r>    8.2763    0.0000 </r>
      </set>
      <set comment="kpoint 38">
       <r>  -21.6382    1.0000 </r>
       <r>   -9.6969    1.0000 </r>
       <r>   -5.9269    1.0000 </r>
       <r>   -5.5494    1.0000 </r>
       <r>    1.2380    0.0000 </r>
       <r>    2.1575    0.0000 </r>
       <r>    2.6019    0.0000 </r>
       <r>    4.5687    0.0000 </r>
       <r>    5.3033    0.0000 </r>
       <r>    6.1868    0.0000 </r>
       <r>    6.9314    0.0000 </r>
       <r>    8.4372    0.0000 </r>
      </set>
      <set comment="kpoint 39">
       <r>  -21.5124    1.0000 </r>
       <r>   -9.5466    1.0000 </r>
       <r>   -6.3429    1.0000 </r>
       <r>   -5.8116    1.0000 </r>
       <r>    1.4095    0.0000 </r>
       <r>    2.3300    0.0000 </r>
       <r>    2.7765    0.0000 </r>
       <r>    4.7402    0.0000 </r>
       <r>    5.4720    0.0000 </r>
       <r>    6.3681    0.0000 </r>
       <r>    7.1630    0.0000 </r>
       <r>    8.3326    0.0000 </r>
      </set>
      <set comment="kpoint 40">
       <r>  -21.3031    1.0000 </r>
       <r>   -9.2974    1.0000 </r>
       <r>   -6.9360    1.0000 </r>
       <r>   -6.2582    1.0000 </r>
       <r>    1.6951    0.0000 </r>
       <r>    2.6170    0.0000 </r>
       <r>    3.0673    0.0000 </r>
       <r>    5.0255    0.0000 </r>
       <r>    5.7520    0.0000 </r>
       <r>    6.5571    0.0000 </r>
       <r>    7.5809    0.0000 </r>
       <r>    7.7103    0.0000 </r>
      </set>
      <set comment="kpoint 41">
       <r>  -21.0110    1.0000 </r>
       <r>   -8.9509    1.0000 </r>
       <r>   -7.6879    1.0000 </r>
       <r>   -6.8004    1.0000 </r>
       <r>    2.0946    0.0000 </r>
       <r>    3.0182    0.0000 </r>
       <r>    3.4743    0.0000 </r>
       <r>    5.4239    0.0000 </r>
       <r>    6.1316    0.0000 </r>
       <r>    6.6073    0.0000 </r>
       <r>    6.9049    0.0000 </r>
       <r>    8.2910    0.0000 </r>
      </set>
      <set comment="kpoint 42">
       <r>  -20.6369    1.0000 </r>
       <r>   -8.5841    1.0000 </r>
       <r>   -8.5099    1.0000 </r>
       <r>   -7.3475    1.0000 </r>
       <r>    2.6077    0.0000 </r>
       <r>    3.5322    0.0000 </r>
       <r>    3.9974    0.0000 </r>
       <r>    5.9091    0.0000 </r>
       <r>    5.9871    0.0000 </r>
       <r>    6.3993    0.0000 </r>
       <r>    6.7496    0.0000 </r>
       <r>    9.2466    0.0000 </r>
      </set>
      <set comment="kpoint 43">
       <r>  -20.1822    1.0000 </r>
       <r>   -9.5850    1.0000 </r>
       <r>   -7.9787    1.0000 </r>
       <r>   -7.8520    1.0000 </r>
       <r>    3.2336    0.0000 </r>
       <r>    4.1510    0.0000 </r>
       <r>    4.6362    0.0000 </r>
       <r>    4.9236    0.0000 </r>
       <r>    6.2771    0.0000 </r>
       <r>    6.5597    0.0000 </r>
       <r>    7.3308    0.0000 </r>
       <r>   10.3238    0.0000 </r>
      </set>
      <set comment="kpoint 44">
       <r>  -19.6483    1.0000 </r>
       <r>  -10.6435    1.0000 </r>
       <r>   -8.2952    1.0000 </r>
       <r>   -7.3643    1.0000 </r>
       <r>    3.7920    0.0000 </r>
       <r>    3.9711    0.0000 </r>
       <r>    4.9161    0.0000 </r>
       <r>    5.3885    0.0000 </r>
       <r>    6.1019    0.0000 </r>
       <r>    7.2907    0.0000 </r>
       <r>    8.0621    0.0000 </r>
       <r>   10.9831    0.0000 </r>
      </set>
      <set comment="kpoint 45">
       <r>  -19.0379    1.0000 </r>
       <r>  -11.7211    1.0000 </r>
       <r>   -8.6678    1.0000 </r>
       <r>   -6.6782    1.0000 </r>
       <r>    2.6682    0.0000 </r>
       <r>    4.8166    0.0000 </r>
       <r>    5.7597    0.0000 </r>
       <r>    5.9134    0.0000 </r>
       <r>    6.2774    0.0000 </r>
       <r>    8.1264    0.0000 </r>
       <r>    8.9097    0.0000 </r>
       <r>   11.6816    0.0000 </r>
      </set>
      <set comment="kpoint 46">
       <r>  -18.3544    1.0000 </r>
       <r>  -12.7889    1.0000 </r>
       <r>   -8.9635    1.0000 </r>
       <r>   -5.9423    1.0000 </r>
       <r>    1.5622    0.0000 </r>
       <r>    5.6671    0.0000 </r>
       <r>    5.8811    0.0000 </r>
       <r>    6.7138    0.0000 </r>
       <r>    7.2553    0.0000 </r>
       <r>    9.0575    0.0000 </r>
       <r>    9.8680    0.0000 </r>
       <r>   12.2822    0.0000 </r>
      </set>
      <set comment="kpoint 47">
       <r>  -17.6051    1.0000 </r>
       <r>  -13.8230    1.0000 </r>
       <r>   -9.1777    1.0000 </r>
       <r>   -5.2034    1.0000 </r>
       <r>    0.5441    0.0000 </r>
       <r>    5.6390    0.0000 </r>
       <r>    6.8628    0.0000 </r>
       <r>    7.7659    0.0000 </r>
       <r>    8.3556    0.0000 </r>
       <r>   10.0582    0.0000 </r>
       <r>   10.9312    0.0000 </r>
       <r>   11.8990    0.0000 </r>
      </set>
      <set comment="kpoint 48">
       <r>  -16.8134    1.0000 </r>
       <r>  -14.7893    1.0000 </r>
       <r>   -9.3077    1.0000 </r>
       <r>   -4.5744    1.0000 </r>
       <r>   -0.2582    0.0000 </r>
       <r>    5.5731    0.0000 </r>
       <r>    8.0255    0.0000 </r>
       <r>    8.8938    0.0000 </r>
       <r>    9.5701    0.0000 </r>
       <r>   10.6010    0.0000 </r>
       <r>   10.9158    0.0000 </r>
       <r>   11.6415    0.0000 </r>
      </set>
      <set comment="kpoint 49">
       <r>  -16.2399    1.0000 </r>
       <r>  -15.4214    1.0000 </r>
       <r>   -9.3516    1.0000 </r>
       <r>   -4.3009    1.0000 </r>
       <r>   -0.5904    0.0000 </r>
       <r>    5.5505    0.0000 </r>
       <r>    9.2141    0.0000 </r>
       <r>    9.3487    0.0000 </r>
       <r>    9.8430    0.0000 </r>
       <r>   10.3643    0.0000 </r>
       <r>   10.8845    0.0000 </r>
       <r>   10.9060    0.0000 </r>
      </set>
      <set comment="kpoint 50">
       <r>  -16.8166    1.0000 </r>
       <r>  -14.7853    1.0000 </r>
       <r>   -9.3090    1.0000 </r>
       <r>   -4.5763    1.0000 </r>
       <r>   -0.2561    0.0000 </r>
       <r>    5.5741    0.0000 </r>
       <r>    8.0210    0.0000 </r>
       <r>    8.8895    0.0000 </r>
       <r>    9.5656    0.0000 </r>
       <r>   10.6075    0.0000 </r>
       <r>   10.9141    0.0000 </r>
       <r>   11.6428    0.0000 </r>
      </set>
      <set comment="kpoint 51">
       <r>  -17.6082    1.0000 </r>
       <r>  -13.8182    1.0000 </r>
       <r>   -9.1803    1.0000 </r>
       <r>   -5.2061    1.0000 </r>
       <r>    0.5471    0.0000 </r>
       <r>    5.6409    0.0000 </r>
       <r>    6.8589    0.0000 </r>
       <r>    7.7618    0.0000 </r>
       <r>    8.3516    0.0000 </r>
       <r>   10.0541    0.0000 </r>
       <r>   10.9270    0.0000 </r>
       <r>   11.9091    0.0000 </r>
      </set>
      <set comment="kpoint 52">
       <r>  -18.3572    1.0000 </r>
       <r>  -12.7837    1.0000 </r>
       <r>   -8.9673    1.0000 </r>
       <r>   -5.9452    1.0000 </r>
       <r>    1.5653    0.0000 </r>
       <r>    5.6661    0.0000 </r>
       <r>    5.8814    0.0000 </r>
       <r>    6.7100    0.0000 </r>
       <r>    7.2517    0.0000 </r>
       <r>    9.0537    0.0000 </r>
       <r>    9.8643    0.0000 </r>
       <r>   12.2782    0.0000 </r>
      </set>
      <set comment="kpoint 53">
       <r>  -19.0403    1.0000 </r>
       <r>  -11.7154    1.0000 </r>
       <r>   -8.6728    1.0000 </r>
       <r>   -6.6809    1.0000 </r>
       <r>    2.6711    0.0000 </r>
       <r>    4.8132    0.0000 </r>
       <r>    5.7564    0.0000 </r>
       <r>    5.9169    0.0000 </r>
       <r>    6.2746    0.0000 </r>
       <r>    8.1230    0.0000 </r>
       <r>    8.9065    0.0000 </r>
       <r>   11.6777    0.0000 </r>
      </set>
      <set comment="kpoint 54">
       <r>  -19.6505    1.0000 </r>
       <r>  -10.6376    1.0000 </r>
       <r>   -8.3012    1.0000 </r>
       <r>   -7.3668    1.0000 </r>
       <r>    3.7943    0.0000 </r>
       <r>    3.9681    0.0000 </r>
       <r>    4.9131    0.0000 </r>
       <r>    5.3856    0.0000 </r>
       <r>    6.1061    0.0000 </r>
       <r>    7.2877    0.0000 </r>
       <r>    8.0594    0.0000 </r>
       <r>   10.9798    0.0000 </r>
      </set>
      <set comment="kpoint 55">
       <r>  -20.1840    1.0000 </r>
       <r>   -9.5791    1.0000 </r>
       <r>   -7.9809    1.0000 </r>
       <r>   -7.8583    1.0000 </r>
       <r>    3.2311    0.0000 </r>
       <r>    4.1488    0.0000 </r>
       <r>    4.6337    0.0000 </r>
       <r>    4.9246    0.0000 </r>
       <r>    6.2807    0.0000 </r>
       <r>    6.5571    0.0000 </r>
       <r>    7.3288    0.0000 </r>
       <r>   10.3211    0.0000 </r>
      </set>
      <set comment="kpoint 56">
       <r>  -20.6385    1.0000 </r>
       <r>   -8.5792    1.0000 </r>
       <r>   -8.5117    1.0000 </r>
       <r>   -7.3531    1.0000 </r>
       <r>    2.6056    0.0000 </r>
       <r>    3.5302    0.0000 </r>
       <r>    3.9954    0.0000 </r>
       <r>    5.9088    0.0000 </r>
       <r>    5.9855    0.0000 </r>
       <r>    6.3998    0.0000 </r>
       <r>    6.7493    0.0000 </r>
       <r>    9.2879    0.0000 </r>
      </set>
      <set comment="kpoint 57">
       <r>  -21.0122    1.0000 </r>
       <r>   -8.9524    1.0000 </r>
       <r>   -7.6859    1.0000 </r>
       <r>   -6.8032    1.0000 </r>
       <r>    2.0930    0.0000 </r>
       <r>    3.0166    0.0000 </r>
       <r>    3.4727    0.0000 </r>
       <r>    5.4223    0.0000 </r>
       <r>    6.1294    0.0000 </r>
       <r>    6.6065    0.0000 </r>
       <r>    6.9041    0.0000 </r>
       <r>    8.3297    0.0000 </r>
      </set>
      <set comment="kpoint 58">
       <r>  -21.3040    1.0000 </r>
       <r>   -9.2985    1.0000 </r>
       <r>   -6.9387    1.0000 </r>
       <r>   -6.2561    1.0000 </r>
       <r>    1.6938    0.0000 </r>
       <r>    2.6158    0.0000 </r>
       <r>    3.0661    0.0000 </r>
       <r>    5.0243    0.0000 </r>
       <r>    5.7504    0.0000 </r>
       <r>    6.5508    0.0000 </r>
       <r>    7.6171    0.0000 </r>
       <r>    7.7088    0.0000 </r>
      </set>
      <set comment="kpoint 59">
       <r>  -21.5130    1.0000 </r>
       <r>   -9.5474    1.0000 </r>
       <r>   -6.3497    1.0000 </r>
       <r>   -5.8052    1.0000 </r>
       <r>    1.4086    0.0000 </r>
       <r>    2.3292    0.0000 </r>
       <r>    2.7756    0.0000 </r>
       <r>    4.7394    0.0000 </r>
       <r>    5.4709    0.0000 </r>
       <r>    6.3611    0.0000 </r>
       <r>    7.1906    0.0000 </r>
       <r>    8.3306    0.0000 </r>
      </set>
      <set comment="kpoint 60">
       <r>  -21.6385    1.0000 </r>
       <r>   -9.6973    1.0000 </r>
       <r>   -5.9343    1.0000 </r>
       <r>   -5.5422    1.0000 </r>
       <r>    1.2376    0.0000 </r>
       <r>    2.1571    0.0000 </r>
       <r>    2.6015    0.0000 </r>
       <r>    4.5683    0.0000 </r>
       <r>    5.3027    0.0000 </r>
       <r>    6.1827    0.0000 </r>
       <r>    6.9458    0.0000 </r>
       <r>    8.4366    0.0000 </r>
      </set>
      <set comment="kpoint 61">
       <r>  -21.6803    1.0000 </r>
       <r>   -9.7472    1.0000 </r>
       <r>   -5.7646    1.0000 </r>
       <r>   -5.4757    1.0000 </r>
       <r>    1.1807    0.0000 </r>
       <r>    2.0998    0.0000 </r>
       <r>    2.5436    0.0000 </r>
       <r>    4.5114    0.0000 </r>
       <r>    5.2470    0.0000 </r>
       <r>    6.1243    0.0000 </r>
       <r>    6.8476    0.0000 </r>
       <r>    8.3830    0.0000 </r>
      </set>
      <set comment="kpoint 62">
       <r>  -21.4340    1.0000 </r>
       <r>   -9.4536    1.0000 </r>
       <r>   -6.6666    1.0000 </r>
       <r>   -5.9105    1.0000 </r>
       <r>    1.5160    0.0000 </r>
       <r>    2.4375    0.0000 </r>
       <r>    2.8853    0.0000 </r>
       <r>    4.8469    0.0000 </r>
       <r>    5.5714    0.0000 </r>
       <r>    6.2727    0.0000 </r>
       <r>    7.7140    0.0000 </r>
       <r>    8.0640    0.0000 </r>
      </set>
      <set comment="kpoint 63">
       <r>  -21.2666    1.0000 </r>
       <r>   -9.2545    1.0000 </r>
       <r>   -7.1668    1.0000 </r>
       <r>   -6.2078    1.0000 </r>
       <r>    1.7447    0.0000 </r>
       <r>    2.6671    0.0000 </r>
       <r>    3.1181    0.0000 </r>
       <r>    5.0748    0.0000 </r>
       <r>    5.7943    0.0000 </r>
       <r>    6.4287    0.0000 </r>
       <r>    7.5709    0.0000 </r>
       <r>    7.9787    0.0000 </r>
      </set>
      <set comment="kpoint 64">
       <r>  -21.0162    1.0000 </r>
       <r>   -8.9576    1.0000 </r>
       <r>   -7.7680    1.0000 </r>
       <r>   -6.7128    1.0000 </r>
       <r>    2.0875    0.0000 </r>
       <r>    3.0109    0.0000 </r>
       <r>    3.4673    0.0000 </r>
       <r>    5.4158    0.0000 </r>
       <r>    6.1320    0.0000 </r>
       <r>    6.7552    0.0000 </r>
       <r>    6.8896    0.0000 </r>
       <r>    8.1862    0.0000 </r>
      </set>
      <set comment="kpoint 65">
       <r>  -20.6835    1.0000 </r>
       <r>   -8.5651    1.0000 </r>
       <r>   -8.4581    1.0000 </r>
       <r>   -7.3425    1.0000 </r>
       <r>    2.5441    0.0000 </r>
       <r>    3.4684    0.0000 </r>
       <r>    3.9326    0.0000 </r>
       <r>    5.8673    0.0000 </r>
       <r>    6.0635    0.0000 </r>
       <r>    6.5738    0.0000 </r>
       <r>    7.0655    0.0000 </r>
[...]
       <r>   10.0612    0.0000 </r>
       <r>   11.2008    0.0000 </r>
       <r>   11.7393    0.0000 </r>
      </set>
      <set comment="kpoint 283">
       <r>  -17.5348    1.0000 </r>
       <r>  -12.9827    1.0000 </r>
       <r>  -10.8921    1.0000 </r>
       <r>   -5.0365    1.0000 </r>
       <r>    0.5934    0.0000 </r>
       <r>    6.9686    0.0000 </r>
       <r>    7.7329    0.0000 </r>
       <r>    8.4872    0.0000 </r>
       <r>    9.3040    0.0000 </r>
       <r>    9.8002    0.0000 </r>
       <r>   11.0305    0.0000 </r>
       <r>   11.5422    0.0000 </r>
      </set>
      <set comment="kpoint 284">
       <r>  -17.5739    1.0000 </r>
       <r>  -12.6524    1.0000 </r>
       <r>  -11.2316    1.0000 </r>
       <r>   -5.0611    1.0000 </r>
       <r>    0.6795    0.0000 </r>
       <r>    6.9122    0.0000 </r>
       <r>    7.6541    0.0000 </r>
       <r>    8.4308    0.0000 </r>
       <r>    9.7066    0.0000 </r>
       <r>   10.2114    0.0000 </r>
       <r>   10.8724    0.0000 </r>
       <r>   11.0565    0.0000 </r>
      </set>
      <set comment="kpoint 285">
       <r>  -17.5370    1.0000 </r>
       <r>  -12.9917    1.0000 </r>
       <r>  -10.8798    1.0000 </r>
       <r>   -5.0398    1.0000 </r>
       <r>    0.5920    0.0000 </r>
       <r>    6.9663    0.0000 </r>
       <r>    7.7319    0.0000 </r>
       <r>    8.4852    0.0000 </r>
       <r>    9.3462    0.0000 </r>
       <r>    9.8004    0.0000 </r>
       <r>   11.0264    0.0000 </r>
       <r>   11.5422    0.0000 </r>
      </set>
      <set comment="kpoint 286">
       <r>  -17.4254    1.0000 </r>
       <r>  -13.6070    1.0000 </r>
       <r>  -10.2384    1.0000 </r>
       <r>   -4.9765    1.0000 </r>
       <r>    0.3607    0.0000 </r>
       <r>    7.1273    0.0000 </r>
       <r>    7.9524    0.0000 </r>
       <r>    8.1689    0.0000 </r>
       <r>    8.6737    0.0000 </r>
       <r>   10.0608    0.0000 </r>
       <r>   11.1949    0.0000 </r>
       <r>   11.7380    0.0000 </r>
      </set>
      <set comment="kpoint 287">
       <r>  -17.2439    1.0000 </r>
       <r>  -14.2391    1.0000 </r>
       <r>   -9.5905    1.0000 </r>
       <r>   -4.8838    1.0000 </r>
       <r>    0.0566    0.0000 </r>
       <r>    7.0582    0.0000 </r>
       <r>    7.4576    0.0000 </r>
       <r>    8.2901    0.0000 </r>
       <r>    8.9557    0.0000 </r>
       <r>   10.4379    0.0000 </r>
       <r>   11.1886    0.0000 </r>
       <r>   11.5091    0.0000 </r>
      </set>
      <set comment="kpoint 288">
       <r>  -17.0053    1.0000 </r>
       <r>  -14.8167    1.0000 </r>
       <r>   -9.0415    1.0000 </r>
       <r>   -4.7829    1.0000 </r>
       <r>   -0.2387    0.0000 </r>
       <r>    6.2298    0.0000 </r>
       <r>    7.8196    0.0000 </r>
       <r>    8.7276    0.0000 </r>
       <r>    9.3592    0.0000 </r>
       <r>   10.4095    0.0000 </r>
       <r>   10.8304    0.0000 </r>
       <r>   11.4412    0.0000 </r>
      </set>
      <set comment="kpoint 289">
       <r>  -16.7498    1.0000 </r>
       <r>  -15.2806    1.0000 </r>
       <r>   -8.6702    1.0000 </r>
       <r>   -4.7029    1.0000 </r>
       <r>   -0.4522    0.0000 </r>
       <r>    5.6726    0.0000 </r>
       <r>    8.3142    0.0000 </r>
       <r>    9.2551    0.0000 </r>
       <r>    9.6277    0.0000 </r>
       <r>    9.8841    0.0000 </r>
       <r>   10.5448    0.0000 </r>
       <r>   11.2621    0.0000 </r>
      </set>
      <set comment="kpoint 290">
       <r>  -16.6134    1.0000 </r>
       <r>  -15.4872    1.0000 </r>
       <r>   -8.5382    1.0000 </r>
       <r>   -4.6722    1.0000 </r>
       <r>   -0.5301    0.0000 </r>
       <r>    5.4775    0.0000 </r>
       <r>    8.8415    0.0000 </r>
       <r>    9.0059    0.0000 </r>
       <r>    9.7762    0.0000 </r>
       <r>    9.9790    0.0000 </r>
       <r>   10.5019    0.0000 </r>
       <r>   10.5286    0.0000 </r>
      </set>
     </set>
    </set>
   </array>
  </eigenvalues>
  <separator name="orbital magnetization" >
   <v name="MAGDIPOLOUT">      0.00000000      0.00000000      0.00000000</v>
  </separator>
  <dos>
   <i name="efermi">     -2.19465788 </i>
   <total>
    <array>
     <dimension dim="1">gridpoints</dimension>
     <dimension dim="2">spin</dimension>
     <field>energy</field>
     <field>total</field>
     <field>integrated</field>
     <set>
      <set comment="spin 1">
       <r>   -23.5566     0.0000     0.0000 </r>
       <r>   -23.4279     0.0000     0.0000 </r>
       <r>   -23.2992     0.0000     0.0000 </r>
       <r>   -23.1705     0.0000     0.0000 </r>
       <r>   -23.0419     0.0000     0.0000 </r>
       <r>   -22.9132     0.0000     0.0000 </r>
       <r>   -22.7845     0.0000     0.0000 </r>
       <r>   -22.6558     0.0000     0.0000 </r>
       <r>   -22.5272     0.0000     0.0000 </r>
       <r>   -22.3985     0.0000     0.0000 </r>
       <r>   -22.2698     0.0000     0.0000 </r>
       <r>   -22.1411     0.0000     0.0000 </r>
       <r>   -22.0125     0.0000     0.0000 </r>
       <r>   -21.8838     0.0000     0.0000 </r>
       <r>   -21.7551     0.1325     0.0170 </r>
       <r>   -21.6265     0.3427     0.0611 </r>
       <r>   -21.4978     0.3152     0.1017 </r>
       <r>   -21.3691     0.2079     0.1285 </r>
       <r>   -21.2404     0.4710     0.1891 </r>
       <r>   -21.1118     0.1715     0.2112 </r>
       <r>   -20.9831     0.3259     0.2532 </r>
       <r>   -20.8544     0.3248     0.2951 </r>
       <r>   -20.7257     0.1722     0.3173 </r>
       <r>   -20.5971     0.4746     0.3784 </r>
       <r>   -20.4684     0.3236     0.4201 </r>
       <r>   -20.3397     0.0627     0.4282 </r>
       <r>   -20.2110     0.5642     0.5008 </r>
       <r>   -20.0824     0.1999     0.5265 </r>
       <r>   -19.9537     0.3066     0.5660 </r>
       <r>   -19.8250     0.2436     0.5973 </r>
       <r>   -19.6963     0.5228     0.6646 </r>
       <r>   -19.5677     0.2051     0.6910 </r>
       <r>   -19.4390     0.2781     0.7268 </r>
       <r>   -19.3103     0.2178     0.7548 </r>
       <r>   -19.1816     0.5812     0.8296 </r>
       <r>   -19.0530     0.2890     0.8668 </r>
       <r>   -18.9243     0.0904     0.8785 </r>
       <r>   -18.7956     0.3356     0.9217 </r>
       <r>   -18.6669     0.5108     0.9874 </r>
       <r>   -18.5383     0.3835     1.0368 </r>
       <r>   -18.4096     0.2635     1.0707 </r>
       <r>   -18.2809     0.1254     1.0868 </r>
       <r>   -18.1523     0.3137     1.1272 </r>
       <r>   -18.0236     0.5739     1.2011 </r>
       <r>   -17.8949     0.2866     1.2381 </r>
       <r>   -17.7662     0.2345     1.2682 </r>
       <r>   -17.6376     0.2646     1.3023 </r>
       <r>   -17.5089     0.2652     1.3364 </r>
       <r>   -17.3802     0.6415     1.4190 </r>
       <r>   -17.2515     0.3498     1.4640 </r>
       <r>   -17.1229     0.2002     1.4898 </r>
       <r>   -16.9942     0.2858     1.5266 </r>
       <r>   -16.8655     0.2959     1.5646 </r>
       <r>   -16.7368     0.4508     1.6227 </r>
       <r>   -16.6082     0.5997     1.6998 </r>
       <r>   -16.4795     0.5800     1.7745 </r>
       <r>   -16.3508     0.0611     1.7824 </r>
       <r>   -16.2221     0.1766     1.8051 </r>
       <r>   -16.0935     0.3811     1.8541 </r>
       <r>   -15.9648     0.4021     1.9059 </r>
       <r>   -15.8361     0.1913     1.9306 </r>
       <r>   -15.7074     0.0000     1.9306 </r>
       <r>   -15.5788     0.1079     1.9444 </r>
       <r>   -15.4501     0.1900     1.9689 </r>
       <r>   -15.3214     0.3457     2.0134 </r>
       <r>   -15.1927     0.4086     2.0660 </r>
       <r>   -15.0641     0.3651     2.1130 </r>
       <r>   -14.9354     0.2473     2.1448 </r>
       <r>   -14.8067     0.2827     2.1812 </r>
       <r>   -14.6781     0.4500     2.2391 </r>
       <r>   -14.5494     0.3315     2.2817 </r>
       <r>   -14.4207     0.6434     2.3645 </r>
       <r>   -14.2920     0.3247     2.4063 </r>
       <r>   -14.1634     0.4288     2.4618 </r>
       <r>   -14.0347     0.1474     2.4808 </r>
       <r>   -13.9060     0.5152     2.5471 </r>
       <r>   -13.7773     0.3735     2.5951 </r>
       <r>   -13.6487     0.1510     2.6146 </r>
       <r>   -13.5200     0.2936     2.6524 </r>
       <r>   -13.3913     0.3697     2.6999 </r>
       <r>   -13.2626     0.3824     2.7491 </r>
       <r>   -13.1340     0.2461     2.7808 </r>
       <r>   -13.0053     0.1340     2.7981 </r>
       <r>   -12.8766     0.3513     2.8433 </r>
       <r>   -12.7479     0.4884     2.9061 </r>
       <r>   -12.6193     0.2367     2.9367 </r>
       <r>   -12.4906     0.3574     2.9828 </r>
       <r>   -12.3619     0.2807     3.0189 </r>
       <r>   -12.2332     0.5128     3.0849 </r>
       <r>   -12.1046     0.3274     3.1270 </r>
       <r>   -11.9759     0.1558     3.1471 </r>
       <r>   -11.8472     0.5327     3.2156 </r>
       <r>   -11.7185     0.3713     3.2634 </r>
       <r>   -11.5899     0.5652     3.3362 </r>
       <r>   -11.4612     0.1108     3.3504 </r>
       <r>   -11.3325     0.3720     3.3983 </r>
       <r>   -11.2039     0.4126     3.4516 </r>
       <r>   -11.0752     0.5960     3.5283 </r>
       <r>   -10.9465     0.2357     3.5586 </r>
       <r>   -10.8178     0.3467     3.6032 </r>
       <r>   -10.6892     0.5205     3.6702 </r>
       <r>   -10.5605     0.3266     3.7122 </r>
       <r>   -10.4318     0.3210     3.7535 </r>
       <r>   -10.3031     0.5255     3.8211 </r>
       <r>   -10.1745     0.5936     3.8975 </r>
       <r>   -10.0458     0.3078     3.9372 </r>
       <r>    -9.9171     0.5300     4.0054 </r>
       <r>    -9.7884     0.4509     4.0635 </r>
       <r>    -9.6598     0.9220     4.1823 </r>
       <r>    -9.5311     0.9506     4.3048 </r>
       <r>    -9.4024     0.3422     4.3488 </r>
       <r>    -9.2737     0.7981     4.4516 </r>
       <r>    -9.1451     1.0661     4.5889 </r>
       <r>    -9.0164     0.6943     4.6784 </r>
       <r>    -8.8877     1.0190     4.8095 </r>
       <r>    -8.7590     0.6577     4.8942 </r>
       <r>    -8.6304     1.1505     5.0423 </r>
       <r>    -8.5017     1.2008     5.1969 </r>
       <r>    -8.3730     1.3236     5.3673 </r>
       <r>    -8.2443     0.3079     5.4070 </r>
       <r>    -8.1157     0.9173     5.5250 </r>
       <r>    -7.9870     0.8098     5.6292 </r>
       <r>    -7.8583     0.8140     5.7340 </r>
       <r>    -7.7297     0.7069     5.8249 </r>
       <r>    -7.6010     0.4707     5.8855 </r>
       <r>    -7.4723     0.9718     6.0106 </r>
       <r>    -7.3436     0.6024     6.0882 </r>
       <r>    -7.2150     0.4178     6.1420 </r>
       <r>    -7.0863     0.8176     6.2472 </r>
       <r>    -6.9576     0.5139     6.3133 </r>
       <r>    -6.8289     0.6686     6.3994 </r>
       <r>    -6.7003     0.7728     6.4989 </r>
       <r>    -6.5716     0.4149     6.5523 </r>
       <r>    -6.4429     0.3355     6.5954 </r>
       <r>    -6.3142     0.8084     6.6995 </r>
       <r>    -6.1856     0.9769     6.8253 </r>
       <r>    -6.0569     0.3093     6.8651 </r>
       <r>    -5.9282     0.3193     6.9062 </r>
       <r>    -5.7995     0.6367     6.9881 </r>
       <r>    -5.6709     0.5508     7.0590 </r>
       <r>    -5.5422     0.6590     7.1438 </r>
       <r>    -5.4135     0.6077     7.2220 </r>
       <r>    -5.2848     0.5535     7.2933 </r>
       <r>    -5.1562     0.2195     7.3216 </r>
       <r>    -5.0275     0.3092     7.3614 </r>
       <r>    -4.8988     0.6247     7.4418 </r>
       <r>    -4.7701     0.5624     7.5142 </r>
       <r>    -4.6415     0.5598     7.5863 </r>
       <r>    -4.5128     0.1680     7.6079 </r>
       <r>    -4.3841     0.3300     7.6504 </r>
       <r>    -4.2555     0.6040     7.7281 </r>
       <r>    -4.1268     0.5973     7.8050 </r>
       <r>    -3.9981     0.1122     7.8194 </r>
       <r>    -3.8694     0.0110     7.8209 </r>
       <r>    -3.7408     0.2576     7.8540 </r>
       <r>    -3.6121     0.2231     7.8827 </r>
       <r>    -3.4834     0.2729     7.9178 </r>
       <r>    -3.3547     0.0990     7.9306 </r>
       <r>    -3.2261     0.1078     7.9444 </r>
       <r>    -3.0974     0.0526     7.9512 </r>
       <r>    -2.9687     0.1052     7.9647 </r>
       <r>    -2.8400     0.1133     7.9793 </r>
       <r>    -2.7114     0.1067     7.9931 </r>
       <r>    -2.5827     0.0000     7.9931 </r>
       <r>    -2.4540     0.0000     7.9931 </r>
       <r>    -2.3253     0.0189     7.9955 </r>
       <r>    -2.1967     0.0351     8.0000 </r>
       <r>    -2.0680     0.0539     8.0069 </r>
       <r>    -1.9393     0.0000     8.0069 </r>
       <r>    -1.8106     0.0000     8.0069 </r>
       <r>    -1.6820     0.0000     8.0069 </r>
       <r>    -1.5533     0.1570     8.0272 </r>
       <r>    -1.4246     0.1666     8.0486 </r>
       <r>    -1.2959     0.0539     8.0556 </r>
       <r>    -1.1673     0.1079     8.0694 </r>
       <r>    -1.0386     0.0000     8.0694 </r>
       <r>    -0.9099     0.4009     8.1210 </r>
       <r>    -0.7813     0.4590     8.1801 </r>
       <r>    -0.6526     0.1109     8.1944 </r>
       <r>    -0.5239     0.5062     8.2596 </r>
       <r>    -0.3952     0.6477     8.3429 </r>
       <r>    -0.2666     0.3616     8.3895 </r>
       <r>    -0.1379     0.7355     8.4841 </r>
       <r>    -0.0092     0.1183     8.4993 </r>
       <r>     0.1195     0.4096     8.5520 </r>
       <r>     0.2481     0.2168     8.5799 </r>
       <r>     0.3768     0.3077     8.6195 </r>
       <r>     0.5055     0.1813     8.6429 </r>
       <r>     0.6342     0.7507     8.7395 </r>
       <r>     0.7628     0.0539     8.7465 </r>
       <r>     0.8915     0.0785     8.7566 </r>
       <r>     1.0202     0.3118     8.7967 </r>
       <r>     1.1489     0.4474     8.8543 </r>
       <r>     1.2775     0.5542     8.9256 </r>
       <r>     1.4062     0.2889     8.9629 </r>
       <r>     1.5349     0.7517     9.0596 </r>
       <r>     1.6636     0.3535     9.1051 </r>
       <r>     1.7922     0.4777     9.1666 </r>
       <r>     1.9209     0.2106     9.1938 </r>
       <r>     2.0496     0.4848     9.2561 </r>
       <r>     2.1782     0.9520     9.3786 </r>
       <r>     2.3069     0.6710     9.4650 </r>
       <r>     2.4356     0.7668     9.5637 </r>
       <r>     2.5643     0.5910     9.6398 </r>
       <r>     2.6929     1.2548     9.8013 </r>
       <r>     2.8216     0.8243     9.9074 </r>
       <r>     2.9503     0.2901     9.9448 </r>
       <r>     3.0790     1.0580    10.0810 </r>
       <r>     3.2076     1.0916    10.2216 </r>
       <r>     3.3363     0.9561    10.3446 </r>
       <r>     3.4650     0.6986    10.4346 </r>
       <r>     3.5937     0.8238    10.5406 </r>
       <r>     3.7223     0.6870    10.6291 </r>
       <r>     3.8510     0.9244    10.7481 </r>
       <r>     3.9797     0.8955    10.8633 </r>
       <r>     4.1084     0.9284    10.9828 </r>
       <r>     4.2370     1.1121    11.1259 </r>
       <r>     4.3657     0.2781    11.1619 </r>
       <r>     4.4944     0.8535    11.2717 </r>
       <r>     4.6231     1.4338    11.4563 </r>
       <r>     4.7517     1.1019    11.5982 </r>
       <r>     4.8804     1.0687    11.7359 </r>
       <r>     5.0091     0.5462    11.8063 </r>
       <r>     5.1378     1.8575    12.0453 </r>
       <r>     5.2664     1.5386    12.2435 </r>
       <r>     5.3951     1.2988    12.4108 </r>
       <r>     5.5238     1.8511    12.6490 </r>
       <r>     5.6524     1.6655    12.8634 </r>
       <r>     5.7811     1.8736    13.1045 </r>
       <r>     5.9098     1.5851    13.3085 </r>
       <r>     6.0385     1.6652    13.5229 </r>
       <r>     6.1671     2.8809    13.8938 </r>
       <r>     6.2958     2.6034    14.2293 </r>
       <r>     6.4245     2.0352    14.4915 </r>
       <r>     6.5532     1.8354    14.7276 </r>
       <r>     6.6818     2.0197    14.9876 </r>
       <r>     6.8105     1.6864    15.2048 </r>
       <r>     6.9392     1.4886    15.3963 </r>
       <r>     7.0679     2.0278    15.6574 </r>
       <r>     7.1965     2.3890    15.9650 </r>
       <r>     7.3252     1.6249    16.1743 </r>
       <r>     7.4539     0.9936    16.3023 </r>
       <r>     7.5826     1.9004    16.5468 </r>
       <r>     7.7112     1.7350    16.7701 </r>
       <r>     7.8399     1.3788    16.9475 </r>
       <r>     7.9686     1.5859    17.1516 </r>
       <r>     8.0973     2.1159    17.4239 </r>
       <r>     8.2259     1.5012    17.6174 </r>
       <r>     8.3546     2.0553    17.8821 </r>
       <r>     8.4833     1.8152    18.1157 </r>
       <r>     8.6120     2.0875    18.3845 </r>
       <r>     8.7406     2.3387    18.6856 </r>
       <r>     8.8693     1.3984    18.8658 </r>
       <r>     8.9980     1.2974    19.0329 </r>
       <r>     9.1266     1.1397    19.1796 </r>
       <r>     9.2553     1.7038    19.3988 </r>
       <r>     9.3840     2.3431    19.7004 </r>
       <r>     9.5127     1.4925    19.8927 </r>
       <r>     9.6413     1.2428    20.0526 </r>
       <r>     9.7700     1.2816    20.2176 </r>
       <r>     9.8987     1.9410    20.4674 </r>
       <r>    10.0274     1.2434    20.6275 </r>
       <r>    10.1560     1.2734    20.7914 </r>
       <r>    10.2847     2.0064    21.0497 </r>
       <r>    10.4134     1.7468    21.2745 </r>
       <r>    10.5421     2.0660    21.5404 </r>
       <r>    10.6707     1.8029    21.7726 </r>
       <r>    10.7994     1.3260    21.9433 </r>
       <r>    10.9281     2.2928    22.2383 </r>
       <r>    11.0568     1.4606    22.4264 </r>
       <r>    11.1854     0.6721    22.5129 </r>
       <r>    11.3141     2.4836    22.8325 </r>
       <r>    11.4428     0.9933    22.9605 </r>
       <r>    11.5715     1.0785    23.0993 </r>
       <r>    11.7001     1.3169    23.2688 </r>
       <r>    11.8288     0.8850    23.3827 </r>
       <r>    11.9575     1.1071    23.5253 </r>
       <r>    12.0862     1.0220    23.6570 </r>
       <r>    12.2148     0.7566    23.7545 </r>
       <r>    12.3435     0.5843    23.8297 </r>
       <r>    12.4722     0.2451    23.8613 </r>
       <r>    12.6008     0.1063    23.8750 </r>
       <r>    12.7295     0.1098    23.8891 </r>
       <r>    12.8582     0.2532    23.9217 </r>
       <r>    12.9869     0.3811    23.9708 </r>
       <r>    13.1155     0.0114    23.9722 </r>
       <r>    13.2442     0.1093    23.9863 </r>
       <r>    13.3729     0.1066    24.0000 </r>
       <r>    13.5016     0.0000    24.0000 </r>
       <r>    13.6302     0.0000    24.0000 </r>
       <r>    13.7589     0.0000    24.0000 </r>
       <r>    13.8876     0.0000    24.0000 </r>
       <r>    14.0163     0.0000    24.0000 </r>
       <r>    14.1449     0.0000    24.0000 </r>
       <r>    14.2736     0.0000    24.0000 </r>
       <r>    14.4023     0.0000    24.0000 </r>
       <r>    14.5310     0.0000    24.0000 </r>
       <r>    14.6596     0.0000    24.0000 </r>
       <r>    14.7883     0.0000    24.0000 </r>
       <r>    14.9170     0.0000    24.0000 </r>
       <r>    15.0457     0.0000    24.0000 </r>
      </set>
     </set>
    </array>
   </total>
  </dos>
 </calculation>
 <structure name="finalpos" >
  <crystal>
   <varray name="basis" >
    <v>       2.44936100      -0.01858100       0.00000000 </v>
    <v>      -1.24077200       2.14659000       0.00000000 </v>
    <v>       0.00000000       0.00000000      15.00000000 </v>
   </varray>
   <i name="volume">     78.52078567 </i>
   <varray name="rec_basis" >
    <v>       0.41006785       0.23702743       0.00000000 </v>
    <v>       0.00354957       0.46790687       0.00000000 </v>
    <v>       0.00000000       0.00000000       0.06666667 </v>
   </varray>
  </crystal>
  <varray name="positions" >
   <v>       0.00024941       0.00011821       0.50000000 </v>
   <v>       0.33308359       0.66654879       0.50000000 </v>
  </varray>
 </structure>
</modeling>
