 running on   48 total cores
 distrk:  each k-point on   48 cores,    1 groups
 distr:  one band on    8 cores,    6 groups
 using from now: INCAR     
 vasp.5.4.1 24Jun15 (build Nov 20 2020 10:29:34) complex                        
  
 POSCAR found type information on POSCAR  C 
 POSCAR found :  1 types and       2 ions
 scaLAPACK will be used

 ----------------------------------------------------------------------------- 
|                                                                             |
|  ADVICE TO THIS USER RUNNING 'VASP/VAMP'   (HEAR YOUR MASTER'S VOICE ...):  |
|                                                                             |
|      You have a (more or less) 'small supercell' and for smaller cells      |
|      it is recommended  to use the reciprocal-space projection scheme!      |
|      The real space optimization is not  efficient for small cells and it   |
|      is also less accurate ...                                              |
|      Therefore set LREAL=.FALSE. in the  INCAR file                         |
|                                                                             |
 ----------------------------------------------------------------------------- 

 LDA part: xc-table for Pade appr. of Perdew
 POSCAR, INCAR and KPOINTS ok, starting setup
 WARNING: small aliasing (wrap around) errors must be expected
 FFT: planning ...
 WAVECAR not read
 entering main loop
       N       E                     dE             d eps       ncg     rms          rms(c)
DAV:   1     0.356807879787E+02    0.35681E+02   -0.37452E+03  3768   0.497E+02
DAV:   2    -0.179015597689E+02   -0.53582E+02   -0.48358E+02  5004   0.101E+02
DAV:   3    -0.196290751902E+02   -0.17275E+01   -0.17275E+01  5664   0.241E+01
DAV:   4    -0.196363573251E+02   -0.72821E-02   -0.72821E-02  5508   0.156E+00
DAV:   5    -0.196363642566E+02   -0.69315E-05   -0.69315E-05  5544   0.487E-02    0.614E+00
DAV:   6    -0.187802387519E+02    0.85613E+00   -0.83591E-01  4992   0.436E+00    0.362E+00
DAV:   7    -0.184495810414E+02    0.33066E+00   -0.10940E+00  5340   0.488E+00    0.902E-01
DAV:   8    -0.184424848990E+02    0.70961E-02   -0.90982E-03  5172   0.624E-01    0.917E-02
DAV:   9    -0.184405774611E+02    0.19074E-02   -0.12995E-03  5076   0.141E-01    0.713E-02
DAV:  10    -0.184392814026E+02    0.12961E-02   -0.21819E-03  4356   0.153E-01    0.351E-02
DAV:  11    -0.184394698875E+02   -0.18848E-03   -0.17113E-04  4056   0.539E-02    0.452E-02
DAV:  12    -0.184397051702E+02   -0.23528E-03   -0.34554E-05  4296   0.281E-02    0.104E-02
DAV:  13    -0.184404065928E+02   -0.70142E-03   -0.18794E-04  4224   0.366E-02    0.406E-03
DAV:  14    -0.184404637681E+02   -0.57175E-04   -0.92392E-07  5004   0.446E-03    0.298E-03
DAV:  15    -0.184405555122E+02   -0.91744E-04   -0.80354E-06  4164   0.746E-03    0.871E-04
DAV:  16    -0.184405633010E+02   -0.77888E-05   -0.16527E-07  4284   0.194E-03
   1 F= -.18440563E+02 E0= -.18440563E+02  d E =-.278791E-11
