<?xml version="1.0" encoding="ISO-8859-1"?>
<modeling>
 <generator>
  <i name="program" type="string">vasp </i>
  <i name="version" type="string">5.4.1  </i>
  <i name="subversion" type="string">24Jun15 (build Nov 20 2020 10:29:34) complex                          parallel </i>
  <i name="platform" type="string">IFC91_ompi </i>
  <i name="date" type="string">2021 09 14 </i>
  <i name="time" type="string">00:24:41 </i>
 </generator>
 <incar>
  <i type="int" name="ISTART">     1</i>
  <i type="string" name="PREC">a</i>
  <i type="string" name="ALGO"> Normal</i>
  <i type="int" name="ISPIN">     1</i>
  <i type="int" name="ICHARG">     2</i>
  <i type="int" name="NELM">   250</i>
  <i type="int" name="NELMDL">    -5</i>
  <i type="int" name="NELMIN">     6</i>
  <i type="int" name="IBRION">     2</i>
  <i name="EDIFF">      0.00001000</i>
  <i name="EDIFFG">     -0.00500000</i>
  <i type="int" name="NSW">     0</i>
  <i type="int" name="ISIF">     2</i>
  <i name="ENCUT">    520.00000000</i>
  <i name="POTIM">      0.25000000</i>
  <v name="MAGMOM">      0.60000000      0.60000000</v>
  <i type="string" name="LREAL"> Auto</i>
  <i type="int" name="ISMEAR">     0</i>
  <i name="SIGMA">      0.02000000</i>
  <i type="logical" name="LWAVE"> F  </i>
  <i type="logical" name="LCHARG"> F  </i>
  <i type="logical" name="LVHAR"> F  </i>
  <v type="int" name="KPOINT_BSE">    -1     0     0     0</v>
  <i type="int" name="NELM">   250</i>
 </incar>
 <kpoints>
  <generation param="Gamma">
   <v type="int" name="divisions">      24       24        1 </v>
   <v name="usershift">      0.00000000       0.00000000       0.00000000 </v>
   <v name="genvec1">      0.04166667       0.00000000       0.00000000 </v>
   <v name="genvec2">      0.00000000       0.04166667       0.00000000 </v>
   <v name="genvec3">      0.00000000       0.00000000       1.00000000 </v>
   <v name="shift">      0.00000000       0.00000000       0.00000000 </v>
  </generation>
  <varray name="kpointlist" >
   <v>       0.00000000       0.00000000       0.00000000 </v>
   <v>       0.04166667       0.00000000       0.00000000 </v>
   <v>       0.08333333       0.00000000       0.00000000 </v>
   <v>       0.12500000       0.00000000       0.00000000 </v>
   <v>       0.16666667      -0.00000000       0.00000000 </v>
   <v>       0.20833333       0.00000000       0.00000000 </v>
   <v>       0.25000000       0.00000000       0.00000000 </v>
   <v>       0.29166667       0.00000000       0.00000000 </v>
   <v>       0.33333333       0.00000000       0.00000000 </v>
   <v>       0.37500000       0.00000000       0.00000000 </v>
   <v>       0.41666667       0.00000000       0.00000000 </v>
   <v>       0.45833333       0.00000000       0.00000000 </v>
   <v>       0.50000000       0.00000000       0.00000000 </v>
   <v>       0.00000000       0.04166667       0.00000000 </v>
   <v>       0.04166667       0.04166667       0.00000000 </v>
   <v>       0.08333333       0.04166667       0.00000000 </v>
   <v>       0.12500000       0.04166667       0.00000000 </v>
   <v>       0.16666667       0.04166667       0.00000000 </v>
   <v>       0.20833333       0.04166667       0.00000000 </v>
   <v>       0.25000000       0.04166667       0.00000000 </v>
   <v>       0.29166667       0.04166667       0.00000000 </v>
   <v>       0.33333333       0.04166667       0.00000000 </v>
   <v>       0.37500000       0.04166667       0.00000000 </v>
   <v>       0.41666667       0.04166667       0.00000000 </v>
   <v>       0.45833333       0.04166667       0.00000000 </v>
   <v>       0.50000000       0.04166667       0.00000000 </v>
   <v>      -0.45833333       0.04166667       0.00000000 </v>
   <v>      -0.41666667       0.04166667       0.00000000 </v>
   <v>      -0.37500000       0.04166667       0.00000000 </v>
   <v>      -0.33333333       0.04166667       0.00000000 </v>
   <v>      -0.29166667       0.04166667       0.00000000 </v>
   <v>      -0.25000000       0.04166667       0.00000000 </v>
   <v>      -0.20833333       0.04166667       0.00000000 </v>
   <v>      -0.16666667       0.04166667       0.00000000 </v>
   <v>      -0.12500000       0.04166667       0.00000000 </v>
   <v>      -0.08333333       0.04166667       0.00000000 </v>
   <v>       0.00000000       0.08333333       0.00000000 </v>
   <v>       0.04166667       0.08333333       0.00000000 </v>
   <v>       0.08333333       0.08333333       0.00000000 </v>
   <v>       0.12500000       0.08333333       0.00000000 </v>
   <v>       0.16666667       0.08333333       0.00000000 </v>
   <v>       0.20833333       0.08333333       0.00000000 </v>
   <v>       0.25000000       0.08333333       0.00000000 </v>
   <v>       0.29166667       0.08333333       0.00000000 </v>
   <v>       0.33333333       0.08333333       0.00000000 </v>
   <v>       0.37500000       0.08333333       0.00000000 </v>
   <v>       0.41666667       0.08333333       0.00000000 </v>
   <v>       0.45833333       0.08333333       0.00000000 </v>
   <v>       0.50000000       0.08333333       0.00000000 </v>
   <v>      -0.45833333       0.08333333       0.00000000 </v>
   <v>      -0.41666667       0.08333333       0.00000000 </v>
   <v>      -0.37500000       0.08333333       0.00000000 </v>
   <v>      -0.33333333       0.08333333       0.00000000 </v>
   <v>      -0.29166667       0.08333333       0.00000000 </v>
   <v>      -0.25000000       0.08333333       0.00000000 </v>
   <v>      -0.20833333       0.08333333       0.00000000 </v>
   <v>      -0.16666667       0.08333333       0.00000000 </v>
   <v>       0.00000000       0.12500000       0.00000000 </v>
   <v>       0.04166667       0.12500000       0.00000000 </v>
   <v>       0.08333333       0.12500000       0.00000000 </v>
   <v>       0.12500000       0.12500000       0.00000000 </v>
   <v>       0.16666667       0.12500000       0.00000000 </v>
   <v>       0.20833333       0.12500000       0.00000000 </v>
   <v>       0.25000000       0.12500000       0.00000000 </v>
   <v>       0.29166667       0.12500000       0.00000000 </v>
   <v>       0.33333333       0.12500000       0.00000000 </v>
   <v>       0.37500000       0.12500000       0.00000000 </v>
   <v>       0.41666667       0.12500000       0.00000000 </v>
   <v>       0.45833333       0.12500000       0.00000000 </v>
   <v>       0.50000000       0.12500000       0.00000000 </v>
   <v>      -0.45833333       0.12500000       0.00000000 </v>
   <v>      -0.41666667       0.12500000       0.00000000 </v>
   <v>      -0.37500000       0.12500000       0.00000000 </v>
   <v>      -0.33333333       0.12500000       0.00000000 </v>
   <v>      -0.29166667       0.12500000       0.00000000 </v>
   <v>      -0.25000000       0.12500000       0.00000000 </v>
   <v>       0.00000000       0.16666667       0.00000000 </v>
   <v>       0.04166667       0.16666667       0.00000000 </v>
   <v>       0.08333333       0.16666667       0.00000000 </v>
   <v>       0.12500000       0.16666667       0.00000000 </v>
   <v>       0.16666667       0.16666667       0.00000000 </v>
   <v>       0.20833333       0.16666667       0.00000000 </v>
   <v>       0.25000000       0.16666667       0.00000000 </v>
   <v>       0.29166667       0.16666667       0.00000000 </v>
   <v>       0.33333333       0.16666667       0.00000000 </v>
   <v>       0.37500000       0.16666667       0.00000000 </v>
   <v>       0.41666667       0.16666667       0.00000000 </v>
   <v>       0.45833333       0.16666667       0.00000000 </v>
   <v>       0.50000000       0.16666667       0.00000000 </v>
   <v>      -0.45833333       0.16666667       0.00000000 </v>
   <v>      -0.41666667       0.16666667       0.00000000 </v>
   <v>      -0.37500000       0.16666667       0.00000000 </v>
   <v>      -0.33333333       0.16666667       0.00000000 </v>
   <v>       0.00000000       0.20833333       0.00000000 </v>
   <v>       0.04166667       0.20833333       0.00000000 </v>
   <v>       0.08333333       0.20833333       0.00000000 </v>
   <v>       0.12500000       0.20833333       0.00000000 </v>
   <v>       0.16666667       0.20833333       0.00000000 </v>
   <v>       0.20833333       0.20833333       0.00000000 </v>
   <v>       0.25000000       0.20833333       0.00000000 </v>
   <v>       0.29166667       0.20833333       0.00000000 </v>
   <v>       0.33333333       0.20833333       0.00000000 </v>
   <v>       0.37500000       0.20833333       0.00000000 </v>
   <v>       0.41666667       0.20833333       0.00000000 </v>
   <v>       0.45833333       0.20833333       0.00000000 </v>
   <v>       0.50000000       0.20833333       0.00000000 </v>
   <v>      -0.45833333       0.20833333       0.00000000 </v>
   <v>      -0.41666667       0.20833333       0.00000000 </v>
   <v>       0.00000000       0.25000000       0.00000000 </v>
   <v>       0.04166667       0.25000000       0.00000000 </v>
   <v>       0.08333333       0.25000000       0.00000000 </v>
   <v>       0.12500000       0.25000000       0.00000000 </v>
   <v>       0.16666667       0.25000000       0.00000000 </v>
   <v>       0.20833333       0.25000000       0.00000000 </v>
   <v>       0.25000000       0.25000000       0.00000000 </v>
   <v>       0.29166667       0.25000000       0.00000000 </v>
   <v>       0.33333333       0.25000000       0.00000000 </v>
   <v>       0.37500000       0.25000000       0.00000000 </v>
   <v>       0.41666667       0.25000000       0.00000000 </v>
   <v>       0.45833333       0.25000000       0.00000000 </v>
   <v>       0.50000000       0.25000000       0.00000000 </v>
   <v>       0.00000000       0.29166667       0.00000000 </v>
   <v>       0.04166667       0.29166667       0.00000000 </v>
   <v>       0.08333333       0.29166667       0.00000000 </v>
   <v>       0.12500000       0.29166667       0.00000000 </v>
   <v>       0.16666667       0.29166667       0.00000000 </v>
   <v>       0.20833333       0.29166667       0.00000000 </v>
   <v>       0.25000000       0.29166667       0.00000000 </v>
   <v>       0.29166667       0.29166667       0.00000000 </v>
   <v>       0.33333333       0.29166667       0.00000000 </v>
   <v>       0.37500000       0.29166667       0.00000000 </v>
   <v>       0.41666667       0.29166667       0.00000000 </v>
   <v>       0.00000000       0.33333333       0.00000000 </v>
   <v>       0.04166667       0.33333333       0.00000000 </v>
   <v>       0.08333333       0.33333333       0.00000000 </v>
   <v>       0.12500000       0.33333333       0.00000000 </v>
   <v>       0.16666667       0.33333333       0.00000000 </v>
   <v>       0.20833333       0.33333333       0.00000000 </v>
   <v>       0.25000000       0.33333333       0.00000000 </v>
   <v>       0.29166667       0.33333333       0.00000000 </v>
   <v>       0.33333333       0.33333333       0.00000000 </v>
   <v>       0.00000000       0.37500000       0.00000000 </v>
   <v>       0.04166667       0.37500000       0.00000000 </v>
   <v>       0.08333333       0.37500000       0.00000000 </v>
   <v>       0.12500000       0.37500000       0.00000000 </v>
   <v>       0.16666667       0.37500000       0.00000000 </v>
   <v>       0.20833333       0.37500000       0.00000000 </v>
   <v>       0.25000000       0.37500000       0.00000000 </v>
   <v>       0.00000000       0.41666667       0.00000000 </v>
   <v>       0.04166667       0.41666667       0.00000000 </v>
   <v>       0.08333333       0.41666667       0.00000000 </v>
   <v>       0.12500000       0.41666667       0.00000000 </v>
   <v>       0.16666667       0.41666667       0.00000000 </v>
   <v>       0.00000000       0.45833333       0.00000000 </v>
   <v>       0.04166667       0.45833333       0.00000000 </v>
   <v>       0.08333333       0.45833333       0.00000000 </v>
   <v>       0.00000000       0.50000000       0.00000000 </v>
  </varray>
  <varray name="weights" >
   <v>       0.00173611 </v>
   <v>       0.00694444 </v>
   <v>       0.00694444 </v>
   <v>       0.00694444 </v>
   <v>       0.00694444 </v>
   <v>       0.00694444 </v>
   <v>       0.00694444 </v>
   <v>       0.00694444 </v>
   <v>       0.00694444 </v>
   <v>       0.00694444 </v>
   <v>       0.00694444 </v>
   <v>       0.00694444 </v>
   <v>       0.00347222 </v>
   <v>       0.00347222 </v>
   <v>       0.00694444 </v>
   <v>       0.00694444 </v>
   <v>       0.00694444 </v>
   <v>       0.00694444 </v>
   <v>       0.00694444 </v>
   <v>       0.00694444 </v>
   <v>       0.00694444 </v>
   <v>       0.00694444 </v>
   <v>       0.00694444 </v>
   <v>       0.00694444 </v>
   <v>       0.00694444 </v>
   <v>       0.00694444 </v>
   <v>       0.00694444 </v>
   <v>       0.00694444 </v>
   <v>       0.00694444 </v>
   <v>       0.00694444 </v>
   <v>       0.00694444 </v>
   <v>       0.00694444 </v>
   <v>       0.00694444 </v>
   <v>       0.00694444 </v>
   <v>       0.00694444 </v>
   <v>       0.00347222 </v>
   <v>       0.00347222 </v>
   <v>       0.00694444 </v>
   <v>       0.00694444 </v>
   <v>       0.00694444 </v>
   <v>       0.00694444 </v>
   <v>       0.00694444 </v>
   <v>       0.00694444 </v>
   <v>       0.00694444 </v>
   <v>       0.00694444 </v>
   <v>       0.00694444 </v>
   <v>       0.00694444 </v>
   <v>       0.00694444 </v>
   <v>       0.00694444 </v>
   <v>       0.00694444 </v>
   <v>       0.00694444 </v>
   <v>       0.00694444 </v>
   <v>       0.00694444 </v>
   <v>       0.00694444 </v>
   <v>       0.00694444 </v>
   <v>       0.00694444 </v>
   <v>       0.00347222 </v>
   <v>       0.00347222 </v>
   <v>       0.00694444 </v>
   <v>       0.00694444 </v>
   <v>       0.00694444 </v>
   <v>       0.00694444 </v>
   <v>       0.00694444 </v>
   <v>       0.00694444 </v>
   <v>       0.00694444 </v>
   <v>       0.00694444 </v>
   <v>       0.00694444 </v>
   <v>       0.00694444 </v>
   <v>       0.00694444 </v>
   <v>       0.00694444 </v>
   <v>       0.00694444 </v>
   <v>       0.00694444 </v>
   <v>       0.00694444 </v>
   <v>       0.00694444 </v>
   <v>       0.00694444 </v>
   <v>       0.00347222 </v>
   <v>       0.00347222 </v>
   <v>       0.00694444 </v>
   <v>       0.00694444 </v>
   <v>       0.00694444 </v>
   <v>       0.00694444 </v>
   <v>       0.00694444 </v>
   <v>       0.00694444 </v>
   <v>       0.00694444 </v>
   <v>       0.00694444 </v>
   <v>       0.00694444 </v>
   <v>       0.00694444 </v>
   <v>       0.00694444 </v>
   <v>       0.00694444 </v>
   <v>       0.00694444 </v>
   <v>       0.00694444 </v>
   <v>       0.00694444 </v>
   <v>       0.00347222 </v>
   <v>       0.00347222 </v>
   <v>       0.00694444 </v>
   <v>       0.00694444 </v>
   <v>       0.00694444 </v>
   <v>       0.00694444 </v>
   <v>       0.00694444 </v>
   <v>       0.00694444 </v>
   <v>       0.00694444 </v>
   <v>       0.00694444 </v>
   <v>       0.00694444 </v>
   <v>       0.00694444 </v>
   <v>       0.00694444 </v>
   <v>       0.00694444 </v>
   <v>       0.00694444 </v>
   <v>       0.00347222 </v>
   <v>       0.00347222 </v>
   <v>       0.00694444 </v>
   <v>       0.00694444 </v>
   <v>       0.00694444 </v>
   <v>       0.00694444 </v>
   <v>       0.00694444 </v>
   <v>       0.00694444 </v>
   <v>       0.00694444 </v>
   <v>       0.00694444 </v>
   <v>       0.00694444 </v>
   <v>       0.00694444 </v>
   <v>       0.00694444 </v>
   <v>       0.00347222 </v>
   <v>       0.00347222 </v>
   <v>       0.00694444 </v>
   <v>       0.00694444 </v>
   <v>       0.00694444 </v>
   <v>       0.00694444 </v>
   <v>       0.00694444 </v>
   <v>       0.00694444 </v>
   <v>       0.00694444 </v>
   <v>       0.00694444 </v>
   <v>       0.00694444 </v>
   <v>       0.00347222 </v>
   <v>       0.00347222 </v>
   <v>       0.00694444 </v>
   <v>       0.00694444 </v>
   <v>       0.00694444 </v>
   <v>       0.00694444 </v>
   <v>       0.00694444 </v>
   <v>       0.00694444 </v>
   <v>       0.00694444 </v>
   <v>       0.00347222 </v>
   <v>       0.00347222 </v>
   <v>       0.00694444 </v>
   <v>       0.00694444 </v>
   <v>       0.00694444 </v>
   <v>       0.00694444 </v>
   <v>       0.00694444 </v>
   <v>       0.00347222 </v>
   <v>       0.00347222 </v>
   <v>       0.00694444 </v>
   <v>       0.00694444 </v>
   <v>       0.00694444 </v>
   <v>       0.00347222 </v>
   <v>       0.00347222 </v>
   <v>       0.00694444 </v>
   <v>       0.00347222 </v>
   <v>       0.00173611 </v>
  </varray>
 </kpoints>
 <parameters>
  <separator name="general" >
   <i type="string" name="SYSTEM">unknown system</i>
   <i type="logical" name="LCOMPAT"> F  </i>
  </separator>
  <separator name="electronic" >
   <i type="string" name="PREC">a</i>
   <i name="ENMAX">    520.00000000</i>
   <i name="ENAUG">    644.87300000</i>
   <i name="EDIFF">      0.00001000</i>
   <i type="int" name="IALGO">    38</i>
   <i type="int" name="IWAVPR">    10</i>
   <i type="int" name="NBANDS">    12</i>
   <i name="NELECT">      8.00000000</i>
   <i type="int" name="TURBO">     0</i>
   <i type="int" name="IRESTART">     0</i>
   <i type="int" name="NREBOOT">     0</i>
   <i type="int" name="NMIN">     0</i>
   <i name="EREF">      0.00000000</i>
   <separator name="electronic smearing" >
    <i type="int" name="ISMEAR">     0</i>
    <i name="SIGMA">      0.02000000</i>
    <i name="KSPACING">      0.50000000</i>
    <i type="logical" name="KGAMMA"> T  </i>
   </separator>
   <separator name="electronic projectors" >
    <i type="logical" name="LREAL"> T  </i>
    <v name="ROPT">     -0.00025000</v>
    <i type="int" name="LMAXPAW">  -100</i>
    <i type="int" name="LMAXMIX">     2</i>
    <i type="logical" name="NLSPLINE"> F  </i>
   </separator>
   <separator name="electronic startup" >
    <i type="int" name="ISTART">     0</i>
    <i type="int" name="ICHARG">     2</i>
    <i type="int" name="INIWAV">     1</i>
   </separator>
   <separator name="electronic spin" >
    <i type="int" name="ISPIN">     1</i>
    <i type="logical" name="LNONCOLLINEAR"> F  </i>
    <v name="MAGMOM">      0.60000000      0.60000000</v>
    <i name="NUPDOWN">     -1.00000000</i>
    <i type="logical" name="LSORBIT"> F  </i>
    <v name="SAXIS">      0.00000000      0.00000000      1.00000000</v>
    <i type="logical" name="LSPIRAL"> F  </i>
    <v name="QSPIRAL">      0.00000000      0.00000000      0.00000000</v>
    <i type="logical" name="LZEROZ"> F  </i>
   </separator>
   <separator name="electronic exchange-correlation" >
    <i type="logical" name="LASPH"> F  </i>
    <i type="logical" name="LMETAGGA"> F  </i>
   </separator>
   <separator name="electronic convergence" >
    <i type="int" name="NELM">   250</i>
    <i type="int" name="NELMDL">    -5</i>
    <i type="int" name="NELMIN">     6</i>
    <i name="ENINI">    520.00000000</i>
    <separator name="electronic convergence detail" >
     <i type="logical" name="LDIAG"> T  </i>
     <i type="logical" name="LSUBROT"> F  </i>
     <i name="WEIMIN">      0.00000000</i>
     <i name="EBREAK">      0.00000021</i>
     <i name="DEPER">      0.30000000</i>
     <i type="int" name="NRMM">     4</i>
     <i name="TIME">      0.40000000</i>
    </separator>
   </separator>
   <separator name="electronic mixer" >
    <i name="AMIX">      0.40000000</i>
    <i name="BMIX">      1.00000000</i>
    <i name="AMIN">      0.10000000</i>
    <i name="AMIX_MAG">      1.60000000</i>
    <i name="BMIX_MAG">      1.00000000</i>
    <separator name="electronic mixer details" >
     <i type="int" name="IMIX">     4</i>
     <i type="logical" name="MIXFIRST"> F  </i>
     <i type="int" name="MAXMIX">   -45</i>
     <i name="WC">    100.00000000</i>
     <i type="int" name="INIMIX">     1</i>
     <i type="int" name="MIXPRE">     1</i>
     <i type="int" name="MREMOVE">     5</i>
    </separator>
   </separator>
   <separator name="electronic dipolcorrection" >
    <i type="logical" name="LDIPOL"> F  </i>
    <i type="logical" name="LMONO"> F  </i>
    <i type="int" name="IDIPOL">     0</i>
    <i name="EPSILON">      1.00000000</i>
    <v name="DIPOL">   -100.00000000   -100.00000000   -100.00000000</v>
    <i name="EFIELD">      0.00000000</i>
   </separator>
  </separator>
  <separator name="grids" >
   <i type="int" name="NGX">    20</i>
   <i type="int" name="NGY">    18</i>
   <i type="int" name="NGZ">   112</i>
   <i type="int" name="NGXF">    40</i>
   <i type="int" name="NGYF">    36</i>
   <i type="int" name="NGZF">   224</i>
   <i type="logical" name="ADDGRID"> F  </i>
  </separator>
  <separator name="ionic" >
   <i type="int" name="NSW">     0</i>
   <i type="int" name="IBRION">    -1</i>
   <i type="int" name="ISIF">     2</i>
   <i name="PSTRESS">      0.00000000</i>
   <i name="EDIFFG">     -0.00500000</i>
   <i type="int" name="NFREE">     1</i>
   <i name="POTIM">      0.25000000</i>
   <i name="SMASS">     -3.00000000</i>
   <i name="SCALEE">      1.00000000</i>
  </separator>
  <separator name="ionic md" >
   <i name="TEBEG">      0.00010000</i>
   <i name="TEEND">      0.00010000</i>
   <i type="int" name="NBLOCK">     1</i>
   <i type="int" name="KBLOCK">     1</i>
   <i type="int" name="NPACO">   256</i>
   <i name="APACO">     16.00000000</i>
  </separator>
  <separator name="symmetry" >
   <i type="int" name="ISYM">     2</i>
   <i name="SYMPREC">      0.00001000</i>
  </separator>
  <separator name="dos" >
   <i type="logical" name="LORBIT"> F  </i>
   <v name="RWIGS">     -1.00000000</v>
   <i type="int" name="NEDOS">   301</i>
   <i name="EMIN">     10.00000000</i>
   <i name="EMAX">    -10.00000000</i>
   <i name="EFERMI">      0.00000000</i>
  </separator>
  <separator name="writing" >
   <i type="int" name="NWRITE">     2</i>
   <i type="logical" name="LWAVE"> F  </i>
   <i type="logical" name="LCHARG"> F  </i>
   <i type="logical" name="LPARD"> F  </i>
   <i type="logical" name="LVTOT"> F  </i>
   <i type="logical" name="LVHAR"> F  </i>
   <i type="logical" name="LELF"> F  </i>
   <i type="logical" name="LOPTICS"> F  </i>
   <v name="STM">      0.00000000      0.00000000      0.00000000      0.00000000      0.00000000      0.00000000      0.00000000</v>
  </separator>
  <separator name="performance" >
   <i type="int" name="NPAR">     6</i>
   <i type="int" name="NSIM">     4</i>
   <i type="int" name="NBLK">    -1</i>
   <i type="logical" name="LPLANE"> T  </i>
   <i type="logical" name="LSCALAPACK"> T  </i>
   <i type="logical" name="LSCAAWARE"> F  </i>
   <i type="logical" name="LSCALU"> F  </i>
   <i type="logical" name="LASYNC"> F  </i>
   <i type="logical" name="LORBITALREAL"> F  </i>
  </separator>
  <separator name="miscellaneous" >
   <i type="int" name="IDIOT">     3</i>
   <i type="logical" name="LMUSIC"> F  </i>
   <v name="POMASS">     12.01100000</v>
   <v name="DARWINR">      0.00000000</v>
   <v name="DARWINV">      1.00000000</v>
   <i type="logical" name="LCORR"> T  </i>
  </separator>
  <i type="logical" name="GGA_COMPAT"> T  </i>
  <i type="logical" name="LBERRY"> F  </i>
  <i type="int" name="ICORELEVEL">     0</i>
  <i type="logical" name="LDAU"> F  </i>
  <i type="int" name="I_CONSTRAINED_M">     0</i>
  <separator name="electronic exchange-correlation" >
   <i type="string" name="GGA">--</i>
   <i type="int" name="VOSKOWN">     0</i>
   <i type="logical" name="LHFCALC"> F  </i>
   <i type="string" name="PRECFOCK"></i>
   <i type="logical" name="LSYMGRAD"> F  </i>
   <i type="logical" name="LHFONE"> F  </i>
   <i type="logical" name="LRHFCALC"> F  </i>
   <i type="logical" name="LTHOMAS"> F  </i>
   <i type="logical" name="LMODELHF"> F  </i>
   <i name="ENCUT4O">     -1.00000000</i>
   <i type="int" name="EXXOEP">     0</i>
   <i type="int" name="FOURORBIT">     0</i>
   <i name="AEXX">      0.00000000</i>
   <i name="HFALPHA">      0.00000000</i>
   <i name="MCALPHA">      0.00000000</i>
   <i name="ALDAX">      1.00000000</i>
   <i name="AGGAX">      1.00000000</i>
   <i name="ALDAC">      1.00000000</i>
   <i name="AGGAC">      1.00000000</i>
   <i type="int" name="NKREDX">     1</i>
   <i type="int" name="NKREDY">     1</i>
   <i type="int" name="NKREDZ">     1</i>
   <i type="logical" name="SHIFTRED"> F  </i>
   <i type="logical" name="ODDONLY"> F  </i>
   <i type="logical" name="EVENONLY"> F  </i>
   <i type="int" name="LMAXFOCK">     0</i>
   <i type="int" name="NMAXFOCKAE">     0</i>
   <i type="logical" name="LFOCKAEDFT"> F  </i>
   <i name="HFSCREEN">      0.00000000</i>
   <i name="HFSCREENC">      0.00000000</i>
   <i type="int" name="NBANDSGWLOW">     0</i>
  </separator>
  <separator name="vdW DFT" >
   <i type="logical" name="LUSE_VDW"> F  </i>
   <i name="Zab_VDW">     -0.84910000</i>
   <i name="PARAM1">      0.12340000</i>
   <i name="PARAM2">      1.00000000</i>
   <i name="PARAM3">      0.00000000</i>
  </separator>
  <separator name="model GW" >
   <i type="int" name="MODEL_GW">     0</i>
   <i name="MODEL_EPS0">     24.03253838</i>
   <i name="MODEL_ALPHA">      1.00000000</i>
  </separator>
  <separator name="linear response parameters" >
   <i type="logical" name="LEPSILON"> F  </i>
   <i type="logical" name="LRPA"> F  </i>
   <i type="logical" name="LNABLA"> F  </i>
   <i type="logical" name="LVEL"> F  </i>
   <i type="int" name="KINTER">     0</i>
   <i name="CSHIFT">      0.10000000</i>
   <i name="OMEGAMAX">     -1.00000000</i>
   <i name="DEG_THRESHOLD">      0.00200000</i>
  </separator>
  <separator name="orbital magnetization" >
   <i type="logical" name="NUCIND"> F  </i>
   <v name="MAGPOS">      0.00000000      0.00000000      0.00000000</v>
   <i type="logical" name="LNICSALL"> T  </i>
   <i type="logical" name="ORBITALMAG"> F  </i>
   <i type="logical" name="LMAGBLOCH"> F  </i>
   <i type="logical" name="LCHIMAG"> F  </i>
   <i type="logical" name="LGAUGE"> T  </i>
   <i type="int" name="MAGATOM">     0</i>
   <v name="MAGDIPOL">      0.00000000      0.00000000      0.00000000</v>
   <v name="AVECCONST">      0.00000000      0.00000000      0.00000000</v>
  </separator>
  <separator name="response functions" >
   <i type="logical" name="LADDER"> F  </i>
   <i type="logical" name="LFXC"> F  </i>
   <i type="logical" name="LHARTREE"> T  </i>
   <i type="int" name="IBSE">     0</i>
   <v type="int" name="KPOINT">    -1     0     0     0</v>
   <i type="logical" name="LTCTE"> F  </i>
   <i type="logical" name="LTETE"> F  </i>
   <i type="logical" name="LTRIPLET"> F  </i>
   <i type="logical" name="LFXCEPS"> F  </i>
   <i type="logical" name="LFXHEG"> F  </i>
   <i type="int" name="NATURALO">     0</i>
   <i type="logical" name="L2ORDER"> F  </i>
   <i type="logical" name="LUSEW"> F  </i>
   <i name="ENCUTGW">     -2.00000000</i>
   <i name="ENCUTGWSOFT">     -2.00000000</i>
   <i name="ENCUTLF">     -1.00000000</i>
   <i type="int" name="LMAXMP2">    -1</i>
   <i name="SCISSOR">      0.00000000</i>
   <i type="int" name="NOMEGA">     0</i>
   <i type="int" name="NOMEGAR">     0</i>
   <i type="int" name="NBANDSGW">    -1</i>
   <i type="int" name="NBANDSO">    -1</i>
   <i type="int" name="NBANDSV">    -1</i>
   <i type="int" name="NELM">   250</i>
   <i type="int" name="NELMHF">     1</i>
   <i type="int" name="DIM">     3</i>
   <i type="int" name="ANTIRES">     0</i>
   <i name="OMEGAMAX">    -30.00000000</i>
   <i name="OMEGAMIN">    -30.00000000</i>
   <i name="OMEGATL">   -200.00000000</i>
   <i type="int" name="OMEGAGRID">     0</i>
   <i name="CSHIFT">     -0.10000000</i>
   <i type="logical" name="SELFENERGY"> F  </i>
   <i type="logical" name="LSPECTRAL"> F  </i>
   <i type="logical" name="LSPECTRALGW"> F  </i>
   <i type="logical" name="LSINGLES"> F  </i>
   <i type="logical" name="LFERMIGW"> F  </i>
   <i type="logical" name="ODDONLYGW"> F  </i>
   <i type="logical" name="EVENONLYGW"> F  </i>
   <i type="int" name="NKREDLFX">     1</i>
   <i type="int" name="NKREDLFY">     1</i>
   <i type="int" name="NKREDLFZ">     1</i>
   <i type="int" name="MAXMEM">  1800</i>
   <i type="int" name="TELESCOPE">     0</i>
   <i type="int" name="TAUPAR">     1</i>
   <i type="int" name="OMEGAPAR">    -1</i>
   <i name="LAMBDA">      1.00000000</i>
  </separator>
  <separator name="External order field" >
   <i name="OFIELD_KAPPA">      0.00000000</i>
   <v name="OFIELD_K">      0.00000000      0.00000000      0.00000000</v>
   <i name="OFIELD_Q6_NEAR">      0.00000000</i>
   <i name="OFIELD_Q6_FAR">      0.00000000</i>
   <i name="OFIELD_A">      0.00000000</i>
  </separator>
 </parameters>
 <atominfo>
  <atoms>       2 </atoms>
  <types>       1 </types>
  <array name="atoms" >
   <dimension dim="1">ion</dimension>
   <field type="string">element</field>
   <field type="int">atomtype</field>
   <set>
    <rc><c>C </c><c>   1</c></rc>
    <rc><c>C </c><c>   1</c></rc>
   </set>
  </array>
  <array name="atomtypes" >
   <dimension dim="1">type</dimension>
   <field type="int">atomspertype</field>
   <field type="string">element</field>
   <field>mass</field>
   <field>valence</field>
   <field type="string">pseudopotential</field>
   <set>
    <rc><c>   2</c><c>C </c><c>     12.01100000</c><c>      4.00000000</c><c>  PAW_PBE C 08Apr2002                   </c></rc>
   </set>
  </array>
 </atominfo>
 <structure name="initialpos" >
  <crystal>
   <varray name="basis" >
    <v>       2.49867200       0.00000000       0.00000000 </v>
    <v>      -1.24933600       2.13736100       0.00000000 </v>
    <v>       0.00000000       0.00000000      15.00000000 </v>
   </varray>
   <i name="volume">     80.10846127 </i>
   <varray name="rec_basis" >
    <v>       0.40021259       0.23393334       0.00000000 </v>
    <v>       0.00000000       0.46786668       0.00000000 </v>
    <v>       0.00000000       0.00000000       0.06666667 </v>
   </varray>
  </crystal>
  <varray name="positions" >
   <v>       0.00006686       0.00013373       0.50000000 </v>
   <v>       0.33326614       0.66653327       0.50000000 </v>
  </varray>
 </structure>
 <calculation>
  <scstep>
   <time name="dav">    0.45    0.45</time>
   <time name="total">    0.46    0.46</time>
   <energy>
    <i name="alphaZ">      4.10177475 </i>
    <i name="ewald">    821.31671598 </i>
    <i name="hartreedc">  -1041.19177412 </i>
    <i name="XCdc">     26.26626810 </i>
    <i name="pawpsdc">    217.04409276 </i>
    <i name="pawaedc">   -218.18290438 </i>
    <i name="eentropy">     -0.00004392 </i>
    <i name="bandstr">    -67.97112782 </i>
    <i name="atom">    294.29778662 </i>
    <i name="e_fr_energy">     35.68078798 </i>
    <i name="e_wo_entrp">     35.68083190 </i>
    <i name="e_0_energy">     35.68080994 </i>
   </energy>
  </scstep>
  <scstep>
   <time name="dav">    0.60    0.60</time>
   <time name="total">    0.60    0.60</time>
   <energy>
    <i name="e_fr_energy">    -17.90155977 </i>
    <i name="e_wo_entrp">    -17.90155977 </i>
    <i name="e_0_energy">    -17.90155977 </i>
   </energy>
  </scstep>
  <scstep>
   <time name="dav">    0.68    0.68</time>
   <time name="total">    0.68    0.68</time>
   <energy>
    <i name="e_fr_energy">    -19.62907519 </i>
    <i name="e_wo_entrp">    -19.62907519 </i>
    <i name="e_0_energy">    -19.62907519 </i>
   </energy>
  </scstep>
  <scstep>
   <time name="dav">    0.66    0.66</time>
   <time name="total">    0.66    0.66</time>
   <energy>
    <i name="e_fr_energy">    -19.63635733 </i>
    <i name="e_wo_entrp">    -19.63635733 </i>
    <i name="e_0_energy">    -19.63635733 </i>
   </energy>
  </scstep>
  <scstep>
   <time name="dav">    0.67    0.67</time>
   <time name="total">    0.69    0.69</time>
   <energy>
    <i name="e_fr_energy">    -19.63636426 </i>
    <i name="e_wo_entrp">    -19.63636426 </i>
    <i name="e_0_energy">    -19.63636426 </i>
   </energy>
  </scstep>
  <scstep>
   <time name="dav">    0.58    0.58</time>
   <time name="total">    0.61    0.61</time>
   <energy>
    <i name="e_fr_energy">    -18.78023875 </i>
    <i name="e_wo_entrp">    -18.78023875 </i>
    <i name="e_0_energy">    -18.78023875 </i>
   </energy>
  </scstep>
  <scstep>
   <time name="dav">    0.62    0.62</time>
   <time name="total">    0.64    0.65</time>
   <energy>
    <i name="e_fr_energy">    -18.44958104 </i>
    <i name="e_wo_entrp">    -18.44958104 </i>
    <i name="e_0_energy">    -18.44958104 </i>
   </energy>
  </scstep>
  <scstep>
   <time name="dav">    0.60    0.60</time>
   <time name="total">    0.62    0.63</time>
   <energy>
    <i name="e_fr_energy">    -18.44248490 </i>
    <i name="e_wo_entrp">    -18.44248490 </i>
    <i name="e_0_energy">    -18.44248490 </i>
   </energy>
  </scstep>
  <scstep>
   <time name="dav">    0.58    0.58</time>
   <time name="total">    0.61    0.61</time>
   <energy>
    <i name="e_fr_energy">    -18.44057746 </i>
    <i name="e_wo_entrp">    -18.44057746 </i>
    <i name="e_0_energy">    -18.44057746 </i>
   </energy>
  </scstep>
  <scstep>
   <time name="dav">    0.51    0.51</time>
   <time name="total">    0.53    0.53</time>
   <energy>
    <i name="e_fr_energy">    -18.43928140 </i>
    <i name="e_wo_entrp">    -18.43928140 </i>
    <i name="e_0_energy">    -18.43928140 </i>
   </energy>
  </scstep>
  <scstep>
   <time name="dav">    0.48    0.48</time>
   <time name="total">    0.51    0.51</time>
   <energy>
    <i name="e_fr_energy">    -18.43946989 </i>
    <i name="e_wo_entrp">    -18.43946989 </i>
    <i name="e_0_energy">    -18.43946989 </i>
   </energy>
  </scstep>
  <scstep>
   <time name="dav">    0.49    0.49</time>
   <time name="total">    0.52    0.52</time>
   <energy>
    <i name="e_fr_energy">    -18.43970517 </i>
    <i name="e_wo_entrp">    -18.43970517 </i>
    <i name="e_0_energy">    -18.43970517 </i>
   </energy>
  </scstep>
  <scstep>
   <time name="dav">    0.48    0.48</time>
   <time name="total">    0.51    0.51</time>
   <energy>
    <i name="e_fr_energy">    -18.44040659 </i>
    <i name="e_wo_entrp">    -18.44040659 </i>
    <i name="e_0_energy">    -18.44040659 </i>
   </energy>
  </scstep>
  <scstep>
   <time name="dav">    0.58    0.58</time>
   <time name="total">    0.61    0.61</time>
   <energy>
    <i name="e_fr_energy">    -18.44046377 </i>
    <i name="e_wo_entrp">    -18.44046377 </i>
    <i name="e_0_energy">    -18.44046377 </i>
   </energy>
  </scstep>
  <scstep>
   <time name="dav">    0.48    0.48</time>
   <time name="total">    0.50    0.50</time>
   <energy>
    <i name="e_fr_energy">    -18.44055551 </i>
    <i name="e_wo_entrp">    -18.44055551 </i>
    <i name="e_0_energy">    -18.44055551 </i>
   </energy>
  </scstep>
  <scstep>
   <time name="dav">    0.49    0.49</time>
   <time name="total">    0.50    0.50</time>
   <energy>
    <i name="alphaZ">      4.10177475 </i>
    <i name="ewald">    821.31671598 </i>
    <i name="hartreedc">  -1073.18675032 </i>
    <i name="XCdc">     27.41778672 </i>
    <i name="pawpsdc">    809.25344839 </i>
    <i name="pawaedc">   -810.61106311 </i>
    <i name="eentropy">     -0.00000000 </i>
    <i name="bandstr">    -91.03026234 </i>
    <i name="atom">    294.29778662 </i>
    <i name="e_fr_energy">    -18.44056330 </i>
    <i name="e_wo_entrp">    -18.44056330 </i>
    <i name="e_0_energy">    -18.44056330 </i>
   </energy>
  </scstep>
  <structure>
   <crystal>
    <varray name="basis" >
     <v>       2.49867200       0.00000000       0.00000000 </v>
     <v>      -1.24933600       2.13736100       0.00000000 </v>
     <v>       0.00000000       0.00000000      15.00000000 </v>
    </varray>
    <i name="volume">     80.10846127 </i>
    <varray name="rec_basis" >
     <v>       0.40021259       0.23393334       0.00000000 </v>
     <v>       0.00000000       0.46786668       0.00000000 </v>
     <v>       0.00000000       0.00000000       0.06666667 </v>
    </varray>
   </crystal>
   <varray name="positions" >
    <v>       0.00006686       0.00013373       0.50000000 </v>
    <v>       0.33326614       0.66653327       0.50000000 </v>
   </varray>
  </structure>
  <varray name="forces" >
   <v>      -0.00000000      -0.12640346       0.00000000 </v>
   <v>       0.00000000       0.12640346       0.00000000 </v>
  </varray>
  <varray name="stress" >
   <v>     -27.93536465       0.00000000       0.00000000 </v>
   <v>       0.00000000      -4.72223798       0.00000000 </v>
   <v>       0.00000000       0.00000000      -0.07121915 </v>
  </varray>
  <energy>
   <i name="e_fr_energy">    -18.44056330 </i>
   <i name="e_wo_entrp">    -18.44056330 </i>
   <i name="e_0_energy">     -0.00000000 </i>
  </energy>
  <time name="totalsc">    9.61    9.64</time>
  <eigenvalues>
   <array>
    <dimension dim="1">band</dimension>
    <dimension dim="2">kpoint</dimension>
    <dimension dim="3">spin</dimension>
    <field>eigene</field>
    <field>occ</field>
    <set>
     <set comment="spin 1">
      <set comment="kpoint 1">
       <r>  -21.6684    1.0000 </r>
       <r>   -9.7977    1.0000 </r>
       <r>   -5.3748    1.0000 </r>
       <r>   -5.3435    1.0000 </r>
       <r>    0.9995    0.0000 </r>
       <r>    1.9096    0.0000 </r>
       <r>    2.3713    0.0000 </r>
       <r>    4.3293    0.0000 </r>
       <r>    5.0720    0.0000 </r>
       <r>    5.7148    0.0000 </r>
       <r>    5.9907    0.0000 </r>
       <r>    8.2044    0.0000 </r>
      </set>
      <set comment="kpoint 2">
       <r>  -21.6281    1.0000 </r>
       <r>   -9.7499    1.0000 </r>
       <r>   -5.5386    1.0000 </r>
       <r>   -5.4353    1.0000 </r>
       <r>    1.0541    0.0000 </r>
       <r>    1.9646    0.0000 </r>
       <r>    2.4270    0.0000 </r>
       <r>    4.3840    0.0000 </r>
       <r>    5.1246    0.0000 </r>
       <r>    5.7766    0.0000 </r>
       <r>    6.1389    0.0000 </r>
       <r>    8.2573    0.0000 </r>
      </set>
      <set comment="kpoint 3">
       <r>  -21.5073    1.0000 </r>
       <r>   -9.6066    1.0000 </r>
       <r>   -6.0218    1.0000 </r>
       <r>   -5.6747    1.0000 </r>
       <r>    1.2179    0.0000 </r>
       <r>    2.1296    0.0000 </r>
       <r>    2.5938    0.0000 </r>
       <r>    4.5479    0.0000 </r>
       <r>    5.2821    0.0000 </r>
       <r>    5.8814    0.0000 </r>
       <r>    6.6116    0.0000 </r>
       <r>    8.2908    0.0000 </r>
      </set>
      <set comment="kpoint 4">
       <r>  -21.3065    1.0000 </r>
       <r>   -9.3689    1.0000 </r>
       <r>   -6.7538    1.0000 </r>
       <r>   -6.0239    1.0000 </r>
       <r>    1.4909    0.0000 </r>
       <r>    2.4042    0.0000 </r>
       <r>    2.8720    0.0000 </r>
       <r>    4.8206    0.0000 </r>
       <r>    5.5378    0.0000 </r>
       <r>    5.9512    0.0000 </r>
       <r>    7.3782    0.0000 </r>
       <r>    7.6514    0.0000 </r>
      </set>
      <set comment="kpoint 5">
       <r>  -21.0260    1.0000 </r>
       <r>   -9.0386    1.0000 </r>
       <r>   -7.6586    1.0000 </r>
       <r>   -6.4350    1.0000 </r>
       <r>    1.8730    0.0000 </r>
       <r>    2.7878    0.0000 </r>
       <r>    3.2614    0.0000 </r>
       <r>    5.1999    0.0000 </r>
       <r>    5.7946    0.0000 </r>
       <r>    6.0495    0.0000 </r>
       <r>    6.8236    0.0000 </r>
       <r>    8.3735    0.0000 </r>
      </set>
      <set comment="kpoint 6">
       <r>  -20.6669    1.0000 </r>
       <r>   -8.6710    1.0000 </r>
       <r>   -8.6185    1.0000 </r>
       <r>   -6.8653    1.0000 </r>
       <r>    2.3639    0.0000 </r>
       <r>    3.2780    0.0000 </r>
       <r>    3.7618    0.0000 </r>
       <r>    5.6358    0.0000 </r>
       <r>    5.7661    0.0000 </r>
       <r>    5.9073    0.0000 </r>
       <r>    6.4696    0.0000 </r>
       <r>    9.5185    0.0000 </r>
      </set>
      <set comment="kpoint 7">
       <r>  -20.2304    1.0000 </r>
       <r>   -9.7411    1.0000 </r>
       <r>   -8.1131    1.0000 </r>
       <r>   -7.2824    1.0000 </r>
       <r>    2.9628    0.0000 </r>
       <r>    3.8575    0.0000 </r>
       <r>    4.3727    0.0000 </r>
       <r>    4.7861    0.0000 </r>
       <r>    5.6352    0.0000 </r>
       <r>    6.3070    0.0000 </r>
       <r>    7.0572    0.0000 </r>
       <r>   10.0855    0.0000 </r>
      </set>
      <set comment="kpoint 8">
       <r>  -19.7183    1.0000 </r>
       <r>  -10.8319    1.0000 </r>
       <r>   -7.6630    1.0000 </r>
       <r>   -7.5296    1.0000 </r>
       <r>    3.5944    0.0000 </r>
       <r>    3.6683    0.0000 </r>
       <r>    4.6404    0.0000 </r>
       <r>    5.0875    0.0000 </r>
       <r>    5.4893    0.0000 </r>
       <r>    7.0073    0.0000 </r>
       <r>    7.7604    0.0000 </r>
       <r>   10.7423    0.0000 </r>
      </set>
      <set comment="kpoint 9">
       <r>  -19.1334    1.0000 </r>
       <r>  -11.9162    1.0000 </r>
       <r>   -7.9910    1.0000 </r>
       <r>   -6.8807    1.0000 </r>
       <r>    2.4834    0.0000 </r>
       <r>    4.4747    0.0000 </r>
       <r>    5.3247    0.0000 </r>
       <r>    5.4375    0.0000 </r>
       <r>    5.9421    0.0000 </r>
       <r>    7.8149    0.0000 </r>
       <r>    8.5726    0.0000 </r>
       <r>   11.4717    0.0000 </r>
      </set>
      <set comment="kpoint 10">
       <r>  -18.4807    1.0000 </r>
       <r>  -12.9719    1.0000 </r>
       <r>   -8.2552    1.0000 </r>
       <r>   -6.1895    1.0000 </r>
       <r>    1.3948    0.0000 </r>
       <r>    5.1342    0.0000 </r>
       <r>    5.4585    0.0000 </r>
       <r>    6.3564    0.0000 </r>
       <r>    6.8820    0.0000 </r>
       <r>    8.7231    0.0000 </r>
       <r>    9.4906    0.0000 </r>
       <r>   12.2104    0.0000 </r>
      </set>
      <set comment="kpoint 11">
       <r>  -17.7711    1.0000 </r>
       <r>  -13.9766    1.0000 </r>
       <r>   -8.4486    1.0000 </r>
       <r>   -5.5048    1.0000 </r>
       <r>    0.4114    0.0000 </r>
       <r>    5.0729    0.0000 </r>
       <r>    6.4434    0.0000 </r>
       <r>    7.3791    0.0000 </r>
       <r>    7.9358    0.0000 </r>
       <r>    9.7219    0.0000 </r>
       <r>   10.5088    0.0000 </r>
       <r>   11.3661    0.0000 </r>
      </set>
      <set comment="kpoint 12">
       <r>  -17.0442    1.0000 </r>
       <r>  -14.8833    1.0000 </r>
       <r>   -8.5663    1.0000 </r>
       <r>   -4.9369    1.0000 </r>
       <r>   -0.3413    0.0000 </r>
       <r>    5.0148    0.0000 </r>
       <r>    7.5596    0.0000 </r>
       <r>    8.4960    0.0000 </r>
       <r>    9.0988    0.0000 </r>
       <r>   10.0586    0.0000 </r>
       <r>   10.7023    0.0000 </r>
       <r>   11.1071    0.0000 </r>
      </set>
      <set comment="kpoint 13">
       <r>  -16.5857    1.0000 </r>
       <r>  -15.4022    1.0000 </r>
       <r>   -8.6058    1.0000 </r>
       <r>   -4.6971    1.0000 </r>
       <r>   -0.6436    0.0000 </r>
       <r>    4.9946    0.0000 </r>
       <r>    8.6907    0.0000 </r>
       <r>    8.8539    0.0000 </r>
       <r>    9.5861    0.0000 </r>
       <r>    9.8178    0.0000 </r>
       <r>   10.3583    0.0000 </r>
       <r>   10.3852    0.0000 </r>
      </set>
      <set comment="kpoint 14">
       <r>  -21.6273    1.0000 </r>
       <r>   -9.7488    1.0000 </r>
       <r>   -5.5069    1.0000 </r>
       <r>   -5.4662    1.0000 </r>
       <r>    1.0552    0.0000 </r>
       <r>    1.9657    0.0000 </r>
       <r>    2.4280    0.0000 </r>
       <r>    4.3850    0.0000 </r>
       <r>    5.1264    0.0000 </r>
       <r>    5.8952    0.0000 </r>
       <r>    5.9895    0.0000 </r>
       <r>    8.2584    0.0000 </r>
      </set>
      <set comment="kpoint 15">
       <r>  -21.5460    1.0000 </r>
       <r>   -9.6523    1.0000 </r>
       <r>   -5.8402    1.0000 </r>
       <r>   -5.6214    1.0000 </r>
       <r>    1.1655    0.0000 </r>
       <r>    2.0767    0.0000 </r>
       <r>    2.5403    0.0000 </r>
       <r>    4.4954    0.0000 </r>
       <r>    5.2336    0.0000 </r>
       <r>    5.9718    0.0000 </r>
       <r>    6.2746    0.0000 </r>
       <r>    8.3642    0.0000 </r>
      </set>
      <set comment="kpoint 16">
       <r>  -21.3844    1.0000 </r>
       <r>   -9.4608    1.0000 </r>
       <r>   -6.4428    1.0000 </r>
       <r>   -5.9202    1.0000 </r>
       <r>    1.3850    0.0000 </r>
       <r>    2.2976    0.0000 </r>
       <r>    2.7639    0.0000 </r>
       <r>    4.7148    0.0000 </r>
       <r>    5.4453    0.0000 </r>
       <r>    6.0520    0.0000 </r>
       <r>    6.8517    0.0000 </r>
       <r>    7.9070    0.0000 </r>
      </set>
      <set comment="kpoint 17">
       <r>  -21.1430    1.0000 </r>
       <r>   -9.1758    1.0000 </r>
       <r>   -7.2492    1.0000 </r>
       <r>   -6.3124    1.0000 </r>
       <r>    1.7137    0.0000 </r>
       <r>    2.6278    0.0000 </r>
       <r>    3.0988    0.0000 </r>
       <r>    5.0423    0.0000 </r>
       <r>    5.7483    0.0000 </r>
       <r>    6.1059    0.0000 </r>
       <r>    7.1754    0.0000 </r>
       <r>    7.6467    0.0000 </r>
      </set>
      <set comment="kpoint 18">
       <r>  -20.8224    1.0000 </r>
       <r>   -8.7995    1.0000 </r>
       <r>   -8.1954    1.0000 </r>
       <r>   -6.7462    1.0000 </r>
       <r>    2.1514    0.0000 </r>
       <r>    3.0662    0.0000 </r>
       <r>    3.5449    0.0000 </r>
       <r>    5.4715    0.0000 </r>
       <r>    5.9505    0.0000 </r>
       <r>    6.2868    0.0000 </r>
       <r>    6.2880    0.0000 </r>
       <r>    8.6238    0.0000 </r>
      </set>
      <set comment="kpoint 19">
       <r>  -20.4238    1.0000 </r>
       <r>   -9.2261    1.0000 </r>
       <r>   -8.3355    1.0000 </r>
       <r>   -7.1815    1.0000 </r>
       <r>    2.6975    0.0000 </r>
       <r>    3.6074    0.0000 </r>
       <r>    4.1019    0.0000 </r>
       <r>    5.2485    0.0000 </r>
       <r>    5.8703    0.0000 </r>
       <r>    6.0453    0.0000 </r>
       <r>    6.7966    0.0000 </r>
       <r>    9.8316    0.0000 </r>
      </set>
      <set comment="kpoint 20">
       <r>  -19.9487    1.0000 </r>
       <r>  -10.2985    1.0000 </r>
       <r>   -7.7895    1.0000 </r>
       <r>   -7.5900    1.0000 </r>
       <r>    3.3513    0.0000 </r>
       <r>    4.0286    0.0000 </r>
       <r>    4.4019    0.0000 </r>
       <r>    4.7686    0.0000 </r>
       <r>    5.7297    0.0000 </r>
       <r>    6.6879    0.0000 </r>
       <r>    7.4432    0.0000 </r>
       <r>   10.4420    0.0000 </r>
      </set>
      <set comment="kpoint 21">
       <r>  -19.3993    1.0000 </r>
       <r>  -11.3801    1.0000 </r>
       <r>   -7.9520    1.0000 </r>
       <r>   -7.1709    1.0000 </r>
       <r>    3.0077    0.0000 </r>
       <r>    4.1106    0.0000 </r>
       <r>    5.0652    0.0000 </r>
       <r>    5.4959    0.0000 </r>
       <r>    5.6314    0.0000 </r>
       <r>    7.4431    0.0000 </r>
       <r>    8.2020    0.0000 </r>
       <r>   11.1314    0.0000 </r>
      </set>
      <set comment="kpoint 22">
       <r>  -18.7793    1.0000 </r>
       <r>  -12.4460    1.0000 </r>
       <r>   -8.2545    1.0000 </r>
       <r>   -6.4966    1.0000 </r>
       <r>    1.9035    0.0000 </r>
       <r>    4.9613    0.0000 </r>
       <r>    5.4460    0.0000 </r>
       <r>    5.9294    0.0000 </r>
       <r>    6.4484    0.0000 </r>
       <r>    8.3006    0.0000 </r>
       <r>    9.0682    0.0000 </r>
       <r>   11.8625    0.0000 </r>
      </set>
      <set comment="kpoint 23">
       <r>  -18.0959    1.0000 </r>
       <r>  -13.4743    1.0000 </r>
       <r>   -8.4887    1.0000 </r>
       <r>   -5.7999    1.0000 </r>
       <r>    0.8626    0.0000 </r>
       <r>    5.2893    0.0000 </r>
       <r>    5.9781    0.0000 </r>
       <r>    6.9005    0.0000 </r>
       <r>    7.4470    0.0000 </r>
       <r>    9.2525    0.0000 </r>
       <r>   10.0380    0.0000 </r>
       <r>   11.9309    0.0000 </r>
      </set>
      <set comment="kpoint 24">
       <r>  -17.3686    1.0000 </r>
       <r>  -14.4357    1.0000 </r>
       <r>   -8.6488    1.0000 </r>
       <r>   -5.1541    1.0000 </r>
       <r>   -0.0217    0.0000 </r>
       <r>    5.2214    0.0000 </r>
       <r>    7.0400    0.0000 </r>
       <r>    7.9691    0.0000 </r>
       <r>    8.5567    0.0000 </r>
       <r>   10.2732    0.0000 </r>
       <r>   10.7122    0.0000 </r>
       <r>   11.1164    0.0000 </r>
      </set>
      <set comment="kpoint 25">
       <r>  -16.6989    1.0000 </r>
       <r>  -15.2229    1.0000 </r>
       <r>   -8.7314    1.0000 </r>
       <r>   -4.7212    1.0000 </r>
       <r>   -0.5761    0.0000 </r>
       <r>    5.1840    0.0000 </r>
       <r>    8.2021    0.0000 </r>
       <r>    9.1162    0.0000 </r>
       <r>    9.4296    0.0000 </r>
       <r>    9.7789    0.0000 </r>
       <r>   10.3276    0.0000 </r>
       <r>   11.0731    0.0000 </r>
      </set>
      <set comment="kpoint 26">
       <r>  -16.7102    1.0000 </r>
       <r>  -15.2096    1.0000 </r>
       <r>   -8.7349    1.0000 </r>
       <r>   -4.7264    1.0000 </r>
       <r>   -0.5701    0.0000 </r>
       <r>    5.1866    0.0000 </r>
       <r>    8.1771    0.0000 </r>
       <r>    9.0928    0.0000 </r>
       <r>    9.4586    0.0000 </r>
       <r>    9.7549    0.0000 </r>
       <r>   10.3497    0.0000 </r>
       <r>   11.1005    0.0000 </r>
      </set>
      <set comment="kpoint 27">
       <r>  -17.3842    1.0000 </r>
       <r>  -14.4140    1.0000 </r>
       <r>   -8.6593    1.0000 </r>
       <r>   -5.1661    1.0000 </r>
       <r>   -0.0074    0.0000 </r>
       <r>    5.2286    0.0000 </r>
       <r>    7.0182    0.0000 </r>
       <r>    7.9467    0.0000 </r>
       <r>    8.5347    0.0000 </r>
       <r>   10.2512    0.0000 </r>
       <r>   10.7501    0.0000 </r>
       <r>   11.0942    0.0000 </r>
      </set>
      <set comment="kpoint 28">
       <r>  -18.1107    1.0000 </r>
       <r>  -13.4494    1.0000 </r>
       <r>   -8.5060    1.0000 </r>
       <r>   -5.8143    1.0000 </r>
       <r>    0.8804    0.0000 </r>
       <r>    5.2990    0.0000 </r>
       <r>    5.9609    0.0000 </r>
       <r>    6.8800    0.0000 </r>
       <r>    7.4273    0.0000 </r>
       <r>    9.2315    0.0000 </r>
       <r>   10.0177    0.0000 </r>
       <r>   12.0065    0.0000 </r>
      </set>
      <set comment="kpoint 29">
       <r>  -18.7926    1.0000 </r>
       <r>  -12.4184    1.0000 </r>
       <r>   -8.2785    1.0000 </r>
       <r>   -6.5112    1.0000 </r>
       <r>    1.9219    0.0000 </r>
       <r>    4.9423    0.0000 </r>
       <r>    5.4631    0.0000 </r>
       <r>    5.9108    0.0000 </r>
       <r>    6.4311    0.0000 </r>
       <r>    8.2817    0.0000 </r>
       <r>    9.0505    0.0000 </r>
       <r>   11.8401    0.0000 </r>
      </set>
      <set comment="kpoint 30">
       <r>  -19.4110    1.0000 </r>
       <r>  -11.3501    1.0000 </r>
       <r>   -7.9821    1.0000 </r>
       <r>   -7.1846    1.0000 </r>
       <r>    3.0249    0.0000 </r>
       <r>    4.0940    0.0000 </r>
       <r>    5.0486    0.0000 </r>
       <r>    5.4897    0.0000 </r>
       <r>    5.6408    0.0000 </r>
       <r>    7.4264    0.0000 </r>
       <r>    8.1869    0.0000 </r>
       <r>   11.1121    0.0000 </r>
      </set>
      <set comment="kpoint 31">
       <r>  -19.9588    1.0000 </r>
       <r>  -10.2665    1.0000 </r>
       <r>   -7.8017    1.0000 </r>
       <r>   -7.6254    1.0000 </r>
       <r>    3.3371    0.0000 </r>
       <r>    4.0374    0.0000 </r>
       <r>    4.3932    0.0000 </r>
       <r>    4.7547    0.0000 </r>
       <r>    5.7468    0.0000 </r>
       <r>    6.6732    0.0000 </r>
       <r>    7.4308    0.0000 </r>
       <r>   10.4257    0.0000 </r>
      </set>
      <set comment="kpoint 32">
       <r>  -20.4324    1.0000 </r>
       <r>   -9.1928    1.0000 </r>
       <r>   -8.3461    1.0000 </r>
       <r>   -7.2206    1.0000 </r>
       <r>    2.6855    0.0000 </r>
       <r>    3.5967    0.0000 </r>
       <r>    4.0901    0.0000 </r>
       <r>    5.2580    0.0000 </r>
       <r>    5.8786    0.0000 </r>
       <r>    6.0320    0.0000 </r>
       <r>    6.7878    0.0000 </r>
       <r>    9.8182    0.0000 </r>
      </set>
      <set comment="kpoint 33">
       <r>  -20.8294    1.0000 </r>
       <r>   -8.8083    1.0000 </r>
       <r>   -8.1626    1.0000 </r>
       <r>   -6.7858    1.0000 </r>
       <r>    2.1416    0.0000 </r>
       <r>    3.0569    0.0000 </r>
       <r>    3.5353    0.0000 </r>
       <r>    5.4633    0.0000 </r>
       <r>    5.9379    0.0000 </r>
       <r>    6.2847    0.0000 </r>
       <r>    6.2893    0.0000 </r>
       <r>    8.9223    0.0000 </r>
      </set>
      <set comment="kpoint 34">
       <r>  -21.1484    1.0000 </r>
       <r>   -9.1827    1.0000 </r>
       <r>   -7.2211    1.0000 </r>
       <r>   -6.3471    1.0000 </r>
       <r>    1.7061    0.0000 </r>
       <r>    2.6205    0.0000 </r>
       <r>    3.0913    0.0000 </r>
       <r>    5.0351    0.0000 </r>
       <r>    5.7321    0.0000 </r>
       <r>    6.0755    0.0000 </r>
       <r>    7.1750    0.0000 </r>
       <r>    7.9128    0.0000 </r>
      </set>
      <set comment="kpoint 35">
       <r>  -21.3883    1.0000 </r>
       <r>   -9.4658    1.0000 </r>
       <r>   -6.4274    1.0000 </r>
       <r>   -5.9407    1.0000 </r>
       <r>    1.3795    0.0000 </r>
       <r>    2.2924    0.0000 </r>
       <r>    2.7586    0.0000 </r>
       <r>    4.7096    0.0000 </r>
       <r>    5.4355    0.0000 </r>
       <r>    5.9671    0.0000 </r>
       <r>    7.1006    0.0000 </r>
       <r>    7.9043    0.0000 </r>
      </set>
      <set comment="kpoint 36">
       <r>  -21.5484    1.0000 </r>
       <r>   -9.6553    1.0000 </r>
       <r>   -5.8496    1.0000 </r>
       <r>   -5.6148    1.0000 </r>
       <r>    1.1622    0.0000 </r>
       <r>    2.0736    0.0000 </r>
       <r>    2.5371    0.0000 </r>
       <r>    4.4922    0.0000 </r>
       <r>    5.2279    0.0000 </r>
       <r>    5.8310    0.0000 </r>
       <r>    6.5105    0.0000 </r>
       <r>    8.3620    0.0000 </r>
      </set>
      <set comment="kpoint 37">
       <r>  -21.5043    1.0000 </r>
       <r>   -9.6026    1.0000 </r>
       <r>   -5.9736    1.0000 </r>
       <r>   -5.7210    1.0000 </r>
       <r>    1.2223    0.0000 </r>
       <r>    2.1338    0.0000 </r>
       <r>    2.5981    0.0000 </r>
       <r>    4.5522    0.0000 </r>
       <r>    5.2888    0.0000 </r>
       <r>    5.9683    0.0000 </r>
       <r>    6.4158    0.0000 </r>
       <r>    8.4201    0.0000 </r>
      </set>
      <set comment="kpoint 38">
       <r>  -21.3822    1.0000 </r>
       <r>   -9.4578    1.0000 </r>
       <r>   -6.4017    1.0000 </r>
       <r>   -5.9617    1.0000 </r>
       <r>    1.3883    0.0000 </r>
       <r>    2.3008    0.0000 </r>
       <r>    2.7671    0.0000 </r>
       <r>    4.7180    0.0000 </r>
       <r>    5.4492    0.0000 </r>
       <r>    6.0416    0.0000 </r>
       <r>    6.8000    0.0000 </r>
       <r>    7.9132    0.0000 </r>
      </set>
      <set comment="kpoint 39">
       <r>  -21.1800    1.0000 </r>
       <r>   -9.2189    1.0000 </r>
       <r>   -7.0407    1.0000 </r>
       <r>   -6.3431    1.0000 </r>
       <r>    1.6635    0.0000 </r>
       <r>    2.5773    0.0000 </r>
       <r>    3.0475    0.0000 </r>
       <r>    4.9926    0.0000 </r>
       <r>    5.7157    0.0000 </r>
       <r>    6.2578    0.0000 </r>
       <r>    7.2355    0.0000 </r>
       <r>    7.3044    0.0000 </r>
      </set>
      <set comment="kpoint 40">
       <r>  -20.8984    1.0000 </r>
       <r>   -8.8877    1.0000 </r>
       <r>   -7.8477    1.0000 </r>
       <r>   -6.8001    1.0000 </r>
       <r>    2.0479    0.0000 </r>
       <r>    2.9627    0.0000 </r>
       <r>    3.4391    0.0000 </r>
       <r>    5.3741    0.0000 </r>
       <r>    6.0750    0.0000 </r>
       <r>    6.4449    0.0000 </r>
       <r>    6.5164    0.0000 </r>
       <r>    7.8197    0.0000 </r>
      </set>
      <set comment="kpoint 41">
       <r>  -20.5384    1.0000 </r>
       <r>   -8.7795    1.0000 </r>
       <r>   -8.4671    1.0000 </r>
       <r>   -7.2728    1.0000 </r>
       <r>    2.5411    0.0000 </r>
       <r>    3.4550    0.0000 </r>
       <r>    3.9420    0.0000 </r>
       <r>    5.5698    0.0000 </r>
       <r>    5.8870    0.0000 </r>
       <r>    6.3407    0.0000 </r>
       <r>    6.6822    0.0000 </r>
       <r>    8.6329    0.0000 </r>
      </set>
      <set comment="kpoint 42">
       <r>  -20.1011    1.0000 </r>
       <r>   -9.7895    1.0000 </r>
       <r>   -7.9615    1.0000 </r>
       <r>   -7.7233    1.0000 </r>
       <r>    3.1424    0.0000 </r>
       <r>    4.0311    0.0000 </r>
       <r>    4.5557    0.0000 </r>
       <r>    4.5877    0.0000 </r>
       <r>    6.2897    0.0000 </r>
       <r>    6.4709    0.0000 </r>
       <r>    7.2403    0.0000 </r>
       <r>    9.6143    0.0000 </r>
      </set>
      <set comment="kpoint 43">
       <r>  -19.5885    1.0000 </r>
       <r>  -10.8374    1.0000 </r>
       <r>   -8.1287    1.0000 </r>
       <r>   -7.3781    1.0000 </r>
       <r>    3.4569    0.0000 </r>
       <r>    3.8508    0.0000 </r>
       <r>    4.7947    0.0000 </r>
       <r>    5.2789    0.0000 </r>
       <r>    6.1629    0.0000 </r>
       <r>    7.1722    0.0000 </r>
       <r>    7.9408    0.0000 </r>
       <r>   10.8657    0.0000 </r>
      </set>
      <set comment="kpoint 44">
       <r>  -19.0036    1.0000 </r>
       <r>  -11.8911    1.0000 </r>
       <r>   -8.4752    1.0000 </r>
       <r>   -6.7294    1.0000 </r>
       <r>    2.3713    0.0000 </r>
       <r>    4.6639    0.0000 </r>
       <r>    5.6028    0.0000 </r>
       <r>    5.9902    0.0000 </r>
       <r>    6.1501    0.0000 </r>
       <r>    7.9749    0.0000 </r>
       <r>    8.7531    0.0000 </r>
       <r>   11.5399    0.0000 </r>
      </set>
      <set comment="kpoint 45">
       <r>  -18.3513    1.0000 </r>
       <r>  -12.9248    1.0000 </r>
       <r>   -8.7535    1.0000 </r>
       <r>   -6.0381    1.0000 </r>
       <r>    1.3113    0.0000 </r>
       <r>    5.5613    0.0000 </r>
       <r>    5.9156    0.0000 </r>
       <r>    6.5192    0.0000 </r>
       <r>    7.0698    0.0000 </r>
       <r>    8.8707    0.0000 </r>
       <r>    9.6710    0.0000 </r>
       <r>   12.1188    0.0000 </r>
      </set>
      <set comment="kpoint 46">
       <r>  -17.6432    1.0000 </r>
       <r>  -13.9129    1.0000 </r>
       <r>   -8.9579    1.0000 </r>
       <r>   -5.3526    1.0000 </r>
       <r>    0.3489    0.0000 </r>
       <r>    5.7780    0.0000 </r>
       <r>    6.6277    0.0000 </r>
       <r>    7.5322    0.0000 </r>
       <r>    8.1246    0.0000 </r>
       <r>    9.8378    0.0000 </r>
       <r>   10.6857    0.0000 </r>
       <r>   11.3541    0.0000 </r>
      </set>
      <set comment="kpoint 47">
       <r>  -16.9205    1.0000 </r>
       <r>  -14.8054    1.0000 </r>
       <r>   -9.0845    1.0000 </r>
       <r>   -4.7836    1.0000 </r>
       <r>   -0.3909    0.0000 </r>
       <r>    5.7269    0.0000 </r>
       <r>    7.7395    0.0000 </r>
       <r>    8.6242    0.0000 </r>
       <r>    9.2884    0.0000 </r>
       <r>   10.1480    0.0000 </r>
       <r>   10.6537    0.0000 </r>
       <r>   11.2552    0.0000 </r>
      </set>
      <set comment="kpoint 48">
       <r>  -16.4805    1.0000 </r>
       <r>  -15.2998    1.0000 </r>
       <r>   -9.1314    1.0000 </r>
       <r>   -4.5492    1.0000 </r>
       <r>   -0.6822    0.0000 </r>
       <r>    5.7114    0.0000 </r>
       <r>    8.8283    0.0000 </r>
       <r>    9.0105    0.0000 </r>
       <r>    9.5614    0.0000 </r>
       <r>    9.9868    0.0000 </r>
       <r>   10.5063    0.0000 </r>
       <r>   10.5658    0.0000 </r>
      </set>
      <set comment="kpoint 49">
       <r>  -16.9504    1.0000 </r>
       <r>  -14.7673    1.0000 </r>
       <r>   -9.0977    1.0000 </r>
       <r>   -4.8026    1.0000 </r>
       <r>   -0.3692    0.0000 </r>
       <r>    5.7356    0.0000 </r>
       <r>    7.6929    0.0000 </r>
       <r>    8.5785    0.0000 </r>
       <r>    9.2421    0.0000 </r>
       <r>   10.2156    0.0000 </r>
       <r>   10.6410    0.0000 </r>
       <r>   11.2673    0.0000 </r>
      </set>
      <set comment="kpoint 50">
       <r>  -17.6740    1.0000 </r>
       <r>  -13.8657    1.0000 </r>
       <r>   -8.9842    1.0000 </r>
       <r>   -5.3801    1.0000 </r>
       <r>    0.3815    0.0000 </r>
       <r>    5.7925    0.0000 </r>
       <r>    6.5893    0.0000 </r>
       <r>    7.4893    0.0000 </r>
       <r>    8.0828    0.0000 </r>
       <r>    9.7948    0.0000 </r>
       <r>   10.6431    0.0000 </r>
       <r>   11.4616    0.0000 </r>
      </set>
      <set comment="kpoint 51">
       <r>  -18.3796    1.0000 </r>
       <r>  -12.8719    1.0000 </r>
       <r>   -8.7927    1.0000 </r>
       <r>   -6.0676    1.0000 </r>
       <r>    1.3469    0.0000 </r>
       <r>    5.5214    0.0000 </r>
       <r>    5.9430    0.0000 </r>
       <r>    6.4802    0.0000 </r>
       <r>    7.0329    0.0000 </r>
       <r>    8.8309    0.0000 </r>
       <r>    9.6331    0.0000 </r>
       <r>   12.0772    0.0000 </r>
      </set>
      <set comment="kpoint 52">
       <r>  -19.0287    1.0000 </r>
       <r>  -11.8333    1.0000 </r>
       <r>   -8.5264    1.0000 </r>
       <r>   -6.7578    1.0000 </r>
       <r>    2.4056    0.0000 </r>
       <r>    4.6286    0.0000 </r>
       <r>    5.5678    0.0000 </r>
       <r>    5.9981    0.0000 </r>
       <r>    6.1407    0.0000 </r>
       <r>    7.9394    0.0000 </r>
       <r>    8.7205    0.0000 </r>
       <r>   11.4983    0.0000 </r>
      </set>
      <set comment="kpoint 53">
       <r>  -19.6104    1.0000 </r>
       <r>  -10.7753    1.0000 </r>
       <r>   -8.1907    1.0000 </r>
       <r>   -7.4043    1.0000 </r>
       <r>    3.4868    0.0000 </r>
       <r>    3.8203    0.0000 </r>
       <r>    4.7633    0.0000 </r>
       <r>    5.2489    0.0000 </r>
       <r>    6.1932    0.0000 </r>
       <r>    7.1410    0.0000 </r>
       <r>    7.9138    0.0000 </r>
       <r>   10.8305    0.0000 </r>
      </set>
      <set comment="kpoint 54">
       <r>  -20.1198    1.0000 </r>
       <r>   -9.7251    1.0000 </r>
       <r>   -7.9845    1.0000 </r>
       <r>   -7.7927    1.0000 </r>
       <r>    3.1163    0.0000 </r>
       <r>    4.0122    0.0000 </r>
       <r>    4.5301    0.0000 </r>
       <r>    4.6021    0.0000 </r>
       <r>    6.3064    0.0000 </r>
       <r>    6.4438    0.0000 </r>
       <r>    7.2204    0.0000 </r>
       <r>   10.2027    0.0000 </r>
      </set>
      <set comment="kpoint 55">
       <r>  -20.5539    1.0000 </r>
       <r>   -8.7175    1.0000 </r>
       <r>   -8.4866    1.0000 </r>
       <r>   -7.3430    1.0000 </r>
       <r>    2.5193    0.0000 </r>
       <r>    3.4347    0.0000 </r>
       <r>    3.9207    0.0000 </r>
       <r>    5.5837    0.0000 </r>
       <r>    5.8613    0.0000 </r>
       <r>    6.3221    0.0000 </r>
       <r>    6.6757    0.0000 </r>
       <r>    9.1129    0.0000 </r>
      </set>
      <set comment="kpoint 56">
       <r>  -20.9108    1.0000 </r>
       <r>   -8.9036    1.0000 </r>
       <r>   -7.7994    1.0000 </r>
       <r>   -6.8577    1.0000 </r>
       <r>    2.0305    0.0000 </r>
       <r>    2.9461    0.0000 </r>
       <r>    3.4221    0.0000 </r>
       <r>    5.3580    0.0000 </r>
       <r>    6.0450    0.0000 </r>
       <r>    6.4135    0.0000 </r>
       <r>    6.5164    0.0000 </r>
       <r>    8.2806    0.0000 </r>
      </set>
      <set comment="kpoint 57">
       <r>  -21.1892    1.0000 </r>
       <r>   -9.2309    1.0000 </r>
       <r>   -7.0239    1.0000 </r>
       <r>   -6.3676    1.0000 </r>
       <r>    1.6504    0.0000 </r>
       <r>    2.5647    0.0000 </r>
       <r>    3.0347    0.0000 </r>
       <r>    4.9801    0.0000 </r>
       <r>    5.6950    0.0000 </r>
       <r>    6.1935    0.0000 </r>
       <r>    7.2981    0.0000 </r>
       <r>    7.6387    0.0000 </r>
      </set>
      <set comment="kpoint 58">
       <r>  -21.2996    1.0000 </r>
       <r>   -9.3598    1.0000 </r>
       <r>   -6.6851    1.0000 </r>
       <r>   -6.0924    1.0000 </r>
       <r>    1.5007    0.0000 </r>
       <r>    2.4137    0.0000 </r>
       <r>    2.8815    0.0000 </r>
       <r>    4.8303    0.0000 </r>
       <r>    5.5482    0.0000 </r>
       <r>    5.9064    0.0000 </r>
       <r>    7.2260    0.0000 </r>
       <r>    7.6661    0.0000 </r>
      </set>
      <set comment="kpoint 59">
       <r>  -21.1369    1.0000 </r>
       <r>   -9.1676    1.0000 </r>
       <r>   -7.1737    1.0000 </r>
       <r>   -6.3923    1.0000 </r>
       <r>    1.7223    0.0000 </r>
       <r>    2.6364    0.0000 </r>
       <r>    3.1073    0.0000 </r>
       <r>    5.0513    0.0000 </r>
       <r>    5.7437    0.0000 </r>
       <r>    6.0097    0.0000 </r>
       <r>    7.1904    0.0000 </r>
       <r>    7.6400    0.0000 </r>
      </set>
      <set comment="kpoint 60">
       <r>  -20.8946    1.0000 </r>
       <r>   -8.8825    1.0000 </r>
       <r>   -7.7963    1.0000 </r>
       <r>   -6.8564    1.0000 </r>
       <r>    2.0532    0.0000 </r>
       <r>    2.9682    0.0000 </r>
       <r>    3.4444    0.0000 </r>
       <r>    5.3805    0.0000 </r>
       <r>    6.0630    0.0000 </r>
       <r>    6.3481    0.0000 </r>
       <r>    6.5254    0.0000 </r>
       <r>    7.8937    0.0000 </r>
      </set>
      <set comment="kpoint 61">
       <r>  -20.5735    1.0000 </r>
       <r>   -8.5401    1.0000 </r>
       <r>   -8.5069    1.0000 </r>
       <r>   -7.4021    1.0000 </r>
       <r>    2.4931    0.0000 </r>
       <r>    3.4084    0.0000 </r>
       <r>    3.8928    0.0000 </r>
       <r>    5.7096    0.0000 </r>
       <r>    5.8205    0.0000 </r>
       <r>    6.4911    0.0000 </r>
       <r>    6.8009    0.0000 </r>
       <r>    8.1033    0.0000 </r>
      </set>
      <set comment="kpoint 62">
       <r>  -20.1748    1.0000 </r>
       <r>   -9.4000    1.0000 </r>
       <r>   -8.0441    1.0000 </r>
       <r>   -7.9416    1.0000 </r>
       <r>    3.0415    0.0000 </r>
       <r>    3.9526    0.0000 </r>
       <r>    4.4524    0.0000 </r>
       <r>    4.7938    0.0000 </r>
       <r>    6.3608    0.0000 </r>
       <r>    6.8995    0.0000 </r>
       <r>    7.2093    0.0000 </r>
       <r>    8.5773    0.0000 </r>
      </set>
      <set comment="kpoint 63">
       <r>  -19.7000    1.0000 </r>
       <r>  -10.3490    1.0000 </r>
       <r>   -8.4260    1.0000 </r>
       <r>   -7.4999    1.0000 </r>
       <r>    3.6976    0.0000 </r>
       <r>    3.7799    0.0000 </r>
       <r>    4.6247    0.0000 </r>
       <r>    5.1228    0.0000 </r>
       <r>    6.9716    0.0000 </r>
       <r>    7.0072    0.0000 </r>
       <r>    7.7978    0.0000 </r>
       <r>    9.4007    0.0000 </r>
      </set>
      <set comment="kpoint 64">
       <r>  -19.1517    1.0000 </r>
       <r>  -11.3465    1.0000 </r>
       <r>   -8.8385    1.0000 </r>
       <r>   -6.8833    1.0000 </r>
       <r>    2.7475    0.0000 </r>
       <r>    4.4601    0.0000 </r>
       <r>    5.3799    0.0000 </r>
       <r>    5.9030    0.0000 </r>
       <r>    6.8812    0.0000 </r>
       <r>    7.7526    0.0000 </r>
       <r>    8.5478    0.0000 </r>
       <r>   10.3699    0.0000 </r>
      </set>
      <set comment="kpoint 65">
       <r>  -18.5336    1.0000 </r>
       <r>  -12.3553    1.0000 </r>
       <r>   -9.1740    1.0000 </r>
       <r>   -6.2104    1.0000 </r>
       <r>    1.7094    0.0000 </r>
       <r>    5.3266    0.0000 </r>
       <r>    6.2399    0.0000 </r>
       <r>    6.7175    0.0000 </r>
       <r>    6.8399    0.0000 </r>
       <r>    8.5869    0.0000 </r>
       <r>    9.4108    0.0000 </r>
       <r>   11.2570    0.0000 </r>
      </set>
      <set comment="kpoint 66">
       <r>  -17.8535    1.0000 </r>
       <r>  -13.3441    1.0000 </r>
       <r>   -9.4300    1.0000 </r>
       <r>   -5.5128    1.0000 </r>
       <r>    0.7201    0.0000 </r>
       <r>    6.2813    0.0000 </r>
       <r>    6.6646    0.0000 </r>
       <r>    7.1924    0.0000 </r>
       <r>    7.8039    0.0000 </r>
       <r>    9.4839    0.0000 </r>
       <r>   10.3750    0.0000 </r>
       <r>   11.5798    0.0000 </r>
      </set>
      <set comment="kpoint 67">
       <r>  -17.1318    1.0000 </r>
       <r>  -14.2770    1.0000 </r>
       <r>   -9.6048    1.0000 </r>
       <r>   -4.8616    1.0000 </r>
       <r>   -0.1335    0.0000 </r>
       <r>    6.5570    0.0000 </r>
       <r>    7.3825    0.0000 </r>
       <r>    8.2158    0.0000 </r>
       <r>    8.9133    0.0000 </r>
       <r>   10.3298    0.0000 </r>
       <r>   10.8319    0.0000 </r>
       <r>   11.4508    0.0000 </r>
      </set>
      <set comment="kpoint 68">
       <r>  -16.4747    1.0000 </r>
       <r>  -15.0388    1.0000 </r>
       <r>   -9.6971    1.0000 </r>
       <r>   -4.4229    1.0000 </r>
       <r>   -0.6753    0.0000 </r>
       <r>    6.5255    0.0000 </r>
       <r>    8.5293    0.0000 </r>
       <r>    9.2165    0.0000 </r>
       <r>    9.6714    0.0000 </r>
       <r>   10.1346    0.0000 </r>
       <r>   10.3754    0.0000 </r>
       <r>   11.3667    0.0000 </r>
      </set>
      <set comment="kpoint 69">
       <r>  -16.5087    1.0000 </r>
       <r>  -14.9985    1.0000 </r>
       <r>   -9.7063    1.0000 </r>
       <r>   -4.4393    1.0000 </r>
       <r>   -0.6572    0.0000 </r>
       <r>    6.5306    0.0000 </r>
       <r>    8.4550    0.0000 </r>
       <r>    9.1600    0.0000 </r>
       <r>    9.7602    0.0000 </r>
       <r>   10.0626    0.0000 </r>
       <r>   10.4080    0.0000 </r>
       <r>   11.4495    0.0000 </r>
      </set>
      <set comment="kpoint 70">
       <r>  -17.1789    1.0000 </r>
       <r>  -14.2110    1.0000 </r>
       <r>   -9.6324    1.0000 </r>
       <r>   -4.8991    1.0000 </r>
       <r>   -0.0916    0.0000 </r>
       <r>    6.5689    0.0000 </r>
       <r>    7.3208    0.0000 </r>
       <r>    8.1504    0.0000 </r>
       <r>    8.8472    0.0000 </r>
       <r>   10.2770    0.0000 </r>
       <r>   10.9586    0.0000 </r>
       <r>   11.3846    0.0000 </r>
      </set>
      <set comment="kpoint 71">
       <r>  -17.8981    1.0000 </r>
       <r>  -13.2681    1.0000 </r>
       <r>   -9.4758    1.0000 </r>
       <r>   -5.5569    1.0000 </r>
       <r>    0.7702    0.0000 </r>
       <r>    6.2166    0.0000 </r>
       <r>    6.6958    0.0000 </r>
       <r>    7.1314    0.0000 </r>
       <r>    7.7453    0.0000 </r>
       <r>    9.4230    0.0000 </r>
       <r>   10.3151    0.0000 </r>
       <r>   11.8557    0.0000 </r>
      </set>
      <set comment="kpoint 72">
       <r>  -18.5738    1.0000 </r>
       <r>  -12.2714    1.0000 </r>
       <r>   -9.2371    1.0000 </r>
       <r>   -6.2546    1.0000 </r>
       <r>    1.7588    0.0000 </r>
       <r>    5.2705    0.0000 </r>
       <r>    6.1846    0.0000 </r>
       <r>    6.6982    0.0000 </r>
       <r>    6.8421    0.0000 </r>
       <r>    8.5311    0.0000 </r>
       <r>    9.3588    0.0000 </r>
       <r>   11.7290    0.0000 </r>
      </set>
      <set comment="kpoint 73">
       <r>  -19.1870    1.0000 </r>
       <r>  -11.2565    1.0000 </r>
       <r>   -8.9166    1.0000 </r>
       <r>   -6.9247    1.0000 </r>
       <r>    2.7908    0.0000 </r>
       <r>    4.4114    0.0000 </r>
       <r>    5.3307    0.0000 </r>
       <r>    5.8549    0.0000 </r>
       <r>    6.9153    0.0000 </r>
       <r>    7.7032    0.0000 </r>
       <r>    8.5045    0.0000 </r>
       <r>   10.8921    0.0000 </r>
      </set>
      <set comment="kpoint 74">
       <r>  -19.7305    1.0000 </r>
       <r>  -10.2576    1.0000 </r>
       <r>   -8.5130    1.0000 </r>
       <r>   -7.5371    1.0000 </r>
       <r>    3.6555    0.0000 </r>
       <r>    3.8138    0.0000 </r>
       <r>    4.5806    0.0000 </r>
       <r>    5.0814    0.0000 </r>
       <r>    6.9644    0.0000 </r>
       <r>    6.9877    0.0000 </r>
       <r>    7.7666    0.0000 </r>
       <r>    9.9428    0.0000 </r>
      </set>
      <set comment="kpoint 75">
       <r>  -20.2004    1.0000 </r>
       <r>   -9.3195    1.0000 </r>
       <r>   -8.0763    1.0000 </r>
       <r>   -8.0233    1.0000 </r>
       <r>    3.0059    0.0000 </r>
       <r>    3.9200    0.0000 </r>
       <r>    4.4174    0.0000 </r>
       <r>    4.8092    0.0000 </r>
       <r>    6.3246    0.0000 </r>
       <r>    6.8759    0.0000 </r>
       <r>    7.2062    0.0000 </r>
       <r>    9.1224    0.0000 </r>
      </set>
      <set comment="kpoint 76">
       <r>  -20.5944    1.0000 </r>
       <r>   -8.5336    1.0000 </r>
       <r>   -8.4928    1.0000 </r>
       <r>   -7.4536    1.0000 </r>
       <r>    2.4640    0.0000 </r>
       <r>    3.3802    0.0000 </r>
       <r>    3.8642    0.0000 </r>
       <r>    5.7153    0.0000 </r>
       <r>    5.7883    0.0000 </r>
       <r>    6.4611    0.0000 </r>
       <r>    6.8331    0.0000 </r>
       <r>    8.5925    0.0000 </r>
      </set>
      <set comment="kpoint 77">
       <r>  -21.0137    1.0000 </r>
       <r>   -9.0223    1.0000 </r>
       <r>   -7.5725    1.0000 </r>
       <r>   -6.5273    1.0000 </r>
       <r>    1.8902    0.0000 </r>
       <r>    2.8049    0.0000 </r>
       <r>    3.2783    0.0000 </r>
       <r>    5.2182    0.0000 </r>
       <r>    5.6884    0.0000 </r>
       <r>    6.0123    0.0000 </r>
       <r>    6.8460    0.0000 </r>
       <r>    8.2658    0.0000 </r>
      </set>
      <set comment="kpoint 78">
       <r>  -20.8109    1.0000 </r>
       <r>   -8.7840    1.0000 </r>
       <r>   -8.0967    1.0000 </r>
       <r>   -6.8578    1.0000 </r>
       <r>    2.1673    0.0000 </r>
       <r>    3.0826    0.0000 </r>
       <r>    3.5607    0.0000 </r>
       <r>    5.4921    0.0000 </r>
       <r>    5.7756    0.0000 </r>
       <r>    6.2746    0.0000 </r>
       <r>    6.3078    0.0000 </r>
       <r>    8.6868    0.0000 </r>
      </set>
      <set comment="kpoint 79">
       <r>  -20.5291    1.0000 </r>
       <r>   -8.6893    1.0000 </r>
       <r>   -8.4545    1.0000 </r>
       <r>   -7.3773    1.0000 </r>
       <r>    2.5536    0.0000 </r>
       <r>    3.4690    0.0000 </r>
       <r>    3.9545    0.0000 </r>
       <r>    5.6064    0.0000 </r>
       <r>    5.8836    0.0000 </r>
       <r>    6.1491    0.0000 </r>
       <r>    6.6633    0.0000 </r>
       <r>    8.8048    0.0000 </r>
      </set>
      <set comment="kpoint 80">
       <r>  -20.1693    1.0000 </r>
       <r>   -9.3428    1.0000 </r>
       <r>   -8.0367    1.0000 </r>
       <r>   -8.0083    1.0000 </r>
       <r>    3.0487    0.0000 </r>
       <r>    3.9630    0.0000 </r>
       <r>    4.4597    0.0000 </r>
       <r>    4.8056    0.0000 </r>
       <r>    6.3654    0.0000 </r>
       <r>    6.7468    0.0000 </r>
       <r>    7.1725    0.0000 </r>
       <r>    8.7621    0.0000 </r>
      </set>
      <set comment="kpoint 81">
       <r>  -19.7331    1.0000 </r>
       <r>  -10.0798    1.0000 </r>
       <r>   -8.6438    1.0000 </r>
       <r>   -7.5348    1.0000 </r>
       <r>    3.6518    0.0000 </r>
       <r>    3.9157    0.0000 </r>
       <r>    4.5633    0.0000 </r>
       <r>    5.0759    0.0000 </r>
       <r>    6.9548    0.0000 </r>
       <r>    7.4114    0.0000 </r>
       <r>    7.7966    0.0000 </r>
       <r>    8.7688    0.0000 </r>
      </set>
      <set comment="kpoint 82">
       <r>  -19.2224    1.0000 </r>
       <r>  -10.9162    1.0000 </r>
       <r>   -9.1976    1.0000 </r>
       <r>   -6.9559    1.0000 </r>
       <r>    2.9694    0.0000 </r>
       <r>    4.3619    0.0000 </r>
       <r>    5.2669    0.0000 </r>
       <r>    5.8029    0.0000 </r>
       <r>    7.6412    0.0000 </r>
       <r>    7.8051    0.0000 </r>
       <r>    8.4706    0.0000 </r>
       <r>    9.2128    0.0000 </r>
      </set>
      <set comment="kpoint 83">
       <r>  -18.6405    1.0000 </r>
       <r>  -11.8284    1.0000 </r>
       <r>   -9.6400    1.0000 </r>
       <r>   -6.3111    1.0000 </r>
       <r>    1.9955    0.0000 </r>
       <r>    5.1773    0.0000 </r>
       <r>    6.0686    0.0000 </r>
       <r>    6.6397    0.0000 </r>
       <r>    7.8091    0.0000 </r>
       <r>    8.4112    0.0000 </r>
       <r>    9.2598    0.0000 </r>
       <r>   10.0855    0.0000 </r>
      </set>
      <set comment="kpoint 84">
       <r>  -17.9931    1.0000 </r>
       <r>  -12.7712    1.0000 </r>
       <r>   -9.9757    1.0000 </r>
       <r>   -5.6214    1.0000 </r>
       <r>    1.0304    0.0000 </r>
       <r>    6.0948    0.0000 </r>
       <r>    6.9569    0.0000 </r>
       <r>    7.5698    0.0000 </r>
       <r>    7.7313    0.0000 </r>
       <r>    9.2294    0.0000 </r>
       <r>   10.1652    0.0000 </r>
       <r>   10.9329    0.0000 </r>
      </set>
      <set comment="kpoint 85">
       <r>  -17.2921    1.0000 </r>
       <r>  -13.7000    1.0000 </r>
       <r>  -10.2138    1.0000 </r>
       <r>   -4.9308    1.0000 </r>
       <r>    0.1323    0.0000 </r>
       <r>    7.1035    0.0000 </r>
       <r>    7.6251    0.0000 </r>
       <r>    7.9016    0.0000 </r>
       <r>    8.6494    0.0000 </r>
       <r>    9.9796    0.0000 </r>
       <r>   11.0676    0.0000 </r>
       <r>   11.2925    0.0000 </r>
      </set>
      <set comment="kpoint 86">
       <r>  -16.5807    1.0000 </r>
       <r>  -14.5516    1.0000 </r>
       <r>  -10.3596    1.0000 </r>
       <r>   -4.3470    1.0000 </r>
       <r>   -0.5802    0.0000 </r>
       <r>    7.5449    0.0000 </r>
       <r>    8.2308    0.0000 </r>
       <r>    8.7978    0.0000 </r>
       <r>    9.8089    0.0000 </r>
       <r>   10.3942    0.0000 </r>
       <r>   10.4295    0.0000 </r>
       <r>   11.7485    0.0000 </r>
      </set>
      <set comment="kpoint 87">
       <r>  -16.1653    1.0000 </r>
       <r>  -15.0090    1.0000 </r>
       <r>  -10.4157    1.0000 </r>
       <r>   -4.1070    1.0000 </r>
       <r>   -0.8628    0.0000 </r>
       <r>    7.5324    0.0000 </r>
       <r>    9.2275    0.0000 </r>
       <r>    9.2280    0.0000 </r>
       <r>    9.4687    0.0000 </r>
       <r>   10.4886    0.0000 </r>
       <r>   10.9693    0.0000 </r>
       <r>   11.0810    0.0000 </r>
      </set>
      <set comment="kpoint 88">
       <r>  -16.6413    1.0000 </r>
       <r>  -14.4735    1.0000 </r>
       <r>  -10.3826    1.0000 </r>
       <r>   -4.3878    1.0000 </r>
       <r>   -0.5369    0.0000 </r>
       <r>    7.5478    0.0000 </r>
       <r>    8.1452    0.0000 </r>
       <r>    8.7242    0.0000 </r>
       <r>    9.7169    0.0000 </r>
       <r>   10.3696    0.0000 </r>
       <r>   10.5771    0.0000 </r>
       <r>   11.7432    0.0000 </r>
      </set>
      <set comment="kpoint 89">
       <r>  -17.3543    1.0000 </r>
       <r>  -13.6030    1.0000 </r>
       <r>  -10.2595    1.0000 </r>
       <r>   -4.9884    1.0000 </r>
       <r>    0.1932    0.0000 </r>
       <r>    7.0118    0.0000 </r>
       <r>    7.6535    0.0000 </r>
       <r>    7.8198    0.0000 </r>
       <r>    8.5671    0.0000 </r>
       <r>    9.9109    0.0000 </r>
       <r>   11.0651    0.0000 </r>
       <r>   11.4851    0.0000 </r>
      </set>
      <set comment="kpoint 90">
       <r>  -18.0500    1.0000 </r>
       <r>  -12.6631    1.0000 </r>
       <r>  -10.0428    1.0000 </r>
       <r>   -5.6820    1.0000 </r>
       <r>    1.0927    0.0000 </r>
       <r>    6.0159    0.0000 </r>
       <r>    6.8806    0.0000 </r>
       <r>    7.4964    0.0000 </r>
       <r>    7.7609    0.0000 </r>
       <r>    9.1544    0.0000 </r>
       <r>   10.0953    0.0000 </r>
       <r>   11.3857    0.0000 </r>
      </set>
      <set comment="kpoint 91">
       <r>  -18.6911    1.0000 </r>
       <r>  -11.7140    1.0000 </r>
       <r>   -9.7239    1.0000 </r>
       <r>   -6.3692    1.0000 </r>
       <r>    2.0500    0.0000 </r>
       <r>    5.1083    0.0000 </r>
[...]
       <r>    9.8042    0.0000 </r>
       <r>   10.6133    0.0000 </r>
       <r>   11.5547    0.0000 </r>
      </set>
      <set comment="kpoint 150">
       <r>  -17.2736    1.0000 </r>
       <r>  -14.3783    1.0000 </r>
       <r>   -8.8380    1.0000 </r>
       <r>   -5.0268    1.0000 </r>
       <r>   -0.0184    0.0000 </r>
       <r>    4.7933    0.0000 </r>
       <r>    7.1394    0.0000 </r>
       <r>    8.0532    0.0000 </r>
       <r>    8.6596    0.0000 </r>
       <r>   10.3422    0.0000 </r>
       <r>   10.9125    0.0000 </r>
       <r>   11.2152    0.0000 </r>
      </set>
      <set comment="kpoint 151">
       <r>  -16.8115    1.0000 </r>
       <r>  -14.7656    1.0000 </r>
       <r>   -9.2672    1.0000 </r>
       <r>   -4.6465    1.0000 </r>
       <r>   -0.4056    0.0000 </r>
       <r>    5.2868    0.0000 </r>
       <r>    7.8360    0.0000 </r>
       <r>    8.6938    0.0000 </r>
       <r>    9.3885    0.0000 </r>
       <r>   10.3467    0.0000 </r>
       <r>   10.7003    0.0000 </r>
       <r>   11.4095    0.0000 </r>
      </set>
      <set comment="kpoint 152">
       <r>  -16.3338    1.0000 </r>
       <r>  -15.0404    1.0000 </r>
       <r>   -9.8637    1.0000 </r>
       <r>   -4.2749    1.0000 </r>
       <r>   -0.7163    0.0000 </r>
       <r>    6.0686    0.0000 </r>
       <r>    8.6216    0.0000 </r>
       <r>    9.2439    0.0000 </r>
       <r>    9.8662    0.0000 </r>
       <r>   10.2278    0.0000 </r>
       <r>   10.4829    0.0000 </r>
       <r>   11.5642    0.0000 </r>
      </set>
      <set comment="kpoint 153">
       <r>  -15.9770    1.0000 </r>
       <r>  -15.0744    1.0000 </r>
       <r>  -10.5576    1.0000 </r>
       <r>   -3.9495    1.0000 </r>
       <r>   -0.9346    0.0000 </r>
       <r>    7.0591    0.0000 </r>
       <r>    9.2212    0.0000 </r>
       <r>    9.3965    0.0000 </r>
       <r>    9.5703    0.0000 </r>
       <r>   10.6280    0.0000 </r>
       <r>   11.1471    0.0000 </r>
       <r>   11.1786    0.0000 </r>
      </set>
      <set comment="kpoint 154">
       <r>  -16.9182    1.0000 </r>
       <r>  -14.8579    1.0000 </r>
       <r>   -8.7556    1.0000 </r>
       <r>   -4.7868    1.0000 </r>
       <r>   -0.3572    0.0000 </r>
       <r>    4.5820    0.0000 </r>
       <r>    7.6824    0.0000 </r>
       <r>    8.5994    0.0000 </r>
       <r>    9.2249    0.0000 </r>
       <r>   10.2260    0.0000 </r>
       <r>   10.7764    0.0000 </r>
       <r>   11.2622    0.0000 </r>
      </set>
      <set comment="kpoint 155">
       <r>  -16.5428    1.0000 </r>
       <r>  -15.2279    1.0000 </r>
       <r>   -8.9203    1.0000 </r>
       <r>   -4.5616    1.0000 </r>
       <r>   -0.6036    0.0000 </r>
       <r>    4.7469    0.0000 </r>
       <r>    8.3242    0.0000 </r>
       <r>    9.2066    0.0000 </r>
       <r>    9.5994    0.0000 </r>
       <r>    9.9024    0.0000 </r>
       <r>   10.4548    0.0000 </r>
       <r>   11.2483    0.0000 </r>
      </set>
      <set comment="kpoint 156">
       <r>  -16.2876    1.0000 </r>
       <r>  -15.3475    1.0000 </r>
       <r>   -9.3092    1.0000 </r>
       <r>   -4.3838    1.0000 </r>
       <r>   -0.7252    0.0000 </r>
       <r>    5.2634    0.0000 </r>
       <r>    8.9913    0.0000 </r>
       <r>    9.1324    0.0000 </r>
       <r>    9.6195    0.0000 </r>
       <r>   10.1344    0.0000 </r>
       <r>   10.6713    0.0000 </r>
       <r>   10.6936    0.0000 </r>
      </set>
      <set comment="kpoint 157">
       <r>  -16.3913    1.0000 </r>
       <r>  -15.4449    1.0000 </r>
       <r>   -8.7966    1.0000 </r>
       <r>   -4.5291    1.0000 </r>
       <r>   -0.6763    0.0000 </r>
       <r>    4.5586    0.0000 </r>
       <r>    8.8513    0.0000 </r>
       <r>    8.9835    0.0000 </r>
       <r>    9.6691    0.0000 </r>
       <r>    9.9697    0.0000 </r>
       <r>   10.5112    0.0000 </r>
       <r>   10.5311    0.0000 </r>
      </set>
     </set>
    </set>
   </array>
  </eigenvalues>
  <separator name="orbital magnetization" >
   <v name="MAGDIPOLOUT">      0.00000000      0.00000000      0.00000000</v>
  </separator>
  <dos>
   <i name="efermi">     -2.32179492 </i>
   <total>
    <array>
     <dimension dim="1">gridpoints</dimension>
     <dimension dim="2">spin</dimension>
     <field>energy</field>
     <field>total</field>
     <field>integrated</field>
     <set>
      <set comment="spin 1">
       <r>   -23.3997     0.0000     0.0000 </r>
       <r>   -23.2728     0.0000     0.0000 </r>
       <r>   -23.1458     0.0000     0.0000 </r>
       <r>   -23.0188     0.0000     0.0000 </r>
       <r>   -22.8919     0.0000     0.0000 </r>
       <r>   -22.7649     0.0000     0.0000 </r>
       <r>   -22.6379     0.0000     0.0000 </r>
       <r>   -22.5110     0.0000     0.0000 </r>
       <r>   -22.3840     0.0000     0.0000 </r>
       <r>   -22.2571     0.0000     0.0000 </r>
       <r>   -22.1301     0.0000     0.0000 </r>
       <r>   -22.0031     0.0000     0.0000 </r>
       <r>   -21.8762     0.0000     0.0000 </r>
       <r>   -21.7492     0.0000     0.0000 </r>
       <r>   -21.6222     0.1347     0.0171 </r>
       <r>   -21.4953     0.3490     0.0614 </r>
       <r>   -21.3683     0.3236     0.1025 </r>
       <r>   -21.2413     0.2045     0.1285 </r>
       <r>   -21.1144     0.4829     0.1898 </r>
       <r>   -20.9874     0.1705     0.2115 </r>
       <r>   -20.8605     0.3306     0.2536 </r>
       <r>   -20.7335     0.3262     0.2951 </r>
       <r>   -20.6065     0.1758     0.3175 </r>
       <r>   -20.4796     0.4805     0.3785 </r>
       <r>   -20.3526     0.3281     0.4201 </r>
       <r>   -20.2256     0.0760     0.4298 </r>
       <r>   -20.0987     0.5982     0.5057 </r>
       <r>   -19.9717     0.1717     0.5275 </r>
       <r>   -19.8447     0.3026     0.5660 </r>
       <r>   -19.7178     0.3076     0.6050 </r>
       <r>   -19.5908     0.4996     0.6685 </r>
       <r>   -19.4639     0.1773     0.6910 </r>
       <r>   -19.3369     0.3237     0.7321 </r>
       <r>   -19.2099     0.2792     0.7675 </r>
       <r>   -19.0830     0.5178     0.8332 </r>
       <r>   -18.9560     0.3335     0.8756 </r>
       <r>   -18.8290     0.0232     0.8785 </r>
       <r>   -18.7021     0.4030     0.9297 </r>
       <r>   -18.5751     0.4677     0.9891 </r>
       <r>   -18.4481     0.3860     1.0381 </r>
       <r>   -18.3212     0.2811     1.0738 </r>
       <r>   -18.1942     0.1025     1.0868 </r>
       <r>   -18.0673     0.3794     1.1350 </r>
       <r>   -17.9403     0.6004     1.2112 </r>
       <r>   -17.8133     0.2535     1.2434 </r>
       <r>   -17.6864     0.2321     1.2729 </r>
       <r>   -17.5594     0.3209     1.3136 </r>
       <r>   -17.4324     0.1889     1.3376 </r>
       <r>   -17.3055     0.6700     1.4227 </r>
       <r>   -17.1785     0.3640     1.4689 </r>
       <r>   -17.0515     0.2673     1.5029 </r>
       <r>   -16.9246     0.2799     1.5384 </r>
       <r>   -16.7976     0.3044     1.5770 </r>
       <r>   -16.6707     0.6444     1.6589 </r>
       <r>   -16.5437     0.4687     1.7184 </r>
       <r>   -16.4167     0.4951     1.7814 </r>
       <r>   -16.2898     0.1597     1.8017 </r>
       <r>   -16.1628     0.1005     1.8144 </r>
       <r>   -16.0358     0.4418     1.8705 </r>
       <r>   -15.9089     0.4492     1.9276 </r>
       <r>   -15.7819     0.0236     1.9306 </r>
       <r>   -15.6549     0.0203     1.9331 </r>
       <r>   -15.5280     0.0924     1.9449 </r>
       <r>   -15.4010     0.2703     1.9792 </r>
       <r>   -15.2741     0.3517     2.0238 </r>
       <r>   -15.1471     0.3319     2.0660 </r>
       <r>   -15.0201     0.2853     2.1022 </r>
       <r>   -14.8932     0.2886     2.1388 </r>
       <r>   -14.7662     0.3612     2.1847 </r>
       <r>   -14.6392     0.4927     2.2473 </r>
       <r>   -14.5123     0.3836     2.2960 </r>
       <r>   -14.3853     0.5801     2.3697 </r>
       <r>   -14.2583     0.2869     2.4061 </r>
       <r>   -14.1314     0.4508     2.4633 </r>
       <r>   -14.0044     0.1252     2.4792 </r>
       <r>   -13.8775     0.6556     2.5625 </r>
       <r>   -13.7505     0.3002     2.6007 </r>
       <r>   -13.6235     0.1474     2.6194 </r>
       <r>   -13.4966     0.3144     2.6593 </r>
       <r>   -13.3696     0.4922     2.7218 </r>
       <r>   -13.2426     0.3143     2.7617 </r>
       <r>   -13.1157     0.1530     2.7811 </r>
       <r>   -12.9887     0.2300     2.8105 </r>
       <r>   -12.8618     0.3508     2.8550 </r>
       <r>   -12.7348     0.3560     2.9002 </r>
       <r>   -12.6078     0.3206     2.9410 </r>
       <r>   -12.4809     0.0801     2.9511 </r>
       <r>   -12.3539     0.5553     3.0216 </r>
       <r>   -12.2269     0.5546     3.0921 </r>
       <r>   -12.1000     0.2868     3.1285 </r>
       <r>   -11.9730     0.0455     3.1342 </r>
       <r>   -11.8460     0.5558     3.2048 </r>
       <r>   -11.7191     0.6299     3.2848 </r>
       <r>   -11.5921     0.3140     3.3247 </r>
       <r>   -11.4652     0.2047     3.3507 </r>
       <r>   -11.3382     0.3301     3.3927 </r>
       <r>   -11.2112     0.4880     3.4546 </r>
       <r>   -11.0843     0.5254     3.5213 </r>
       <r>   -10.9573     0.1878     3.5452 </r>
       <r>   -10.8303     0.5796     3.6188 </r>
       <r>   -10.7034     0.5544     3.6892 </r>
       <r>   -10.5764     0.0190     3.6916 </r>
       <r>   -10.4494     0.4161     3.7444 </r>
       <r>   -10.3225     0.6190     3.8230 </r>
       <r>   -10.1955     0.6674     3.9078 </r>
       <r>   -10.0686     0.2961     3.9454 </r>
       <r>    -9.9416     0.3656     3.9919 </r>
       <r>    -9.8146     0.2076     4.0183 </r>
       <r>    -9.6877     1.0502     4.1517 </r>
       <r>    -9.5607     0.9370     4.2708 </r>
       <r>    -9.4337     0.4725     4.3308 </r>
       <r>    -9.3068     0.6922     4.4187 </r>
       <r>    -9.1798     1.1016     4.5587 </r>
       <r>    -9.0528     0.8668     4.6688 </r>
       <r>    -8.9259     0.6267     4.7483 </r>
       <r>    -8.7989     0.9349     4.8670 </r>
       <r>    -8.6720     1.1564     5.0139 </r>
       <r>    -8.5450     1.0626     5.1489 </r>
       <r>    -8.4180     1.5338     5.3436 </r>
       <r>    -8.2911     0.4425     5.3999 </r>
       <r>    -8.1641     0.6604     5.4838 </r>
       <r>    -8.0371     0.8507     5.5918 </r>
       <r>    -7.9102     1.0505     5.7252 </r>
       <r>    -7.7832     0.7184     5.8165 </r>
       <r>    -7.6562     0.5721     5.8891 </r>
       <r>    -7.5293     0.6155     5.9672 </r>
       <r>    -7.4023     0.6202     6.0460 </r>
       <r>    -7.2754     0.7757     6.1445 </r>
       <r>    -7.1484     0.8485     6.2522 </r>
       <r>    -7.0214     0.2692     6.2866 </r>
       <r>    -6.8945     0.5484     6.3562 </r>
       <r>    -6.7675     1.0365     6.4878 </r>
       <r>    -6.6405     0.5602     6.5590 </r>
       <r>    -6.5136     0.1055     6.5724 </r>
       <r>    -6.3866     0.8385     6.6789 </r>
       <r>    -6.2596     0.8969     6.7928 </r>
       <r>    -6.1327     0.3995     6.8436 </r>
       <r>    -6.0057     0.5234     6.9100 </r>
       <r>    -5.8788     0.5185     6.9759 </r>
       <r>    -5.7518     0.4211     7.0293 </r>
       <r>    -5.6248     0.7713     7.1273 </r>
       <r>    -5.4979     0.7112     7.2176 </r>
       <r>    -5.3709     0.4934     7.2803 </r>
       <r>    -5.2439     0.2503     7.3120 </r>
       <r>    -5.1170     0.2493     7.3437 </r>
       <r>    -4.9900     0.3510     7.3883 </r>
       <r>    -4.8630     0.7798     7.4874 </r>
       <r>    -4.7361     0.5425     7.5563 </r>
       <r>    -4.6091     0.3489     7.6006 </r>
       <r>    -4.4822     0.2462     7.6320 </r>
       <r>    -4.3552     0.6078     7.7091 </r>
       <r>    -4.2282     0.6749     7.7948 </r>
       <r>    -4.1013     0.1564     7.8147 </r>
       <r>    -3.9743     0.0396     7.8197 </r>
       <r>    -3.8473     0.1797     7.8425 </r>
       <r>    -3.7204     0.1875     7.8663 </r>
       <r>    -3.5934     0.3070     7.9053 </r>
       <r>    -3.4665     0.1989     7.9306 </r>
       <r>    -3.3395     0.1089     7.9444 </r>
       <r>    -3.2125     0.0498     7.9508 </r>
       <r>    -3.0856     0.0101     7.9520 </r>
       <r>    -2.9586     0.2118     7.9789 </r>
       <r>    -2.8316     0.1112     7.9931 </r>
       <r>    -2.7047     0.0000     7.9931 </r>
       <r>    -2.5777     0.0000     7.9931 </r>
       <r>    -2.4507     0.0000     7.9931 </r>
       <r>    -2.3238     0.0547     8.0000 </r>
       <r>    -2.1968     0.0546     8.0069 </r>
       <r>    -2.0699     0.0000     8.0069 </r>
       <r>    -1.9429     0.0000     8.0069 </r>
       <r>    -1.8159     0.0000     8.0069 </r>
       <r>    -1.6890     0.1262     8.0230 </r>
       <r>    -1.5620     0.2018     8.0486 </r>
       <r>    -1.4350     0.0524     8.0553 </r>
       <r>    -1.3081     0.1116     8.0694 </r>
       <r>    -1.1811     0.0000     8.0694 </r>
       <r>    -1.0541     0.3419     8.1128 </r>
       <r>    -0.9272     0.5144     8.1783 </r>
       <r>    -0.8002     0.1275     8.1944 </r>
       <r>    -0.6733     0.3363     8.2371 </r>
       <r>    -0.5463     0.8048     8.3393 </r>
       <r>    -0.4193     0.3299     8.3813 </r>
       <r>    -0.2924     0.8472     8.4890 </r>
       <r>    -0.1654     0.0627     8.4969 </r>
       <r>    -0.0384     0.3482     8.5411 </r>
       <r>     0.0885     0.3052     8.5799 </r>
       <r>     0.2155     0.3218     8.6207 </r>
       <r>     0.3425     0.1772     8.6432 </r>
       <r>     0.4694     0.7631     8.7401 </r>
       <r>     0.5964     0.0505     8.7465 </r>
       <r>     0.7233     0.0708     8.7555 </r>
       <r>     0.8503     0.2805     8.7911 </r>
       <r>     0.9773     0.3067     8.8301 </r>
       <r>     1.1042     0.4954     8.8930 </r>
       <r>     1.2312     0.4921     8.9554 </r>
       <r>     1.3582     0.4694     9.0150 </r>
       <r>     1.4851     0.5826     9.0890 </r>
       <r>     1.6121     0.1195     9.1042 </r>
       <r>     1.7391     0.6198     9.1829 </r>
       <r>     1.8660     0.2373     9.2130 </r>
       <r>     1.9930     0.6936     9.3011 </r>
       <r>     2.1199     0.9035     9.4158 </r>
       <r>     2.2469     0.5263     9.4827 </r>
       <r>     2.3739     0.4993     9.5460 </r>
       <r>     2.5008     0.9181     9.6626 </r>
       <r>     2.6278     1.0657     9.7979 </r>
       <r>     2.7548     0.6664     9.8827 </r>
       <r>     2.8817     0.7608     9.9793 </r>
       <r>     3.0087     0.9321    10.0976 </r>
       <r>     3.1357     1.5525    10.2948 </r>
       <r>     3.2626     0.2746    10.3297 </r>
       <r>     3.3896     0.5788    10.4032 </r>
       <r>     3.5165     1.1145    10.5448 </r>
       <r>     3.6435     0.8854    10.6572 </r>
       <r>     3.7705     0.7341    10.7505 </r>
       <r>     3.8974     0.9616    10.8726 </r>
       <r>     4.0244     1.0779    11.0095 </r>
       <r>     4.1514     1.0482    11.1426 </r>
       <r>     4.2783     0.0848    11.1534 </r>
       <r>     4.4053     0.8900    11.2664 </r>
       <r>     4.5323     1.2164    11.4210 </r>
       <r>     4.6592     1.5682    11.6202 </r>
       <r>     4.7862     1.2372    11.7774 </r>
       <r>     4.9131     1.0502    11.9108 </r>
       <r>     5.0401     0.9330    12.0292 </r>
       <r>     5.1671     1.9173    12.2726 </r>
       <r>     5.2940     2.3879    12.5760 </r>
       <r>     5.4210     1.6587    12.7867 </r>
       <r>     5.5480     1.8992    13.0279 </r>
       <r>     5.6749     1.5870    13.2294 </r>
       <r>     5.8019     2.2534    13.5158 </r>
       <r>     5.9289     2.0958    13.7820 </r>
       <r>     6.0558     3.1681    14.1843 </r>
       <r>     6.1828     2.0505    14.4448 </r>
       <r>     6.3097     1.7474    14.6668 </r>
       <r>     6.4367     1.5621    14.8653 </r>
       <r>     6.5637     2.2539    15.1515 </r>
       <r>     6.6906     1.6583    15.3623 </r>
       <r>     6.8176     1.3676    15.5359 </r>
       <r>     6.9446     2.1095    15.8038 </r>
       <r>     7.0715     2.0603    16.0654 </r>
       <r>     7.1985     1.6266    16.2720 </r>
       <r>     7.3254     1.3364    16.4416 </r>
       <r>     7.4524     1.3386    16.6116 </r>
       <r>     7.5794     1.8575    16.8474 </r>
       <r>     7.7063     1.7363    17.0680 </r>
       <r>     7.8333     2.3522    17.3667 </r>
       <r>     7.9603     2.0302    17.6246 </r>
       <r>     8.0872     0.8762    17.7360 </r>
       <r>     8.2142     1.2396    17.8935 </r>
       <r>     8.3412     2.0986    18.1601 </r>
       <r>     8.4681     2.1930    18.4385 </r>
       <r>     8.5951     2.3869    18.7416 </r>
       <r>     8.7220     1.8096    18.9715 </r>
       <r>     8.8490     2.0710    19.2346 </r>
       <r>     8.9760     1.0063    19.3624 </r>
       <r>     9.1029     1.2203    19.5173 </r>
       <r>     9.2299     1.8933    19.7578 </r>
       <r>     9.3569     1.4411    19.9407 </r>
       <r>     9.4838     1.4151    20.1204 </r>
       <r>     9.6108     1.4678    20.3068 </r>
       <r>     9.7378     1.5707    20.5063 </r>
       <r>     9.8647     1.9869    20.7586 </r>
       <r>     9.9917     1.5743    20.9587 </r>
       <r>    10.1186     1.6324    21.1659 </r>
       <r>    10.2456     1.6783    21.3793 </r>
       <r>    10.3726     1.9417    21.6259 </r>
       <r>    10.4995     1.9010    21.8673 </r>
       <r>    10.6265     1.4325    22.0492 </r>
       <r>    10.7535     2.1590    22.3234 </r>
       <r>    10.8804     1.6834    22.5372 </r>
       <r>    11.0074     1.2561    22.6968 </r>
       <r>    11.1344     1.5087    22.8884 </r>
       <r>    11.2613     1.1177    23.0305 </r>
       <r>    11.3883     0.9755    23.1543 </r>
       <r>    11.5152     1.1013    23.2943 </r>
       <r>    11.6422     1.0816    23.4316 </r>
       <r>    11.7692     0.5842    23.5058 </r>
       <r>    11.8961     1.2430    23.6637 </r>
       <r>    12.0231     0.8296    23.7692 </r>
       <r>    12.1501     0.4633    23.8280 </r>
       <r>    12.2770     0.3694    23.8749 </r>
       <r>    12.4040     0.0006    23.8750 </r>
       <r>    12.5310     0.0622    23.8829 </r>
       <r>    12.6579     0.3745    23.9304 </r>
       <r>    12.7849     0.3247    23.9717 </r>
       <r>    12.9118     0.1106    23.9857 </r>
       <r>    13.0388     0.1125    24.0000 </r>
       <r>    13.1658     0.0000    24.0000 </r>
       <r>    13.2927     0.0000    24.0000 </r>
       <r>    13.4197     0.0000    24.0000 </r>
       <r>    13.5467     0.0000    24.0000 </r>
       <r>    13.6736     0.0000    24.0000 </r>
       <r>    13.8006     0.0000    24.0000 </r>
       <r>    13.9276     0.0000    24.0000 </r>
       <r>    14.0545     0.0000    24.0000 </r>
       <r>    14.1815     0.0000    24.0000 </r>
       <r>    14.3084     0.0000    24.0000 </r>
       <r>    14.4354     0.0000    24.0000 </r>
       <r>    14.5624     0.0000    24.0000 </r>
       <r>    14.6893     0.0000    24.0000 </r>
      </set>
     </set>
    </array>
   </total>
  </dos>
 </calculation>
 <structure name="finalpos" >
  <crystal>
   <varray name="basis" >
    <v>       2.49867200       0.00000000       0.00000000 </v>
    <v>      -1.24933600       2.13736100       0.00000000 </v>
    <v>       0.00000000       0.00000000      15.00000000 </v>
   </varray>
   <i name="volume">     80.10846127 </i>
   <varray name="rec_basis" >
    <v>       0.40021259       0.23393334       0.00000000 </v>
    <v>       0.00000000       0.46786668       0.00000000 </v>
    <v>       0.00000000       0.00000000       0.06666667 </v>
   </varray>
  </crystal>
  <varray name="positions" >
   <v>       0.00006686       0.00013373       0.50000000 </v>
   <v>       0.33326614       0.66653327       0.50000000 </v>
  </varray>
 </structure>
</modeling>
