<?xml version="1.0" encoding="ISO-8859-1"?>
<modeling>
 <generator>
  <i name="program" type="string">vasp </i>
  <i name="version" type="string">5.4.1  </i>
  <i name="subversion" type="string">24Jun15 (build Nov 20 2020 10:29:34) complex                          parallel </i>
  <i name="platform" type="string">IFC91_ompi </i>
  <i name="date" type="string">2021 09 09 </i>
  <i name="time" type="string">15:18:26 </i>
 </generator>
 <incar>
  <i type="string" name="PREC">a</i>
  <i type="string" name="ALGO"> Normal</i>
  <i type="int" name="ISPIN">     1</i>
  <i type="int" name="ICHARG">     2</i>
  <i type="int" name="NELM">   250</i>
  <i type="int" name="NELMDL">    -5</i>
  <i type="int" name="NELMIN">     6</i>
  <i type="int" name="IBRION">     2</i>
  <i name="EDIFF">      0.00001000</i>
  <i name="EDIFFG">     -0.01000000</i>
  <i type="int" name="NSW">   200</i>
  <i type="int" name="ISIF">     2</i>
  <i name="ENCUT">    520.00000000</i>
  <i name="POTIM">      0.30000000</i>
  <i type="logical" name="LREAL"> F  </i>
  <i type="int" name="ISMEAR">     0</i>
  <i name="SIGMA">      0.02000000</i>
  <i type="logical" name="LWAVE"> F  </i>
  <i type="logical" name="LCHARG"> F  </i>
  <i type="logical" name="LAECHG"> F  </i>
  <v type="int" name="KPOINT_BSE">    -1     0     0     0</v>
  <i type="int" name="NELM">   250</i>
 </incar>
 <kpoints>
  <generation param="Gamma">
   <v type="int" name="divisions">      21       15        1 </v>
   <v name="usershift">      0.00000000       0.00000000       0.00000000 </v>
   <v name="genvec1">      0.04761905      -0.00000000       0.00000000 </v>
   <v name="genvec2">      0.00000000       0.06666667       0.00000000 </v>
   <v name="genvec3">      0.00000000       0.00000000       1.00000000 </v>
   <v name="shift">      0.00000000       0.00000000       0.00000000 </v>
  </generation>
  <varray name="kpointlist" >
   <v>       0.00000000       0.00000000       0.00000000 </v>
   <v>       0.04761905       0.00000000       0.00000000 </v>
   <v>       0.09523810       0.00000000       0.00000000 </v>
   <v>       0.14285714       0.00000000       0.00000000 </v>
   <v>       0.19047619       0.00000000       0.00000000 </v>
   <v>       0.23809524       0.00000000       0.00000000 </v>
   <v>       0.28571429       0.00000000       0.00000000 </v>
   <v>       0.33333333       0.00000000       0.00000000 </v>
   <v>       0.38095238       0.00000000       0.00000000 </v>
   <v>       0.42857143      -0.00000000       0.00000000 </v>
   <v>       0.47619048       0.00000000       0.00000000 </v>
   <v>      -0.00000000       0.06666667       0.00000000 </v>
   <v>       0.04761905       0.06666667       0.00000000 </v>
   <v>       0.09523810       0.06666667       0.00000000 </v>
   <v>       0.14285714       0.06666667       0.00000000 </v>
   <v>       0.19047619       0.06666667       0.00000000 </v>
   <v>       0.23809524       0.06666667       0.00000000 </v>
   <v>       0.28571429       0.06666667       0.00000000 </v>
   <v>       0.33333333       0.06666667       0.00000000 </v>
   <v>       0.38095238       0.06666667       0.00000000 </v>
   <v>       0.42857143       0.06666667       0.00000000 </v>
   <v>       0.47619048       0.06666667       0.00000000 </v>
   <v>      -0.47619048       0.06666667       0.00000000 </v>
   <v>      -0.42857143       0.06666667       0.00000000 </v>
   <v>      -0.38095238       0.06666667       0.00000000 </v>
   <v>      -0.33333333       0.06666667       0.00000000 </v>
   <v>      -0.28571429       0.06666667       0.00000000 </v>
   <v>      -0.23809524       0.06666667       0.00000000 </v>
   <v>      -0.19047619       0.06666667       0.00000000 </v>
   <v>      -0.14285714       0.06666667       0.00000000 </v>
   <v>      -0.09523810       0.06666667       0.00000000 </v>
   <v>      -0.04761905       0.06666667       0.00000000 </v>
   <v>      -0.00000000       0.13333333       0.00000000 </v>
   <v>       0.04761905       0.13333333       0.00000000 </v>
   <v>       0.09523810       0.13333333       0.00000000 </v>
   <v>       0.14285714       0.13333333       0.00000000 </v>
   <v>       0.19047619       0.13333333       0.00000000 </v>
   <v>       0.23809524       0.13333333       0.00000000 </v>
   <v>       0.28571429       0.13333333       0.00000000 </v>
   <v>       0.33333333       0.13333333       0.00000000 </v>
   <v>       0.38095238       0.13333333       0.00000000 </v>
   <v>       0.42857143       0.13333333       0.00000000 </v>
   <v>       0.47619048       0.13333333       0.00000000 </v>
   <v>      -0.47619048       0.13333333       0.00000000 </v>
   <v>      -0.42857143       0.13333333       0.00000000 </v>
   <v>      -0.38095238       0.13333333       0.00000000 </v>
   <v>      -0.33333333       0.13333333       0.00000000 </v>
   <v>      -0.28571429       0.13333333       0.00000000 </v>
   <v>      -0.23809524       0.13333333       0.00000000 </v>
   <v>      -0.19047619       0.13333333       0.00000000 </v>
   <v>      -0.14285714       0.13333333       0.00000000 </v>
   <v>      -0.09523810       0.13333333       0.00000000 </v>
   <v>      -0.04761905       0.13333333       0.00000000 </v>
   <v>       0.00000000       0.20000000       0.00000000 </v>
   <v>       0.04761905       0.20000000       0.00000000 </v>
   <v>       0.09523810       0.20000000       0.00000000 </v>
   <v>       0.14285714       0.20000000       0.00000000 </v>
   <v>       0.19047619       0.20000000       0.00000000 </v>
   <v>       0.23809524       0.20000000       0.00000000 </v>
   <v>       0.28571429       0.20000000       0.00000000 </v>
   <v>       0.33333333       0.20000000       0.00000000 </v>
   <v>       0.38095238       0.20000000       0.00000000 </v>
   <v>       0.42857143       0.20000000       0.00000000 </v>
   <v>       0.47619048       0.20000000       0.00000000 </v>
   <v>      -0.47619048       0.20000000       0.00000000 </v>
   <v>      -0.42857143       0.20000000       0.00000000 </v>
   <v>      -0.38095238       0.20000000       0.00000000 </v>
   <v>      -0.33333333       0.20000000       0.00000000 </v>
   <v>      -0.28571429       0.20000000       0.00000000 </v>
   <v>      -0.23809524       0.20000000       0.00000000 </v>
   <v>      -0.19047619       0.20000000       0.00000000 </v>
   <v>      -0.14285714       0.20000000       0.00000000 </v>
   <v>      -0.09523810       0.20000000       0.00000000 </v>
   <v>      -0.04761905       0.20000000       0.00000000 </v>
   <v>      -0.00000000       0.26666667       0.00000000 </v>
   <v>       0.04761905       0.26666667       0.00000000 </v>
   <v>       0.09523810       0.26666667       0.00000000 </v>
   <v>       0.14285714       0.26666667       0.00000000 </v>
   <v>       0.19047619       0.26666667       0.00000000 </v>
   <v>       0.23809524       0.26666667       0.00000000 </v>
   <v>       0.28571429       0.26666667       0.00000000 </v>
   <v>       0.33333333       0.26666667       0.00000000 </v>
   <v>       0.38095238       0.26666667       0.00000000 </v>
   <v>       0.42857143       0.26666667       0.00000000 </v>
   <v>       0.47619048       0.26666667       0.00000000 </v>
   <v>      -0.47619048       0.26666667       0.00000000 </v>
   <v>      -0.42857143       0.26666667       0.00000000 </v>
   <v>      -0.38095238       0.26666667       0.00000000 </v>
   <v>      -0.33333333       0.26666667       0.00000000 </v>
   <v>      -0.28571429       0.26666667       0.00000000 </v>
   <v>      -0.23809524       0.26666667       0.00000000 </v>
   <v>      -0.19047619       0.26666667       0.00000000 </v>
   <v>      -0.14285714       0.26666667       0.00000000 </v>
   <v>      -0.09523810       0.26666667       0.00000000 </v>
   <v>      -0.04761905       0.26666667       0.00000000 </v>
   <v>       0.00000000       0.33333333       0.00000000 </v>
   <v>       0.04761905       0.33333333       0.00000000 </v>
   <v>       0.09523810       0.33333333       0.00000000 </v>
   <v>       0.14285714       0.33333333       0.00000000 </v>
   <v>       0.19047619       0.33333333       0.00000000 </v>
   <v>       0.23809524       0.33333333       0.00000000 </v>
   <v>       0.28571429       0.33333333       0.00000000 </v>
   <v>       0.33333333       0.33333333       0.00000000 </v>
   <v>       0.38095238       0.33333333       0.00000000 </v>
   <v>       0.42857143       0.33333333       0.00000000 </v>
   <v>       0.47619048       0.33333333       0.00000000 </v>
   <v>      -0.47619048       0.33333333       0.00000000 </v>
   <v>      -0.42857143       0.33333333       0.00000000 </v>
   <v>      -0.38095238       0.33333333       0.00000000 </v>
   <v>      -0.33333333       0.33333333       0.00000000 </v>
   <v>      -0.28571429       0.33333333       0.00000000 </v>
   <v>      -0.23809524       0.33333333       0.00000000 </v>
   <v>      -0.19047619       0.33333333       0.00000000 </v>
   <v>      -0.14285714       0.33333333       0.00000000 </v>
   <v>      -0.09523810       0.33333333       0.00000000 </v>
   <v>      -0.04761905       0.33333333       0.00000000 </v>
   <v>       0.00000000       0.40000000       0.00000000 </v>
   <v>       0.04761905       0.40000000       0.00000000 </v>
   <v>       0.09523810       0.40000000       0.00000000 </v>
   <v>       0.14285714       0.40000000       0.00000000 </v>
   <v>       0.19047619       0.40000000       0.00000000 </v>
   <v>       0.23809524       0.40000000       0.00000000 </v>
   <v>       0.28571429       0.40000000       0.00000000 </v>
   <v>       0.33333333       0.40000000       0.00000000 </v>
   <v>       0.38095238       0.40000000       0.00000000 </v>
   <v>       0.42857143       0.40000000       0.00000000 </v>
   <v>       0.47619048       0.40000000       0.00000000 </v>
   <v>      -0.47619048       0.40000000       0.00000000 </v>
   <v>      -0.42857143       0.40000000       0.00000000 </v>
   <v>      -0.38095238       0.40000000       0.00000000 </v>
   <v>      -0.33333333       0.40000000       0.00000000 </v>
   <v>      -0.28571429       0.40000000       0.00000000 </v>
   <v>      -0.23809524       0.40000000       0.00000000 </v>
   <v>      -0.19047619       0.40000000       0.00000000 </v>
   <v>      -0.14285714       0.40000000       0.00000000 </v>
   <v>      -0.09523810       0.40000000       0.00000000 </v>
   <v>      -0.04761905       0.40000000       0.00000000 </v>
   <v>       0.00000000       0.46666667       0.00000000 </v>
   <v>       0.04761905       0.46666667       0.00000000 </v>
   <v>       0.09523810       0.46666667       0.00000000 </v>
   <v>       0.14285714       0.46666667       0.00000000 </v>
   <v>       0.19047619       0.46666667       0.00000000 </v>
   <v>       0.23809524       0.46666667       0.00000000 </v>
   <v>       0.28571429       0.46666667       0.00000000 </v>
   <v>       0.33333333       0.46666667       0.00000000 </v>
   <v>       0.38095238       0.46666667       0.00000000 </v>
   <v>       0.42857143       0.46666667       0.00000000 </v>
   <v>       0.47619048       0.46666667       0.00000000 </v>
   <v>      -0.47619048       0.46666667       0.00000000 </v>
   <v>      -0.42857143       0.46666667       0.00000000 </v>
   <v>      -0.38095238       0.46666667       0.00000000 </v>
   <v>      -0.33333333       0.46666667       0.00000000 </v>
   <v>      -0.28571429       0.46666667       0.00000000 </v>
   <v>      -0.23809524       0.46666667       0.00000000 </v>
   <v>      -0.19047619       0.46666667       0.00000000 </v>
   <v>      -0.14285714       0.46666667       0.00000000 </v>
   <v>      -0.09523810       0.46666667       0.00000000 </v>
   <v>      -0.04761905       0.46666667       0.00000000 </v>
  </varray>
  <varray name="weights" >
   <v>       0.00317460 </v>
   <v>       0.00634921 </v>
   <v>       0.00634921 </v>
   <v>       0.00634921 </v>
   <v>       0.00634921 </v>
   <v>       0.00634921 </v>
   <v>       0.00634921 </v>
   <v>       0.00634921 </v>
   <v>       0.00634921 </v>
   <v>       0.00634921 </v>
   <v>       0.00634921 </v>
   <v>       0.00634921 </v>
   <v>       0.00634921 </v>
   <v>       0.00634921 </v>
   <v>       0.00634921 </v>
   <v>       0.00634921 </v>
   <v>       0.00634921 </v>
   <v>       0.00634921 </v>
   <v>       0.00634921 </v>
   <v>       0.00634921 </v>
   <v>       0.00634921 </v>
   <v>       0.00634921 </v>
   <v>       0.00634921 </v>
   <v>       0.00634921 </v>
   <v>       0.00634921 </v>
   <v>       0.00634921 </v>
   <v>       0.00634921 </v>
   <v>       0.00634921 </v>
   <v>       0.00634921 </v>
   <v>       0.00634921 </v>
   <v>       0.00634921 </v>
   <v>       0.00634921 </v>
   <v>       0.00634921 </v>
   <v>       0.00634921 </v>
   <v>       0.00634921 </v>
   <v>       0.00634921 </v>
   <v>       0.00634921 </v>
   <v>       0.00634921 </v>
   <v>       0.00634921 </v>
   <v>       0.00634921 </v>
   <v>       0.00634921 </v>
   <v>       0.00634921 </v>
   <v>       0.00634921 </v>
   <v>       0.00634921 </v>
   <v>       0.00634921 </v>
   <v>       0.00634921 </v>
   <v>       0.00634921 </v>
   <v>       0.00634921 </v>
   <v>       0.00634921 </v>
   <v>       0.00634921 </v>
   <v>       0.00634921 </v>
   <v>       0.00634921 </v>
   <v>       0.00634921 </v>
   <v>       0.00634921 </v>
   <v>       0.00634921 </v>
   <v>       0.00634921 </v>
   <v>       0.00634921 </v>
   <v>       0.00634921 </v>
   <v>       0.00634921 </v>
   <v>       0.00634921 </v>
   <v>       0.00634921 </v>
   <v>       0.00634921 </v>
   <v>       0.00634921 </v>
   <v>       0.00634921 </v>
   <v>       0.00634921 </v>
   <v>       0.00634921 </v>
   <v>       0.00634921 </v>
   <v>       0.00634921 </v>
   <v>       0.00634921 </v>
   <v>       0.00634921 </v>
   <v>       0.00634921 </v>
   <v>       0.00634921 </v>
   <v>       0.00634921 </v>
   <v>       0.00634921 </v>
   <v>       0.00634921 </v>
   <v>       0.00634921 </v>
   <v>       0.00634921 </v>
   <v>       0.00634921 </v>
   <v>       0.00634921 </v>
   <v>       0.00634921 </v>
   <v>       0.00634921 </v>
   <v>       0.00634921 </v>
   <v>       0.00634921 </v>
   <v>       0.00634921 </v>
   <v>       0.00634921 </v>
   <v>       0.00634921 </v>
   <v>       0.00634921 </v>
   <v>       0.00634921 </v>
   <v>       0.00634921 </v>
   <v>       0.00634921 </v>
   <v>       0.00634921 </v>
   <v>       0.00634921 </v>
   <v>       0.00634921 </v>
   <v>       0.00634921 </v>
   <v>       0.00634921 </v>
   <v>       0.00634921 </v>
   <v>       0.00634921 </v>
   <v>       0.00634921 </v>
   <v>       0.00634921 </v>
   <v>       0.00634921 </v>
   <v>       0.00634921 </v>
   <v>       0.00634921 </v>
   <v>       0.00634921 </v>
   <v>       0.00634921 </v>
   <v>       0.00634921 </v>
   <v>       0.00634921 </v>
   <v>       0.00634921 </v>
   <v>       0.00634921 </v>
   <v>       0.00634921 </v>
   <v>       0.00634921 </v>
   <v>       0.00634921 </v>
   <v>       0.00634921 </v>
   <v>       0.00634921 </v>
   <v>       0.00634921 </v>
   <v>       0.00634921 </v>
   <v>       0.00634921 </v>
   <v>       0.00634921 </v>
   <v>       0.00634921 </v>
   <v>       0.00634921 </v>
   <v>       0.00634921 </v>
   <v>       0.00634921 </v>
   <v>       0.00634921 </v>
   <v>       0.00634921 </v>
   <v>       0.00634921 </v>
   <v>       0.00634921 </v>
   <v>       0.00634921 </v>
   <v>       0.00634921 </v>
   <v>       0.00634921 </v>
   <v>       0.00634921 </v>
   <v>       0.00634921 </v>
   <v>       0.00634921 </v>
   <v>       0.00634921 </v>
   <v>       0.00634921 </v>
   <v>       0.00634921 </v>
   <v>       0.00634921 </v>
   <v>       0.00634921 </v>
   <v>       0.00634921 </v>
   <v>       0.00634921 </v>
   <v>       0.00634921 </v>
   <v>       0.00634921 </v>
   <v>       0.00634921 </v>
   <v>       0.00634921 </v>
   <v>       0.00634921 </v>
   <v>       0.00634921 </v>
   <v>       0.00634921 </v>
   <v>       0.00634921 </v>
   <v>       0.00634921 </v>
   <v>       0.00634921 </v>
   <v>       0.00634921 </v>
   <v>       0.00634921 </v>
   <v>       0.00634921 </v>
   <v>       0.00634921 </v>
   <v>       0.00634921 </v>
   <v>       0.00634921 </v>
   <v>       0.00634921 </v>
   <v>       0.00634921 </v>
   <v>       0.00634921 </v>
   <v>       0.00634921 </v>
  </varray>
 </kpoints>
 <parameters>
  <separator name="general" >
   <i type="string" name="SYSTEM">unknown system</i>
   <i type="logical" name="LCOMPAT"> F  </i>
  </separator>
  <separator name="electronic" >
   <i type="string" name="PREC">a</i>
   <i name="ENMAX">    520.00000000</i>
   <i name="ENAUG">    342.92400000</i>
   <i name="EDIFF">      0.00001000</i>
   <i type="int" name="IALGO">    38</i>
   <i type="int" name="IWAVPR">    11</i>
   <i type="int" name="NBANDS">    16</i>
   <i name="NELECT">     20.00000000</i>
   <i type="int" name="TURBO">     0</i>
   <i type="int" name="IRESTART">     0</i>
   <i type="int" name="NREBOOT">     0</i>
   <i type="int" name="NMIN">     0</i>
   <i name="EREF">      0.00000000</i>
   <separator name="electronic smearing" >
    <i type="int" name="ISMEAR">     0</i>
    <i name="SIGMA">      0.02000000</i>
    <i name="KSPACING">      0.50000000</i>
    <i type="logical" name="KGAMMA"> T  </i>
   </separator>
   <separator name="electronic projectors" >
    <i type="logical" name="LREAL"> F  </i>
    <v name="ROPT">      0.00000000</v>
    <i type="int" name="LMAXPAW">  -100</i>
    <i type="int" name="LMAXMIX">     2</i>
    <i type="logical" name="NLSPLINE"> F  </i>
   </separator>
   <separator name="electronic startup" >
    <i type="int" name="ISTART">     0</i>
    <i type="int" name="ICHARG">     2</i>
    <i type="int" name="INIWAV">     1</i>
   </separator>
   <separator name="electronic spin" >
    <i type="int" name="ISPIN">     1</i>
    <i type="logical" name="LNONCOLLINEAR"> F  </i>
    <v name="MAGMOM">      1.00000000      1.00000000      1.00000000      1.00000000</v>
    <i name="NUPDOWN">     -1.00000000</i>
    <i type="logical" name="LSORBIT"> F  </i>
    <v name="SAXIS">      0.00000000      0.00000000      1.00000000</v>
    <i type="logical" name="LSPIRAL"> F  </i>
    <v name="QSPIRAL">      0.00000000      0.00000000      0.00000000</v>
    <i type="logical" name="LZEROZ"> F  </i>
   </separator>
   <separator name="electronic exchange-correlation" >
    <i type="logical" name="LASPH"> F  </i>
    <i type="logical" name="LMETAGGA"> F  </i>
   </separator>
   <separator name="electronic convergence" >
    <i type="int" name="NELM">   250</i>
    <i type="int" name="NELMDL">    -5</i>
    <i type="int" name="NELMIN">     6</i>
    <i name="ENINI">    520.00000000</i>
    <separator name="electronic convergence detail" >
     <i type="logical" name="LDIAG"> T  </i>
     <i type="logical" name="LSUBROT"> F  </i>
     <i name="WEIMIN">      0.00100000</i>
     <i name="EBREAK">      0.00000016</i>
     <i name="DEPER">      0.30000000</i>
     <i type="int" name="NRMM">     4</i>
     <i name="TIME">      0.40000000</i>
    </separator>
   </separator>
   <separator name="electronic mixer" >
    <i name="AMIX">      0.40000000</i>
    <i name="BMIX">      1.00000000</i>
    <i name="AMIN">      0.10000000</i>
    <i name="AMIX_MAG">      1.60000000</i>
    <i name="BMIX_MAG">      1.00000000</i>
    <separator name="electronic mixer details" >
     <i type="int" name="IMIX">     4</i>
     <i type="logical" name="MIXFIRST"> F  </i>
     <i type="int" name="MAXMIX">   -45</i>
     <i name="WC">    100.00000000</i>
     <i type="int" name="INIMIX">     1</i>
     <i type="int" name="MIXPRE">     1</i>
     <i type="int" name="MREMOVE">     5</i>
    </separator>
   </separator>
   <separator name="electronic dipolcorrection" >
    <i type="logical" name="LDIPOL"> F  </i>
    <i type="logical" name="LMONO"> F  </i>
    <i type="int" name="IDIPOL">     0</i>
    <i name="EPSILON">      1.00000000</i>
    <v name="DIPOL">   -100.00000000   -100.00000000   -100.00000000</v>
    <i name="EFIELD">      0.00000000</i>
   </separator>
  </separator>
  <separator name="grids" >
   <i type="int" name="NGX">    28</i>
   <i type="int" name="NGY">    36</i>
   <i type="int" name="NGZ">   150</i>
   <i type="int" name="NGXF">    56</i>
   <i type="int" name="NGYF">    72</i>
   <i type="int" name="NGZF">   300</i>
   <i type="logical" name="ADDGRID"> F  </i>
  </separator>
  <separator name="ionic" >
   <i type="int" name="NSW">   200</i>
   <i type="int" name="IBRION">     2</i>
   <i type="int" name="ISIF">     2</i>
   <i name="PSTRESS">      0.00000000</i>
   <i name="EDIFFG">     -0.01000000</i>
   <i type="int" name="NFREE">     1</i>
   <i name="POTIM">      0.30000000</i>
   <i name="SMASS">     -3.00000000</i>
   <i name="SCALEE">      1.00000000</i>
  </separator>
  <separator name="ionic md" >
   <i name="TEBEG">      0.00010000</i>
   <i name="TEEND">      0.00010000</i>
   <i type="int" name="NBLOCK">     1</i>
   <i type="int" name="KBLOCK">   200</i>
   <i type="int" name="NPACO">   256</i>
   <i name="APACO">     16.00000000</i>
  </separator>
  <separator name="symmetry" >
   <i type="int" name="ISYM">     2</i>
   <i name="SYMPREC">      0.00001000</i>
  </separator>
  <separator name="dos" >
   <i type="logical" name="LORBIT"> F  </i>
   <v name="RWIGS">     -1.00000000</v>
   <i type="int" name="NEDOS">   301</i>
   <i name="EMIN">     10.00000000</i>
   <i name="EMAX">    -10.00000000</i>
   <i name="EFERMI">      0.00000000</i>
  </separator>
  <separator name="writing" >
   <i type="int" name="NWRITE">     2</i>
   <i type="logical" name="LWAVE"> F  </i>
   <i type="logical" name="LCHARG"> F  </i>
   <i type="logical" name="LPARD"> F  </i>
   <i type="logical" name="LVTOT"> F  </i>
   <i type="logical" name="LVHAR"> F  </i>
   <i type="logical" name="LELF"> F  </i>
   <i type="logical" name="LOPTICS"> F  </i>
   <v name="STM">      0.00000000      0.00000000      0.00000000      0.00000000      0.00000000      0.00000000      0.00000000</v>
  </separator>
  <separator name="performance" >
   <i type="int" name="NPAR">     4</i>
   <i type="int" name="NSIM">     4</i>
   <i type="int" name="NBLK">    -1</i>
   <i type="logical" name="LPLANE"> T  </i>
   <i type="logical" name="LSCALAPACK"> T  </i>
   <i type="logical" name="LSCAAWARE"> F  </i>
   <i type="logical" name="LSCALU"> F  </i>
   <i type="logical" name="LASYNC"> F  </i>
   <i type="logical" name="LORBITALREAL"> F  </i>
  </separator>
  <separator name="miscellaneous" >
   <i type="int" name="IDIOT">     3</i>
   <i type="logical" name="LMUSIC"> F  </i>
   <v name="POMASS">     30.97400000</v>
   <v name="DARWINR">      0.00000000</v>
   <v name="DARWINV">      1.00000000</v>
   <i type="logical" name="LCORR"> T  </i>
  </separator>
  <i type="logical" name="GGA_COMPAT"> T  </i>
  <i type="logical" name="LBERRY"> F  </i>
  <i type="int" name="ICORELEVEL">     0</i>
  <i type="logical" name="LDAU"> F  </i>
  <i type="int" name="I_CONSTRAINED_M">     0</i>
  <separator name="electronic exchange-correlation" >
   <i type="string" name="GGA">--</i>
   <i type="int" name="VOSKOWN">     0</i>
   <i type="logical" name="LHFCALC"> F  </i>
   <i type="string" name="PRECFOCK"></i>
   <i type="logical" name="LSYMGRAD"> F  </i>
   <i type="logical" name="LHFONE"> F  </i>
   <i type="logical" name="LRHFCALC"> F  </i>
   <i type="logical" name="LTHOMAS"> F  </i>
   <i type="logical" name="LMODELHF"> F  </i>
   <i name="ENCUT4O">     -1.00000000</i>
   <i type="int" name="EXXOEP">     0</i>
   <i type="int" name="FOURORBIT">     0</i>
   <i name="AEXX">      0.00000000</i>
   <i name="HFALPHA">      0.00000000</i>
   <i name="MCALPHA">      0.00000000</i>
   <i name="ALDAX">      1.00000000</i>
   <i name="AGGAX">      1.00000000</i>
   <i name="ALDAC">      1.00000000</i>
   <i name="AGGAC">      1.00000000</i>
   <i type="int" name="NKREDX">     1</i>
   <i type="int" name="NKREDY">     1</i>
   <i type="int" name="NKREDZ">     1</i>
   <i type="logical" name="SHIFTRED"> F  </i>
   <i type="logical" name="ODDONLY"> F  </i>
   <i type="logical" name="EVENONLY"> F  </i>
   <i type="int" name="LMAXFOCK">     0</i>
   <i type="int" name="NMAXFOCKAE">     0</i>
   <i type="logical" name="LFOCKAEDFT"> F  </i>
   <i name="HFSCREEN">      0.00000000</i>
   <i name="HFSCREENC">      0.00000000</i>
   <i type="int" name="NBANDSGWLOW">     0</i>
  </separator>
  <separator name="vdW DFT" >
   <i type="logical" name="LUSE_VDW"> F  </i>
   <i name="Zab_VDW">     -0.84910000</i>
   <i name="PARAM1">      0.12340000</i>
   <i name="PARAM2">      1.00000000</i>
   <i name="PARAM3">      0.00000000</i>
  </separator>
  <separator name="model GW" >
   <i type="int" name="MODEL_GW">     0</i>
   <i name="MODEL_EPS0">     45.19826840</i>
   <i name="MODEL_ALPHA">      1.00000000</i>
  </separator>
  <separator name="linear response parameters" >
   <i type="logical" name="LEPSILON"> F  </i>
   <i type="logical" name="LRPA"> F  </i>
   <i type="logical" name="LNABLA"> F  </i>
   <i type="logical" name="LVEL"> F  </i>
   <i type="int" name="KINTER">     0</i>
   <i name="CSHIFT">      0.10000000</i>
   <i name="OMEGAMAX">     -1.00000000</i>
   <i name="DEG_THRESHOLD">      0.00200000</i>
  </separator>
  <separator name="orbital magnetization" >
   <i type="logical" name="NUCIND"> F  </i>
   <v name="MAGPOS">      0.00000000      0.00000000      0.00000000</v>
   <i type="logical" name="LNICSALL"> T  </i>
   <i type="logical" name="ORBITALMAG"> F  </i>
   <i type="logical" name="LMAGBLOCH"> F  </i>
   <i type="logical" name="LCHIMAG"> F  </i>
   <i type="logical" name="LGAUGE"> T  </i>
   <i type="int" name="MAGATOM">     0</i>
   <v name="MAGDIPOL">      0.00000000      0.00000000      0.00000000</v>
   <v name="AVECCONST">      0.00000000      0.00000000      0.00000000</v>
  </separator>
  <separator name="response functions" >
   <i type="logical" name="LADDER"> F  </i>
   <i type="logical" name="LFXC"> F  </i>
   <i type="logical" name="LHARTREE"> T  </i>
   <i type="int" name="IBSE">     0</i>
   <v type="int" name="KPOINT">    -1     0     0     0</v>
   <i type="logical" name="LTCTE"> F  </i>
   <i type="logical" name="LTETE"> F  </i>
   <i type="logical" name="LTRIPLET"> F  </i>
   <i type="logical" name="LFXCEPS"> F  </i>
   <i type="logical" name="LFXHEG"> F  </i>
   <i type="int" name="NATURALO">     0</i>
   <i type="logical" name="L2ORDER"> F  </i>
   <i type="logical" name="LUSEW"> F  </i>
   <i name="ENCUTGW">     -2.00000000</i>
   <i name="ENCUTGWSOFT">     -2.00000000</i>
   <i name="ENCUTLF">     -1.00000000</i>
   <i type="int" name="LMAXMP2">    -1</i>
   <i name="SCISSOR">      0.00000000</i>
   <i type="int" name="NOMEGA">     0</i>
   <i type="int" name="NOMEGAR">     0</i>
   <i type="int" name="NBANDSGW">    -1</i>
   <i type="int" name="NBANDSO">    -1</i>
   <i type="int" name="NBANDSV">    -1</i>
   <i type="int" name="NELM">   250</i>
   <i type="int" name="NELMHF">     1</i>
   <i type="int" name="DIM">     3</i>
   <i type="int" name="ANTIRES">     0</i>
   <i name="OMEGAMAX">    -30.00000000</i>
   <i name="OMEGAMIN">    -30.00000000</i>
   <i name="OMEGATL">   -200.00000000</i>
   <i type="int" name="OMEGAGRID">     0</i>
   <i name="CSHIFT">     -0.10000000</i>
   <i type="logical" name="SELFENERGY"> F  </i>
   <i type="logical" name="LSPECTRAL"> F  </i>
   <i type="logical" name="LSPECTRALGW"> F  </i>
   <i type="logical" name="LSINGLES"> F  </i>
   <i type="logical" name="LFERMIGW"> F  </i>
   <i type="logical" name="ODDONLYGW"> F  </i>
   <i type="logical" name="EVENONLYGW"> F  </i>
   <i type="int" name="NKREDLFX">     1</i>
   <i type="int" name="NKREDLFY">     1</i>
   <i type="int" name="NKREDLFZ">     1</i>
   <i type="int" name="MAXMEM">  1800</i>
   <i type="int" name="TELESCOPE">     0</i>
   <i type="int" name="TAUPAR">     1</i>
   <i type="int" name="OMEGAPAR">    -1</i>
   <i name="LAMBDA">      1.00000000</i>
  </separator>
  <separator name="External order field" >
   <i name="OFIELD_KAPPA">      0.00000000</i>
   <v name="OFIELD_K">      0.00000000      0.00000000      0.00000000</v>
   <i name="OFIELD_Q6_NEAR">      0.00000000</i>
   <i name="OFIELD_Q6_FAR">      0.00000000</i>
   <i name="OFIELD_A">      0.00000000</i>
  </separator>
 </parameters>
 <atominfo>
  <atoms>       4 </atoms>
  <types>       1 </types>
  <array name="atoms" >
   <dimension dim="1">ion</dimension>
   <field type="string">element</field>
   <field type="int">atomtype</field>
   <set>
    <rc><c>P </c><c>   1</c></rc>
    <rc><c>P </c><c>   1</c></rc>
    <rc><c>P </c><c>   1</c></rc>
    <rc><c>P </c><c>   1</c></rc>
   </set>
  </array>
  <array name="atomtypes" >
   <dimension dim="1">type</dimension>
   <field type="int">atomspertype</field>
   <field type="string">element</field>
   <field>mass</field>
   <field>valence</field>
   <field type="string">pseudopotential</field>
   <set>
    <rc><c>   4</c><c>P </c><c>     30.97400000</c><c>      5.00000000</c><c>  PAW_PBE P 06Sep2000                   </c></rc>
   </set>
  </array>
 </atominfo>
 <structure name="initialpos" >
  <crystal>
   <varray name="basis" >
    <v>       3.28656700       0.26463000       0.00000000 </v>
    <v>       0.37106500       4.60843600      -0.00005300 </v>
    <v>       0.00000000       0.00000000      20.02439000 </v>
   </varray>
   <i name="volume">    301.32178931 </i>
   <varray name="rec_basis" >
    <v>       0.30625439      -0.02465919       0.00000000 </v>
    <v>      -0.01758603       0.21840936       0.00000000 </v>
    <v>      -0.00000005       0.00000058       0.04993910 </v>
   </varray>
  </crystal>
  <varray name="positions" >
   <v>       0.50000000       0.91077300       0.55252100 </v>
   <v>       0.50000000       0.08922700       0.44747900 </v>
   <v>       0.00000000       0.41076900       0.44747900 </v>
   <v>       0.00000000       0.58923100       0.55252100 </v>
  </varray>
 </structure>
 <calculation>
  <scstep>
   <time name="dav">    1.49    1.49</time>
   <time name="total">    1.52    1.52</time>
   <energy>
    <i name="alphaZ">      5.32374723 </i>
    <i name="ewald">   1897.40141843 </i>
    <i name="hartreedc">  -2488.87589416 </i>
    <i name="XCdc">     13.22065995 </i>
    <i name="pawpsdc">    559.04011960 </i>
    <i name="pawaedc">   -526.39432044 </i>
    <i name="eentropy">     -0.00052464 </i>
    <i name="bandstr">    -28.63851522 </i>
    <i name="atom">    704.16778566 </i>
    <i name="e_fr_energy">    135.24447641 </i>
    <i name="e_wo_entrp">    135.24500105 </i>
    <i name="e_0_energy">    135.24473873 </i>
   </energy>
  </scstep>
  <scstep>
   <time name="dav">    2.01    2.01</time>
   <time name="total">    2.01    2.01</time>
   <energy>
    <i name="e_fr_energy">     -5.52279993 </i>
    <i name="e_wo_entrp">     -5.52268127 </i>
    <i name="e_0_energy">     -5.52274060 </i>
   </energy>
  </scstep>
  <scstep>
   <time name="dav">    1.78    1.78</time>
   <time name="total">    1.78    1.78</time>
   <energy>
    <i name="e_fr_energy">    -20.71333370 </i>
    <i name="e_wo_entrp">    -20.71333370 </i>
    <i name="e_0_energy">    -20.71333370 </i>
   </energy>
  </scstep>
  <scstep>
   <time name="dav">    1.88    1.88</time>
   <time name="total">    1.89    1.89</time>
   <energy>
    <i name="e_fr_energy">    -21.03586488 </i>
    <i name="e_wo_entrp">    -21.03586488 </i>
    <i name="e_0_energy">    -21.03586488 </i>
   </energy>
  </scstep>
  <scstep>
   <time name="dav">    1.99    1.99</time>
   <time name="total">    2.09    2.09</time>
   <energy>
    <i name="e_fr_energy">    -21.04556006 </i>
    <i name="e_wo_entrp">    -21.04556006 </i>
    <i name="e_0_energy">    -21.04556006 </i>
   </energy>
  </scstep>
  <scstep>
   <time name="dav">    1.80    1.80</time>
   <time name="total">    1.91    1.92</time>
   <energy>
    <i name="e_fr_energy">    -20.80157505 </i>
    <i name="e_wo_entrp">    -20.80157505 </i>
    <i name="e_0_energy">    -20.80157505 </i>
   </energy>
  </scstep>
  <scstep>
   <time name="dav">    1.82    1.82</time>
   <time name="total">    1.93    1.93</time>
   <energy>
    <i name="e_fr_energy">    -20.71294017 </i>
    <i name="e_wo_entrp">    -20.71294017 </i>
    <i name="e_0_energy">    -20.71294017 </i>
   </energy>
  </scstep>
  <scstep>
   <time name="dav">    1.82    1.82</time>
   <time name="total">    1.93    1.93</time>
   <energy>
    <i name="e_fr_energy">    -20.71092990 </i>
    <i name="e_wo_entrp">    -20.71092990 </i>
    <i name="e_0_energy">    -20.71092990 </i>
   </energy>
  </scstep>
  <scstep>
   <time name="dav">    2.11    2.11</time>
   <time name="total">    2.22    2.22</time>
   <energy>
    <i name="e_fr_energy">    -20.71067300 </i>
    <i name="e_wo_entrp">    -20.71067300 </i>
    <i name="e_0_energy">    -20.71067300 </i>
   </energy>
  </scstep>
  <scstep>
   <time name="dav">    1.82    1.82</time>
   <time name="total">    1.93    1.93</time>
   <energy>
    <i name="e_fr_energy">    -20.70985430 </i>
    <i name="e_wo_entrp">    -20.70985430 </i>
    <i name="e_0_energy">    -20.70985430 </i>
   </energy>
  </scstep>
  <scstep>
   <time name="dav">    1.88    1.88</time>
   <time name="total">    1.99    2.00</time>
   <energy>
    <i name="e_fr_energy">    -20.70978357 </i>
    <i name="e_wo_entrp">    -20.70978357 </i>
    <i name="e_0_energy">    -20.70978357 </i>
   </energy>
  </scstep>
  <scstep>
   <time name="dav">    1.66    1.66</time>
   <time name="total">    1.77    1.78</time>
   <energy>
    <i name="e_fr_energy">    -20.71001725 </i>
    <i name="e_wo_entrp">    -20.71001725 </i>
    <i name="e_0_energy">    -20.71001725 </i>
   </energy>
  </scstep>
  <scstep>
   <time name="dav">    1.70    1.70</time>
   <time name="total">    1.81    1.81</time>
   <energy>
    <i name="e_fr_energy">    -20.71018373 </i>
    <i name="e_wo_entrp">    -20.71018373 </i>
    <i name="e_0_energy">    -20.71018373 </i>
   </energy>
  </scstep>
  <scstep>
   <time name="dav">    1.59    1.59</time>
   <time name="total">    1.70    1.70</time>
   <energy>
    <i name="e_fr_energy">    -20.71028739 </i>
    <i name="e_wo_entrp">    -20.71028739 </i>
    <i name="e_0_energy">    -20.71028739 </i>
   </energy>
  </scstep>
  <scstep>
   <time name="dav">    1.55    1.55</time>
   <time name="total">    1.66    1.66</time>
   <energy>
    <i name="e_fr_energy">    -20.71045855 </i>
    <i name="e_wo_entrp">    -20.71045855 </i>
    <i name="e_0_energy">    -20.71045855 </i>
   </energy>
  </scstep>
  <scstep>
   <time name="dav">    1.59    1.59</time>
   <time name="total">    1.70    1.70</time>
   <energy>
    <i name="e_fr_energy">    -20.71048988 </i>
    <i name="e_wo_entrp">    -20.71048988 </i>
    <i name="e_0_energy">    -20.71048988 </i>
   </energy>
  </scstep>
  <scstep>
   <time name="dav">    1.45    1.45</time>
   <time name="total">    1.56    1.56</time>
   <energy>
    <i name="e_fr_energy">    -20.71052579 </i>
    <i name="e_wo_entrp">    -20.71052579 </i>
    <i name="e_0_energy">    -20.71052579 </i>
   </energy>
  </scstep>
  <scstep>
   <time name="dav">    1.56    1.56</time>
   <time name="total">    1.58    1.58</time>
   <energy>
    <i name="alphaZ">      5.32374723 </i>
    <i name="ewald">   1897.40141843 </i>
    <i name="hartreedc">  -2506.35749280 </i>
    <i name="XCdc">     14.36060223 </i>
    <i name="pawpsdc">   2287.38573644 </i>
    <i name="pawaedc">  -2255.15602854 </i>
    <i name="eentropy">     -0.00000000 </i>
    <i name="bandstr">   -167.83629976 </i>
    <i name="atom">    704.16778566 </i>
    <i name="e_fr_energy">    -20.71053112 </i>
    <i name="e_wo_entrp">    -20.71053112 </i>
    <i name="e_0_energy">    -20.71053112 </i>
   </energy>
  </scstep>
  <structure>
   <crystal>
    <varray name="basis" >
     <v>       3.28656700       0.26463000       0.00000000 </v>
     <v>       0.37106500       4.60843600      -0.00005300 </v>
     <v>       0.00000000       0.00000000      20.02439000 </v>
    </varray>
    <i name="volume">    301.32178931 </i>
    <varray name="rec_basis" >
     <v>       0.30625439      -0.02465919       0.00000000 </v>
     <v>      -0.01758603       0.21840936       0.00000000 </v>
     <v>      -0.00000005       0.00000058       0.04993910 </v>
    </varray>
   </crystal>
   <varray name="positions" >
    <v>       0.50000000       0.91077300       0.55252100 </v>
    <v>       0.50000000       0.08922700       0.44747900 </v>
    <v>       0.00000000       0.41076900       0.44747900 </v>
    <v>       0.00000000       0.58923100       0.55252100 </v>
   </varray>
  </structure>
  <varray name="forces" >
   <v>      -2.30940723       1.02619876       0.01395612 </v>
   <v>       2.30940723      -1.02619876      -0.01395612 </v>
   <v>      -2.30938885       1.02616169      -0.01397712 </v>
   <v>       2.30938885      -1.02616169       0.01397712 </v>
  </varray>
  <varray name="stress" >
   <v>      19.80933602     -48.65088765       0.00037201 </v>
   <v>     -48.65088776      19.25721519       0.00013925 </v>
   <v>       0.00037197       0.00013913       0.23796476 </v>
  </varray>
  <energy>
   <i name="e_fr_energy">    -20.71053112 </i>
   <i name="e_wo_entrp">    -20.71053112 </i>
   <i name="e_0_energy">     -0.00000000 </i>
  </energy>
  <time name="totalsc">   33.74   33.79</time>
 </calculation>
 <calculation>
  <scstep>
   <time name="dav">    1.54    1.54</time>
   <time name="total">    1.65    1.66</time>
   <energy>
    <i name="alphaZ">      5.32374723 </i>
    <i name="ewald">   1888.98507783 </i>
    <i name="hartreedc">  -2501.30803285 </i>
    <i name="XCdc">     14.13825387 </i>
    <i name="pawpsdc">   2286.78456949 </i>
    <i name="pawaedc">  -2254.55488924 </i>
    <i name="eentropy">     -0.00000000 </i>
    <i name="bandstr">   -164.57441569 </i>
    <i name="atom">    704.16778566 </i>
    <i name="e_fr_energy">    -21.03790369 </i>
    <i name="e_wo_entrp">    -21.03790369 </i>
    <i name="e_0_energy">    -21.03790369 </i>
   </energy>
  </scstep>
  <scstep>
   <time name="dav">    1.83    1.83</time>
   <time name="total">    1.94    1.95</time>
   <energy>
    <i name="e_fr_energy">    -21.11721082 </i>
    <i name="e_wo_entrp">    -21.11721082 </i>
    <i name="e_0_energy">    -21.11721082 </i>
   </energy>
  </scstep>
  <scstep>
   <time name="dav">    1.95    1.95</time>
   <time name="total">    2.07    2.07</time>
   <energy>
    <i name="e_fr_energy">    -21.11105168 </i>
    <i name="e_wo_entrp">    -21.11105168 </i>
    <i name="e_0_energy">    -21.11105168 </i>
   </energy>
  </scstep>
  <scstep>
   <time name="dav">    1.82    1.82</time>
   <time name="total">    1.93    1.94</time>
   <energy>
    <i name="e_fr_energy">    -21.10959884 </i>
    <i name="e_wo_entrp">    -21.10959884 </i>
    <i name="e_0_energy">    -21.10959884 </i>
   </energy>
  </scstep>
  <scstep>
   <time name="dav">    1.75    1.75</time>
   <time name="total">    1.87    1.87</time>
   <energy>
    <i name="e_fr_energy">    -21.10963795 </i>
    <i name="e_wo_entrp">    -21.10963795 </i>
    <i name="e_0_energy">    -21.10963795 </i>
   </energy>
  </scstep>
  <scstep>
   <time name="dav">    1.92    1.92</time>
   <time name="total">    1.94    1.94</time>
   <energy>
    <i name="alphaZ">      5.32374723 </i>
    <i name="ewald">   1888.98507783 </i>
    <i name="hartreedc">  -2500.90835906 </i>
    <i name="XCdc">     14.07293934 </i>
    <i name="pawpsdc">   2050.50986671 </i>
    <i name="pawaedc">  -2018.18227215 </i>
    <i name="eentropy">     -0.00000000 </i>
    <i name="bandstr">   -165.07843332 </i>
    <i name="atom">    704.16778566 </i>
    <i name="e_fr_energy">    -21.10964777 </i>
    <i name="e_wo_entrp">    -21.10964777 </i>
    <i name="e_0_energy">    -21.10964777 </i>
   </energy>
  </scstep>
  <structure>
   <crystal>
    <varray name="basis" >
     <v>       3.28656700       0.26463000       0.00000000 </v>
     <v>       0.37106500       4.60843600      -0.00005300 </v>
     <v>       0.00000000       0.00000000      20.02439000 </v>
    </varray>
    <i name="volume">    301.32178931 </i>
    <varray name="rec_basis" >
     <v>       0.30625439      -0.02465919       0.00000000 </v>
     <v>      -0.01758603       0.21840936       0.00000000 </v>
     <v>      -0.00000005       0.00000058       0.04993910 </v>
    </varray>
   </crystal>
   <varray name="positions" >
    <v>       0.47879529       0.91843619       0.55254119 </v>
    <v>       0.52120471       0.08156381       0.44745881 </v>
    <v>      -0.02120452       0.41843195       0.44745882 </v>
    <v>       0.02120452       0.58156805       0.55254118 </v>
   </varray>
  </structure>
  <varray name="forces" >
   <v>      -0.55991076      -0.37838095       0.00169695 </v>
   <v>       0.55991076       0.37838095      -0.00169695 </v>
   <v>      -0.55989750      -0.37840889      -0.00168845 </v>
   <v>       0.55989750       0.37840889       0.00168845 </v>
  </varray>
  <varray name="stress" >
   <v>       3.46605506     -25.28964799       0.00013886 </v>
   <v>     -25.28964804       2.30550397       0.00025829 </v>
   <v>       0.00013885       0.00025833       0.11192274 </v>
  </varray>
  <energy>
   <i name="e_fr_energy">    -21.10964777 </i>
   <i name="e_wo_entrp">    -21.10964777 </i>
   <i name="e_0_energy">     -0.00000000 </i>
  </energy>
  <time name="totalsc">   12.17   12.19</time>
 </calculation>
 <calculation>
  <scstep>
   <time name="dav">    1.52    1.52</time>
   <time name="total">    1.63    1.63</time>
   <energy>
    <i name="alphaZ">      5.32374723 </i>
    <i name="ewald">   1887.41911946 </i>
    <i name="hartreedc">  -2499.93956696 </i>
    <i name="XCdc">     14.02921932 </i>
    <i name="pawpsdc">   2054.19228565 </i>
    <i name="pawaedc">  -2021.86575869 </i>
    <i name="eentropy">     -0.00000000 </i>
    <i name="bandstr">   -164.44435485 </i>
    <i name="atom">    704.16778566 </i>
    <i name="e_fr_energy">    -21.11752319 </i>
    <i name="e_wo_entrp">    -21.11752319 </i>
    <i name="e_0_energy">    -21.11752319 </i>
   </energy>
  </scstep>
  <scstep>
   <time name="dav">    1.86    1.86</time>
   <time name="total">    1.97    1.97</time>
   <energy>
    <i name="e_fr_energy">    -21.12132202 </i>
    <i name="e_wo_entrp">    -21.12132202 </i>
    <i name="e_0_energy">    -21.12132202 </i>
   </energy>
  </scstep>
  <scstep>
   <time name="dav">    1.95    1.95</time>
   <time name="total">    2.06    2.07</time>
   <energy>
    <i name="e_fr_energy">    -21.12114066 </i>
    <i name="e_wo_entrp">    -21.12114066 </i>
    <i name="e_0_energy">    -21.12114066 </i>
   </energy>
  </scstep>
  <scstep>
   <time name="dav">    1.89    1.89</time>
   <time name="total">    2.00    2.00</time>
   <energy>
    <i name="e_fr_energy">    -21.12109785 </i>
    <i name="e_wo_entrp">    -21.12109785 </i>
    <i name="e_0_energy">    -21.12109785 </i>
   </energy>
  </scstep>
  <scstep>
   <time name="dav">    1.64    1.64</time>
   <time name="total">    1.76    1.76</time>
   <energy>
    <i name="e_fr_energy">    -21.12110023 </i>
    <i name="e_wo_entrp">    -21.12110023 </i>
    <i name="e_0_energy">    -21.12110023 </i>
   </energy>
  </scstep>
  <scstep>
   <time name="dav">    1.34    1.34</time>
   <time name="total">    1.36    1.37</time>
   <energy>
    <i name="alphaZ">      5.32374723 </i>
    <i name="ewald">   1887.41911946 </i>
    <i name="hartreedc">  -2499.96463809 </i>
    <i name="XCdc">     14.01852085 </i>
    <i name="pawpsdc">   2013.76113431 </i>
    <i name="pawaedc">  -1981.41863392 </i>
    <i name="eentropy">     -0.00000000 </i>
    <i name="bandstr">   -164.42813609 </i>
    <i name="atom">    704.16778566 </i>
    <i name="e_fr_energy">    -21.12110059 </i>
    <i name="e_wo_entrp">    -21.12110059 </i>
    <i name="e_0_energy">    -21.12110059 </i>
   </energy>
  </scstep>
  <structure>
   <crystal>
    <varray name="basis" >
     <v>       3.28656700       0.26463000       0.00000000 </v>
     <v>       0.37106500       4.60843600      -0.00005300 </v>
     <v>       0.00000000       0.00000000      20.02439000 </v>
    </varray>
    <i name="volume">    301.32178931 </i>
    <varray name="rec_basis" >
     <v>       0.30625439      -0.02465919       0.00000000 </v>
     <v>      -0.01758603       0.21840936       0.00000000 </v>
     <v>      -0.00000005       0.00000058       0.04993910 </v>
    </varray>
   </crystal>
   <varray name="positions" >
    <v>       0.47402601       0.92015977       0.55254574 </v>
    <v>       0.52597399       0.07984023       0.44745426 </v>
    <v>      -0.02597376       0.42015547       0.44745428 </v>
    <v>       0.02597376       0.57984453       0.55254572 </v>
   </varray>
  </structure>
  <varray name="forces" >
   <v>      -0.25425966      -0.58700865      -0.00300189 </v>
   <v>       0.25425966       0.58700865       0.00300189 </v>
   <v>      -0.25424767      -0.58703484       0.00301571 </v>
   <v>       0.25424767       0.58703484      -0.00301571 </v>
  </varray>
  <varray name="stress" >
   <v>       1.36370666     -21.19201208       0.00010731 </v>
   <v>     -21.19201212      -0.16624187       0.00026601 </v>
   <v>       0.00010734       0.00026602      -0.09120162 </v>
  </varray>
  <energy>
   <i name="e_fr_energy">    -21.12110059 </i>
   <i name="e_wo_entrp">    -21.12110059 </i>
   <i name="e_0_energy">     -0.00000000 </i>
  </energy>
  <time name="totalsc">   11.54   11.55</time>
 </calculation>
 <calculation>
  <scstep>
   <time name="dav">    1.56    1.56</time>
   <time name="total">    1.67    1.67</time>
   <energy>
    <i name="alphaZ">      5.32374723 </i>
    <i name="ewald">   1889.15001449 </i>
    <i name="hartreedc">  -2501.20494695 </i>
    <i name="XCdc">     14.07425846 </i>
    <i name="pawpsdc">   2013.97056901 </i>
    <i name="pawaedc">  -1981.62822366 </i>
    <i name="eentropy">     -0.00000000 </i>
    <i name="bandstr">   -165.00716809 </i>
    <i name="atom">    704.16778566 </i>
    <i name="e_fr_energy">    -21.15396385 </i>
    <i name="e_wo_entrp">    -21.15396385 </i>
    <i name="e_0_energy">    -21.15396385 </i>
   </energy>
  </scstep>
  <scstep>
   <time name="dav">    1.81    1.81</time>
   <time name="total">    1.92    1.92</time>
   <energy>
    <i name="e_fr_energy">    -21.15880975 </i>
    <i name="e_wo_entrp">    -21.15880975 </i>
    <i name="e_0_energy">    -21.15880975 </i>
   </energy>
  </scstep>
  <scstep>
   <time name="dav">    1.99    1.99</time>
   <time name="total">    2.10    2.11</time>
   <energy>
    <i name="e_fr_energy">    -21.15870246 </i>
    <i name="e_wo_entrp">    -21.15870246 </i>
    <i name="e_0_energy">    -21.15870246 </i>
   </energy>
  </scstep>
  <scstep>
   <time name="dav">    1.88    1.88</time>
   <time name="total">    1.99    1.99</time>
   <energy>
    <i name="e_fr_energy">    -21.15866946 </i>
    <i name="e_wo_entrp">    -21.15866946 </i>
    <i name="e_0_energy">    -21.15866946 </i>
   </energy>
  </scstep>
  <scstep>
   <time name="dav">    1.73    1.73</time>
   <time name="total">    1.84    1.84</time>
   <energy>
    <i name="e_fr_energy">    -21.15867205 </i>
    <i name="e_wo_entrp">    -21.15867205 </i>
    <i name="e_0_energy">    -21.15867205 </i>
   </energy>
  </scstep>
  <scstep>
   <time name="dav">    1.45    1.45</time>
   <time name="total">    1.47    1.47</time>
   <energy>
    <i name="alphaZ">      5.32374723 </i>
    <i name="ewald">   1889.15001449 </i>
    <i name="hartreedc">  -2501.13251991 </i>
    <i name="XCdc">     14.07721376 </i>
    <i name="pawpsdc">   2046.24692149 </i>
    <i name="pawaedc">  -2013.91584459 </i>
    <i name="eentropy">     -0.00000000 </i>
    <i name="bandstr">   -165.07598962 </i>
    <i name="atom">    704.16778566 </i>
    <i name="e_fr_energy">    -21.15867148 </i>
    <i name="e_wo_entrp">    -21.15867148 </i>
    <i name="e_0_energy">    -21.15867148 </i>
   </energy>
  </scstep>
  <structure>
   <crystal>
    <varray name="basis" >
     <v>       3.28656700       0.26463000       0.00000000 </v>
     <v>       0.37106500       4.60843600      -0.00005300 </v>
     <v>       0.00000000       0.00000000      20.02439000 </v>
    </varray>
    <i name="volume">    301.32178931 </i>
    <varray name="rec_basis" >
     <v>       0.30625439      -0.02465919       0.00000000 </v>
     <v>      -0.01758603       0.21840936       0.00000000 </v>
     <v>      -0.00000005       0.00000058       0.04993910 </v>
    </varray>
   </crystal>
   <varray name="positions" >
    <v>       0.47063566       0.91694930       0.55254259 </v>
    <v>       0.52936434       0.08305070       0.44745741 </v>
    <v>      -0.02936396       0.41694480       0.44745742 </v>
    <v>       0.02936396       0.58305520       0.55254258 </v>
   </varray>
  </structure>
  <varray name="forces" >
   <v>      -0.09109542      -0.32840600      -0.05041241 </v>
   <v>       0.09109542       0.32840600       0.05041241 </v>
   <v>      -0.09108533      -0.32842625       0.05041969 </v>
   <v>       0.09108533       0.32842625      -0.05041969 </v>
  </varray>
  <varray name="stress" >
   <v>       1.03479298     -19.27231774       0.00010894 </v>
   <v>     -19.27231769       3.58981870       0.00015906 </v>
   <v>       0.00010890       0.00015898      -1.26104695 </v>
  </varray>
  <energy>
   <i name="e_fr_energy">    -21.15867148 </i>
   <i name="e_wo_entrp">    -21.15867148 </i>
   <i name="e_0_energy">     -0.00000000 </i>
  </energy>
  <time name="totalsc">   11.75   11.77</time>
 </calculation>
 <calculation>
  <scstep>
   <time name="dav">    1.56    1.56</time>
   <time name="total">    1.67    1.67</time>
   <energy>
    <i name="alphaZ">      5.32374723 </i>
    <i name="ewald">   1890.82489597 </i>
    <i name="hartreedc">  -2502.27497240 </i>
    <i name="XCdc">     14.12896860 </i>
    <i name="pawpsdc">   2046.22759212 </i>
    <i name="pawaedc">  -2013.89641959 </i>
    <i name="eentropy">     -0.00000000 </i>
    <i name="bandstr">   -165.66803058 </i>
    <i name="atom">    704.16778566 </i>
    <i name="e_fr_energy">    -21.16643300 </i>
    <i name="e_wo_entrp">    -21.16643300 </i>
    <i name="e_0_energy">    -21.16643300 </i>
   </energy>
  </scstep>
  <scstep>
   <time name="dav">    1.82    1.82</time>
   <time name="total">    1.93    1.93</time>
   <energy>
    <i name="e_fr_energy">    -21.17051007 </i>
    <i name="e_wo_entrp">    -21.17051007 </i>
    <i name="e_0_energy">    -21.17051007 </i>
   </energy>
  </scstep>
  <scstep>
   <time name="dav">    2.00    2.00</time>
   <time name="total">    2.11    2.11</time>
   <energy>
    <i name="e_fr_energy">    -21.17038586 </i>
    <i name="e_wo_entrp">    -21.17038586 </i>
    <i name="e_0_energy">    -21.17038586 </i>
   </energy>
  </scstep>
  <scstep>
   <time name="dav">    1.89    1.89</time>
   <time name="total">    2.00    2.01</time>
   <energy>
    <i name="e_fr_energy">    -21.17035437 </i>
    <i name="e_wo_entrp">    -21.17035437 </i>
    <i name="e_0_energy">    -21.17035437 </i>
   </energy>
  </scstep>
  <scstep>
   <time name="dav">    1.65    1.65</time>
   <time name="total">    1.76    1.76</time>
   <energy>
    <i name="e_fr_energy">    -21.17035897 </i>
    <i name="e_wo_entrp">    -21.17035897 </i>
    <i name="e_0_energy">    -21.17035897 </i>
   </energy>
  </scstep>
  <scstep>
   <time name="dav">    1.37    1.37</time>
   <time name="total">    1.39    1.39</time>
   <energy>
    <i name="alphaZ">      5.32374723 </i>
    <i name="ewald">   1890.82489597 </i>
    <i name="hartreedc">  -2502.19682452 </i>
    <i name="XCdc">     14.13216749 </i>
    <i name="pawpsdc">   2079.21896010 </i>
    <i name="pawaedc">  -2046.89962728 </i>
    <i name="eentropy">     -0.00000000 </i>
    <i name="bandstr">   -165.74146541 </i>
    <i name="atom">    704.16778566 </i>
    <i name="e_fr_energy">    -21.17036078 </i>
    <i name="e_wo_entrp">    -21.17036078 </i>
    <i name="e_0_energy">    -21.17036078 </i>
   </energy>
  </scstep>
  <structure>
   <crystal>
    <varray name="basis" >
     <v>       3.28656700       0.26463000       0.00000000 </v>
     <v>       0.37106500       4.60843600      -0.00005300 </v>
     <v>       0.00000000       0.00000000      20.02439000 </v>
    </varray>
    <i name="volume">    301.32178931 </i>
    <varray name="rec_basis" >
     <v>       0.30625439      -0.02465919       0.00000000 </v>
     <v>      -0.01758603       0.21840936       0.00000000 </v>
     <v>      -0.00000005       0.00000058       0.04993910 </v>
    </varray>
   </crystal>
   <varray name="positions" >
    <v>       0.46757757       0.91405346       0.55253976 </v>
    <v>       0.53242243       0.08594654       0.44746024 </v>
    <v>      -0.03242192       0.41404879       0.44746026 </v>
    <v>       0.03242192       0.58595121       0.55253974 </v>
   </varray>
  </structure>
  <varray name="forces" >
   <v>       0.08372430      -0.06886603      -0.09082334 </v>
   <v>      -0.08372430       0.06886603       0.09082334 </v>
   <v>       0.08373287      -0.06888054       0.09082374 </v>
   <v>      -0.08373287       0.06888054      -0.09082374 </v>
  </varray>
  <varray name="stress" >
   <v>       1.03535131     -17.12869265       0.00010508 </v>
   <v>     -17.12869271       7.30942353       0.00005679 </v>
   <v>       0.00010512       0.00005688      -2.17100934 </v>
  </varray>
  <energy>
   <i name="e_fr_energy">    -21.17036078 </i>
   <i name="e_wo_entrp">    -21.17036078 </i>
   <i name="e_0_energy">     -0.00000000 </i>
  </energy>
  <time name="totalsc">   11.63   11.64</time>
 </calculation>
 <calculation>
  <scstep>
   <time name="dav">    1.47    1.47</time>
   <time name="total">    1.58    1.59</time>
   <energy>
    <i name="alphaZ">      5.32374723 </i>
    <i name="ewald">   1894.29776453 </i>
    <i name="hartreedc">  -2505.33495355 </i>
    <i name="XCdc">     14.16562128 </i>
    <i name="pawpsdc">   2079.18143701 </i>
    <i name="pawaedc">  -2046.86200251 </i>
    <i name="eentropy">     -0.00000000 </i>
    <i name="bandstr">   -166.11127398 </i>
    <i name="atom">    704.16778566 </i>
    <i name="e_fr_energy">    -21.17187434 </i>
    <i name="e_wo_entrp">    -21.17187434 </i>
    <i name="e_0_energy">    -21.17187434 </i>
   </energy>
  </scstep>
  <scstep>
   <time name="dav">    1.88    1.88</time>
   <time name="total">    1.99    1.99</time>
   <energy>
    <i name="e_fr_energy">    -21.17228080 </i>
    <i name="e_wo_entrp">    -21.17228080 </i>
    <i name="e_0_energy">    -21.17228080 </i>
   </energy>
  </scstep>
  <scstep>
   <time name="dav">    1.98    1.98</time>
   <time name="total">    2.09    2.09</time>
   <energy>
    <i name="e_fr_energy">    -21.17227165 </i>
    <i name="e_wo_entrp">    -21.17227165 </i>
    <i name="e_0_energy">    -21.17227165 </i>
   </energy>
  </scstep>
  <scstep>
   <time name="dav">    1.54    1.54</time>
   <time name="total">    1.65    1.65</time>
   <energy>
    <i name="e_fr_energy">    -21.17227083 </i>
    <i name="e_wo_entrp">    -21.17227083 </i>
    <i name="e_0_energy">    -21.17227083 </i>
   </energy>
  </scstep>
  <scstep>
   <time name="dav">    1.26    1.26</time>
   <time name="total">    1.37    1.38</time>
   <energy>
    <i name="e_fr_energy">    -21.17227202 </i>
    <i name="e_wo_entrp">    -21.17227202 </i>
    <i name="e_0_energy">    -21.17227202 </i>
   </energy>
  </scstep>
  <scstep>
   <time name="dav">    1.27    1.27</time>
   <time name="total">    1.29    1.29</time>
   <energy>
    <i name="alphaZ">      5.32374723 </i>
    <i name="ewald">   1894.29776453 </i>
    <i name="hartreedc">  -2505.31957796 </i>
    <i name="XCdc">     14.16902763 </i>
    <i name="pawpsdc">   2099.17436496 </i>
    <i name="pawaedc">  -2066.86238336 </i>
    <i name="eentropy">     -0.00000000 </i>
    <i name="bandstr">   -166.12300155 </i>
    <i name="atom">    704.16778566 </i>
    <i name="e_fr_energy">    -21.17227288 </i>
    <i name="e_wo_entrp">    -21.17227288 </i>
    <i name="e_0_energy">    -21.17227288 </i>
   </energy>
  </scstep>
  <structure>
   <crystal>
    <varray name="basis" >
     <v>       3.28656700       0.26463000       0.00000000 </v>
     <v>       0.37106500       4.60843600      -0.00005300 </v>
     <v>       0.00000000       0.00000000      20.02439000 </v>
    </varray>
    <i name="volume">    301.32178931 </i>
    <varray name="rec_basis" >
     <v>       0.30625439      -0.02465919       0.00000000 </v>
     <v>      -0.01758603       0.21840936       0.00000000 </v>
     <v>      -0.00000005       0.00000058       0.04993910 </v>
    </varray>
   </crystal>
   <varray name="positions" >
    <v>       0.46854795       0.91345842       0.55237781 </v>
    <v>       0.53145205       0.08654158       0.44762219 </v>
    <v>      -0.03145144       0.41345362       0.44762220 </v>
    <v>       0.03145144       0.58654638       0.55237780 </v>
   </varray>
  </structure>
  <varray name="forces" >
   <v>       0.01283790      -0.01488789      -0.04904896 </v>
   <v>      -0.01283790       0.01488789       0.04904896 </v>
   <v>       0.01284507      -0.01490015       0.04904779 </v>
   <v>      -0.01284507       0.01490015      -0.04904779 </v>
  </varray>
  <varray name="stress" >
   <v>       1.60771797     -18.04013036       0.00012986 </v>
   <v>     -18.04013034       8.18623880       0.00002058 </v>
   <v>       0.00012986       0.00002059      -1.20477891 </v>
  </varray>
  <energy>
   <i name="e_fr_energy">    -21.17227288 </i>
   <i name="e_wo_entrp">    -21.17227288 </i>
   <i name="e_0_energy">     -0.00000000 </i>
  </energy>
  <time name="totalsc">   10.74   10.75</time>
 </calculation>
 <calculation>
  <scstep>
   <time name="dav">    1.47    1.47</time>
   <time name="total">    1.58    1.58</time>
   <energy>
    <i name="alphaZ">      5.32374723 </i>
    <i name="ewald">   1895.99405296 </i>
    <i name="hartreedc">  -2506.84099193 </i>
    <i name="XCdc">     14.18527410 </i>
    <i name="pawpsdc">   2099.37883812 </i>
    <i name="pawaedc">  -2067.06675028 </i>
    <i name="eentropy">     -0.00000000 </i>
    <i name="bandstr">   -166.31436395 </i>
    <i name="atom">    704.16778566 </i>
    <i name="e_fr_energy">    -21.17240810 </i>
    <i name="e_wo_entrp">    -21.17240810 </i>
    <i name="e_0_energy">    -21.17240810 </i>
   </energy>
  </scstep>
  <scstep>
   <time name="dav">    1.90    1.91</time>
   <time name="total">    2.01    2.02</time>
   <energy>
    <i name="e_fr_energy">    -21.17250831 </i>
    <i name="e_wo_entrp">    -21.17250831 </i>
    <i name="e_0_energy">    -21.17250831 </i>
   </energy>
  </scstep>
  <scstep>
   <time name="dav">    1.78    1.78</time>
   <time name="total">    1.89    1.90</time>
   <energy>
    <i name="e_fr_energy">    -21.17250656 </i>
    <i name="e_wo_entrp">    -21.17250656 </i>
    <i name="e_0_energy">    -21.17250656 </i>
   </energy>
  </scstep>
  <scstep>
   <time name="dav">    1.33    1.33</time>
   <time name="total">    1.44    1.44</time>
   <energy>
    <i name="e_fr_energy">    -21.17250721 </i>
    <i name="e_wo_entrp">    -21.17250721 </i>
    <i name="e_0_energy">    -21.17250721 </i>
   </energy>
  </scstep>
  <scstep>
   <time name="dav">    1.23    1.23</time>
   <time name="total">    1.34    1.34</time>
   <energy>
    <i name="e_fr_energy">    -21.17250775 </i>
    <i name="e_wo_entrp">    -21.17250775 </i>
    <i name="e_0_energy">    -21.17250775 </i>
   </energy>
  </scstep>
  <scstep>
   <time name="dav">    1.23    1.23</time>
   <time name="total">    1.25    1.25</time>
   <energy>
    <i name="alphaZ">      5.32374723 </i>
    <i name="ewald">   1895.99405296 </i>
    <i name="hartreedc">  -2506.83305313 </i>
    <i name="XCdc">     14.18697113 </i>
    <i name="pawpsdc">   2109.25478462 </i>
    <i name="pawaedc">  -2076.94640793 </i>
    <i name="eentropy">     -0.00000000 </i>
    <i name="bandstr">   -166.32038864 </i>
    <i name="atom">    704.16778566 </i>
    <i name="e_fr_energy">    -21.17250810 </i>
    <i name="e_wo_entrp">    -21.17250810 </i>
    <i name="e_0_energy">    -21.17250810 </i>
   </energy>
  </scstep>
  <structure>
   <crystal>
    <varray name="basis" >
     <v>       3.28656700       0.26463000       0.00000000 </v>
     <v>       0.37106500       4.60843600      -0.00005300 </v>
     <v>       0.00000000       0.00000000      20.02439000 </v>
    </varray>
    <i name="volume">    301.32178931 </i>
    <varray name="rec_basis" >
     <v>       0.30625439      -0.02465919       0.00000000 </v>
     <v>      -0.01758603       0.21840936       0.00000000 </v>
     <v>      -0.00000005       0.00000058       0.04993910 </v>
    </varray>
   </crystal>
   <varray name="positions" >
    <v>       0.46902134       0.91316813       0.55229881 </v>
    <v>       0.53097866       0.08683187       0.44770119 </v>
    <v>      -0.03097800       0.41316328       0.44770121 </v>
    <v>       0.03097800       0.58683672       0.55229879 </v>
   </varray>
  </structure>
  <varray name="forces" >
   <v>      -0.02217230       0.01197872      -0.02865845 </v>
   <v>       0.02217230      -0.01197872       0.02865845 </v>
   <v>      -0.02216579       0.01196748       0.02865671 </v>
   <v>       0.02216579      -0.01196748      -0.02865671 </v>
  </varray>
  <varray name="stress" >
   <v>       1.90878110     -18.47259483       0.00014215 </v>
   <v>     -18.47259487       8.62529103       0.00000369 </v>
   <v>       0.00014218       0.00000365      -0.73174863 </v>
  </varray>
  <energy>
   <i name="e_fr_energy">    -21.17250810 </i>
   <i name="e_wo_entrp">    -21.17250810 </i>
   <i name="e_0_energy">     -0.00000000 </i>
  </energy>
  <time name="totalsc">   10.28   10.30</time>
 </calculation>
 <calculation>
  <scstep>
   <time name="dav">    1.46    1.46</time>
   <time name="total">    1.57    1.57</time>
   <energy>
    <i name="alphaZ">      5.32374723 </i>
    <i name="ewald">   1897.24175048 </i>
    <i name="hartreedc">  -2508.02269584 </i>
    <i name="XCdc">     14.19381127 </i>
    <i name="pawpsdc">   2109.39683913 </i>
    <i name="pawaedc">  -2077.08841039 </i>
    <i name="eentropy">     -0.00000000 </i>
    <i name="bandstr">   -166.38544950 </i>
    <i name="atom">    704.16778566 </i>
    <i name="e_fr_energy">    -21.17262196 </i>
    <i name="e_wo_entrp">    -21.17262196 </i>
    <i name="e_0_energy">    -21.17262196 </i>
   </energy>
  </scstep>
  <scstep>
   <time name="dav">    1.87    1.87</time>
   <time name="total">    1.98    1.98</time>
   <energy>
    <i name="e_fr_energy">    -21.17266498 </i>
    <i name="e_wo_entrp">    -21.17266498 </i>
    <i name="e_0_energy">    -21.17266498 </i>
   </energy>
  </scstep>
  <scstep>
   <time name="dav">    1.42    1.42</time>
   <time name="total">    1.53    1.53</time>
   <energy>
    <i name="e_fr_energy">    -21.17266373 </i>
    <i name="e_wo_entrp">    -21.17266373 </i>
    <i name="e_0_energy">    -21.17266373 </i>
   </energy>
  </scstep>
  <scstep>
   <time name="dav">    1.25    1.25</time>
   <time name="total">    1.36    1.36</time>
   <energy>
    <i name="e_fr_energy">    -21.17266413 </i>
    <i name="e_wo_entrp">    -21.17266413 </i>
    <i name="e_0_energy">    -21.17266413 </i>
   </energy>
  </scstep>
  <scstep>
   <time name="dav">    1.24    1.24</time>
   <time name="total">    1.35    1.35</time>
   <energy>
    <i name="e_fr_energy">    -21.17266429 </i>
    <i name="e_wo_entrp">    -21.17266429 </i>
    <i name="e_0_energy">    -21.17266429 </i>
   </energy>
  </scstep>
  <scstep>
   <time name="dav">    1.20    1.20</time>
   <time name="total">    1.22    1.22</time>
   <energy>
    <i name="alphaZ">      5.32374723 </i>
    <i name="ewald">   1897.24175048 </i>
    <i name="hartreedc">  -2508.01964126 </i>
    <i name="XCdc">     14.19385287 </i>
    <i name="pawpsdc">   2112.08068134 </i>
    <i name="pawaedc">  -2079.77306150 </i>
    <i name="eentropy">     -0.00000000 </i>
    <i name="bandstr">   -166.38777922 </i>
    <i name="atom">    704.16778566 </i>
    <i name="e_fr_energy">    -21.17266440 </i>
    <i name="e_wo_entrp">    -21.17266440 </i>
    <i name="e_0_energy">    -21.17266440 </i>
   </energy>
  </scstep>
  <structure>
   <crystal>
    <varray name="basis" >
     <v>       3.28656700       0.26463000       0.00000000 </v>
     <v>       0.37106500       4.60843600      -0.00005300 </v>
     <v>       0.00000000       0.00000000      20.02439000 </v>
    </varray>
    <i name="volume">    301.32178931 </i>
    <varray name="rec_basis" >
     <v>       0.30625439      -0.02465919       0.00000000 </v>
     <v>      -0.01758603       0.21840936       0.00000000 </v>
     <v>      -0.00000005       0.00000058       0.04993910 </v>
    </varray>
   </crystal>
   <varray name="positions" >
    <v>       0.46882534       0.91323585       0.55222909 </v>
    <v>       0.53117466       0.08676415       0.44777091 </v>
    <v>      -0.03117389       0.41323089       0.44777092 </v>
    <v>       0.03117389       0.58676911       0.55222908 </v>
   </varray>
  </structure>
  <varray name="forces" >
   <v>      -0.01005061       0.00126603      -0.00933616 </v>
   <v>       0.01005061      -0.00126603       0.00933616 </v>
   <v>      -0.01004533       0.00125732       0.00933515 </v>
   <v>       0.01004533      -0.00125732      -0.00933515 </v>
  </varray>
  <varray name="stress" >
   <v>       1.86469198     -18.25425813       0.00015322 </v>
   <v>     -18.25425818       8.64064771      -0.00002356 </v>
   <v>       0.00015317      -0.00002355      -0.29092642 </v>
  </varray>
  <energy>
   <i name="e_fr_energy">    -21.17266440 </i>
   <i name="e_wo_entrp">    -21.17266440 </i>
   <i name="e_0_energy">     -0.00000000 </i>
  </energy>
  <time name="totalsc">    9.75    9.77</time>
 </calculation>
 <calculation>
  <scstep>
   <time name="dav">    1.46    1.46</time>
   <time name="total">    1.57    1.57</time>
   <energy>
    <i name="alphaZ">      5.32374723 </i>
    <i name="ewald">   1897.89766683 </i>
    <i name="hartreedc">  -2508.64864762 </i>
    <i name="XCdc">     14.19749743 </i>
    <i name="pawpsdc">   2112.10675182 </i>
    <i name="pawaedc">  -2079.79912883 </i>
    <i name="eentropy">     -0.00000000 </i>
    <i name="bandstr">   -166.41834655 </i>
    <i name="atom">    704.16778566 </i>
    <i name="e_fr_energy">    -21.17267404 </i>
    <i name="e_wo_entrp">    -21.17267404 </i>
    <i name="e_0_energy">    -21.17267404 </i>
   </energy>
  </scstep>
  <scstep>
   <time name="dav">    1.89    1.89</time>
   <time name="total">    2.00    2.00</time>
   <energy>
    <i name="e_fr_energy">    -21.17268630 </i>
    <i name="e_wo_entrp">    -21.17268630 </i>
    <i name="e_0_energy">    -21.17268630 </i>
   </energy>
  </scstep>
  <scstep>
   <time name="dav">    1.26    1.26</time>
   <time name="total">    1.37    1.37</time>
   <energy>
    <i name="e_fr_energy">    -21.17268605 </i>
    <i name="e_wo_entrp">    -21.17268605 </i>
    <i name="e_0_energy">    -21.17268605 </i>
   </energy>
  </scstep>
  <scstep>
   <time name="dav">    1.19    1.19</time>
   <time name="total">    1.30    1.30</time>
   <energy>
    <i name="e_fr_energy">    -21.17268626 </i>
    <i name="e_wo_entrp">    -21.17268626 </i>
    <i name="e_0_energy">    -21.17268626 </i>
   </energy>
  </scstep>
  <scstep>
   <time name="dav">    1.21    1.21</time>
   <time name="total">    1.32    1.33</time>
   <energy>
    <i name="e_fr_energy">    -21.17268633 </i>
    <i name="e_wo_entrp">    -21.17268633 </i>
    <i name="e_0_energy">    -21.17268633 </i>
   </energy>
  </scstep>
  <scstep>
   <time name="dav">    1.14    1.14</time>
   <time name="total">    1.16    1.16</time>
   <energy>
    <i name="alphaZ">      5.32374723 </i>
    <i name="ewald">   1897.89766683 </i>
    <i name="hartreedc">  -2508.64557012 </i>
    <i name="XCdc">     14.19749248 </i>
    <i name="pawpsdc">   2113.54818399 </i>
    <i name="pawaedc">  -2081.24097530 </i>
    <i name="eentropy">     -0.00000000 </i>
    <i name="bandstr">   -166.42101712 </i>
    <i name="atom">    704.16778566 </i>
    <i name="e_fr_energy">    -21.17268637 </i>
    <i name="e_wo_entrp">    -21.17268637 </i>
    <i name="e_0_energy">    -21.17268637 </i>
   </energy>
  </scstep>
  <structure>
   <crystal>
    <varray name="basis" >
     <v>       3.28656700       0.26463000       0.00000000 </v>
     <v>       0.37106500       4.60843600      -0.00005300 </v>
     <v>       0.00000000       0.00000000      20.02439000 </v>
    </varray>
    <i name="volume">    301.32178931 </i>
    <varray name="rec_basis" >
     <v>       0.30625439      -0.02465919       0.00000000 </v>
     <v>      -0.01758603       0.21840936       0.00000000 </v>
     <v>      -0.00000005       0.00000058       0.04993910 </v>
    </varray>
   </crystal>
   <varray name="positions" >
    <v>       0.46872236       0.91327143       0.55219246 </v>
    <v>       0.53127764       0.08672857       0.44780754 </v>
    <v>      -0.03127683       0.41326641       0.44780755 </v>
    <v>       0.03127683       0.58673359       0.55219245 </v>
   </varray>
  </structure>
  <varray name="forces" >
   <v>      -0.00377575      -0.00440767       0.00082707 </v>
   <v>       0.00377575       0.00440767      -0.00082707 </v>
   <v>      -0.00377108      -0.00441512      -0.00082768 </v>
   <v>       0.00377108       0.00441512       0.00082768 </v>
  </varray>
  <varray name="stress" >
   <v>       1.84310516     -18.14265495       0.00015881 </v>
   <v>     -18.14265501       8.64836885      -0.00003826 </v>
   <v>       0.00015883      -0.00003826      -0.06146458 </v>
  </varray>
  <energy>
   <i name="e_fr_energy">    -21.17268637 </i>
   <i name="e_wo_entrp">    -21.17268637 </i>
   <i name="e_0_energy">     -0.00000000 </i>
  </energy>
  <time name="totalsc">    9.43    9.44</time>
  <eigenvalues>
   <array>
    <dimension dim="1">band</dimension>
    <dimension dim="2">kpoint</dimension>
    <dimension dim="3">spin</dimension>
    <field>eigene</field>
    <field>occ</field>
    <set>
     <set comment="spin 1">
      <set comment="kpoint 1">
       <r>  -17.2283    1.0000 </r>
       <r>  -14.6628    1.0000 </r>
       <r>  -11.2400    1.0000 </r>
       <r>   -7.8659    1.0000 </r>
       <r>   -6.9147    1.0000 </r>
       <r>   -6.7874    1.0000 </r>
       <r>   -5.3205    1.0000 </r>
       <r>   -4.0212    1.0000 </r>
       <r>   -3.9695    1.0000 </r>
       <r>   -2.1203    1.0000 </r>
       <r>   -1.3191    0.0000 </r>
       <r>   -0.5088    0.0000 </r>
       <r>   -0.2457    0.0000 </r>
       <r>    1.5461    0.0000 </r>
       <r>    2.1930    0.0000 </r>
       <r>    2.3198    0.0000 </r>
      </set>
      <set comment="kpoint 2">
       <r>  -17.2007    1.0000 </r>
       <r>  -14.6352    1.0000 </r>
       <r>  -11.2508    1.0000 </r>
       <r>   -7.8474    1.0000 </r>
       <r>   -6.8886    1.0000 </r>
       <r>   -6.8128    1.0000 </r>
       <r>   -5.5051    1.0000 </r>
       <r>   -4.1716    1.0000 </r>
       <r>   -3.9838    1.0000 </r>
       <r>   -2.1267    1.0000 </r>
       <r>   -1.2981    0.0000 </r>
       <r>   -0.2517    0.0000 </r>
       <r>   -0.1271    0.0000 </r>
       <r>    1.5064    0.0000 </r>
       <r>    2.2166    0.0000 </r>
       <r>    2.3505    0.0000 </r>
      </set>
      <set comment="kpoint 3">
       <r>  -17.1180    1.0000 </r>
       <r>  -14.5524    1.0000 </r>
       <r>  -11.2885    1.0000 </r>
       <r>   -7.7927    1.0000 </r>
       <r>   -6.9110    1.0000 </r>
       <r>   -6.8146    1.0000 </r>
       <r>   -5.9472    1.0000 </r>
       <r>   -4.5730    1.0000 </r>
       <r>   -3.9434    1.0000 </r>
       <r>   -2.1615    1.0000 </r>
       <r>   -1.2329    0.0000 </r>
       <r>   -0.0609    0.0000 </r>
       <r>    0.4211    0.0000 </r>
       <r>    1.6409    0.0000 </r>
       <r>    2.2488    0.0000 </r>
       <r>    2.4432    0.0000 </r>
      </set>
      <set comment="kpoint 4">
       <r>  -16.9805    1.0000 </r>
       <r>  -14.4147    1.0000 </r>
       <r>  -11.3690    1.0000 </r>
       <r>   -7.7040    1.0000 </r>
       <r>   -7.1455    1.0000 </r>
       <r>   -6.7483    1.0000 </r>
       <r>   -6.4112    1.0000 </r>
       <r>   -4.9622    1.0000 </r>
       <r>   -3.8877    1.0000 </r>
       <r>   -2.2417    1.0000 </r>
       <r>   -1.1269    0.0000 </r>
       <r>   -0.3272    0.0000 </r>
       <r>    1.3049    0.0000 </r>
       <r>    2.0200    0.0000 </r>
       <r>    2.1338    0.0000 </r>
       <r>    2.5901    0.0000 </r>
      </set>
      <set comment="kpoint 5">
       <r>  -16.7890    1.0000 </r>
       <r>  -14.2227    1.0000 </r>
       <r>  -11.5169    1.0000 </r>
       <r>   -7.5867    1.0000 </r>
       <r>   -7.5693    1.0000 </r>
       <r>   -7.0466    1.0000 </r>
       <r>   -6.4147    1.0000 </r>
       <r>   -5.1830    1.0000 </r>
       <r>   -3.8452    1.0000 </r>
       <r>   -2.3774    1.0000 </r>
       <r>   -0.9899    0.0000 </r>
       <r>   -0.7165    0.0000 </r>
       <r>    1.3995    0.0000 </r>
       <r>    2.4122    0.0000 </r>
       <r>    2.4732    0.0000 </r>
       <r>    2.7861    0.0000 </r>
      </set>
      <set comment="kpoint 6">
       <r>  -16.5444    1.0000 </r>
       <r>  -13.9774    1.0000 </r>
       <r>  -11.7568    1.0000 </r>
       <r>   -8.1498    1.0000 </r>
       <r>   -7.4465    1.0000 </r>
       <r>   -7.3986    1.0000 </r>
       <r>   -6.1971    1.0000 </r>
       <r>   -5.2253    1.0000 </r>
       <r>   -3.8565    1.0000 </r>
       <r>   -2.5774    1.0000 </r>
       <r>   -1.0355    0.0000 </r>
       <r>   -0.8394    0.0000 </r>
       <r>    0.9607    0.0000 </r>
       <r>    1.9253    0.0000 </r>
       <r>    2.9867    0.0000 </r>
       <r>    3.0515    0.0000 </r>
      </set>
      <set comment="kpoint 7">
       <r>  -16.2481    1.0000 </r>
       <r>  -13.6813    1.0000 </r>
       <r>  -12.0971    1.0000 </r>
       <r>   -8.8052    1.0000 </r>
       <r>   -7.6098    1.0000 </r>
       <r>   -7.2992    1.0000 </r>
       <r>   -5.9263    1.0000 </r>
       <r>   -5.1516    1.0000 </r>
       <r>   -3.9561    1.0000 </r>
       <r>   -2.8427    1.0000 </r>
       <r>   -1.1861    0.0000 </r>
       <r>   -0.7168    0.0000 </r>
       <r>    0.6027    0.0000 </r>
       <r>    1.2349    0.0000 </r>
       <r>    2.9045    0.0000 </r>
       <r>    3.1561    0.0000 </r>
      </set>
      <set comment="kpoint 8">
       <r>  -15.9022    1.0000 </r>
       <r>  -13.3455    1.0000 </r>
       <r>  -12.5133    1.0000 </r>
       <r>   -9.4791    1.0000 </r>
       <r>   -7.6738    1.0000 </r>
       <r>   -7.1661    1.0000 </r>
       <r>   -5.6258    1.0000 </r>
       <r>   -5.0170    1.0000 </r>
       <r>   -4.1296    1.0000 </r>
       <r>   -3.1604    1.0000 </r>
       <r>   -1.1529    0.0000 </r>
       <r>   -0.7079    0.0000 </r>
       <r>    0.4345    0.0000 </r>
       <r>    0.5884    0.0000 </r>
       <r>    2.4603    0.0000 </r>
       <r>    2.9183    0.0000 </r>
      </set>
      <set comment="kpoint 9">
       <r>  -15.5096    1.0000 </r>
       <r>  -13.1644    1.0000 </r>
       <r>  -12.7812    1.0000 </r>
       <r>  -10.1408    1.0000 </r>
       <r>   -7.6188    1.0000 </r>
       <r>   -7.0800    1.0000 </r>
       <r>   -5.3173    1.0000 </r>
       <r>   -4.8602    1.0000 </r>
       <r>   -4.3094    1.0000 </r>
       <r>   -3.5057    1.0000 </r>
       <r>   -1.0118    0.0000 </r>
       <r>   -0.8488    0.0000 </r>
       <r>    0.0877    0.0000 </r>
       <r>    0.4933    0.0000 </r>
       <r>    1.9699    0.0000 </r>
       <r>    2.5439    0.0000 </r>
      </set>
      <set comment="kpoint 10">
       <r>  -15.0743    1.0000 </r>
       <r>  -13.5946    1.0000 </r>
       <r>  -12.4131    1.0000 </r>
       <r>  -10.7739    1.0000 </r>
       <r>   -7.4850    1.0000 </r>
       <r>   -7.0755    1.0000 </r>
       <r>   -5.0314    1.0000 </r>
       <r>   -4.7164    1.0000 </r>
       <r>   -4.4217    1.0000 </r>
       <r>   -3.8469    1.0000 </r>
       <r>   -1.0241    0.0000 </r>
       <r>   -0.9607    0.0000 </r>
       <r>   -0.0765    0.0000 </r>
       <r>    0.6230    0.0000 </r>
       <r>    1.5498    0.0000 </r>
       <r>    2.1389    0.0000 </r>
      </set>
      <set comment="kpoint 11">
       <r>  -14.6023    1.0000 </r>
       <r>  -14.1031    1.0000 </r>
       <r>  -11.9182    1.0000 </r>
       <r>  -11.3687    1.0000 </r>
       <r>   -7.3169    1.0000 </r>
       <r>   -7.1638    1.0000 </r>
       <r>   -4.8066    1.0000 </r>
       <r>   -4.6813    1.0000 </r>
       <r>   -4.3723    1.0000 </r>
       <r>   -4.1499    1.0000 </r>
       <r>   -1.1161    0.0000 </r>
       <r>   -1.0718    0.0000 </r>
       <r>    0.1605    0.0000 </r>
       <r>    0.5059    0.0000 </r>
       <r>    1.4797    0.0000 </r>
       <r>    1.7564    0.0000 </r>
      </set>
      <set comment="kpoint 12">
       <r>  -17.2056    1.0000 </r>
       <r>  -14.6914    1.0000 </r>
       <r>  -11.2643    1.0000 </r>
       <r>   -8.0138    1.0000 </r>
       <r>   -6.8017    1.0000 </r>
       <r>   -6.7190    1.0000 </r>
       <r>   -5.3109    1.0000 </r>
       <r>   -4.0152    1.0000 </r>
       <r>   -3.8733    1.0000 </r>
       <r>   -2.3393    1.0000 </r>
       <r>   -1.1206    0.0000 </r>
       <r>   -0.4913    0.0000 </r>
       <r>   -0.2504    0.0000 </r>
       <r>    1.5364    0.0000 </r>
       <r>    2.2555    0.0000 </r>
       <r>    2.3518    0.0000 </r>
      </set>
      <set comment="kpoint 13">
       <r>  -17.1861    1.0000 </r>
       <r>  -14.6561    1.0000 </r>
       <r>  -11.2465    1.0000 </r>
       <r>   -7.9749    1.0000 </r>
       <r>   -6.8632    1.0000 </r>
       <r>   -6.7249    1.0000 </r>
       <r>   -5.4249    1.0000 </r>
       <r>   -4.2570    1.0000 </r>
       <r>   -3.9160    1.0000 </r>
       <r>   -2.3006    1.0000 </r>
       <r>   -1.1323    0.0000 </r>
       <r>   -0.2810    0.0000 </r>
       <r>   -0.1177    0.0000 </r>
       <r>    1.5457    0.0000 </r>
       <r>    2.2645    0.0000 </r>
       <r>    2.3707    0.0000 </r>
      </set>
      <set comment="kpoint 14">
       <r>  -17.1116    1.0000 </r>
       <r>  -14.5660    1.0000 </r>
       <r>  -11.2532    1.0000 </r>
       <r>   -7.9128    1.0000 </r>
       <r>   -6.9012    1.0000 </r>
       <r>   -6.7897    1.0000 </r>
       <r>   -5.7927    1.0000 </r>
       <r>   -4.6881    1.0000 </r>
       <r>   -3.9484    1.0000 </r>
       <r>   -2.2864    1.0000 </r>
       <r>   -1.0967    0.0000 </r>
       <r>   -0.0669    0.0000 </r>
       <r>    0.3588    0.0000 </r>
       <r>    1.7491    0.0000 </r>
       <r>    2.1924    0.0000 </r>
       <r>    2.4149    0.0000 </r>
      </set>
      <set comment="kpoint 15">
       <r>  -16.9825    1.0000 </r>
       <r>  -14.4209    1.0000 </r>
       <r>  -11.3032    1.0000 </r>
       <r>   -7.8526    1.0000 </r>
       <r>   -6.9774    1.0000 </r>
       <r>   -6.9673    1.0000 </r>
       <r>   -6.1692    1.0000 </r>
       <r>   -5.0760    1.0000 </r>
       <r>   -3.9690    1.0000 </r>
       <r>   -2.3222    1.0000 </r>
       <r>   -1.0151    0.0000 </r>
       <r>   -0.3348    0.0000 </r>
       <r>    1.2321    0.0000 </r>
       <r>    1.7087    0.0000 </r>
       <r>    2.3068    0.0000 </r>
       <r>    2.5114    0.0000 </r>
      </set>
      <set comment="kpoint 16">
       <r>  -16.7995    1.0000 </r>
       <r>  -14.2212    1.0000 </r>
[...]
       <r>    2.4977    0.0000 </r>
       <r>    4.0177    0.0000 </r>
      </set>
      <set comment="kpoint 153">
       <r>  -15.3264    1.0000 </r>
       <r>  -14.9886    1.0000 </r>
       <r>  -10.9876    1.0000 </r>
       <r>  -10.4472    1.0000 </r>
       <r>   -7.8277    1.0000 </r>
       <r>   -7.7356    1.0000 </r>
       <r>   -5.4303    1.0000 </r>
       <r>   -4.7481    1.0000 </r>
       <r>   -3.5353    1.0000 </r>
       <r>   -3.4594    1.0000 </r>
       <r>    0.3164    0.0000 </r>
       <r>    0.7766    0.0000 </r>
       <r>    1.0423    0.0000 </r>
       <r>    1.7847    0.0000 </r>
       <r>    2.7539    0.0000 </r>
       <r>    3.7717    0.0000 </r>
      </set>
      <set comment="kpoint 154">
       <r>  -15.5367    1.0000 </r>
       <r>  -15.3144    1.0000 </r>
       <r>  -10.7828    1.0000 </r>
       <r>  -10.3863    1.0000 </r>
       <r>   -7.6279    1.0000 </r>
       <r>   -7.2415    1.0000 </r>
       <r>   -5.1543    1.0000 </r>
       <r>   -4.7982    1.0000 </r>
       <r>   -3.5880    1.0000 </r>
       <r>   -3.1572    1.0000 </r>
       <r>    0.3362    0.0000 </r>
       <r>    0.9498    0.0000 </r>
       <r>    1.0633    0.0000 </r>
       <r>    1.7536    0.0000 </r>
       <r>    2.8616    0.0000 </r>
       <r>    3.4975    0.0000 </r>
      </set>
      <set comment="kpoint 155">
       <r>  -15.7091    1.0000 </r>
       <r>  -15.5934    1.0000 </r>
       <r>  -10.7038    1.0000 </r>
       <r>  -10.4086    1.0000 </r>
       <r>   -7.2075    1.0000 </r>
       <r>   -6.5988    1.0000 </r>
       <r>   -5.0491    1.0000 </r>
       <r>   -4.8736    1.0000 </r>
       <r>   -3.4919    1.0000 </r>
       <r>   -2.9505    1.0000 </r>
       <r>    0.3714    0.0000 </r>
       <r>    0.9961    0.0000 </r>
       <r>    1.2546    0.0000 </r>
       <r>    1.6210    0.0000 </r>
       <r>    2.4653    0.0000 </r>
       <r>    2.9246    0.0000 </r>
      </set>
      <set comment="kpoint 156">
       <r>  -15.8372    1.0000 </r>
       <r>  -15.8227    1.0000 </r>
       <r>  -10.7095    1.0000 </r>
       <r>  -10.4556    1.0000 </r>
       <r>   -6.6269    1.0000 </r>
       <r>   -5.9066    1.0000 </r>
       <r>   -5.0558    1.0000 </r>
       <r>   -4.9383    1.0000 </r>
       <r>   -3.3214    1.0000 </r>
       <r>   -2.8900    1.0000 </r>
       <r>    0.3294    0.0000 </r>
       <r>    1.0786    0.0000 </r>
       <r>    1.3506    0.0000 </r>
       <r>    1.4051    0.0000 </r>
       <r>    2.0856    0.0000 </r>
       <r>    2.1177    0.0000 </r>
      </set>
      <set comment="kpoint 157">
       <r>  -16.0007    1.0000 </r>
       <r>  -15.9173    1.0000 </r>
       <r>  -10.7499    1.0000 </r>
       <r>  -10.4950    1.0000 </r>
       <r>   -5.9670    1.0000 </r>
       <r>   -5.3683    1.0000 </r>
       <r>   -4.9896    1.0000 </r>
       <r>   -4.9771    1.0000 </r>
       <r>   -3.1804    1.0000 </r>
       <r>   -2.9752    1.0000 </r>
       <r>    0.0433    0.0000 </r>
       <r>    0.8881    0.0000 </r>
       <r>    1.2178    0.0000 </r>
       <r>    1.4447    0.0000 </r>
       <r>    1.6557    0.0000 </r>
       <r>    1.9574    0.0000 </r>
      </set>
      <set comment="kpoint 158">
       <r>  -16.1262    1.0000 </r>
       <r>  -15.9470    1.0000 </r>
       <r>  -10.7914    1.0000 </r>
       <r>  -10.5118    1.0000 </r>
       <r>   -5.3265    1.0000 </r>
       <r>   -5.3025    1.0000 </r>
       <r>   -4.9798    1.0000 </r>
       <r>   -4.6655    1.0000 </r>
       <r>   -3.1866    1.0000 </r>
       <r>   -3.0842    1.0000 </r>
       <r>   -0.2378    0.0000 </r>
       <r>    0.3152    0.0000 </r>
       <r>    1.2428    0.0000 </r>
       <r>    1.2866    0.0000 </r>
       <r>    1.8739    0.0000 </r>
       <r>    1.9149    0.0000 </r>
      </set>
     </set>
    </set>
   </array>
  </eigenvalues>
  <separator name="orbital magnetization" >
   <v name="MAGDIPOLOUT">      0.00000000      0.00000000      0.00000000</v>
  </separator>
  <dos>
   <i name="efermi">     -2.01338047 </i>
   <total>
    <array>
     <dimension dim="1">gridpoints</dimension>
     <dimension dim="2">spin</dimension>
     <field>energy</field>
     <field>total</field>
     <field>integrated</field>
     <set>
      <set comment="spin 1">
       <r>   -18.2951     0.0000     0.0000 </r>
       <r>   -18.2169     0.0000     0.0000 </r>
       <r>   -18.1387     0.0000     0.0000 </r>
       <r>   -18.0604     0.0000     0.0000 </r>
       <r>   -17.9822     0.0000     0.0000 </r>
       <r>   -17.9040     0.0000     0.0000 </r>
       <r>   -17.8257     0.0000     0.0000 </r>
       <r>   -17.7475     0.0000     0.0000 </r>
       <r>   -17.6693     0.0000     0.0000 </r>
       <r>   -17.5910     0.0000     0.0000 </r>
       <r>   -17.5128     0.0000     0.0000 </r>
       <r>   -17.4346     0.0000     0.0000 </r>
       <r>   -17.3563     0.0000     0.0000 </r>
       <r>   -17.2781     0.0000     0.0000 </r>
       <r>   -17.1999     0.3008     0.0235 </r>
       <r>   -17.1217     0.7820     0.0847 </r>
       <r>   -17.0434     0.7932     0.1468 </r>
       <r>   -16.9652     0.9671     0.2224 </r>
       <r>   -16.8870     0.5644     0.2666 </r>
       <r>   -16.8087     1.0360     0.3476 </r>
       <r>   -16.7305     0.6611     0.3993 </r>
       <r>   -16.6523     1.0542     0.4818 </r>
       <r>   -16.5740     0.5085     0.5216 </r>
       <r>   -16.4958     1.0828     0.6063 </r>
       <r>   -16.4176     0.9343     0.6794 </r>
       <r>   -16.3394     0.7653     0.7392 </r>
       <r>   -16.2611     0.7083     0.7947 </r>
       <r>   -16.1829     1.3793     0.9026 </r>
       <r>   -16.1047     0.6090     0.9502 </r>
       <r>   -16.0264     0.7782     1.0111 </r>
       <r>   -15.9482     0.7594     1.0705 </r>
       <r>   -15.8700     1.2036     1.1646 </r>
       <r>   -15.7917     1.1774     1.2568 </r>
       <r>   -15.7135     0.5847     1.3025 </r>
       <r>   -15.6353     0.8396     1.3682 </r>
       <r>   -15.5570     1.0883     1.4533 </r>
       <r>   -15.4788     1.3238     1.5569 </r>
       <r>   -15.4006     0.6563     1.6082 </r>
       <r>   -15.3224     1.0621     1.6913 </r>
       <r>   -15.2441     1.2861     1.7919 </r>
       <r>   -15.1659     0.4669     1.8285 </r>
       <r>   -15.0877     1.6054     1.9540 </r>
       <r>   -15.0094     1.3820     2.0622 </r>
       <r>   -14.9312     1.0520     2.1444 </r>
       <r>   -14.8530     1.1567     2.2349 </r>
       <r>   -14.7747     1.2480     2.3326 </r>
       <r>   -14.6965     1.9535     2.4854 </r>
       <r>   -14.6183     2.0538     2.6461 </r>
       <r>   -14.5400     1.6401     2.7744 </r>
       <r>   -14.4618     1.5110     2.8926 </r>
       <r>   -14.3836     1.4350     3.0048 </r>
       <r>   -14.3054     0.8689     3.0728 </r>
       <r>   -14.2271     1.1021     3.1590 </r>
       <r>   -14.1489     1.3254     3.2627 </r>
       <r>   -14.0707     0.5344     3.3045 </r>
       <r>   -13.9924     1.1042     3.3909 </r>
       <r>   -13.9142     0.8795     3.4597 </r>
       <r>   -13.8360     0.5932     3.5061 </r>
       <r>   -13.7577     0.6928     3.5603 </r>
       <r>   -13.6795     0.8441     3.6263 </r>
       <r>   -13.6013     0.8611     3.6937 </r>
       <r>   -13.5231     0.4171     3.7263 </r>
       <r>   -13.4448     0.7016     3.7812 </r>
       <r>   -13.3666     0.7344     3.8387 </r>
       <r>   -13.2884     0.9673     3.9143 </r>
       <r>   -13.2101     0.4086     3.9463 </r>
       <r>   -13.1319     0.3587     3.9744 </r>
       <r>   -13.0537     0.0079     3.9750 </r>
       <r>   -12.9754     0.1574     3.9873 </r>
       <r>   -12.8972     0.1922     4.0023 </r>
       <r>   -12.8190     0.1331     4.0127 </r>
       <r>   -12.7407     0.1614     4.0254 </r>
       <r>   -12.6625     0.0971     4.0330 </r>
       <r>   -12.5843     0.2279     4.0508 </r>
       <r>   -12.5061     0.2796     4.0727 </r>
       <r>   -12.4278     0.3917     4.1033 </r>
       <r>   -12.3496     1.4172     4.2142 </r>
       <r>   -12.2714     0.3559     4.2420 </r>
       <r>   -12.1931     0.7509     4.3008 </r>
       <r>   -12.1149     0.7094     4.3563 </r>
       <r>   -12.0367     1.3672     4.4632 </r>
       <r>   -11.9584     1.5305     4.5829 </r>
       <r>   -11.8802     1.3350     4.6874 </r>
       <r>   -11.8020     1.2343     4.7839 </r>
       <r>   -11.7237     0.8392     4.8496 </r>
       <r>   -11.6455     0.7781     4.9105 </r>
       <r>   -11.5673     1.3341     5.0148 </r>
       <r>   -11.4891     1.1738     5.1066 </r>
       <r>   -11.4108     2.0438     5.2665 </r>
       <r>   -11.3326     2.4995     5.4621 </r>
       <r>   -11.2544     2.9947     5.6963 </r>
       <r>   -11.1761     2.6670     5.9050 </r>
       <r>   -11.0979     0.4746     5.9421 </r>
       <r>   -11.0197     1.6903     6.0744 </r>
       <r>   -10.9414     1.3038     6.1763 </r>
       <r>   -10.8632     0.6832     6.2298 </r>
       <r>   -10.7850     1.0900     6.3151 </r>
       <r>   -10.7068     1.6139     6.4413 </r>
       <r>   -10.6285     0.8459     6.5075 </r>
       <r>   -10.5503     0.1607     6.5201 </r>
       <r>   -10.4721     0.7413     6.5781 </r>
       <r>   -10.3938     1.2080     6.6726 </r>
       <r>   -10.3156     0.9620     6.7478 </r>
       <r>   -10.2374     0.1758     6.7616 </r>
       <r>   -10.1591     0.5924     6.8079 </r>
       <r>   -10.0809     1.4443     6.9209 </r>
       <r>   -10.0027     0.6376     6.9708 </r>
       <r>    -9.9244     0.5178     7.0113 </r>
       <r>    -9.8462     0.2833     7.0335 </r>
       <r>    -9.7680     0.1200     7.0428 </r>
       <r>    -9.6898     1.2817     7.1431 </r>
       <r>    -9.6115     0.4932     7.1817 </r>
       <r>    -9.5333     0.7057     7.2369 </r>
       <r>    -9.4551     0.5643     7.2811 </r>
       <r>    -9.3768     0.0834     7.2876 </r>
       <r>    -9.2986     0.7766     7.3483 </r>
       <r>    -9.2204     0.6131     7.3963 </r>
       <r>    -9.1421     0.2261     7.4140 </r>
       <r>    -9.0639     0.5802     7.4594 </r>
       <r>    -8.9857     0.1039     7.4675 </r>
       <r>    -8.9074     0.4583     7.5034 </r>
       <r>    -8.8292     0.8070     7.5665 </r>
       <r>    -8.7510     0.4878     7.6046 </r>
       <r>    -8.6728     0.3401     7.6313 </r>
       <r>    -8.5945     0.3327     7.6573 </r>
       <r>    -8.5163     0.2417     7.6762 </r>
       <r>    -8.4381     0.0355     7.6790 </r>
       <r>    -8.3598     0.7204     7.7353 </r>
       <r>    -8.2816     0.4653     7.7717 </r>
       <r>    -8.2034     0.6283     7.8209 </r>
       <r>    -8.1251     0.7481     7.8794 </r>
       <r>    -8.0469     1.4369     7.9918 </r>
       <r>    -7.9687     2.3387     8.1748 </r>
       <r>    -7.8905     1.7892     8.3147 </r>
       <r>    -7.8122     1.8411     8.4588 </r>
       <r>    -7.7340     2.3877     8.6456 </r>
       <r>    -7.6558     1.6360     8.7735 </r>
       <r>    -7.5775     2.6400     8.9801 </r>
       <r>    -7.4993     1.7759     9.1190 </r>
       <r>    -7.4211     2.1651     9.2884 </r>
       <r>    -7.3428     2.7735     9.5053 </r>
       <r>    -7.2646     2.1062     9.6701 </r>
       <r>    -7.1864     2.6381     9.8765 </r>
       <r>    -7.1081     2.7282    10.0899 </r>
       <r>    -7.0299     2.6071    10.2939 </r>
       <r>    -6.9517     2.2001    10.4660 </r>
       <r>    -6.8735     2.0856    10.6292 </r>
       <r>    -6.7952     2.8135    10.8493 </r>
       <r>    -6.7170     2.3459    11.0328 </r>
       <r>    -6.6388     1.1194    11.1203 </r>
       <r>    -6.5605     2.0400    11.2799 </r>
       <r>    -6.4823     1.2353    11.3766 </r>
       <r>    -6.4041     0.9856    11.4537 </r>
       <r>    -6.3258     0.9930    11.5314 </r>
       <r>    -6.2476     1.8511    11.6762 </r>
       <r>    -6.1694     2.0489    11.8365 </r>
       <r>    -6.0911     1.1614    11.9273 </r>
       <r>    -6.0129     1.3896    12.0360 </r>
       <r>    -5.9347     1.4807    12.1519 </r>
       <r>    -5.8565     2.7275    12.3652 </r>
       <r>    -5.7782     1.8241    12.5079 </r>
       <r>    -5.7000     1.6743    12.6389 </r>
       <r>    -5.6218     2.6485    12.8461 </r>
       <r>    -5.5435     2.2384    13.0212 </r>
       <r>    -5.4653     2.2839    13.1999 </r>
       <r>    -5.3871     2.8331    13.4215 </r>
       <r>    -5.3088     4.0103    13.7352 </r>
       <r>    -5.2306     3.5282    14.0113 </r>
       <r>    -5.1524     3.0895    14.2529 </r>
       <r>    -5.0742     1.9860    14.4083 </r>
       <r>    -4.9959     3.0812    14.6494 </r>
       <r>    -4.9177     2.2320    14.8240 </r>
       <r>    -4.8395     1.6035    14.9494 </r>
       <r>    -4.7612     1.9755    15.1040 </r>
       <r>    -4.6830     1.7214    15.2386 </r>
       <r>    -4.6048     1.3356    15.3431 </r>
       <r>    -4.5265     2.5415    15.5419 </r>
       <r>    -4.4483     1.3443    15.6471 </r>
       <r>    -4.3701     1.3558    15.7532 </r>
       <r>    -4.2918     2.0086    15.9103 </r>
       <r>    -4.2136     1.7148    16.0444 </r>
       <r>    -4.1354     3.1840    16.2935 </r>
       <r>    -4.0572     2.7568    16.5092 </r>
       <r>    -3.9789     1.8131    16.6510 </r>
       <r>    -3.9007     2.4519    16.8429 </r>
       <r>    -3.8225     2.7118    17.0550 </r>
       <r>    -3.7442     2.1362    17.2221 </r>
       <r>    -3.6660     2.9018    17.4491 </r>
       <r>    -3.5878     2.9780    17.6821 </r>
       <r>    -3.5095     2.8276    17.9033 </r>
       <r>    -3.4313     2.8644    18.1274 </r>
       <r>    -3.3531     2.2919    18.3067 </r>
       <r>    -3.2748     2.9285    18.5358 </r>
       <r>    -3.1966     2.0955    18.6997 </r>
       <r>    -3.1184     2.2370    18.8747 </r>
       <r>    -3.0402     1.7922    19.0149 </r>
       <r>    -2.9619     1.7755    19.1538 </r>
       <r>    -2.8837     2.0051    19.3107 </r>
       <r>    -2.8055     1.3392    19.4154 </r>
       <r>    -2.7272     1.5955    19.5403 </r>
       <r>    -2.6490     1.5887    19.6645 </r>
       <r>    -2.5708     1.1883    19.7575 </r>
       <r>    -2.4925     0.6557    19.8088 </r>
       <r>    -2.4143     0.8217    19.8731 </r>
       <r>    -2.3361     0.5279    19.9144 </r>
       <r>    -2.2579     0.5431    19.9569 </r>
       <r>    -2.1796     0.1619    19.9695 </r>
       <r>    -2.1014     0.3762    19.9990 </r>
       <r>    -2.0232     0.0133    20.0000 </r>
       <r>    -1.9449     0.0000    20.0000 </r>
       <r>    -1.8667     0.0000    20.0000 </r>
       <r>    -1.7885     0.0000    20.0000 </r>
       <r>    -1.7102     0.0000    20.0000 </r>
       <r>    -1.6320     0.0000    20.0000 </r>
       <r>    -1.5538     0.0000    20.0000 </r>
       <r>    -1.4755     0.0056    20.0004 </r>
       <r>    -1.3973     0.4152    20.0329 </r>
       <r>    -1.3191     0.5741    20.0778 </r>
       <r>    -1.2409     0.6110    20.1256 </r>
       <r>    -1.1626     1.1997    20.2195 </r>
       <r>    -1.0844     1.4271    20.3311 </r>
       <r>    -1.0062     1.8639    20.4769 </r>
       <r>    -0.9279     1.2555    20.5752 </r>
       <r>    -0.8497     1.4976    20.6923 </r>
       <r>    -0.7715     1.5230    20.8115 </r>
       <r>    -0.6932     2.6852    21.0215 </r>
       <r>    -0.6150     1.3210    21.1249 </r>
       <r>    -0.5368     1.3022    21.2267 </r>
       <r>    -0.4585     2.7477    21.4417 </r>
       <r>    -0.3803     1.6333    21.5695 </r>
       <r>    -0.3021     3.0984    21.8119 </r>
       <r>    -0.2239     3.4785    22.0840 </r>
       <r>    -0.1456     3.1269    22.3286 </r>
       <r>    -0.0674     3.2409    22.5821 </r>
       <r>     0.0108     4.6825    22.9484 </r>
       <r>     0.0891     3.6325    23.2326 </r>
       <r>     0.1673     2.7204    23.4454 </r>
       <r>     0.2455     1.8199    23.5878 </r>
       <r>     0.3238     3.6428    23.8728 </r>
       <r>     0.4020     3.9614    24.1827 </r>
       <r>     0.4802     2.5081    24.3789 </r>
       <r>     0.5584     3.0490    24.6174 </r>
       <r>     0.6367     2.2574    24.7940 </r>
       <r>     0.7149     1.6946    24.9266 </r>
       <r>     0.7931     2.2573    25.1032 </r>
       <r>     0.8714     1.6279    25.2305 </r>
       <r>     0.9496     2.0195    25.3885 </r>
       <r>     1.0278     2.7036    25.6000 </r>
       <r>     1.1061     1.9429    25.7520 </r>
       <r>     1.1843     1.9199    25.9022 </r>
       <r>     1.2625     3.6360    26.1866 </r>
       <r>     1.3408     3.0384    26.4243 </r>
       <r>     1.4190     3.9374    26.7324 </r>
       <r>     1.4972     3.3545    26.9948 </r>
       <r>     1.5754     3.1610    27.2421 </r>
       <r>     1.6537     2.2100    27.4150 </r>
       <r>     1.7319     2.7151    27.6274 </r>
       <r>     1.8101     2.8396    27.8495 </r>
       <r>     1.8884     2.7424    28.0641 </r>
       <r>     1.9666     2.3774    28.2500 </r>
       <r>     2.0448     2.1961    28.4218 </r>
       <r>     2.1231     2.2700    28.5994 </r>
       <r>     2.2013     2.1426    28.7671 </r>
       <r>     2.2795     3.8845    29.0709 </r>
       <r>     2.3578     3.4036    29.3372 </r>
       <r>     2.4360     2.9961    29.5716 </r>
       <r>     2.5142     3.5176    29.8468 </r>
       <r>     2.5924     2.2418    30.0222 </r>
       <r>     2.6707     3.2126    30.2735 </r>
       <r>     2.7489     2.4370    30.4641 </r>
       <r>     2.8271     2.7424    30.6787 </r>
       <r>     2.9054     1.9704    30.8328 </r>
       <r>     2.9836     2.1270    30.9992 </r>
       <r>     3.0618     2.5971    31.2024 </r>
       <r>     3.1401     2.4091    31.3908 </r>
       <r>     3.2183     2.1274    31.5573 </r>
       <r>     3.2965     0.9019    31.6278 </r>
       <r>     3.3747     0.5573    31.6714 </r>
       <r>     3.4530     0.8487    31.7378 </r>
       <r>     3.5312     0.5809    31.7833 </r>
       <r>     3.6094     0.3533    31.8109 </r>
       <r>     3.6877     0.2246    31.8285 </r>
       <r>     3.7659     0.3862    31.8587 </r>
       <r>     3.8441     0.5739    31.9036 </r>
       <r>     3.9224     0.5854    31.9494 </r>
       <r>     4.0006     0.1782    31.9633 </r>
       <r>     4.0788     0.1670    31.9764 </r>
       <r>     4.1571     0.3016    32.0000 </r>
       <r>     4.2353     0.0000    32.0000 </r>
       <r>     4.3135     0.0000    32.0000 </r>
       <r>     4.3917     0.0000    32.0000 </r>
       <r>     4.4700     0.0000    32.0000 </r>
       <r>     4.5482     0.0000    32.0000 </r>
       <r>     4.6264     0.0000    32.0000 </r>
       <r>     4.7047     0.0000    32.0000 </r>
       <r>     4.7829     0.0000    32.0000 </r>
       <r>     4.8611     0.0000    32.0000 </r>
       <r>     4.9394     0.0000    32.0000 </r>
       <r>     5.0176     0.0000    32.0000 </r>
       <r>     5.0958     0.0000    32.0000 </r>
       <r>     5.1741     0.0000    32.0000 </r>
      </set>
     </set>
    </array>
   </total>
  </dos>
 </calculation>
 <structure name="finalpos" >
  <crystal>
   <varray name="basis" >
    <v>       3.28656700       0.26463000       0.00000000 </v>
    <v>       0.37106500       4.60843600      -0.00005300 </v>
    <v>       0.00000000       0.00000000      20.02439000 </v>
   </varray>
   <i name="volume">    301.32178931 </i>
   <varray name="rec_basis" >
    <v>       0.30625439      -0.02465919       0.00000000 </v>
    <v>      -0.01758603       0.21840936       0.00000000 </v>
    <v>      -0.00000005       0.00000058       0.04993910 </v>
   </varray>
  </crystal>
  <varray name="positions" >
   <v>       0.46872236       0.91327143       0.55219246 </v>
   <v>       0.53127764       0.08672857       0.44780754 </v>
   <v>      -0.03127683       0.41326641       0.44780755 </v>
   <v>       0.03127683       0.58673359       0.55219245 </v>
  </varray>
 </structure>
</modeling>
