<?xml version="1.0" encoding="ISO-8859-1"?>
<modeling>
 <generator>
  <i name="program" type="string">vasp </i>
  <i name="version" type="string">5.4.1  </i>
  <i name="subversion" type="string">24Jun15 (build Nov 20 2020 10:29:34) complex                          parallel </i>
  <i name="platform" type="string">IFC91_ompi </i>
  <i name="date" type="string">2021 09 09 </i>
  <i name="time" type="string">14:58:41 </i>
 </generator>
 <incar>
  <i type="string" name="PREC">a</i>
  <i type="string" name="ALGO"> Normal</i>
  <i type="int" name="ISPIN">     1</i>
  <i type="int" name="ICHARG">     2</i>
  <i type="int" name="NELM">   250</i>
  <i type="int" name="NELMDL">    -5</i>
  <i type="int" name="NELMIN">     6</i>
  <i type="int" name="IBRION">     2</i>
  <i name="EDIFF">      0.00001000</i>
  <i name="EDIFFG">     -0.01000000</i>
  <i type="int" name="NSW">   200</i>
  <i type="int" name="ISIF">     2</i>
  <i name="ENCUT">    520.00000000</i>
  <i name="POTIM">      0.30000000</i>
  <i type="logical" name="LREAL"> F  </i>
  <i type="int" name="ISMEAR">     0</i>
  <i name="SIGMA">      0.02000000</i>
  <i type="logical" name="LWAVE"> F  </i>
  <i type="logical" name="LCHARG"> F  </i>
  <i type="logical" name="LAECHG"> F  </i>
  <v type="int" name="KPOINT_BSE">    -1     0     0     0</v>
  <i type="int" name="NELM">   250</i>
 </incar>
 <kpoints>
  <generation param="Gamma">
   <v type="int" name="divisions">      15       13        1 </v>
   <v name="usershift">      0.00000000       0.00000000       0.00000000 </v>
   <v name="genvec1">      0.06666667       0.00000000       0.00000000 </v>
   <v name="genvec2">      0.00000000       0.07692308       0.00000000 </v>
   <v name="genvec3">      0.00000000       0.00000000       1.00000000 </v>
   <v name="shift">      0.00000000       0.00000000       0.00000000 </v>
  </generation>
  <varray name="kpointlist" >
   <v>       0.00000000       0.00000000       0.00000000 </v>
   <v>       0.06666667       0.00000000       0.00000000 </v>
   <v>       0.13333333       0.00000000       0.00000000 </v>
   <v>       0.20000000       0.00000000       0.00000000 </v>
   <v>       0.26666667       0.00000000       0.00000000 </v>
   <v>       0.33333333       0.00000000       0.00000000 </v>
   <v>       0.40000000       0.00000000       0.00000000 </v>
   <v>       0.46666667       0.00000000       0.00000000 </v>
   <v>       0.00000000       0.07692308       0.00000000 </v>
   <v>       0.06666667       0.07692308       0.00000000 </v>
   <v>       0.13333333       0.07692308       0.00000000 </v>
   <v>       0.20000000       0.07692308       0.00000000 </v>
   <v>       0.26666667       0.07692308       0.00000000 </v>
   <v>       0.33333333       0.07692308       0.00000000 </v>
   <v>       0.40000000       0.07692308       0.00000000 </v>
   <v>       0.46666667       0.07692308       0.00000000 </v>
   <v>       0.00000000       0.15384615       0.00000000 </v>
   <v>       0.06666667       0.15384615       0.00000000 </v>
   <v>       0.13333333       0.15384615       0.00000000 </v>
   <v>       0.20000000       0.15384615       0.00000000 </v>
   <v>       0.26666667       0.15384615       0.00000000 </v>
   <v>       0.33333333       0.15384615       0.00000000 </v>
   <v>       0.40000000       0.15384615       0.00000000 </v>
   <v>       0.46666667       0.15384615       0.00000000 </v>
   <v>       0.00000000       0.23076923       0.00000000 </v>
   <v>       0.06666667       0.23076923       0.00000000 </v>
   <v>       0.13333333       0.23076923       0.00000000 </v>
   <v>       0.20000000       0.23076923       0.00000000 </v>
   <v>       0.26666667       0.23076923       0.00000000 </v>
   <v>       0.33333333       0.23076923       0.00000000 </v>
   <v>       0.40000000       0.23076923       0.00000000 </v>
   <v>       0.46666667       0.23076923       0.00000000 </v>
   <v>       0.00000000       0.30769231       0.00000000 </v>
   <v>       0.06666667       0.30769231       0.00000000 </v>
   <v>       0.13333333       0.30769231       0.00000000 </v>
   <v>       0.20000000       0.30769231       0.00000000 </v>
   <v>       0.26666667       0.30769231       0.00000000 </v>
   <v>       0.33333333       0.30769231       0.00000000 </v>
   <v>       0.40000000       0.30769231       0.00000000 </v>
   <v>       0.46666667       0.30769231       0.00000000 </v>
   <v>       0.00000000       0.38461538       0.00000000 </v>
   <v>       0.06666667       0.38461538       0.00000000 </v>
   <v>       0.13333333       0.38461538       0.00000000 </v>
   <v>       0.20000000       0.38461538       0.00000000 </v>
   <v>       0.26666667       0.38461538       0.00000000 </v>
   <v>       0.33333333       0.38461538       0.00000000 </v>
   <v>       0.40000000       0.38461538       0.00000000 </v>
   <v>       0.46666667       0.38461538       0.00000000 </v>
   <v>       0.00000000       0.46153846       0.00000000 </v>
   <v>       0.06666667       0.46153846       0.00000000 </v>
   <v>       0.13333333       0.46153846       0.00000000 </v>
   <v>       0.20000000       0.46153846       0.00000000 </v>
   <v>       0.26666667       0.46153846       0.00000000 </v>
   <v>       0.33333333       0.46153846       0.00000000 </v>
   <v>       0.40000000       0.46153846       0.00000000 </v>
   <v>       0.46666667       0.46153846       0.00000000 </v>
  </varray>
  <varray name="weights" >
   <v>       0.00512821 </v>
   <v>       0.01025641 </v>
   <v>       0.01025641 </v>
   <v>       0.01025641 </v>
   <v>       0.01025641 </v>
   <v>       0.01025641 </v>
   <v>       0.01025641 </v>
   <v>       0.01025641 </v>
   <v>       0.01025641 </v>
   <v>       0.02051282 </v>
   <v>       0.02051282 </v>
   <v>       0.02051282 </v>
   <v>       0.02051282 </v>
   <v>       0.02051282 </v>
   <v>       0.02051282 </v>
   <v>       0.02051282 </v>
   <v>       0.01025641 </v>
   <v>       0.02051282 </v>
   <v>       0.02051282 </v>
   <v>       0.02051282 </v>
   <v>       0.02051282 </v>
   <v>       0.02051282 </v>
   <v>       0.02051282 </v>
   <v>       0.02051282 </v>
   <v>       0.01025641 </v>
   <v>       0.02051282 </v>
   <v>       0.02051282 </v>
   <v>       0.02051282 </v>
   <v>       0.02051282 </v>
   <v>       0.02051282 </v>
   <v>       0.02051282 </v>
   <v>       0.02051282 </v>
   <v>       0.01025641 </v>
   <v>       0.02051282 </v>
   <v>       0.02051282 </v>
   <v>       0.02051282 </v>
   <v>       0.02051282 </v>
   <v>       0.02051282 </v>
   <v>       0.02051282 </v>
   <v>       0.02051282 </v>
   <v>       0.01025641 </v>
   <v>       0.02051282 </v>
   <v>       0.02051282 </v>
   <v>       0.02051282 </v>
   <v>       0.02051282 </v>
   <v>       0.02051282 </v>
   <v>       0.02051282 </v>
   <v>       0.02051282 </v>
   <v>       0.01025641 </v>
   <v>       0.02051282 </v>
   <v>       0.02051282 </v>
   <v>       0.02051282 </v>
   <v>       0.02051282 </v>
   <v>       0.02051282 </v>
   <v>       0.02051282 </v>
   <v>       0.02051282 </v>
  </varray>
 </kpoints>
 <parameters>
  <separator name="general" >
   <i type="string" name="SYSTEM">unknown system</i>
   <i type="logical" name="LCOMPAT"> F  </i>
  </separator>
  <separator name="electronic" >
   <i type="string" name="PREC">a</i>
   <i name="ENMAX">    520.00000000</i>
   <i name="ENAUG">    531.35600000</i>
   <i name="EDIFF">      0.00001000</i>
   <i type="int" name="IALGO">    38</i>
   <i type="int" name="IWAVPR">    11</i>
   <i type="int" name="NBANDS">    32</i>
   <i name="NELECT">     52.00000000</i>
   <i type="int" name="TURBO">     0</i>
   <i type="int" name="IRESTART">     0</i>
   <i type="int" name="NREBOOT">     0</i>
   <i type="int" name="NMIN">     0</i>
   <i name="EREF">      0.00000000</i>
   <separator name="electronic smearing" >
    <i type="int" name="ISMEAR">     0</i>
    <i name="SIGMA">      0.02000000</i>
    <i name="KSPACING">      0.50000000</i>
    <i type="logical" name="KGAMMA"> T  </i>
   </separator>
   <separator name="electronic projectors" >
    <i type="logical" name="LREAL"> F  </i>
    <v name="ROPT">      0.00000000      0.00000000</v>
    <i type="int" name="LMAXPAW">  -100</i>
    <i type="int" name="LMAXMIX">     2</i>
    <i type="logical" name="NLSPLINE"> F  </i>
   </separator>
   <separator name="electronic startup" >
    <i type="int" name="ISTART">     0</i>
    <i type="int" name="ICHARG">     2</i>
    <i type="int" name="INIWAV">     1</i>
   </separator>
   <separator name="electronic spin" >
    <i type="int" name="ISPIN">     1</i>
    <i type="logical" name="LNONCOLLINEAR"> F  </i>
    <v name="MAGMOM">      1.00000000      1.00000000      1.00000000      1.00000000      1.00000000      1.00000000</v>
    <i name="NUPDOWN">     -1.00000000</i>
    <i type="logical" name="LSORBIT"> F  </i>
    <v name="SAXIS">      0.00000000      0.00000000      1.00000000</v>
    <i type="logical" name="LSPIRAL"> F  </i>
    <v name="QSPIRAL">      0.00000000      0.00000000      0.00000000</v>
    <i type="logical" name="LZEROZ"> F  </i>
   </separator>
   <separator name="electronic exchange-correlation" >
    <i type="logical" name="LASPH"> F  </i>
    <i type="logical" name="LMETAGGA"> F  </i>
   </separator>
   <separator name="electronic convergence" >
    <i type="int" name="NELM">   250</i>
    <i type="int" name="NELMDL">    -5</i>
    <i type="int" name="NELMIN">     6</i>
    <i name="ENINI">    520.00000000</i>
    <separator name="electronic convergence detail" >
     <i type="logical" name="LDIAG"> T  </i>
     <i type="logical" name="LSUBROT"> F  </i>
     <i name="WEIMIN">      0.00100000</i>
     <i name="EBREAK">      0.00000008</i>
     <i name="DEPER">      0.30000000</i>
     <i type="int" name="NRMM">     4</i>
     <i name="TIME">      0.40000000</i>
    </separator>
   </separator>
   <separator name="electronic mixer" >
    <i name="AMIX">      0.40000000</i>
    <i name="BMIX">      1.00000000</i>
    <i name="AMIN">      0.10000000</i>
    <i name="AMIX_MAG">      1.60000000</i>
    <i name="BMIX_MAG">      1.00000000</i>
    <separator name="electronic mixer details" >
     <i type="int" name="IMIX">     4</i>
     <i type="logical" name="MIXFIRST"> F  </i>
     <i type="int" name="MAXMIX">   -45</i>
     <i name="WC">    100.00000000</i>
     <i type="int" name="INIMIX">     1</i>
     <i type="int" name="MIXPRE">     1</i>
     <i type="int" name="MREMOVE">     5</i>
    </separator>
   </separator>
   <separator name="electronic dipolcorrection" >
    <i type="logical" name="LDIPOL"> F  </i>
    <i type="logical" name="LMONO"> F  </i>
    <i type="int" name="IDIPOL">     0</i>
    <i name="EPSILON">      1.00000000</i>
    <v name="DIPOL">   -100.00000000   -100.00000000   -100.00000000</v>
    <i name="EFIELD">      0.00000000</i>
   </separator>
  </separator>
  <separator name="grids" >
   <i type="int" name="NGX">    40</i>
   <i type="int" name="NGY">    42</i>
   <i type="int" name="NGZ">   140</i>
   <i type="int" name="NGXF">    80</i>
   <i type="int" name="NGYF">    84</i>
   <i type="int" name="NGZF">   280</i>
   <i type="logical" name="ADDGRID"> F  </i>
  </separator>
  <separator name="ionic" >
   <i type="int" name="NSW">   200</i>
   <i type="int" name="IBRION">     2</i>
   <i type="int" name="ISIF">     2</i>
   <i name="PSTRESS">      0.00000000</i>
   <i name="EDIFFG">     -0.01000000</i>
   <i type="int" name="NFREE">     1</i>
   <i name="POTIM">      0.30000000</i>
   <i name="SMASS">     -3.00000000</i>
   <i name="SCALEE">      1.00000000</i>
  </separator>
  <separator name="ionic md" >
   <i name="TEBEG">      0.00010000</i>
   <i name="TEEND">      0.00010000</i>
   <i type="int" name="NBLOCK">     1</i>
   <i type="int" name="KBLOCK">   200</i>
   <i type="int" name="NPACO">   256</i>
   <i name="APACO">     16.00000000</i>
  </separator>
  <separator name="symmetry" >
   <i type="int" name="ISYM">     2</i>
   <i name="SYMPREC">      0.00001000</i>
  </separator>
  <separator name="dos" >
   <i type="logical" name="LORBIT"> F  </i>
   <v name="RWIGS">     -1.00000000     -1.00000000</v>
   <i type="int" name="NEDOS">   301</i>
   <i name="EMIN">     10.00000000</i>
   <i name="EMAX">    -10.00000000</i>
   <i name="EFERMI">      0.00000000</i>
  </separator>
  <separator name="writing" >
   <i type="int" name="NWRITE">     2</i>
   <i type="logical" name="LWAVE"> F  </i>
   <i type="logical" name="LCHARG"> F  </i>
   <i type="logical" name="LPARD"> F  </i>
   <i type="logical" name="LVTOT"> F  </i>
   <i type="logical" name="LVHAR"> F  </i>
   <i type="logical" name="LELF"> F  </i>
   <i type="logical" name="LOPTICS"> F  </i>
   <v name="STM">      0.00000000      0.00000000      0.00000000      0.00000000      0.00000000      0.00000000      0.00000000</v>
  </separator>
  <separator name="performance" >
   <i type="int" name="NPAR">     4</i>
   <i type="int" name="NSIM">     4</i>
   <i type="int" name="NBLK">    -1</i>
   <i type="logical" name="LPLANE"> T  </i>
   <i type="logical" name="LSCALAPACK"> T  </i>
   <i type="logical" name="LSCAAWARE"> F  </i>
   <i type="logical" name="LSCALU"> F  </i>
   <i type="logical" name="LASYNC"> F  </i>
   <i type="logical" name="LORBITALREAL"> F  </i>
  </separator>
  <separator name="miscellaneous" >
   <i type="int" name="IDIOT">     3</i>
   <i type="logical" name="LMUSIC"> F  </i>
   <v name="POMASS">     72.61000000     78.96000000</v>
   <v name="DARWINR">      0.00000000      0.00000000</v>
   <v name="DARWINV">      1.00000000      1.00000000</v>
   <i type="logical" name="LCORR"> T  </i>
  </separator>
  <i type="logical" name="GGA_COMPAT"> T  </i>
  <i type="logical" name="LBERRY"> F  </i>
  <i type="int" name="ICORELEVEL">     0</i>
  <i type="logical" name="LDAU"> F  </i>
  <i type="int" name="I_CONSTRAINED_M">     0</i>
  <separator name="electronic exchange-correlation" >
   <i type="string" name="GGA">--</i>
   <i type="int" name="VOSKOWN">     0</i>
   <i type="logical" name="LHFCALC"> F  </i>
   <i type="string" name="PRECFOCK"></i>
   <i type="logical" name="LSYMGRAD"> F  </i>
   <i type="logical" name="LHFONE"> F  </i>
   <i type="logical" name="LRHFCALC"> F  </i>
   <i type="logical" name="LTHOMAS"> F  </i>
   <i type="logical" name="LMODELHF"> F  </i>
   <i name="ENCUT4O">     -1.00000000</i>
   <i type="int" name="EXXOEP">     0</i>
   <i type="int" name="FOURORBIT">     0</i>
   <i name="AEXX">      0.00000000</i>
   <i name="HFALPHA">      0.00000000</i>
   <i name="MCALPHA">      0.00000000</i>
   <i name="ALDAX">      1.00000000</i>
   <i name="AGGAX">      1.00000000</i>
   <i name="ALDAC">      1.00000000</i>
   <i name="AGGAC">      1.00000000</i>
   <i type="int" name="NKREDX">     1</i>
   <i type="int" name="NKREDY">     1</i>
   <i type="int" name="NKREDZ">     1</i>
   <i type="logical" name="SHIFTRED"> F  </i>
   <i type="logical" name="ODDONLY"> F  </i>
   <i type="logical" name="EVENONLY"> F  </i>
   <i type="int" name="LMAXFOCK">     0</i>
   <i type="int" name="NMAXFOCKAE">     0</i>
   <i type="logical" name="LFOCKAEDFT"> F  </i>
   <i name="HFSCREEN">      0.00000000</i>
   <i name="HFSCREENC">      0.00000000</i>
   <i type="int" name="NBANDSGWLOW">     0</i>
  </separator>
  <separator name="vdW DFT" >
   <i type="logical" name="LUSE_VDW"> F  </i>
   <i name="Zab_VDW">     -0.84910000</i>
   <i name="PARAM1">      0.12340000</i>
   <i name="PARAM2">      1.00000000</i>
   <i name="PARAM3">      0.00000000</i>
  </separator>
  <separator name="model GW" >
   <i type="int" name="MODEL_GW">     0</i>
   <i name="MODEL_EPS0">     49.90982238</i>
   <i name="MODEL_ALPHA">      1.00000000</i>
  </separator>
  <separator name="linear response parameters" >
   <i type="logical" name="LEPSILON"> F  </i>
   <i type="logical" name="LRPA"> F  </i>
   <i type="logical" name="LNABLA"> F  </i>
   <i type="logical" name="LVEL"> F  </i>
   <i type="int" name="KINTER">     0</i>
   <i name="CSHIFT">      0.10000000</i>
   <i name="OMEGAMAX">     -1.00000000</i>
   <i name="DEG_THRESHOLD">      0.00200000</i>
  </separator>
  <separator name="orbital magnetization" >
   <i type="logical" name="NUCIND"> F  </i>
   <v name="MAGPOS">      0.00000000      0.00000000      0.00000000</v>
   <i type="logical" name="LNICSALL"> T  </i>
   <i type="logical" name="ORBITALMAG"> F  </i>
   <i type="logical" name="LMAGBLOCH"> F  </i>
   <i type="logical" name="LCHIMAG"> F  </i>
   <i type="logical" name="LGAUGE"> T  </i>
   <i type="int" name="MAGATOM">     0</i>
   <v name="MAGDIPOL">      0.00000000      0.00000000      0.00000000</v>
   <v name="AVECCONST">      0.00000000      0.00000000      0.00000000</v>
  </separator>
  <separator name="response functions" >
   <i type="logical" name="LADDER"> F  </i>
   <i type="logical" name="LFXC"> F  </i>
   <i type="logical" name="LHARTREE"> T  </i>
   <i type="int" name="IBSE">     0</i>
   <v type="int" name="KPOINT">    -1     0     0     0</v>
   <i type="logical" name="LTCTE"> F  </i>
   <i type="logical" name="LTETE"> F  </i>
   <i type="logical" name="LTRIPLET"> F  </i>
   <i type="logical" name="LFXCEPS"> F  </i>
   <i type="logical" name="LFXHEG"> F  </i>
   <i type="int" name="NATURALO">     0</i>
   <i type="logical" name="L2ORDER"> F  </i>
   <i type="logical" name="LUSEW"> F  </i>
   <i name="ENCUTGW">     -2.00000000</i>
   <i name="ENCUTGWSOFT">     -2.00000000</i>
   <i name="ENCUTLF">     -1.00000000</i>
   <i type="int" name="LMAXMP2">    -1</i>
   <i name="SCISSOR">      0.00000000</i>
   <i type="int" name="NOMEGA">     0</i>
   <i type="int" name="NOMEGAR">     0</i>
   <i type="int" name="NBANDSGW">    -1</i>
   <i type="int" name="NBANDSO">    -1</i>
   <i type="int" name="NBANDSV">    -1</i>
   <i type="int" name="NELM">   250</i>
   <i type="int" name="NELMHF">     1</i>
   <i type="int" name="DIM">     3</i>
   <i type="int" name="ANTIRES">     0</i>
   <i name="OMEGAMAX">    -30.00000000</i>
   <i name="OMEGAMIN">    -30.00000000</i>
   <i name="OMEGATL">   -200.00000000</i>
   <i type="int" name="OMEGAGRID">     0</i>
   <i name="CSHIFT">     -0.10000000</i>
   <i type="logical" name="SELFENERGY"> F  </i>
   <i type="logical" name="LSPECTRAL"> F  </i>
   <i type="logical" name="LSPECTRALGW"> F  </i>
   <i type="logical" name="LSINGLES"> F  </i>
   <i type="logical" name="LFERMIGW"> F  </i>
   <i type="logical" name="ODDONLYGW"> F  </i>
   <i type="logical" name="EVENONLYGW"> F  </i>
   <i type="int" name="NKREDLFX">     1</i>
   <i type="int" name="NKREDLFY">     1</i>
   <i type="int" name="NKREDLFZ">     1</i>
   <i type="int" name="MAXMEM">  1800</i>
   <i type="int" name="TELESCOPE">     0</i>
   <i type="int" name="TAUPAR">     1</i>
   <i type="int" name="OMEGAPAR">    -1</i>
   <i name="LAMBDA">      1.00000000</i>
  </separator>
  <separator name="External order field" >
   <i name="OFIELD_KAPPA">      0.00000000</i>
   <v name="OFIELD_K">      0.00000000      0.00000000      0.00000000</v>
   <i name="OFIELD_Q6_NEAR">      0.00000000</i>
   <i name="OFIELD_Q6_FAR">      0.00000000</i>
   <i name="OFIELD_A">      0.00000000</i>
  </separator>
 </parameters>
 <atominfo>
  <atoms>       6 </atoms>
  <types>       2 </types>
  <array name="atoms" >
   <dimension dim="1">ion</dimension>
   <field type="string">element</field>
   <field type="int">atomtype</field>
   <set>
    <rc><c>Ge</c><c>   1</c></rc>
    <rc><c>Ge</c><c>   1</c></rc>
    <rc><c>Se</c><c>   2</c></rc>
    <rc><c>Se</c><c>   2</c></rc>
    <rc><c>Se</c><c>   2</c></rc>
    <rc><c>Se</c><c>   2</c></rc>
   </set>
  </array>
  <array name="atomtypes" >
   <dimension dim="1">type</dimension>
   <field type="int">atomspertype</field>
   <field type="string">element</field>
   <field>mass</field>
   <field>valence</field>
   <field type="string">pseudopotential</field>
   <set>
    <rc><c>   2</c><c>Ge</c><c>     72.61000000</c><c>     14.00000000</c><c>  PAW_PBE Ge_d 03Jul2007                </c></rc>
    <rc><c>   4</c><c>Se</c><c>     78.96000000</c><c>      6.00000000</c><c>  PAW_PBE Se 06Sep2000                  </c></rc>
   </set>
  </array>
 </atominfo>
 <structure name="initialpos" >
  <crystal>
   <varray name="basis" >
    <v>       4.93054600       0.00000000       0.00000000 </v>
    <v>       0.00000000       5.59898900       0.00000000 </v>
    <v>       0.00000000       0.00000000      18.07929100 </v>
   </varray>
   <i name="volume">    499.09822384 </i>
   <varray name="rec_basis" >
    <v>       0.20281729       0.00000000       0.00000000 </v>
    <v>       0.00000000       0.17860367       0.00000000 </v>
    <v>       0.00000000       0.00000000       0.05531190 </v>
   </varray>
  </crystal>
  <varray name="positions" >
   <v>       0.50000000       0.50000000       0.50000000 </v>
   <v>       0.00000000       0.00000000       0.50000000 </v>
   <v>       0.25000000       0.25000000       0.41502600 </v>
   <v>       0.75000000       0.75000000       0.41502600 </v>
   <v>       0.75000000       0.25000000       0.58497400 </v>
   <v>       0.25000000       0.75000000       0.58497400 </v>
  </varray>
 </structure>
 <calculation>
  <scstep>
   <time name="dav">    2.00    2.01</time>
   <time name="total">    2.04    2.05</time>
   <energy>
    <i name="alphaZ">     46.02508353 </i>
    <i name="ewald">   4910.58898821 </i>
    <i name="hartreedc">  -9697.03929468 </i>
    <i name="XCdc">    142.33658404 </i>
    <i name="pawpsdc">   4514.43351212 </i>
    <i name="pawaedc">  -5329.26418529 </i>
    <i name="eentropy">     -0.00088589 </i>
    <i name="bandstr">   -372.84139637 </i>
    <i name="atom">   6220.98622430 </i>
    <i name="e_fr_energy">    435.22462997 </i>
    <i name="e_wo_entrp">    435.22551586 </i>
    <i name="e_0_energy">    435.22507291 </i>
   </energy>
  </scstep>
  <scstep>
   <time name="dav">    2.10    2.10</time>
   <time name="total">    2.10    2.10</time>
   <energy>
    <i name="e_fr_energy">     46.25497465 </i>
    <i name="e_wo_entrp">     46.25549515 </i>
    <i name="e_0_energy">     46.25523490 </i>
   </energy>
  </scstep>
  <scstep>
   <time name="dav">    2.26    2.26</time>
   <time name="total">    2.26    2.27</time>
   <energy>
    <i name="e_fr_energy">    -21.48918536 </i>
    <i name="e_wo_entrp">    -21.48918536 </i>
    <i name="e_0_energy">    -21.48918536 </i>
   </energy>
  </scstep>
  <scstep>
   <time name="dav">    2.07    2.07</time>
   <time name="total">    2.07    2.08</time>
   <energy>
    <i name="e_fr_energy">    -24.75828572 </i>
    <i name="e_wo_entrp">    -24.75828572 </i>
    <i name="e_0_energy">    -24.75828572 </i>
   </energy>
  </scstep>
  <scstep>
   <time name="dav">    2.40    2.40</time>
   <time name="total">    2.52    2.52</time>
   <energy>
    <i name="e_fr_energy">    -24.86554286 </i>
    <i name="e_wo_entrp">    -24.86554286 </i>
    <i name="e_0_energy">    -24.86554286 </i>
   </energy>
  </scstep>
  <scstep>
   <time name="dav">    2.36    2.36</time>
   <time name="total">    2.51    2.51</time>
   <energy>
    <i name="e_fr_energy">    -24.36141651 </i>
    <i name="e_wo_entrp">    -24.36141651 </i>
    <i name="e_0_energy">    -24.36141651 </i>
   </energy>
  </scstep>
  <scstep>
   <time name="dav">    2.14    2.14</time>
   <time name="total">    2.29    2.29</time>
   <energy>
    <i name="e_fr_energy">    -24.26737473 </i>
    <i name="e_wo_entrp">    -24.26737473 </i>
    <i name="e_0_energy">    -24.26737473 </i>
   </energy>
  </scstep>
  <scstep>
   <time name="dav">    2.25    2.25</time>
   <time name="total">    2.39    2.40</time>
   <energy>
    <i name="e_fr_energy">    -24.26141937 </i>
    <i name="e_wo_entrp">    -24.26141937 </i>
    <i name="e_0_energy">    -24.26141937 </i>
   </energy>
  </scstep>
  <scstep>
   <time name="dav">    2.27    2.27</time>
   <time name="total">    2.41    2.41</time>
   <energy>
    <i name="e_fr_energy">    -24.26095984 </i>
    <i name="e_wo_entrp">    -24.26095984 </i>
    <i name="e_0_energy">    -24.26095984 </i>
   </energy>
  </scstep>
  <scstep>
   <time name="dav">    2.39    2.39</time>
   <time name="total">    2.53    2.53</time>
   <energy>
    <i name="e_fr_energy">    -24.26074854 </i>
    <i name="e_wo_entrp">    -24.26074854 </i>
    <i name="e_0_energy">    -24.26074854 </i>
   </energy>
  </scstep>
  <scstep>
   <time name="dav">    1.96    1.96</time>
   <time name="total">    2.10    2.10</time>
   <energy>
    <i name="e_fr_energy">    -24.26056205 </i>
    <i name="e_wo_entrp">    -24.26056205 </i>
    <i name="e_0_energy">    -24.26056205 </i>
   </energy>
  </scstep>
  <scstep>
   <time name="dav">    1.92    1.92</time>
   <time name="total">    2.07    2.07</time>
   <energy>
    <i name="e_fr_energy">    -24.26069396 </i>
    <i name="e_wo_entrp">    -24.26069396 </i>
    <i name="e_0_energy">    -24.26069396 </i>
   </energy>
  </scstep>
  <scstep>
   <time name="dav">    1.87    1.87</time>
   <time name="total">    2.01    2.02</time>
   <energy>
    <i name="e_fr_energy">    -24.26095619 </i>
    <i name="e_wo_entrp">    -24.26095619 </i>
    <i name="e_0_energy">    -24.26095619 </i>
   </energy>
  </scstep>
  <scstep>
   <time name="dav">    1.75    1.76</time>
   <time name="total">    1.90    1.90</time>
   <energy>
    <i name="e_fr_energy">    -24.26105725 </i>
    <i name="e_wo_entrp">    -24.26105725 </i>
    <i name="e_0_energy">    -24.26105725 </i>
   </energy>
  </scstep>
  <scstep>
   <time name="dav">    1.71    1.72</time>
   <time name="total">    1.86    1.86</time>
   <energy>
    <i name="e_fr_energy">    -24.26111311 </i>
    <i name="e_wo_entrp">    -24.26111311 </i>
    <i name="e_0_energy">    -24.26111311 </i>
   </energy>
  </scstep>
  <scstep>
   <time name="dav">    1.67    1.67</time>
   <time name="total">    1.81    1.82</time>
   <energy>
    <i name="e_fr_energy">    -24.26117534 </i>
    <i name="e_wo_entrp">    -24.26117534 </i>
    <i name="e_0_energy">    -24.26117534 </i>
   </energy>
  </scstep>
  <scstep>
   <time name="dav">    1.55    1.55</time>
   <time name="total">    1.69    1.69</time>
   <energy>
    <i name="e_fr_energy">    -24.26122149 </i>
    <i name="e_wo_entrp">    -24.26122149 </i>
    <i name="e_0_energy">    -24.26122149 </i>
   </energy>
  </scstep>
  <scstep>
   <time name="dav">    1.62    1.62</time>
   <time name="total">    1.76    1.77</time>
   <energy>
    <i name="e_fr_energy">    -24.26125086 </i>
    <i name="e_wo_entrp">    -24.26125086 </i>
    <i name="e_0_energy">    -24.26125086 </i>
   </energy>
  </scstep>
  <scstep>
   <time name="dav">    1.65    1.65</time>
   <time name="total">    1.68    1.68</time>
   <energy>
    <i name="alphaZ">     46.02508353 </i>
    <i name="ewald">   4910.58898821 </i>
    <i name="hartreedc">  -9700.80854532 </i>
    <i name="XCdc">    142.86962521 </i>
    <i name="pawpsdc">   5732.74155203 </i>
    <i name="pawaedc">  -6552.67008934 </i>
    <i name="eentropy">     -0.00000000 </i>
    <i name="bandstr">   -823.99409461 </i>
    <i name="atom">   6220.98622430 </i>
    <i name="e_fr_energy">    -24.26125600 </i>
    <i name="e_wo_entrp">    -24.26125600 </i>
    <i name="e_0_energy">    -24.26125600 </i>
   </energy>
  </scstep>
  <structure>
   <crystal>
    <varray name="basis" >
     <v>       4.93054600       0.00000000       0.00000000 </v>
     <v>       0.00000000       5.59898900       0.00000000 </v>
     <v>       0.00000000       0.00000000      18.07929100 </v>
    </varray>
    <i name="volume">    499.09822384 </i>
    <varray name="rec_basis" >
     <v>       0.20281729       0.00000000       0.00000000 </v>
     <v>       0.00000000       0.17860367       0.00000000 </v>
     <v>       0.00000000       0.00000000       0.05531190 </v>
    </varray>
   </crystal>
   <varray name="positions" >
    <v>       0.50000000       0.50000000       0.50000000 </v>
    <v>       0.00000000       0.00000000       0.50000000 </v>
    <v>       0.25000000       0.25000000       0.41502600 </v>
    <v>       0.75000000       0.75000000       0.41502600 </v>
    <v>       0.75000000       0.25000000       0.58497400 </v>
    <v>       0.25000000       0.75000000       0.58497400 </v>
   </varray>
  </structure>
  <varray name="forces" >
   <v>       0.00000000       0.00000000      -0.00000000 </v>
   <v>      -0.00000000      -0.00000000      -0.00000000 </v>
   <v>      -0.00000000      -0.00000000       0.05155843 </v>
   <v>      -0.00000000      -0.00000000       0.05155843 </v>
   <v>      -0.00000000      -0.00000000      -0.05155843 </v>
   <v>      -0.00000000      -0.00000000      -0.05155843 </v>
  </varray>
  <varray name="stress" >
   <v>      -1.49146711       0.00000000       0.00000000 </v>
   <v>       0.00000000      -2.06846778       0.00000000 </v>
   <v>       0.00000000       0.00000000      -1.06154274 </v>
  </varray>
  <energy>
   <i name="e_fr_energy">    -24.26125600 </i>
   <i name="e_wo_entrp">    -24.26125600 </i>
   <i name="e_0_energy">     -0.00000000 </i>
  </energy>
  <time name="totalsc">   41.23   41.28</time>
 </calculation>
 <calculation>
  <scstep>
   <time name="dav">    1.69    1.70</time>
   <time name="total">    1.84    1.85</time>
   <energy>
    <i name="alphaZ">     46.02508353 </i>
    <i name="ewald">   4913.95413546 </i>
    <i name="hartreedc">  -9704.06696355 </i>
    <i name="XCdc">    142.88319394 </i>
    <i name="pawpsdc">   5732.72465360 </i>
    <i name="pawaedc">  -6552.65317383 </i>
    <i name="eentropy">     -0.00000000 </i>
    <i name="bandstr">   -824.11463059 </i>
    <i name="atom">   6220.98622430 </i>
    <i name="e_fr_energy">    -24.26147715 </i>
    <i name="e_wo_entrp">    -24.26147715 </i>
    <i name="e_0_energy">    -24.26147715 </i>
   </energy>
  </scstep>
  <scstep>
   <time name="dav">    1.95    1.96</time>
   <time name="total">    2.10    2.10</time>
   <energy>
    <i name="e_fr_energy">    -24.26151703 </i>
    <i name="e_wo_entrp">    -24.26151703 </i>
    <i name="e_0_energy">    -24.26151703 </i>
   </energy>
  </scstep>
  <scstep>
   <time name="dav">    1.57    1.57</time>
   <time name="total">    1.72    1.72</time>
   <energy>
    <i name="e_fr_energy">    -24.26151700 </i>
    <i name="e_wo_entrp">    -24.26151700 </i>
    <i name="e_0_energy">    -24.26151700 </i>
   </energy>
  </scstep>
  <scstep>
   <time name="dav">    1.45    1.45</time>
   <time name="total">    1.59    1.59</time>
   <energy>
    <i name="e_fr_energy">    -24.26151805 </i>
    <i name="e_wo_entrp">    -24.26151805 </i>
    <i name="e_0_energy">    -24.26151805 </i>
   </energy>
  </scstep>
  <scstep>
   <time name="dav">    1.46    1.46</time>
   <time name="total">    1.60    1.60</time>
   <energy>
    <i name="e_fr_energy">    -24.26151875 </i>
    <i name="e_wo_entrp">    -24.26151875 </i>
    <i name="e_0_energy">    -24.26151875 </i>
   </energy>
  </scstep>
  <scstep>
   <time name="dav">    1.35    1.35</time>
   <time name="total">    1.38    1.38</time>
   <energy>
    <i name="alphaZ">     46.02508353 </i>
    <i name="ewald">   4913.95413546 </i>
    <i name="hartreedc">  -9704.06615626 </i>
    <i name="XCdc">    142.88144787 </i>
    <i name="pawpsdc">   5736.18175333 </i>
    <i name="pawaedc">  -6556.13330224 </i>
    <i name="eentropy">     -0.00000000 </i>
    <i name="bandstr">   -824.09070487 </i>
    <i name="atom">   6220.98622430 </i>
    <i name="e_fr_energy">    -24.26151888 </i>
    <i name="e_wo_entrp">    -24.26151888 </i>
    <i name="e_0_energy">    -24.26151888 </i>
   </energy>
  </scstep>
  <structure>
   <crystal>
    <varray name="basis" >
     <v>       4.93054600       0.00000000       0.00000000 </v>
     <v>       0.00000000       5.59898900       0.00000000 </v>
     <v>       0.00000000       0.00000000      18.07929100 </v>
    </varray>
    <i name="volume">    499.09822384 </i>
    <varray name="rec_basis" >
     <v>       0.20281729       0.00000000       0.00000000 </v>
     <v>       0.00000000       0.17860367       0.00000000 </v>
     <v>       0.00000000       0.00000000       0.05531190 </v>
    </varray>
   </crystal>
   <varray name="positions" >
    <v>       0.50000000       0.50000000       0.50000000 </v>
    <v>      -0.00000000      -0.00000000       0.50000000 </v>
    <v>       0.25000000       0.25000000       0.41510855 </v>
    <v>       0.75000000       0.75000000       0.41510855 </v>
    <v>       0.75000000       0.25000000       0.58489145 </v>
    <v>       0.25000000       0.75000000       0.58489145 </v>
   </varray>
  </structure>
  <varray name="forces" >
   <v>       0.00000000       0.00000000      -0.00000000 </v>
   <v>       0.00000000      -0.00000000       0.00000000 </v>
   <v>      -0.00000000      -0.00000000       0.03478815 </v>
   <v>      -0.00000000      -0.00000000       0.03478815 </v>
   <v>      -0.00000000      -0.00000000      -0.03478815 </v>
   <v>      -0.00000000      -0.00000000      -0.03478815 </v>
  </varray>
  <varray name="stress" >
   <v>      -1.41112358       0.00000000       0.00000000 </v>
   <v>       0.00000000      -1.97471426       0.00000000 </v>
   <v>       0.00000000       0.00000000      -0.74568665 </v>
  </varray>
  <energy>
   <i name="e_fr_energy">    -24.26151888 </i>
   <i name="e_wo_entrp">    -24.26151888 </i>
   <i name="e_0_energy">     -0.00000000 </i>
  </energy>
  <time name="totalsc">   11.44   11.46</time>
 </calculation>
 <calculation>
  <scstep>
   <time name="dav">    1.80    1.80</time>
   <time name="total">    1.95    1.95</time>
   <energy>
    <i name="alphaZ">     46.02508353 </i>
    <i name="ewald">   4920.93493236 </i>
    <i name="hartreedc">  -9710.81756353 </i>
    <i name="XCdc">    142.90959409 </i>
    <i name="pawpsdc">   5736.20543668 </i>
    <i name="pawaedc">  -6556.15703289 </i>
    <i name="eentropy">     -0.00000000 </i>
    <i name="bandstr">   -824.34824305 </i>
    <i name="atom">   6220.98622430 </i>
    <i name="e_fr_energy">    -24.26156853 </i>
    <i name="e_wo_entrp">    -24.26156853 </i>
    <i name="e_0_energy">    -24.26156853 </i>
   </energy>
  </scstep>
  <scstep>
   <time name="dav">    2.07    2.07</time>
   <time name="total">    2.21    2.21</time>
   <energy>
    <i name="e_fr_energy">    -24.26173870 </i>
    <i name="e_wo_entrp">    -24.26173870 </i>
    <i name="e_0_energy">    -24.26173870 </i>
   </energy>
  </scstep>
  <scstep>
   <time name="dav">    1.85    1.85</time>
   <time name="total">    1.99    1.99</time>
   <energy>
    <i name="e_fr_energy">    -24.26173618 </i>
    <i name="e_wo_entrp">    -24.26173618 </i>
    <i name="e_0_energy">    -24.26173618 </i>
   </energy>
  </scstep>
  <scstep>
   <time name="dav">    1.59    1.59</time>
   <time name="total">    1.73    1.73</time>
   <energy>
    <i name="e_fr_energy">    -24.26173721 </i>
    <i name="e_wo_entrp">    -24.26173721 </i>
    <i name="e_0_energy">    -24.26173721 </i>
   </energy>
  </scstep>
  <scstep>
   <time name="dav">    1.43    1.43</time>
   <time name="total">    1.58    1.58</time>
   <energy>
    <i name="e_fr_energy">    -24.26173865 </i>
    <i name="e_wo_entrp">    -24.26173865 </i>
    <i name="e_0_energy">    -24.26173865 </i>
   </energy>
  </scstep>
  <scstep>
   <time name="dav">    1.33    1.33</time>
   <time name="total">    1.36    1.36</time>
   <energy>
    <i name="alphaZ">     46.02508353 </i>
    <i name="ewald">   4920.93493236 </i>
    <i name="hartreedc">  -9710.81179127 </i>
    <i name="XCdc">    142.90593168 </i>
    <i name="pawpsdc">   5743.42351938 </i>
    <i name="pawaedc">  -6563.42252156 </i>
    <i name="eentropy">     -0.00000000 </i>
    <i name="bandstr">   -824.30311720 </i>
    <i name="atom">   6220.98622430 </i>
    <i name="e_fr_energy">    -24.26173880 </i>
    <i name="e_wo_entrp">    -24.26173880 </i>
    <i name="e_0_energy">    -24.26173880 </i>
   </energy>
  </scstep>
  <structure>
   <crystal>
    <varray name="basis" >
     <v>       4.93054600       0.00000000       0.00000000 </v>
     <v>       0.00000000       5.59898900       0.00000000 </v>
     <v>       0.00000000       0.00000000      18.07929100 </v>
    </varray>
    <i name="volume">    499.09822384 </i>
    <varray name="rec_basis" >
     <v>       0.20281729       0.00000000       0.00000000 </v>
     <v>       0.00000000       0.17860367       0.00000000 </v>
     <v>       0.00000000       0.00000000       0.05531190 </v>
    </varray>
   </crystal>
   <varray name="positions" >
    <v>       0.50000000       0.50000000       0.50000000 </v>
    <v>      -0.00000000      -0.00000000       0.50000000 </v>
    <v>       0.25000000       0.25000000       0.41527978 </v>
    <v>       0.75000000       0.75000000       0.41527978 </v>
    <v>       0.75000000       0.25000000       0.58472022 </v>
    <v>       0.25000000       0.75000000       0.58472022 </v>
   </varray>
  </structure>
  <varray name="forces" >
   <v>       0.00000000      -0.00000000       0.00000000 </v>
   <v>       0.00000000       0.00000000       0.00000000 </v>
   <v>      -0.00000000       0.00000000      -0.00023327 </v>
   <v>      -0.00000000       0.00000000      -0.00023327 </v>
   <v>       0.00000000       0.00000000       0.00023327 </v>
   <v>       0.00000000       0.00000000       0.00023327 </v>
  </varray>
  <varray name="stress" >
   <v>      -1.23024888       0.00000000       0.00000000 </v>
   <v>       0.00000000      -1.76658366       0.00000000 </v>
   <v>       0.00000000       0.00000000      -0.06930851 </v>
  </varray>
  <energy>
   <i name="e_fr_energy">    -24.26173880 </i>
   <i name="e_wo_entrp">    -24.26173880 </i>
   <i name="e_0_energy">     -0.00000000 </i>
  </energy>
  <time name="totalsc">   11.95   11.96</time>
  <eigenvalues>
   <array>
    <dimension dim="1">band</dimension>
    <dimension dim="2">kpoint</dimension>
    <dimension dim="3">spin</dimension>
    <field>eigene</field>
    <field>occ</field>
    <set>
     <set comment="spin 1">
      <set comment="kpoint 1">
       <r>  -27.8335    1.0000 </r>
       <r>  -27.8298    1.0000 </r>
       <r>  -27.8264    1.0000 </r>
       <r>  -27.8218    1.0000 </r>
       <r>  -27.8209    1.0000 </r>
       <r>  -27.8084    1.0000 </r>
       <r>  -27.8037    1.0000 </r>
       <r>  -27.8006    1.0000 </r>
       <r>  -27.7874    1.0000 </r>
       <r>  -27.7820    1.0000 </r>
       <r>  -16.9018    1.0000 </r>
       <r>  -15.3991    1.0000 </r>
       <r>  -15.0042    1.0000 </r>
       <r>  -14.7969    1.0000 </r>
       <r>  -11.8260    1.0000 </r>
       <r>   -9.2277    1.0000 </r>
       <r>   -7.4648    1.0000 </r>
       <r>   -5.9090    1.0000 </r>
       <r>   -5.5194    1.0000 </r>
       <r>   -5.5085    1.0000 </r>
       <r>   -5.2832    1.0000 </r>
       <r>   -5.1448    1.0000 </r>
       <r>   -4.6500    1.0000 </r>
       <r>   -4.1621    1.0000 </r>
       <r>   -2.8895    1.0000 </r>
       <r>   -2.8484    1.0000 </r>
       <r>   -1.9186    0.0000 </r>
       <r>   -1.3942    0.0000 </r>
       <r>   -0.9867    0.0000 </r>
       <r>    0.1262    0.0000 </r>
       <r>    0.6528    0.0000 </r>
       <r>    1.9254    0.0000 </r>
      </set>
      <set comment="kpoint 2">
       <r>  -27.8334    1.0000 </r>
       <r>  -27.8297    1.0000 </r>
       <r>  -27.8263    1.0000 </r>
       <r>  -27.8219    1.0000 </r>
       <r>  -27.8208    1.0000 </r>
       <r>  -27.8084    1.0000 </r>
       <r>  -27.8037    1.0000 </r>
       <r>  -27.8008    1.0000 </r>
       <r>  -27.7873    1.0000 </r>
       <r>  -27.7821    1.0000 </r>
       <r>  -16.8854    1.0000 </r>
       <r>  -15.3932    1.0000 </r>
       <r>  -15.0064    1.0000 </r>
       <r>  -14.8352    1.0000 </r>
       <r>  -11.7836    1.0000 </r>
       <r>   -9.2441    1.0000 </r>
       <r>   -7.4635    1.0000 </r>
       <r>   -5.9022    1.0000 </r>
       <r>   -5.6080    1.0000 </r>
       <r>   -5.5838    1.0000 </r>
       <r>   -5.3413    1.0000 </r>
       <r>   -5.0478    1.0000 </r>
       <r>   -4.6474    1.0000 </r>
       <r>   -4.1478    1.0000 </r>
       <r>   -2.9473    1.0000 </r>
       <r>   -2.8772    1.0000 </r>
       <r>   -1.8211    0.0000 </r>
       <r>   -1.3899    0.0000 </r>
       <r>   -0.8787    0.0000 </r>
       <r>    0.1731    0.0000 </r>
       <r>    0.6993    0.0000 </r>
       <r>    1.9527    0.0000 </r>
      </set>
      <set comment="kpoint 3">
       <r>  -27.8330    1.0000 </r>
       <r>  -27.8295    1.0000 </r>
       <r>  -27.8261    1.0000 </r>
       <r>  -27.8223    1.0000 </r>
       <r>  -27.8206    1.0000 </r>
       <r>  -27.8082    1.0000 </r>
       <r>  -27.8038    1.0000 </r>
       <r>  -27.8016    1.0000 </r>
       <r>  -27.7871    1.0000 </r>
       <r>  -27.7822    1.0000 </r>
       <r>  -16.8366    1.0000 </r>
       <r>  -15.3758    1.0000 </r>
       <r>  -15.0134    1.0000 </r>
       <r>  -14.9432    1.0000 </r>
       <r>  -11.6629    1.0000 </r>
       <r>   -9.2950    1.0000 </r>
       <r>   -7.4585    1.0000 </r>
       <r>   -5.8793    1.0000 </r>
       <r>   -5.7790    1.0000 </r>
       <r>   -5.7607    1.0000 </r>
       <r>   -5.4912    1.0000 </r>
       <r>   -4.8740    1.0000 </r>
       <r>   -4.6555    1.0000 </r>
       <r>   -4.1065    1.0000 </r>
       <r>   -3.0970    1.0000 </r>
       <r>   -2.9553    1.0000 </r>
       <r>   -1.5685    0.0000 </r>
       <r>   -1.3663    0.0000 </r>
       <r>   -0.5745    0.0000 </r>
       <r>    0.3041    0.0000 </r>
       <r>    0.8283    0.0000 </r>
       <r>    1.9783    0.0000 </r>
      </set>
      <set comment="kpoint 4">
       <r>  -27.8324    1.0000 </r>
       <r>  -27.8293    1.0000 </r>
       <r>  -27.8259    1.0000 </r>
       <r>  -27.8229    1.0000 </r>
       <r>  -27.8199    1.0000 </r>
       <r>  -27.8079    1.0000 </r>
       <r>  -27.8040    1.0000 </r>
       <r>  -27.8028    1.0000 </r>
       <r>  -27.7868    1.0000 </r>
       <r>  -27.7825    1.0000 </r>
       <r>  -16.7562    1.0000 </r>
       <r>  -15.3482    1.0000 </r>
       <r>  -15.1045    1.0000 </r>
       <r>  -15.0256    1.0000 </r>
       <r>  -11.4792    1.0000 </r>
       <r>   -9.3845    1.0000 </r>
       <r>   -7.4462    1.0000 </r>
       <r>   -6.0374    1.0000 </r>
       <r>   -5.9033    1.0000 </r>
       <r>   -5.8343    1.0000 </r>
       <r>   -5.6813    1.0000 </r>
       <r>   -4.7058    1.0000 </r>
       <r>   -4.6960    1.0000 </r>
       <r>   -4.0421    1.0000 </r>
       <r>   -3.2994    1.0000 </r>
       <r>   -3.0647    1.0000 </r>
       <r>   -1.3009    0.0000 </r>
       <r>   -1.2348    0.0000 </r>
       <r>   -0.1182    0.0000 </r>
       <r>    0.4961    0.0000 </r>
       <r>    1.0073    0.0000 </r>
       <r>    1.8176    0.0000 </r>
      </set>
      <set comment="kpoint 5">
       <r>  -27.8316    1.0000 </r>
       <r>  -27.8289    1.0000 </r>
       <r>  -27.8259    1.0000 </r>
       <r>  -27.8237    1.0000 </r>
       <r>  -27.8189    1.0000 </r>
       <r>  -27.8075    1.0000 </r>
       <r>  -27.8044    1.0000 </r>
       <r>  -27.8043    1.0000 </r>
       <r>  -27.7865    1.0000 </r>
       <r>  -27.7829    1.0000 </r>
       <r>  -16.6454    1.0000 </r>
       <r>  -15.3122    1.0000 </r>
       <r>  -15.3006    1.0000 </r>
       <r>  -15.0439    1.0000 </r>
       <r>  -11.2503    1.0000 </r>
       <r>   -9.5174    1.0000 </r>
       <r>   -7.4203    1.0000 </r>
       <r>   -6.3144    1.0000 </r>
       <r>   -6.0196    1.0000 </r>
       <r>   -5.8653    1.0000 </r>
       <r>   -5.7613    1.0000 </r>
       <r>   -4.7772    1.0000 </r>
       <r>   -4.5649    1.0000 </r>
       <r>   -3.9597    1.0000 </r>
       <r>   -3.5222    1.0000 </r>
       <r>   -3.1873    1.0000 </r>
       <r>   -1.1780    0.0000 </r>
       <r>   -0.8916    0.0000 </r>
       <r>    0.4451    0.0000 </r>
       <r>    0.7198    0.0000 </r>
       <r>    1.1841    0.0000 </r>
       <r>    1.6567    0.0000 </r>
      </set>
      <set comment="kpoint 6">
       <r>  -27.8306    1.0000 </r>
       <r>  -27.8285    1.0000 </r>
       <r>  -27.8261    1.0000 </r>
       <r>  -27.8247    1.0000 </r>
       <r>  -27.8173    1.0000 </r>
       <r>  -27.8070    1.0000 </r>
       <r>  -27.8064    1.0000 </r>
       <r>  -27.8046    1.0000 </r>
       <r>  -27.7860    1.0000 </r>
       <r>  -27.7833    1.0000 </r>
       <r>  -16.5064    1.0000 </r>
       <r>  -15.5150    1.0000 </r>
       <r>  -15.2704    1.0000 </r>
       <r>  -15.0688    1.0000 </r>
       <r>  -10.9915    1.0000 </r>
       <r>   -9.6950    1.0000 </r>
       <r>   -7.3725    1.0000 </r>
       <r>   -6.5810    1.0000 </r>
       <r>   -6.1055    1.0000 </r>
       <r>   -6.0142    1.0000 </r>
       <r>   -5.6582    1.0000 </r>
       <r>   -4.8968    1.0000 </r>
       <r>   -4.4505    1.0000 </r>
       <r>   -3.8643    1.0000 </r>
       <r>   -3.7406    1.0000 </r>
       <r>   -3.3103    1.0000 </r>
       <r>   -1.0004    0.0000 </r>
       <r>   -0.6088    0.0000 </r>
       <r>    0.9419    0.0000 </r>
       <r>    1.0744    0.0000 </r>
       <r>    1.3065    0.0000 </r>
       <r>    1.5339    0.0000 </r>
      </set>
      <set comment="kpoint 7">
       <r>  -27.8295    1.0000 </r>
       <r>  -27.8280    1.0000 </r>
       <r>  -27.8264    1.0000 </r>
       <r>  -27.8259    1.0000 </r>
       <r>  -27.8154    1.0000 </r>
       <r>  -27.8086    1.0000 </r>
       <r>  -27.8065    1.0000 </r>
       <r>  -27.8050    1.0000 </r>
       <r>  -27.7855    1.0000 </r>
       <r>  -27.7838    1.0000 </r>
       <r>  -16.3418    1.0000 </r>
       <r>  -15.7351    1.0000 </r>
       <r>  -15.2255    1.0000 </r>
       <r>  -15.1004    1.0000 </r>
       <r>  -10.7162    1.0000 </r>
       <r>   -9.9138    1.0000 </r>
       <r>   -7.2943    1.0000 </r>
       <r>   -6.8196    1.0000 </r>
       <r>   -6.1605    1.0000 </r>
       <r>   -6.1160    1.0000 </r>
       <r>   -5.5269    1.0000 </r>
       <r>   -5.0453    1.0000 </r>
       <r>   -4.3478    1.0000 </r>
       <r>   -3.9374    1.0000 </r>
       <r>   -3.7608    1.0000 </r>
       <r>   -3.4285    1.0000 </r>
       <r>   -0.7913    0.0000 </r>
       <r>   -0.4529    0.0000 </r>
       <r>    1.1274    0.0000 </r>
       <r>    1.3591    0.0000 </r>
       <r>    1.4139    0.0000 </r>
       <r>    1.4200    0.0000 </r>
      </set>
      <set comment="kpoint 8">
       <r>  -27.8283    1.0000 </r>
       <r>  -27.8274    1.0000 </r>
       <r>  -27.8271    1.0000 </r>
       <r>  -27.8269    1.0000 </r>
       <r>  -27.8132    1.0000 </r>
       <r>  -27.8109    1.0000 </r>
       <r>  -27.8060    1.0000 </r>
       <r>  -27.8055    1.0000 </r>
       <r>  -27.7849    1.0000 </r>
       <r>  -27.7843    1.0000 </r>
       <r>  -16.1551    1.0000 </r>
       <r>  -15.9510    1.0000 </r>
       <r>  -15.1805    1.0000 </r>
       <r>  -15.1381    1.0000 </r>
       <r>  -10.4366    1.0000 </r>
       <r>  -10.1650    1.0000 </r>
       <r>   -7.1782    1.0000 </r>
       <r>   -7.0201    1.0000 </r>
       <r>   -6.1834    1.0000 </r>
       <r>   -6.1706    1.0000 </r>
       <r>   -5.3740    1.0000 </r>
       <r>   -5.2092    1.0000 </r>
       <r>   -4.2374    1.0000 </r>
       <r>   -4.1033    1.0000 </r>
       <r>   -3.6528    1.0000 </r>
       <r>   -3.5421    1.0000 </r>
       <r>   -0.5912    0.0000 </r>
       <r>   -0.4571    0.0000 </r>
       <r>    1.2532    0.0000 </r>
       <r>    1.3315    0.0000 </r>
       <r>    1.3717    0.0000 </r>
       <r>    1.3848    0.0000 </r>
      </set>
      <set comment="kpoint 9">
       <r>  -27.8334    1.0000 </r>
       <r>  -27.8296    1.0000 </r>
       <r>  -27.8264    1.0000 </r>
       <r>  -27.8216    1.0000 </r>
       <r>  -27.8210    1.0000 </r>
       <r>  -27.8083    1.0000 </r>
       <r>  -27.8037    1.0000 </r>
       <r>  -27.8009    1.0000 </r>
       <r>  -27.7873    1.0000 </r>
       <r>  -27.7821    1.0000 </r>
       <r>  -16.8833    1.0000 </r>
       <r>  -15.3906    1.0000 </r>
       <r>  -15.0533    1.0000 </r>
       <r>  -14.8058    1.0000 </r>
       <r>  -11.7640    1.0000 </r>
       <r>   -9.2471    1.0000 </r>
       <r>   -7.4516    1.0000 </r>
       <r>   -5.9326    1.0000 </r>
       <r>   -5.5654    1.0000 </r>
       <r>   -5.5104    1.0000 </r>
       <r>   -5.3649    1.0000 </r>
       <r>   -5.1102    1.0000 </r>
       <r>   -4.6469    1.0000 </r>
       <r>   -4.1327    1.0000 </r>
       <r>   -2.9181    1.0000 </r>
       <r>   -2.9171    1.0000 </r>
       <r>   -1.8034    0.0000 </r>
       <r>   -1.3716    0.0000 </r>
       <r>   -0.8590    0.0000 </r>
       <r>    0.1442    0.0000 </r>
       <r>    0.6857    0.0000 </r>
       <r>    1.9512    0.0000 </r>
      </set>
      <set comment="kpoint 10">
       <r>  -27.8333    1.0000 </r>
       <r>  -27.8296    1.0000 </r>
       <r>  -27.8263    1.0000 </r>
       <r>  -27.8217    1.0000 </r>
       <r>  -27.8210    1.0000 </r>
       <r>  -27.8083    1.0000 </r>
       <r>  -27.8038    1.0000 </r>
       <r>  -27.8011    1.0000 </r>
       <r>  -27.7872    1.0000 </r>
       <r>  -27.7822    1.0000 </r>
       <r>  -16.8672    1.0000 </r>
       <r>  -15.3849    1.0000 </r>
       <r>  -15.0589    1.0000 </r>
       <r>  -14.8379    1.0000 </r>
       <r>  -11.7255    1.0000 </r>
       <r>   -9.2650    1.0000 </r>
       <r>   -7.4473    1.0000 </r>
       <r>   -5.9382    1.0000 </r>
       <r>   -5.6954    1.0000 </r>
       <r>   -5.5824    1.0000 </r>
       <r>   -5.3398    1.0000 </r>
       <r>   -5.0188    1.0000 </r>
       <r>   -4.6516    1.0000 </r>
       <r>   -4.1194    1.0000 </r>
       <r>   -3.0505    1.0000 </r>
       <r>   -2.8543    1.0000 </r>
       <r>   -1.7620    0.0000 </r>
       <r>   -1.3662    0.0000 </r>
       <r>   -0.7286    0.0000 </r>
       <r>    0.1894    0.0000 </r>
       <r>    0.7312    0.0000 </r>
       <r>    1.9196    0.0000 </r>
      </set>
      <set comment="kpoint 11">
       <r>  -27.8330    1.0000 </r>
       <r>  -27.8294    1.0000 </r>
       <r>  -27.8262    1.0000 </r>
       <r>  -27.8220    1.0000 </r>
       <r>  -27.8207    1.0000 </r>
       <r>  -27.8081    1.0000 </r>
       <r>  -27.8040    1.0000 </r>
       <r>  -27.8018    1.0000 </r>
       <r>  -27.7871    1.0000 </r>
       <r>  -27.7823    1.0000 </r>
       <r>  -16.8189    1.0000 </r>
       <r>  -15.3681    1.0000 </r>
       <r>  -15.0834    1.0000 </r>
       <r>  -14.9209    1.0000 </r>
       <r>  -11.6154    1.0000 </r>
       <r>   -9.3202    1.0000 </r>
       <r>   -7.4339    1.0000 </r>
       <r>   -5.9659    1.0000 </r>
       <r>   -5.9350    1.0000 </r>
       <r>   -5.6841    1.0000 </r>
       <r>   -5.3879    1.0000 </r>
       <r>   -4.8497    1.0000 </r>
       <r>   -4.6710    1.0000 </r>
       <r>   -4.0799    1.0000 </r>
       <r>   -3.2293    1.0000 </r>
       <r>   -2.8703    1.0000 </r>
       <r>   -1.6141    0.0000 </r>
       <r>   -1.3403    0.0000 </r>
       <r>   -0.3885    0.0000 </r>
       <r>    0.3148    0.0000 </r>
       <r>    0.8583    0.0000 </r>
       <r>    1.7943    0.0000 </r>
      </set>
      <set comment="kpoint 12">
       <r>  -27.8325    1.0000 </r>
       <r>  -27.8290    1.0000 </r>
       <r>  -27.8262    1.0000 </r>
       <r>  -27.8225    1.0000 </r>
       <r>  -27.8200    1.0000 </r>
       <r>  -27.8078    1.0000 </r>
       <r>  -27.8043    1.0000 </r>
       <r>  -27.8028    1.0000 </r>
       <r>  -27.7868    1.0000 </r>
       <r>  -27.7826    1.0000 </r>
       <r>  -16.7394    1.0000 </r>
       <r>  -15.3414    1.0000 </r>
       <r>  -15.1666    1.0000 </r>
       <r>  -15.0015    1.0000 </r>
       <r>  -11.4468    1.0000 </r>
       <r>   -9.4161    1.0000 </r>
       <r>   -7.4095    1.0000 </r>
       <r>   -6.1911    1.0000 </r>
       <r>   -6.0323    1.0000 </r>
       <r>   -5.7193    1.0000 </r>
       <r>   -5.5285    1.0000 </r>
       <r>   -4.7212    1.0000 </r>
       <r>   -4.6857    1.0000 </r>
       <r>   -4.0152    1.0000 </r>
       <r>   -3.4282    1.0000 </r>
       <r>   -2.9502    1.0000 </r>
       <r>   -1.3584    0.0000 </r>
       <r>   -1.2737    0.0000 </r>
       <r>    0.0785    0.0000 </r>
       <r>    0.4964    0.0000 </r>
       <r>    1.0377    0.0000 </r>
       <r>    1.6361    0.0000 </r>
      </set>
      <set comment="kpoint 13">
       <r>  -27.8318    1.0000 </r>
       <r>  -27.8286    1.0000 </r>
       <r>  -27.8264    1.0000 </r>
       <r>  -27.8232    1.0000 </r>
       <r>  -27.8189    1.0000 </r>
       <r>  -27.8074    1.0000 </r>
       <r>  -27.8053    1.0000 </r>
       <r>  -27.8037    1.0000 </r>
       <r>  -27.7864    1.0000 </r>
       <r>  -27.7829    1.0000 </r>
       <r>  -16.6301    1.0000 </r>
       <r>  -15.3297    1.0000 </r>
       <r>  -15.3068    1.0000 </r>
       <r>  -15.0421    1.0000 </r>
       <r>  -11.2348    1.0000 </r>
       <r>   -9.5558    1.0000 </r>
       <r>   -7.3707    1.0000 </r>
       <r>   -6.4312    1.0000 </r>
       <r>   -6.1111    1.0000 </r>
       <r>   -5.7115    1.0000 </r>
       <r>   -5.6896    1.0000 </r>
       <r>   -4.8131    1.0000 </r>
       <r>   -4.5497    1.0000 </r>
       <r>   -3.9288    1.0000 </r>
       <r>   -3.6259    1.0000 </r>
       <r>   -3.0678    1.0000 </r>
       <r>   -1.1533    0.0000 </r>
       <r>   -1.0476    0.0000 </r>
       <r>    0.6128    0.0000 </r>
       <r>    0.7040    0.0000 </r>
       <r>    1.2210    0.0000 </r>
       <r>    1.4950    0.0000 </r>
      </set>
      <set comment="kpoint 14">
       <r>  -27.8310    1.0000 </r>
       <r>  -27.8280    1.0000 </r>
       <r>  -27.8268    1.0000 </r>
       <r>  -27.8240    1.0000 </r>
       <r>  -27.8174    1.0000 </r>
       <r>  -27.8070    1.0000 </r>
       <r>  -27.8069    1.0000 </r>
       <r>  -27.8043    1.0000 </r>
       <r>  -27.7859    1.0000 </r>
       <r>  -27.7833    1.0000 </r>
       <r>  -16.4931    1.0000 </r>
       <r>  -15.5290    1.0000 </r>
       <r>  -15.2666    1.0000 </r>
       <r>  -15.0721    1.0000 </r>
       <r>  -10.9932    1.0000 </r>
       <r>   -9.7386    1.0000 </r>
       <r>   -7.3130    1.0000 </r>
       <r>   -6.6442    1.0000 </r>
       <r>   -6.1698    1.0000 </r>
       <r>   -5.8905    1.0000 </r>
       <r>   -5.6189    1.0000 </r>
       <r>   -4.9418    1.0000 </r>
       <r>   -4.4400    1.0000 </r>
       <r>   -3.8261    1.0000 </r>
       <r>   -3.8094    1.0000 </r>
       <r>   -3.2008    1.0000 </r>
       <r>   -0.9843    0.0000 </r>
       <r>   -0.7584    0.0000 </r>
       <r>    0.9057    0.0000 </r>
       <r>    1.1489    0.0000 </r>
       <r>    1.3561    0.0000 </r>
       <r>    1.4203    0.0000 </r>
      </set>
      <set comment="kpoint 15">
       <r>  -27.8301    1.0000 </r>
       <r>  -27.8275    1.0000 </r>
       <r>  -27.8273    1.0000 </r>
       <r>  -27.8248    1.0000 </r>
       <r>  -27.8155    1.0000 </r>
       <r>  -27.8090    1.0000 </r>
       <r>  -27.8064    1.0000 </r>
       <r>  -27.8048    1.0000 </r>
       <r>  -27.7854    1.0000 </r>
       <r>  -27.7838    1.0000 </r>
       <r>  -16.3312    1.0000 </r>
       <r>  -15.7396    1.0000 </r>
       <r>  -15.2237    1.0000 </r>
       <r>  -15.1040    1.0000 </r>
       <r>  -10.7340    1.0000 </r>
       <r>   -9.9584    1.0000 </r>
       <r>   -7.2319    1.0000 </r>
       <r>   -6.8296    1.0000 </r>
       <r>   -6.1963    1.0000 </r>
       <r>   -6.0357    1.0000 </r>
       <r>   -5.5178    1.0000 </r>
       <r>   -5.0921    1.0000 </r>
       <r>   -4.3416    1.0000 </r>
       <r>   -3.9735    1.0000 </r>
       <r>   -3.7128    1.0000 </r>
       <r>   -3.3358    1.0000 </r>
       <r>   -0.7928    0.0000 </r>
       <r>   -0.5695    0.0000 </r>
       <r>    1.0735    0.0000 </r>
       <r>    1.3070    0.0000 </r>
       <r>    1.4195    0.0000 </r>
       <r>    1.4903    0.0000 </r>
      </set>
      <set comment="kpoint 16">
       <r>  -27.8292    1.0000 </r>
       <r>  -27.8283    1.0000 </r>
       <r>  -27.8265    1.0000 </r>
       <r>  -27.8257    1.0000 </r>
       <r>  -27.8134    1.0000 </r>
       <r>  -27.8112    1.0000 </r>
       <r>  -27.8059    1.0000 </r>
       <r>  -27.8053    1.0000 </r>
       <r>  -27.7849    1.0000 </r>
       <r>  -27.7843    1.0000 </r>
       <r>  -16.1482    1.0000 </r>
       <r>  -15.9489    1.0000 </r>
       <r>  -15.1808    1.0000 </r>
       <r>  -15.1403    1.0000 </r>
       <r>  -10.4678    1.0000 </r>
       <r>  -10.2054    1.0000 </r>
       <r>   -7.1244    1.0000 </r>
       <r>   -6.9898    1.0000 </r>
       <r>   -6.1860    1.0000 </r>
       <r>   -6.1342    1.0000 </r>
       <r>   -5.3917    1.0000 </r>
       <r>   -5.2467    1.0000 </r>
       <r>   -4.2375    1.0000 </r>
       <r>   -4.1163    1.0000 </r>
       <r>   -3.5925    1.0000 </r>
       <r>   -3.4668    1.0000 </r>
       <r>   -0.6219    0.0000 </r>
       <r>   -0.5289    0.0000 </r>
       <r>    1.1975    0.0000 </r>
       <r>    1.2822    0.0000 </r>
       <r>    1.4239    0.0000 </r>
       <r>    1.4265    0.0000 </r>
      </set>
      <set comment="kpoint 17">
       <r>  -27.8331    1.0000 </r>
       <r>  -27.8293    1.0000 </r>
       <r>  -27.8264    1.0000 </r>
       <r>  -27.8214    1.0000 </r>
       <r>  -27.8209    1.0000 </r>
       <r>  -27.8081    1.0000 </r>
       <r>  -27.8039    1.0000 </r>
       <r>  -27.8019    1.0000 </r>
       <r>  -27.7871    1.0000 </r>
       <r>  -27.7823    1.0000 </r>
       <r>  -16.8283    1.0000 </r>
       <r>  -15.3657    1.0000 </r>
       <r>  -15.1883    1.0000 </r>
       <r>  -14.8321    1.0000 </r>
       <r>  -11.5909    1.0000 </r>
       <r>   -9.3078    1.0000 </r>
       <r>   -7.4110    1.0000 </r>
       <r>   -5.9930    1.0000 </r>
       <r>   -5.7110    1.0000 </r>
       <r>   -5.5728    1.0000 </r>
       <r>   -5.4819    1.0000 </r>
       <r>   -5.0161    1.0000 </r>
       <r>   -4.6569    1.0000 </r>
       <r>   -4.0502    1.0000 </r>
       <r>   -3.0859    1.0000 </r>
       <r>   -2.9898    1.0000 </r>
       <r>   -1.5141    0.0000 </r>
       <r>   -1.3011    0.0000 </r>
       <r>   -0.5056    0.0000 </r>
       <r>    0.1969    0.0000 </r>
       <r>    0.7761    0.0000 </r>
       <r>    1.8556    0.0000 </r>
      </set>
      <set comment="kpoint 18">
       <r>  -27.8330    1.0000 </r>
       <r>  -27.8292    1.0000 </r>
       <r>  -27.8265    1.0000 </r>
       <r>  -27.8213    1.0000 </r>
       <r>  -27.8210    1.0000 </r>
       <r>  -27.8080    1.0000 </r>
       <r>  -27.8040    1.0000 </r>
       <r>  -27.8020    1.0000 </r>
       <r>  -27.7870    1.0000 </r>
       <r>  -27.7824    1.0000 </r>
       <r>  -16.8127    1.0000 </r>
       <r>  -15.3605    1.0000 </r>
       <r>  -15.1962    1.0000 </r>
       <r>  -14.8548    1.0000 </r>
       <r>  -11.5627    1.0000 </r>
       <r>   -9.3299    1.0000 </r>
       <r>   -7.3985    1.0000 </r>
       <r>   -6.0159    1.0000 </r>
       <r>   -5.9144    1.0000 </r>
       <r>   -5.5292    1.0000 </r>
       <r>   -5.4193    1.0000 </r>
       <r>   -4.9366    1.0000 </r>
       <r>   -4.6720    1.0000 </r>
       <r>   -4.0384    1.0000 </r>
       <r>   -3.2284    1.0000 </r>
       <r>   -2.8903    1.0000 </r>
       <r>   -1.5662    0.0000 </r>
       <r>   -1.2932    0.0000 </r>
       <r>   -0.3432    0.0000 </r>
       <r>    0.2365    0.0000 </r>
       <r>    0.8193    0.0000 </r>
       <r>    1.7360    0.0000 </r>
      </set>
      <set comment="kpoint 19">
       <r>  -27.8328    1.0000 </r>
       <r>  -27.8289    1.0000 </r>
       <r>  -27.8266    1.0000 </r>
       <r>  -27.8213    1.0000 </r>
       <r>  -27.8209    1.0000 </r>
       <r>  -27.8078    1.0000 </r>
       <r>  -27.8044    1.0000 </r>
       <r>  -27.8024    1.0000 </r>
       <r>  -27.7868    1.0000 </r>
       <r>  -27.7825    1.0000 </r>
       <r>  -16.7661    1.0000 </r>
       <r>  -15.3454    1.0000 </r>
       <r>  -15.2251    1.0000 </r>
       <r>  -14.9142    1.0000 </r>
       <r>  -11.4810    1.0000 </r>
       <r>   -9.3969    1.0000 </r>
       <r>   -7.3617    1.0000 </r>
       <r>   -6.1751    1.0000 </r>
       <r>   -6.0854    1.0000 </r>
       <r>   -5.5904    1.0000 </r>
       <r>   -5.3134    1.0000 </r>
       <r>   -4.7810    1.0000 </r>
       <r>   -4.7164    1.0000 </r>
       <r>   -4.0000    1.0000 </r>
       <r>   -3.4253    1.0000 </r>
       <r>   -2.8177    1.0000 </r>
       <r>   -1.6095    0.0000 </r>
       <r>   -1.2625    0.0000 </r>
       <r>    0.0304    0.0000 </r>
       <r>    0.3450    0.0000 </r>
       <r>    0.9425    0.0000 </r>
       <r>    1.5772    0.0000 </r>
      </set>
      <set comment="kpoint 20">
       <r>  -27.8325    1.0000 </r>
       <r>  -27.8284    1.0000 </r>
       <r>  -27.8269    1.0000 </r>
       <r>  -27.8216    1.0000 </r>
       <r>  -27.8202    1.0000 </r>
       <r>  -27.8075    1.0000 </r>
       <r>  -27.8052    1.0000 </r>
       <r>  -27.8029    1.0000 </r>
       <r>  -27.7866    1.0000 </r>
       <r>  -27.7827    1.0000 </r>
       <r>  -16.6896    1.0000 </r>
       <r>  -15.3217    1.0000 </r>
       <r>  -15.2913    1.0000 </r>
       <r>  -14.9853    1.0000 </r>
       <r>  -11.3531    1.0000 </r>
       <r>   -9.5096    1.0000 </r>
       <r>   -7.3026    1.0000 </r>
       <r>   -6.4095    1.0000 </r>
       <r>   -6.1822    1.0000 </r>
       <r>   -5.6078    1.0000 </r>
       <r>   -5.3320    1.0000 </r>
       <r>   -4.7945    1.0000 </r>
       <r>   -4.6318    1.0000 </r>
       <r>   -3.9301    1.0000 </r>
       <r>   -3.6150    1.0000 </r>
       <r>   -2.8178    1.0000 </r>
       <r>   -1.5318    0.0000 </r>
       <r>   -1.1952    0.0000 </r>
       <r>    0.4798    0.0000 </r>
       <r>    0.4980    0.0000 </r>
       <r>    1.1233    0.0000 </r>
       <r>    1.4392    0.0000 </r>
      </set>
      <set comment="kpoint 21">
       <r>  -27.8321    1.0000 </r>
       <r>  -27.8277    1.0000 </r>
       <r>  -27.8273    1.0000 </r>
       <r>  -27.8222    1.0000 </r>
       <r>  -27.8191    1.0000 </r>
       <r>  -27.8071    1.0000 </r>
       <r>  -27.8065    1.0000 </r>
       <r>  -27.8034    1.0000 </r>
       <r>  -27.7862    1.0000 </r>
       <r>  -27.7830    1.0000 </r>
       <r>  -16.5846    1.0000 </r>
       <r>  -15.4098    1.0000 </r>
       <r>  -15.2910    1.0000 </r>
       <r>  -15.0415    1.0000 </r>
       <r>  -11.1879    1.0000 </r>
       <r>   -9.6660    1.0000 </r>
       <r>   -7.2265    1.0000 </r>
       <r>   -6.5995    1.0000 </r>
       <r>   -6.2668    1.0000 </r>
       <r>   -5.5893    1.0000 </r>
       <r>   -5.4528    1.0000 </r>
       <r>   -4.9128    1.0000 </r>
       <r>   -4.5147    1.0000 </r>
       <r>   -3.8286    1.0000 </r>
       <r>   -3.7803    1.0000 </r>
       <r>   -2.8831    1.0000 </r>
       <r>   -1.3336    0.0000 </r>
       <r>   -1.0852    0.0000 </r>
       <r>    0.6683    0.0000 </r>
       <r>    0.9018    0.0000 </r>
       <r>    1.3183    0.0000 </r>
       <r>    1.3834    0.0000 </r>
      </set>
      <set comment="kpoint 22">
       <r>  -27.8316    1.0000 </r>
       <r>  -27.8279    1.0000 </r>
       <r>  -27.8269    1.0000 </r>
       <r>  -27.8228    1.0000 </r>
       <r>  -27.8176    1.0000 </r>
       <r>  -27.8081    1.0000 </r>
       <r>  -27.8066    1.0000 </r>
       <r>  -27.8039    1.0000 </r>
       <r>  -27.7858    1.0000 </r>
       <r>  -27.7834    1.0000 </r>
       <r>  -16.4537    1.0000 </r>
       <r>  -15.5710    1.0000 </r>
       <r>  -15.2558    1.0000 </r>
       <r>  -15.0810    1.0000 </r>
       <r>  -10.9938    1.0000 </r>
       <r>   -9.8594    1.0000 </r>
       <r>   -7.1423    1.0000 </r>
       <r>   -6.7424    1.0000 </r>
       <r>   -6.3061    1.0000 </r>
       <r>   -5.6321    1.0000 </r>
       <r>   -5.5492    1.0000 </r>
       <r>   -5.0576    1.0000 </r>
       <r>   -4.4237    1.0000 </r>
       <r>   -3.9206    1.0000 </r>
       <r>   -3.7042    1.0000 </r>
       <r>   -2.9932    1.0000 </r>
       <r>   -1.0804    0.0000 </r>
       <r>   -0.9450    0.0000 </r>
       <r>    0.8342    0.0000 </r>
       <r>    1.0971    0.0000 </r>
       <r>    1.4691    0.0000 </r>
       <r>    1.5854    0.0000 </r>
      </set>
      <set comment="kpoint 23">
       <r>  -27.8309    1.0000 </r>
       <r>  -27.8287    1.0000 </r>
       <r>  -27.8261    1.0000 </r>
       <r>  -27.8235    1.0000 </r>
       <r>  -27.8159    1.0000 </r>
       <r>  -27.8100    1.0000 </r>
       <r>  -27.8060    1.0000 </r>
       <r>  -27.8044    1.0000 </r>
       <r>  -27.7853    1.0000 </r>
       <r>  -27.7838    1.0000 </r>
       <r>  -16.3001    1.0000 </r>
       <r>  -15.7543    1.0000 </r>
       <r>  -15.2186    1.0000 </r>
       <r>  -15.1139    1.0000 </r>
       <r>  -10.7783    1.0000 </r>
       <r>  -10.0789    1.0000 </r>
       <r>   -7.0618    1.0000 </r>
       <r>   -6.8462    1.0000 </r>
       <r>   -6.2796    1.0000 </r>
       <r>   -5.8327    1.0000 </r>
       <r>   -5.4934    1.0000 </r>
       <r>   -5.2013    1.0000 </r>
       <r>   -4.3412    1.0000 </r>
       <r>   -4.0436    1.0000 </r>
       <r>   -3.5667    1.0000 </r>
       <r>   -3.1284    1.0000 </r>
       <r>   -0.8554    0.0000 </r>
       <r>   -0.8074    0.0000 </r>
       <r>    0.9837    0.0000 </r>
       <r>    1.1459    0.0000 </r>
       <r>    1.5321    0.0000 </r>
       <r>    1.6245    0.0000 </r>
      </set>
      <set comment="kpoint 24">
       <r>  -27.8302    1.0000 </r>
       <r>  -27.8294    1.0000 </r>
       <r>  -27.8252    1.0000 </r>
       <r>  -27.8244    1.0000 </r>
       <r>  -27.8140    1.0000 </r>
       <r>  -27.8120    1.0000 </r>
       <r>  -27.8055    1.0000 </r>
       <r>  -27.8049    1.0000 </r>
       <r>  -27.7848    1.0000 </r>
       <r>  -27.7843    1.0000 </r>
       <r>  -16.1281    1.0000 </r>
       <r>  -15.9436    1.0000 </r>
       <r>  -15.1817    1.0000 </r>
       <r>  -15.1467    1.0000 </r>
       <r>  -10.5487    1.0000 </r>
       <r>  -10.3124    1.0000 </r>
       <r>   -6.9912    1.0000 </r>
       <r>   -6.9241    1.0000 </r>
       <r>   -6.1816    1.0000 </r>
       <r>   -6.0248    1.0000 </r>
       <r>   -5.4202    1.0000 </r>
       <r>   -5.3241    1.0000 </r>
       <r>   -4.2533    1.0000 </r>
       <r>   -4.1543    1.0000 </r>
       <r>   -3.4222    1.0000 </r>
       <r>   -3.2743    1.0000 </r>
       <r>   -0.7271    0.0000 </r>
       <r>   -0.7191    0.0000 </r>
       <r>    1.1103    0.0000 </r>
       <r>    1.1749    0.0000 </r>
       <r>    1.5109    0.0000 </r>
       <r>    1.5145    0.0000 </r>
      </set>
      <set comment="kpoint 25">
       <r>  -27.8325    1.0000 </r>
       <r>  -27.8287    1.0000 </r>
       <r>  -27.8267    1.0000 </r>
       <r>  -27.8221    1.0000 </r>
       <r>  -27.8197    1.0000 </r>
       <r>  -27.8078    1.0000 </r>
       <r>  -27.8042    1.0000 </r>
       <r>  -27.8034    1.0000 </r>
       <r>  -27.7867    1.0000 </r>
       <r>  -27.7827    1.0000 </r>
       <r>  -16.7376    1.0000 </r>
       <r>  -15.3816    1.0000 </r>
       <r>  -15.3254    1.0000 </r>
       <r>  -14.8741    1.0000 </r>
       <r>  -11.3363    1.0000 </r>
       <r>   -9.4162    1.0000 </r>
       <r>   -7.3396    1.0000 </r>
       <r>   -6.0703    1.0000 </r>
       <r>   -5.8911    1.0000 </r>
       <r>   -5.8453    1.0000 </r>
       <r>   -5.4306    1.0000 </r>
       <r>   -4.8797    1.0000 </r>
       <r>   -4.7008    1.0000 </r>
       <r>   -3.9294    1.0000 </r>
       <r>   -3.3085    1.0000 </r>
       <r>   -3.0812    1.0000 </r>
       <r>   -1.1778    0.0000 </r>
       <r>   -1.1425    0.0000 </r>
       <r>    0.0159    0.0000 </r>
       <r>    0.2800    0.0000 </r>
       <r>    0.9007    0.0000 </r>
       <r>    1.5980    0.0000 </r>
      </set>
      <set comment="kpoint 26">
       <r>  -27.8325    1.0000 </r>
       <r>  -27.8285    1.0000 </r>
       <r>  -27.8268    1.0000 </r>
       <r>  -27.8219    1.0000 </r>
       <r>  -27.8198    1.0000 </r>
       <r>  -27.8077    1.0000 </r>
       <r>  -27.8046    1.0000 </r>
       <r>  -27.8033    1.0000 </r>
       <r>  -27.7867    1.0000 </r>
       <r>  -27.7827    1.0000 </r>
       <r>  -16.7229    1.0000 </r>
       <r>  -15.3874    1.0000 </r>
       <r>  -15.3213    1.0000 </r>
       <r>  -14.8899    1.0000 </r>
       <r>  -11.3220    1.0000 </r>
       <r>   -9.4442    1.0000 </r>
       <r>   -7.3160    1.0000 </r>
       <r>   -6.1444    1.0000 </r>
       <r>   -6.1003    1.0000 </r>
       <r>   -5.5943    1.0000 </r>
       <r>   -5.4668    1.0000 </r>
       <r>   -4.8123    1.0000 </r>
       <r>   -4.7247    1.0000 </r>
       <r>   -3.9162    1.0000 </r>
       <r>   -3.4326    1.0000 </r>
       <r>   -2.9751    1.0000 </r>
       <r>   -1.2545    0.0000 </r>
       <r>   -1.1681    0.0000 </r>
       <r>    0.1804    0.0000 </r>
       <r>    0.3101    0.0000 </r>
       <r>    0.9421    0.0000 </r>
       <r>    1.5029    0.0000 </r>
      </set>
      <set comment="kpoint 27">
       <r>  -27.8325    1.0000 </r>
       <r>  -27.8281    1.0000 </r>
       <r>  -27.8272    1.0000 </r>
       <r>  -27.8215    1.0000 </r>
       <r>  -27.8199    1.0000 </r>
       <r>  -27.8074    1.0000 </r>
       <r>  -27.8054    1.0000 </r>
       <r>  -27.8032    1.0000 </r>
       <r>  -27.7865    1.0000 </r>
       <r>  -27.7828    1.0000 </r>
       <r>  -16.6793    1.0000 </r>
       <r>  -15.4079    1.0000 </r>
       <r>  -15.3091    1.0000 </r>
       <r>  -14.9331    1.0000 </r>
       <r>  -11.2792    1.0000 </r>
       <r>   -9.5270    1.0000 </r>
       <r>   -7.2467    1.0000 </r>
       <r>   -6.3882    1.0000 </r>
       <r>   -6.1865    1.0000 </r>
       <r>   -5.5167    1.0000 </r>
       <r>   -5.3709    1.0000 </r>
       <r>   -4.7952    1.0000 </r>
       <r>   -4.6783    1.0000 </r>
       <r>   -3.8712    1.0000 </r>
       <r>   -3.6173    1.0000 </r>
       <r>   -2.8431    1.0000 </r>
       <r>   -1.4462    0.0000 </r>
       <r>   -1.1358    0.0000 </r>
       <r>    0.3916    0.0000 </r>
       <r>    0.5274    0.0000 </r>
       <r>    1.0627    0.0000 </r>
       <r>    1.3776    0.0000 </r>
      </set>
      <set comment="kpoint 28">
       <r>  -27.8325    1.0000 </r>
       <r>  -27.8277    1.0000 </r>
       <r>  -27.8274    1.0000 </r>
       <r>  -27.8211    1.0000 </r>
       <r>  -27.8198    1.0000 </r>
       <r>  -27.8071    1.0000 </r>
       <r>  -27.8066    1.0000 </r>
       <r>  -27.8032    1.0000 </r>
       <r>  -27.7862    1.0000 </r>
       <r>  -27.7830    1.0000 </r>
       <r>  -16.6077    1.0000 </r>
       <r>  -15.4510    1.0000 </r>
       <r>  -15.2902    1.0000 </r>
       <r>  -14.9914    1.0000 </r>
       <r>  -11.2079    1.0000 </r>
       <r>   -9.6599    1.0000 </r>
       <r>   -7.1373    1.0000 </r>
       <r>   -6.5824    1.0000 </r>
       <r>   -6.3052    1.0000 </r>
       <r>   -5.5324    1.0000 </r>
       <r>   -5.2461    1.0000 </r>
       <r>   -4.9085    1.0000 </r>
       <r>   -4.5577    1.0000 </r>
       <r>   -3.7839    1.0000 </r>
       <r>   -3.7808    1.0000 </r>
       <r>   -2.7641    1.0000 </r>
       <r>   -1.5597    0.0000 </r>
       <r>   -1.0760    0.0000 </r>
       <r>    0.5053    0.0000 </r>
       <r>    0.8594    0.0000 </r>
       <r>    1.2450    0.0000 </r>
       <r>    1.3341    0.0000 </r>
      </set>
      <set comment="kpoint 29">
       <r>  -27.8323    1.0000 </r>
       <r>  -27.8283    1.0000 </r>
       <r>  -27.8266    1.0000 </r>
       <r>  -27.8212    1.0000 </r>
       <r>  -27.8190    1.0000 </r>
       <r>  -27.8079    1.0000 </r>
       <r>  -27.8066    1.0000 </r>
       <r>  -27.8033    1.0000 </r>
       <r>  -27.7859    1.0000 </r>
       <r>  -27.7832    1.0000 </r>
       <r>  -16.5102    1.0000 </r>
       <r>  -15.5273    1.0000 </r>
       <r>  -15.2661    1.0000 </r>
       <r>  -15.0485    1.0000 </r>
       <r>  -11.1084    1.0000 </r>
       <r>   -9.8333    1.0000 </r>
       <r>   -7.0021    1.0000 </r>
       <r>   -6.7213    1.0000 </r>
       <r>   -6.4130    1.0000 </r>
       <r>   -5.5192    1.0000 </r>
       <r>   -5.2465    1.0000 </r>
       <r>   -5.0542    1.0000 </r>
       <r>   -4.4750    1.0000 </r>
       <r>   -3.9121    1.0000 </r>
       <r>   -3.6559    1.0000 </r>
       <r>   -2.7515    1.0000 </r>
       <r>   -1.5376    0.0000 </r>
       <r>   -0.9934    0.0000 </r>
       <r>    0.6356    0.0000 </r>
       <r>    0.9791    0.0000 </r>
       <r>    1.4471    0.0000 </r>
       <r>    1.5232    0.0000 </r>
      </set>
      <set comment="kpoint 30">
       <r>  -27.8321    1.0000 </r>
       <r>  -27.8290    1.0000 </r>
       <r>  -27.8258    1.0000 </r>
       <r>  -27.8217    1.0000 </r>
       <r>  -27.8178    1.0000 </r>
       <r>  -27.8095    1.0000 </r>
       <r>  -27.8061    1.0000 </r>
       <r>  -27.8036    1.0000 </r>
       <r>  -27.7855    1.0000 </r>
       <r>  -27.7835    1.0000 </r>
       <r>  -16.3898    1.0000 </r>
       <r>  -15.6401    1.0000 </r>
       <r>  -15.2390    1.0000 </r>
       <r>  -15.0938    1.0000 </r>
       <r>  -10.9814    1.0000 </r>
       <r>  -10.0332    1.0000 </r>
       <r>   -6.8828    1.0000 </r>
       <r>   -6.8094    1.0000 </r>
       <r>   -6.4496    1.0000 </r>
       <r>   -5.4918    1.0000 </r>
       <r>   -5.3760    1.0000 </r>
       <r>   -5.1933    1.0000 </r>
       <r>   -4.4163    1.0000 </r>
       <r>   -4.0211    1.0000 </r>
       <r>   -3.5036    1.0000 </r>
       <r>   -2.8021    1.0000 </r>
       <r>   -1.3947    0.0000 </r>
       <r>   -0.9103    0.0000 </r>
       <r>    0.7747    0.0000 </r>
       <r>    0.9897    0.0000 </r>
       <r>    1.6039    0.0000 </r>
       <r>    1.8079    0.0000 </r>
      </set>
      <set comment="kpoint 31">
       <r>  -27.8316    1.0000 </r>
       <r>  -27.8298    1.0000 </r>
       <r>  -27.8249    1.0000 </r>
       <r>  -27.8224    1.0000 </r>
       <r>  -27.8163    1.0000 </r>
       <r>  -27.8112    1.0000 </r>
       <r>  -27.8055    1.0000 </r>
       <r>  -27.8040    1.0000 </r>
       <r>  -27.7851    1.0000 </r>
       <r>  -27.7839    1.0000 </r>
       <r>  -16.2503    1.0000 </r>
       <r>  -15.7814    1.0000 </r>
       <r>  -15.2109    1.0000 </r>
       <r>  -15.1278    1.0000 </r>
       <r>  -10.8280    1.0000 </r>
       <r>  -10.2445    1.0000 </r>
       <r>   -6.8554    1.0000 </r>
       <r>   -6.8447    1.0000 </r>
       <r>   -6.3435    1.0000 </r>
       <r>   -5.6055    1.0000 </r>
       <r>   -5.4582    1.0000 </r>
       <r>   -5.2927    1.0000 </r>
       <r>   -4.3598    1.0000 </r>
       <r>   -4.1198    1.0000 </r>
       <r>   -3.3432    1.0000 </r>
       <r>   -2.9017    1.0000 </r>
       <r>   -1.1935    0.0000 </r>
       <r>   -0.8638    0.0000 </r>
       <r>    0.9172    0.0000 </r>
       <r>    1.0242    0.0000 </r>
       <r>    1.6520    0.0000 </r>
       <r>    1.7184    0.0000 </r>
      </set>
      <set comment="kpoint 32">
       <r>  -27.8311    1.0000 </r>
       <r>  -27.8305    1.0000 </r>
       <r>  -27.8240    1.0000 </r>
       <r>  -27.8231    1.0000 </r>
       <r>  -27.8147    1.0000 </r>
       <r>  -27.8130    1.0000 </r>
       <r>  -27.8050    1.0000 </r>
       <r>  -27.8044    1.0000 </r>
       <r>  -27.7847    1.0000 </r>
       <r>  -27.7843    1.0000 </r>
       <r>  -16.0973    1.0000 </r>
       <r>  -15.9378    1.0000 </r>
       <r>  -15.1832    1.0000 </r>
       <r>  -15.1561    1.0000 </r>
       <r>  -10.6507    1.0000 </r>
       <r>  -10.4538    1.0000 </r>
       <r>   -6.8687    1.0000 </r>
       <r>   -6.8586    1.0000 </r>
       <r>   -6.1280    1.0000 </r>
       <r>   -5.8695    1.0000 </r>
       <r>   -5.4183    1.0000 </r>
       <r>   -5.3656    1.0000 </r>
       <r>   -4.2924    1.0000 </r>
       <r>   -4.2112    1.0000 </r>
       <r>   -3.1840    1.0000 </r>
       <r>   -3.0336    1.0000 </r>
       <r>   -1.0074    0.0000 </r>
       <r>   -0.8909    0.0000 </r>
       <r>    1.0394    0.0000 </r>
       <r>    1.0726    0.0000 </r>
       <r>    1.5980    0.0000 </r>
       <r>    1.5996    0.0000 </r>
      </set>
      <set comment="kpoint 33">
       <r>  -27.8318    1.0000 </r>
       <r>  -27.8279    1.0000 </r>
       <r>  -27.8273    1.0000 </r>
       <r>  -27.8229    1.0000 </r>
       <r>  -27.8179    1.0000 </r>
       <r>  -27.8073    1.0000 </r>
       <r>  -27.8054    1.0000 </r>
       <r>  -27.8046    1.0000 </r>
       <r>  -27.7863    1.0000 </r>
       <r>  -27.7832    1.0000 </r>
       <r>  -16.6127    1.0000 </r>
       <r>  -15.6049    1.0000 </r>
       <r>  -15.2721    1.0000 </r>
       <r>  -14.9294    1.0000 </r>
       <r>  -11.0318    1.0000 </r>
       <r>   -9.5791    1.0000 </r>
       <r>   -7.2335    1.0000 </r>
       <r>   -6.1472    1.0000 </r>
       <r>   -6.1376    1.0000 </r>
       <r>   -6.0557    1.0000 </r>
       <r>   -5.3546    1.0000 </r>
       <r>   -4.7807    1.0000 </r>
       <r>   -4.7122    1.0000 </r>
       <r>   -3.7884    1.0000 </r>
       <r>   -3.5579    1.0000 </r>
       <r>   -3.1788    1.0000 </r>
       <r>   -1.0020    0.0000 </r>
       <r>   -0.7749    0.0000 </r>
       <r>    0.3893    0.0000 </r>
       <r>    0.6549    0.0000 </r>
       <r>    1.0249    0.0000 </r>
       <r>    1.3383    0.0000 </r>
      </set>
      <set comment="kpoint 34">
       <r>  -27.8319    1.0000 </r>
       <r>  -27.8277    1.0000 </r>
       <r>  -27.8275    1.0000 </r>
       <r>  -27.8227    1.0000 </r>
       <r>  -27.8180    1.0000 </r>
       <r>  -27.8072    1.0000 </r>
       <r>  -27.8060    1.0000 </r>
       <r>  -27.8042    1.0000 </r>
       <r>  -27.7862    1.0000 </r>
       <r>  -27.7832    1.0000 </r>
       <r>  -16.5994    1.0000 </r>
       <r>  -15.6068    1.0000 </r>
       <r>  -15.2693    1.0000 </r>
       <r>  -14.9402    1.0000 </r>
       <r>  -11.0325    1.0000 </r>
       <r>   -9.6127    1.0000 </r>
       <r>   -7.1995    1.0000 </r>
       <r>   -6.3499    1.0000 </r>
       <r>   -6.1734    1.0000 </r>
       <r>   -5.8141    1.0000 </r>
       <r>   -5.3921    1.0000 </r>
       <r>   -4.8144    1.0000 </r>
       <r>   -4.6577    1.0000 </r>
       <r>   -3.7695    1.0000 </r>
       <r>   -3.6474    1.0000 </r>
       <r>   -3.0819    1.0000 </r>
       <r>   -0.9942    0.0000 </r>
       <r>   -0.9033    0.0000 </r>
       <r>    0.4072    0.0000 </r>
       <r>    0.7784    0.0000 </r>
       <r>    1.0658    0.0000 </r>
       <r>    1.2852    0.0000 </r>
      </set>
      <set comment="kpoint 35">
       <r>  -27.8321    1.0000 </r>
       <r>  -27.8280    1.0000 </r>
       <r>  -27.8271    1.0000 </r>
       <r>  -27.8221    1.0000 </r>
       <r>  -27.8181    1.0000 </r>
       <r>  -27.8070    1.0000 </r>
       <r>  -27.8069    1.0000 </r>
       <r>  -27.8038    1.0000 </r>
       <r>  -27.7860    1.0000 </r>
       <r>  -27.7833    1.0000 </r>
       <r>  -16.5600    1.0000 </r>
       <r>  -15.6145    1.0000 </r>
       <r>  -15.2613    1.0000 </r>
       <r>  -14.9709    1.0000 </r>
       <r>  -11.0318    1.0000 </r>
       <r>   -9.7093    1.0000 </r>
       <r>   -7.1005    1.0000 </r>
       <r>   -6.5495    1.0000 </r>
       <r>   -6.2519    1.0000 </r>
       <r>   -5.5395    1.0000 </r>
       <r>   -5.4529    1.0000 </r>
       <r>   -4.9102    1.0000 </r>
       <r>   -4.5532    1.0000 </r>
       <r>   -3.7935    1.0000 </r>
       <r>   -3.7061    1.0000 </r>
       <r>   -2.9199    1.0000 </r>
       <r>   -1.1681    0.0000 </r>
       <r>   -0.9720    0.0000 </r>
       <r>    0.4572    0.0000 </r>
       <r>    0.9700    0.0000 </r>
       <r>    1.1844    0.0000 </r>
       <r>    1.2864    0.0000 </r>
[...]
       <r>    1.2022    0.0000 </r>
       <r>    1.3408    0.0000 </r>
      </set>
      <set comment="kpoint 54">
       <r>  -27.8321    1.0000 </r>
       <r>  -27.8316    1.0000 </r>
       <r>  -27.8224    1.0000 </r>
       <r>  -27.8216    1.0000 </r>
       <r>  -27.8157    1.0000 </r>
       <r>  -27.8142    1.0000 </r>
       <r>  -27.8044    1.0000 </r>
       <r>  -27.8039    1.0000 </r>
       <r>  -27.7845    1.0000 </r>
       <r>  -27.7842    1.0000 </r>
       <r>  -16.0849    1.0000 </r>
       <r>  -15.9631    1.0000 </r>
       <r>  -15.1704    1.0000 </r>
       <r>  -15.1477    1.0000 </r>
       <r>  -10.7592    1.0000 </r>
       <r>  -10.6101    1.0000 </r>
       <r>   -6.8158    1.0000 </r>
       <r>   -6.7692    1.0000 </r>
       <r>   -5.8759    1.0000 </r>
       <r>   -5.6539    1.0000 </r>
       <r>   -5.3482    1.0000 </r>
       <r>   -5.2260    1.0000 </r>
       <r>   -4.3366    1.0000 </r>
       <r>   -4.2718    1.0000 </r>
       <r>   -2.8216    1.0000 </r>
       <r>   -2.7006    1.0000 </r>
       <r>   -1.4404    0.0000 </r>
       <r>   -1.2285    0.0000 </r>
       <r>    1.0314    0.0000 </r>
       <r>    1.1036    0.0000 </r>
       <r>    1.2814    0.0000 </r>
       <r>    1.3512    0.0000 </r>
      </set>
      <set comment="kpoint 55">
       <r>  -27.8323    1.0000 </r>
       <r>  -27.8320    1.0000 </r>
       <r>  -27.8216    1.0000 </r>
       <r>  -27.8210    1.0000 </r>
       <r>  -27.8161    1.0000 </r>
       <r>  -27.8151    1.0000 </r>
       <r>  -27.8041    1.0000 </r>
       <r>  -27.8038    1.0000 </r>
       <r>  -27.7844    1.0000 </r>
       <r>  -27.7842    1.0000 </r>
       <r>  -16.0295    1.0000 </r>
       <r>  -15.9510    1.0000 </r>
       <r>  -15.1807    1.0000 </r>
       <r>  -15.1696    1.0000 </r>
       <r>  -10.8128    1.0000 </r>
       <r>  -10.7211    1.0000 </r>
       <r>   -6.8329    1.0000 </r>
       <r>   -6.8015    1.0000 </r>
       <r>   -5.8111    1.0000 </r>
       <r>   -5.6975    1.0000 </r>
       <r>   -5.2266    1.0000 </r>
       <r>   -5.1054    1.0000 </r>
       <r>   -4.3650    1.0000 </r>
       <r>   -4.3210    1.0000 </r>
       <r>   -2.7012    1.0000 </r>
       <r>   -2.6320    1.0000 </r>
       <r>   -1.5828    0.0000 </r>
       <r>   -1.4241    0.0000 </r>
       <r>    1.1298    0.0000 </r>
       <r>    1.1353    0.0000 </r>
       <r>    1.3343    0.0000 </r>
       <r>    1.3459    0.0000 </r>
      </set>
      <set comment="kpoint 56">
       <r>  -27.8324    1.0000 </r>
       <r>  -27.8323    1.0000 </r>
       <r>  -27.8211    1.0000 </r>
       <r>  -27.8208    1.0000 </r>
       <r>  -27.8162    1.0000 </r>
       <r>  -27.8158    1.0000 </r>
       <r>  -27.8038    1.0000 </r>
       <r>  -27.8037    1.0000 </r>
       <r>  -27.7843    1.0000 </r>
       <r>  -27.7842    1.0000 </r>
       <r>  -15.9845    1.0000 </r>
       <r>  -15.9573    1.0000 </r>
       <r>  -15.1864    1.0000 </r>
       <r>  -15.1833    1.0000 </r>
       <r>  -10.8261    1.0000 </r>
       <r>  -10.7951    1.0000 </r>
       <r>   -6.8390    1.0000 </r>
       <r>   -6.8283    1.0000 </r>
       <r>   -5.7676    1.0000 </r>
       <r>   -5.7334    1.0000 </r>
       <r>   -5.1138    1.0000 </r>
       <r>   -5.0646    1.0000 </r>
       <r>   -4.3726    1.0000 </r>
       <r>   -4.3563    1.0000 </r>
       <r>   -2.6330    1.0000 </r>
       <r>   -2.6122    1.0000 </r>
       <r>   -1.6236    0.0000 </r>
       <r>   -1.5655    0.0000 </r>
       <r>    1.1659    0.0000 </r>
       <r>    1.1818    0.0000 </r>
       <r>    1.3450    0.0000 </r>
       <r>    1.3504    0.0000 </r>
      </set>
     </set>
    </set>
   </array>
  </eigenvalues>
  <separator name="orbital magnetization" >
   <v name="MAGDIPOLOUT">      0.00000000      0.00000000      0.00000000</v>
  </separator>
  <dos>
   <i name="efermi">     -2.51579760 </i>
   <total>
    <array>
     <dimension dim="1">gridpoints</dimension>
     <dimension dim="2">spin</dimension>
     <field>energy</field>
     <field>total</field>
     <field>integrated</field>
     <set>
      <set comment="spin 1">
       <r>   -29.3241     0.0000     0.0000 </r>
       <r>   -29.2148     0.0000     0.0000 </r>
       <r>   -29.1055     0.0000     0.0000 </r>
       <r>   -28.9962     0.0000     0.0000 </r>
       <r>   -28.8869     0.0000     0.0000 </r>
       <r>   -28.7776     0.0000     0.0000 </r>
       <r>   -28.6683     0.0000     0.0000 </r>
       <r>   -28.5590     0.0000     0.0000 </r>
       <r>   -28.4497     0.0000     0.0000 </r>
       <r>   -28.3403     0.0000     0.0000 </r>
       <r>   -28.2310     0.0000     0.0000 </r>
       <r>   -28.1217     0.0000     0.0000 </r>
       <r>   -28.0124     0.0000     0.0000 </r>
       <r>   -27.9031     0.0000     0.0000 </r>
       <r>   -27.7938   143.4506    15.6806 </r>
       <r>   -27.6845    39.5148    20.0000 </r>
       <r>   -27.5752     0.0000    20.0000 </r>
       <r>   -27.4659     0.0000    20.0000 </r>
       <r>   -27.3566     0.0000    20.0000 </r>
       <r>   -27.2472     0.0000    20.0000 </r>
       <r>   -27.1379     0.0000    20.0000 </r>
       <r>   -27.0286     0.0000    20.0000 </r>
       <r>   -26.9193     0.0000    20.0000 </r>
       <r>   -26.8100     0.0000    20.0000 </r>
       <r>   -26.7007     0.0000    20.0000 </r>
       <r>   -26.5914     0.0000    20.0000 </r>
       <r>   -26.4821     0.0000    20.0000 </r>
       <r>   -26.3728     0.0000    20.0000 </r>
       <r>   -26.2635     0.0000    20.0000 </r>
       <r>   -26.1541     0.0000    20.0000 </r>
       <r>   -26.0448     0.0000    20.0000 </r>
       <r>   -25.9355     0.0000    20.0000 </r>
       <r>   -25.8262     0.0000    20.0000 </r>
       <r>   -25.7169     0.0000    20.0000 </r>
       <r>   -25.6076     0.0000    20.0000 </r>
       <r>   -25.4983     0.0000    20.0000 </r>
       <r>   -25.3890     0.0000    20.0000 </r>
       <r>   -25.2797     0.0000    20.0000 </r>
       <r>   -25.1704     0.0000    20.0000 </r>
       <r>   -25.0610     0.0000    20.0000 </r>
       <r>   -24.9517     0.0000    20.0000 </r>
       <r>   -24.8424     0.0000    20.0000 </r>
       <r>   -24.7331     0.0000    20.0000 </r>
       <r>   -24.6238     0.0000    20.0000 </r>
       <r>   -24.5145     0.0000    20.0000 </r>
       <r>   -24.4052     0.0000    20.0000 </r>
       <r>   -24.2959     0.0000    20.0000 </r>
       <r>   -24.1866     0.0000    20.0000 </r>
       <r>   -24.0772     0.0000    20.0000 </r>
       <r>   -23.9679     0.0000    20.0000 </r>
       <r>   -23.8586     0.0000    20.0000 </r>
       <r>   -23.7493     0.0000    20.0000 </r>
       <r>   -23.6400     0.0000    20.0000 </r>
       <r>   -23.5307     0.0000    20.0000 </r>
       <r>   -23.4214     0.0000    20.0000 </r>
       <r>   -23.3121     0.0000    20.0000 </r>
       <r>   -23.2028     0.0000    20.0000 </r>
       <r>   -23.0935     0.0000    20.0000 </r>
       <r>   -22.9841     0.0000    20.0000 </r>
       <r>   -22.8748     0.0000    20.0000 </r>
       <r>   -22.7655     0.0000    20.0000 </r>
       <r>   -22.6562     0.0000    20.0000 </r>
       <r>   -22.5469     0.0000    20.0000 </r>
       <r>   -22.4376     0.0000    20.0000 </r>
       <r>   -22.3283     0.0000    20.0000 </r>
       <r>   -22.2190     0.0000    20.0000 </r>
       <r>   -22.1097     0.0000    20.0000 </r>
       <r>   -22.0004     0.0000    20.0000 </r>
       <r>   -21.8910     0.0000    20.0000 </r>
       <r>   -21.7817     0.0000    20.0000 </r>
       <r>   -21.6724     0.0000    20.0000 </r>
       <r>   -21.5631     0.0000    20.0000 </r>
       <r>   -21.4538     0.0000    20.0000 </r>
       <r>   -21.3445     0.0000    20.0000 </r>
       <r>   -21.2352     0.0000    20.0000 </r>
       <r>   -21.1259     0.0000    20.0000 </r>
       <r>   -21.0166     0.0000    20.0000 </r>
       <r>   -20.9073     0.0000    20.0000 </r>
       <r>   -20.7979     0.0000    20.0000 </r>
       <r>   -20.6886     0.0000    20.0000 </r>
       <r>   -20.5793     0.0000    20.0000 </r>
       <r>   -20.4700     0.0000    20.0000 </r>
       <r>   -20.3607     0.0000    20.0000 </r>
       <r>   -20.2514     0.0000    20.0000 </r>
       <r>   -20.1421     0.0000    20.0000 </r>
       <r>   -20.0328     0.0000    20.0000 </r>
       <r>   -19.9235     0.0000    20.0000 </r>
       <r>   -19.8141     0.0000    20.0000 </r>
       <r>   -19.7048     0.0000    20.0000 </r>
       <r>   -19.5955     0.0000    20.0000 </r>
       <r>   -19.4862     0.0000    20.0000 </r>
       <r>   -19.3769     0.0000    20.0000 </r>
       <r>   -19.2676     0.0000    20.0000 </r>
       <r>   -19.1583     0.0000    20.0000 </r>
       <r>   -19.0490     0.0000    20.0000 </r>
       <r>   -18.9397     0.0000    20.0000 </r>
       <r>   -18.8304     0.0000    20.0000 </r>
       <r>   -18.7210     0.0000    20.0000 </r>
       <r>   -18.6117     0.0000    20.0000 </r>
       <r>   -18.5024     0.0000    20.0000 </r>
       <r>   -18.3931     0.0000    20.0000 </r>
       <r>   -18.2838     0.0000    20.0000 </r>
       <r>   -18.1745     0.0000    20.0000 </r>
       <r>   -18.0652     0.0000    20.0000 </r>
       <r>   -17.9559     0.0000    20.0000 </r>
       <r>   -17.8466     0.0000    20.0000 </r>
       <r>   -17.7373     0.0000    20.0000 </r>
       <r>   -17.6279     0.0000    20.0000 </r>
       <r>   -17.5186     0.0000    20.0000 </r>
       <r>   -17.4093     0.0000    20.0000 </r>
       <r>   -17.3000     0.0000    20.0000 </r>
       <r>   -17.1907     0.0000    20.0000 </r>
       <r>   -17.0814     0.0000    20.0000 </r>
       <r>   -16.9721     0.0000    20.0000 </r>
       <r>   -16.8628     0.6863    20.0750 </r>
       <r>   -16.7535     1.7889    20.2706 </r>
       <r>   -16.6442     1.9100    20.4794 </r>
       <r>   -16.5348     2.0959    20.7085 </r>
       <r>   -16.4255     2.3055    20.9605 </r>
       <r>   -16.3162     2.0686    21.1866 </r>
       <r>   -16.2069     2.5861    21.4693 </r>
       <r>   -16.0976     2.7813    21.7733 </r>
       <r>   -15.9883     3.3409    22.1385 </r>
       <r>   -15.8790     3.8190    22.5560 </r>
       <r>   -15.7697     2.9678    22.8804 </r>
       <r>   -15.6604     1.6485    23.0606 </r>
       <r>   -15.5510     2.1311    23.2935 </r>
       <r>   -15.4417     1.2144    23.4263 </r>
       <r>   -15.3324     4.5394    23.9225 </r>
       <r>   -15.2231     7.6285    24.7564 </r>
       <r>   -15.1138    15.1802    26.4157 </r>
       <r>   -15.0045     8.7230    27.3692 </r>
       <r>   -14.8952     3.8971    27.7952 </r>
       <r>   -14.7859     1.8376    27.9961 </r>
       <r>   -14.6766     0.0356    28.0000 </r>
       <r>   -14.5673     0.0000    28.0000 </r>
       <r>   -14.4579     0.0000    28.0000 </r>
       <r>   -14.3486     0.0000    28.0000 </r>
       <r>   -14.2393     0.0000    28.0000 </r>
       <r>   -14.1300     0.0000    28.0000 </r>
       <r>   -14.0207     0.0000    28.0000 </r>
       <r>   -13.9114     0.0000    28.0000 </r>
       <r>   -13.8021     0.0000    28.0000 </r>
       <r>   -13.6928     0.0000    28.0000 </r>
       <r>   -13.5835     0.0000    28.0000 </r>
       <r>   -13.4742     0.0000    28.0000 </r>
       <r>   -13.3648     0.0000    28.0000 </r>
       <r>   -13.2555     0.0000    28.0000 </r>
       <r>   -13.1462     0.0000    28.0000 </r>
       <r>   -13.0369     0.0000    28.0000 </r>
       <r>   -12.9276     0.0000    28.0000 </r>
       <r>   -12.8183     0.0000    28.0000 </r>
       <r>   -12.7090     0.0000    28.0000 </r>
       <r>   -12.5997     0.0000    28.0000 </r>
       <r>   -12.4904     0.0000    28.0000 </r>
       <r>   -12.3810     0.0000    28.0000 </r>
       <r>   -12.2717     0.0000    28.0000 </r>
       <r>   -12.1624     0.0000    28.0000 </r>
       <r>   -12.0531     0.0000    28.0000 </r>
       <r>   -11.9438     0.0000    28.0000 </r>
       <r>   -11.8345     0.0257    28.0028 </r>
       <r>   -11.7252     0.6338    28.0721 </r>
       <r>   -11.6159     0.5623    28.1336 </r>
       <r>   -11.5066     0.7669    28.2174 </r>
       <r>   -11.3973     0.9202    28.3180 </r>
       <r>   -11.2879     1.0362    28.4312 </r>
       <r>   -11.1786     1.4871    28.5938 </r>
       <r>   -11.0693     0.4820    28.6465 </r>
       <r>   -10.9600     3.0089    28.9754 </r>
       <r>   -10.8507     1.4795    29.1371 </r>
       <r>   -10.7414     4.0829    29.5834 </r>
       <r>   -10.6321     2.6740    29.8757 </r>
       <r>   -10.5228     1.8751    30.0807 </r>
       <r>   -10.4135     2.3893    30.3419 </r>
       <r>   -10.3042     1.2549    30.4790 </r>
       <r>   -10.1948     1.7422    30.6695 </r>
       <r>   -10.0855     1.0991    30.7896 </r>
       <r>    -9.9762     1.4484    30.9480 </r>
       <r>    -9.8669     1.1049    31.0687 </r>
       <r>    -9.7576     1.5154    31.2344 </r>
       <r>    -9.6483     1.5412    31.4029 </r>
       <r>    -9.5390     1.1022    31.5234 </r>
       <r>    -9.4297     1.3065    31.6662 </r>
       <r>    -9.3204     1.5924    31.8402 </r>
       <r>    -9.2111     1.4476    31.9985 </r>
       <r>    -9.1017     0.0140    32.0000 </r>
       <r>    -8.9924     0.0000    32.0000 </r>
       <r>    -8.8831     0.0000    32.0000 </r>
       <r>    -8.7738     0.0000    32.0000 </r>
       <r>    -8.6645     0.0000    32.0000 </r>
       <r>    -8.5552     0.0000    32.0000 </r>
       <r>    -8.4459     0.0000    32.0000 </r>
       <r>    -8.3366     0.0000    32.0000 </r>
       <r>    -8.2273     0.0000    32.0000 </r>
       <r>    -8.1179     0.0000    32.0000 </r>
       <r>    -8.0086     0.0000    32.0000 </r>
       <r>    -7.8993     0.0000    32.0000 </r>
       <r>    -7.7900     0.0000    32.0000 </r>
       <r>    -7.6807     0.0000    32.0000 </r>
       <r>    -7.5714     0.0000    32.0000 </r>
       <r>    -7.4621     0.3623    32.0396 </r>
       <r>    -7.3528     3.1793    32.3871 </r>
       <r>    -7.2435     2.0067    32.6065 </r>
       <r>    -7.1342     2.0733    32.8331 </r>
       <r>    -7.0248     1.9374    33.0449 </r>
       <r>    -6.9155     2.2886    33.2951 </r>
       <r>    -6.8062     8.5476    34.2294 </r>
       <r>    -6.6969     6.9093    34.9847 </r>
       <r>    -6.5876     2.5585    35.2644 </r>
       <r>    -6.4783     1.9320    35.4755 </r>
       <r>    -6.3690     2.3007    35.7270 </r>
       <r>    -6.2597     3.6300    36.1238 </r>
       <r>    -6.1504     7.5013    36.9438 </r>
       <r>    -6.0411     4.0518    37.3867 </r>
       <r>    -5.9317     4.7349    37.9043 </r>
       <r>    -5.8224     4.0200    38.3437 </r>
       <r>    -5.7131     4.0654    38.7881 </r>
       <r>    -5.6038     4.8567    39.3190 </r>
       <r>    -5.4945     7.3547    40.1230 </r>
       <r>    -5.3852     8.2966    41.0299 </r>
       <r>    -5.2759     7.9625    41.9002 </r>
       <r>    -5.1666     5.9810    42.5540 </r>
       <r>    -5.0573     4.3953    43.0345 </r>
       <r>    -4.9480     2.5200    43.3099 </r>
       <r>    -4.8386     3.0823    43.6469 </r>
       <r>    -4.7293     3.0170    43.9766 </r>
       <r>    -4.6200     4.9024    44.5125 </r>
       <r>    -4.5107     1.7816    44.7073 </r>
       <r>    -4.4014     3.6427    45.1055 </r>
       <r>    -4.2921     7.1397    45.8859 </r>
       <r>    -4.1828     4.6854    46.3981 </r>
       <r>    -4.0735     4.5357    46.8939 </r>
       <r>    -3.9642     3.8354    47.3131 </r>
       <r>    -3.8548     3.8679    47.7359 </r>
       <r>    -3.7455     3.7534    48.1462 </r>
       <r>    -3.6362     2.3999    48.4086 </r>
       <r>    -3.5269     3.2475    48.7635 </r>
       <r>    -3.4176     3.2325    49.1169 </r>
       <r>    -3.3083     2.7475    49.4172 </r>
       <r>    -3.1990     2.7328    49.7159 </r>
       <r>    -3.0897     2.9079    50.0338 </r>
       <r>    -2.9804     3.9169    50.4620 </r>
       <r>    -2.8711     4.0967    50.9098 </r>
       <r>    -2.7617     4.6609    51.4193 </r>
       <r>    -2.6524     3.7442    51.8286 </r>
       <r>    -2.5431     1.5684    52.0000 </r>
       <r>    -2.4338     0.0000    52.0000 </r>
       <r>    -2.3245     0.0000    52.0000 </r>
       <r>    -2.2152     0.0000    52.0000 </r>
       <r>    -2.1059     0.0000    52.0000 </r>
       <r>    -1.9966     0.0000    52.0000 </r>
       <r>    -1.8873     0.0926    52.0101 </r>
       <r>    -1.7780     0.4182    52.0558 </r>
       <r>    -1.6686     0.3340    52.0923 </r>
       <r>    -1.5593     3.6689    52.4934 </r>
       <r>    -1.4500     2.6030    52.7779 </r>
       <r>    -1.3407     4.0048    53.2157 </r>
       <r>    -1.2314     3.0668    53.5509 </r>
       <r>    -1.1221     4.3670    54.0283 </r>
       <r>    -1.0128     2.6221    54.3149 </r>
       <r>    -0.9035     5.1930    54.8826 </r>
       <r>    -0.7942     4.2265    55.3446 </r>
       <r>    -0.6849     3.0146    55.6741 </r>
       <r>    -0.5755     2.0193    55.8948 </r>
       <r>    -0.4662     1.7135    56.0821 </r>
       <r>    -0.3569     0.9014    56.1807 </r>
       <r>    -0.2476     0.3175    56.2154 </r>
       <r>    -0.1383     0.0146    56.2170 </r>
       <r>    -0.0290     0.1733    56.2359 </r>
       <r>     0.0803     0.7699    56.3201 </r>
       <r>     0.1896     1.1411    56.4448 </r>
       <r>     0.2989     1.1775    56.5735 </r>
       <r>     0.4083     1.8350    56.7741 </r>
       <r>     0.5176     2.6226    57.0608 </r>
       <r>     0.6269     2.3316    57.3156 </r>
       <r>     0.7362     3.7568    57.7263 </r>
       <r>     0.8455     3.0253    58.0570 </r>
       <r>     0.9548     5.4289    58.6504 </r>
       <r>     1.0641     8.7117    59.6027 </r>
       <r>     1.1734     8.4164    60.5227 </r>
       <r>     1.2827     5.0682    61.0767 </r>
       <r>     1.3920     7.4395    61.8899 </r>
       <r>     1.5014     5.2726    62.4663 </r>
       <r>     1.6107     6.2798    63.1528 </r>
       <r>     1.7200     4.1165    63.6027 </r>
       <r>     1.8293     2.3550    63.8602 </r>
       <r>     1.9386     0.7318    63.9401 </r>
       <r>     2.0479     0.5475    64.0000 </r>
       <r>     2.1572     0.0000    64.0000 </r>
       <r>     2.2665     0.0000    64.0000 </r>
       <r>     2.3758     0.0000    64.0000 </r>
       <r>     2.4851     0.0000    64.0000 </r>
       <r>     2.5945     0.0000    64.0000 </r>
       <r>     2.7038     0.0000    64.0000 </r>
       <r>     2.8131     0.0000    64.0000 </r>
       <r>     2.9224     0.0000    64.0000 </r>
       <r>     3.0317     0.0000    64.0000 </r>
       <r>     3.1410     0.0000    64.0000 </r>
       <r>     3.2503     0.0000    64.0000 </r>
       <r>     3.3596     0.0000    64.0000 </r>
       <r>     3.4689     0.0000    64.0000 </r>
      </set>
     </set>
    </array>
   </total>
  </dos>
 </calculation>
 <structure name="finalpos" >
  <crystal>
   <varray name="basis" >
    <v>       4.93054600       0.00000000       0.00000000 </v>
    <v>       0.00000000       5.59898900       0.00000000 </v>
    <v>       0.00000000       0.00000000      18.07929100 </v>
   </varray>
   <i name="volume">    499.09822384 </i>
   <varray name="rec_basis" >
    <v>       0.20281729       0.00000000       0.00000000 </v>
    <v>       0.00000000       0.17860367       0.00000000 </v>
    <v>       0.00000000       0.00000000       0.05531190 </v>
   </varray>
  </crystal>
  <varray name="positions" >
   <v>       0.50000000       0.50000000       0.50000000 </v>
   <v>      -0.00000000      -0.00000000       0.50000000 </v>
   <v>       0.25000000       0.25000000       0.41527978 </v>
   <v>       0.75000000       0.75000000       0.41527978 </v>
   <v>       0.75000000       0.25000000       0.58472022 </v>
   <v>       0.25000000       0.75000000       0.58472022 </v>
  </varray>
 </structure>
</modeling>
