<?xml version="1.0" encoding="ISO-8859-1"?>
<modeling>
 <generator>
  <i name="program" type="string">vasp </i>
  <i name="version" type="string">5.4.1  </i>
  <i name="subversion" type="string">24Jun15 (build Nov 20 2020 10:29:34) complex                          parallel </i>
  <i name="platform" type="string">IFC91_ompi </i>
  <i name="date" type="string">2021 09 14 </i>
  <i name="time" type="string">00:24:23 </i>
 </generator>
 <incar>
  <i type="int" name="ISTART">     1</i>
  <i type="string" name="PREC">a</i>
  <i type="string" name="ALGO"> Normal</i>
  <i type="int" name="ISPIN">     1</i>
  <i type="int" name="ICHARG">     2</i>
  <i type="int" name="NELM">   250</i>
  <i type="int" name="NELMDL">    -5</i>
  <i type="int" name="NELMIN">     6</i>
  <i type="int" name="IBRION">     2</i>
  <i name="EDIFF">      0.00001000</i>
  <i name="EDIFFG">     -0.00500000</i>
  <i type="int" name="NSW">     0</i>
  <i type="int" name="ISIF">     2</i>
  <i name="ENCUT">    520.00000000</i>
  <i name="POTIM">      0.25000000</i>
  <v name="MAGMOM">      0.60000000      0.60000000</v>
  <i type="string" name="LREAL"> Auto</i>
  <i type="int" name="ISMEAR">     0</i>
  <i name="SIGMA">      0.02000000</i>
  <i type="logical" name="LWAVE"> F  </i>
  <i type="logical" name="LCHARG"> F  </i>
  <i type="logical" name="LVHAR"> F  </i>
  <v type="int" name="KPOINT_BSE">    -1     0     0     0</v>
  <i type="int" name="NELM">   250</i>
 </incar>
 <kpoints>
  <generation param="Gamma">
   <v type="int" name="divisions">      25       24        1 </v>
   <v name="usershift">      0.00000000       0.00000000       0.00000000 </v>
   <v name="genvec1">      0.04000000      -0.00000000       0.00000000 </v>
   <v name="genvec2">      0.00000000       0.04166667       0.00000000 </v>
   <v name="genvec3">      0.00000000       0.00000000       1.00000000 </v>
   <v name="shift">      0.00000000       0.00000000       0.00000000 </v>
  </generation>
  <varray name="kpointlist" >
   <v>       0.00000000       0.00000000       0.00000000 </v>
   <v>       0.04000000       0.00000000       0.00000000 </v>
   <v>       0.08000000       0.00000000       0.00000000 </v>
   <v>       0.12000000       0.00000000       0.00000000 </v>
   <v>       0.16000000       0.00000000       0.00000000 </v>
   <v>       0.20000000       0.00000000       0.00000000 </v>
   <v>       0.24000000       0.00000000       0.00000000 </v>
   <v>       0.28000000       0.00000000       0.00000000 </v>
   <v>       0.32000000       0.00000000       0.00000000 </v>
   <v>       0.36000000       0.00000000       0.00000000 </v>
   <v>       0.40000000       0.00000000       0.00000000 </v>
   <v>       0.44000000       0.00000000       0.00000000 </v>
   <v>       0.48000000       0.00000000       0.00000000 </v>
   <v>       0.00000000       0.04166667       0.00000000 </v>
   <v>       0.04000000       0.04166667       0.00000000 </v>
   <v>       0.08000000       0.04166667       0.00000000 </v>
   <v>       0.12000000       0.04166667       0.00000000 </v>
   <v>       0.16000000       0.04166667       0.00000000 </v>
   <v>       0.20000000       0.04166667       0.00000000 </v>
   <v>       0.24000000       0.04166667       0.00000000 </v>
   <v>       0.28000000       0.04166667       0.00000000 </v>
   <v>       0.32000000       0.04166667       0.00000000 </v>
   <v>       0.36000000       0.04166667       0.00000000 </v>
   <v>       0.40000000       0.04166667       0.00000000 </v>
   <v>       0.44000000       0.04166667       0.00000000 </v>
   <v>       0.48000000       0.04166667       0.00000000 </v>
   <v>      -0.48000000       0.04166667       0.00000000 </v>
   <v>      -0.44000000       0.04166667       0.00000000 </v>
   <v>      -0.40000000       0.04166667       0.00000000 </v>
   <v>      -0.36000000       0.04166667       0.00000000 </v>
   <v>      -0.32000000       0.04166667       0.00000000 </v>
   <v>      -0.28000000       0.04166667       0.00000000 </v>
   <v>      -0.24000000       0.04166667       0.00000000 </v>
   <v>      -0.20000000       0.04166667       0.00000000 </v>
   <v>      -0.16000000       0.04166667       0.00000000 </v>
   <v>      -0.12000000       0.04166667       0.00000000 </v>
   <v>      -0.08000000       0.04166667       0.00000000 </v>
   <v>      -0.04000000       0.04166667       0.00000000 </v>
   <v>       0.00000000       0.08333333       0.00000000 </v>
   <v>       0.04000000       0.08333333       0.00000000 </v>
   <v>       0.08000000       0.08333333       0.00000000 </v>
   <v>       0.12000000       0.08333333       0.00000000 </v>
   <v>       0.16000000       0.08333333       0.00000000 </v>
   <v>       0.20000000       0.08333333       0.00000000 </v>
   <v>       0.24000000       0.08333333       0.00000000 </v>
   <v>       0.28000000       0.08333333       0.00000000 </v>
   <v>       0.32000000       0.08333333       0.00000000 </v>
   <v>       0.36000000       0.08333333       0.00000000 </v>
   <v>       0.40000000       0.08333333       0.00000000 </v>
   <v>       0.44000000       0.08333333       0.00000000 </v>
   <v>       0.48000000       0.08333333       0.00000000 </v>
   <v>      -0.48000000       0.08333333       0.00000000 </v>
   <v>      -0.44000000       0.08333333       0.00000000 </v>
   <v>      -0.40000000       0.08333333       0.00000000 </v>
   <v>      -0.36000000       0.08333333       0.00000000 </v>
   <v>      -0.32000000       0.08333333       0.00000000 </v>
   <v>      -0.28000000       0.08333333       0.00000000 </v>
   <v>      -0.24000000       0.08333333       0.00000000 </v>
   <v>      -0.20000000       0.08333333       0.00000000 </v>
   <v>      -0.16000000       0.08333333       0.00000000 </v>
   <v>      -0.12000000       0.08333333       0.00000000 </v>
   <v>      -0.08000000       0.08333333       0.00000000 </v>
   <v>      -0.04000000       0.08333333       0.00000000 </v>
   <v>       0.00000000       0.12500000       0.00000000 </v>
   <v>       0.04000000       0.12500000       0.00000000 </v>
   <v>       0.08000000       0.12500000       0.00000000 </v>
   <v>       0.12000000       0.12500000       0.00000000 </v>
   <v>       0.16000000       0.12500000       0.00000000 </v>
   <v>       0.20000000       0.12500000       0.00000000 </v>
   <v>       0.24000000       0.12500000       0.00000000 </v>
   <v>       0.28000000       0.12500000       0.00000000 </v>
   <v>       0.32000000       0.12500000       0.00000000 </v>
   <v>       0.36000000       0.12500000       0.00000000 </v>
   <v>       0.40000000       0.12500000       0.00000000 </v>
   <v>       0.44000000       0.12500000       0.00000000 </v>
   <v>       0.48000000       0.12500000       0.00000000 </v>
   <v>      -0.48000000       0.12500000       0.00000000 </v>
   <v>      -0.44000000       0.12500000       0.00000000 </v>
   <v>      -0.40000000       0.12500000       0.00000000 </v>
   <v>      -0.36000000       0.12500000       0.00000000 </v>
   <v>      -0.32000000       0.12500000       0.00000000 </v>
   <v>      -0.28000000       0.12500000       0.00000000 </v>
   <v>      -0.24000000       0.12500000       0.00000000 </v>
   <v>      -0.20000000       0.12500000       0.00000000 </v>
   <v>      -0.16000000       0.12500000       0.00000000 </v>
   <v>      -0.12000000       0.12500000       0.00000000 </v>
   <v>      -0.08000000       0.12500000       0.00000000 </v>
   <v>      -0.04000000       0.12500000       0.00000000 </v>
   <v>       0.00000000       0.16666667       0.00000000 </v>
   <v>       0.04000000       0.16666667       0.00000000 </v>
   <v>       0.08000000       0.16666667       0.00000000 </v>
   <v>       0.12000000       0.16666667       0.00000000 </v>
   <v>       0.16000000       0.16666667       0.00000000 </v>
   <v>       0.20000000       0.16666667       0.00000000 </v>
   <v>       0.24000000       0.16666667       0.00000000 </v>
   <v>       0.28000000       0.16666667       0.00000000 </v>
   <v>       0.32000000       0.16666667       0.00000000 </v>
   <v>       0.36000000       0.16666667       0.00000000 </v>
   <v>       0.40000000       0.16666667       0.00000000 </v>
   <v>       0.44000000       0.16666667       0.00000000 </v>
   <v>       0.48000000       0.16666667       0.00000000 </v>
   <v>      -0.48000000       0.16666667       0.00000000 </v>
   <v>      -0.44000000       0.16666667       0.00000000 </v>
   <v>      -0.40000000       0.16666667       0.00000000 </v>
   <v>      -0.36000000       0.16666667       0.00000000 </v>
   <v>      -0.32000000       0.16666667       0.00000000 </v>
   <v>      -0.28000000       0.16666667       0.00000000 </v>
   <v>      -0.24000000       0.16666667       0.00000000 </v>
   <v>      -0.20000000       0.16666667       0.00000000 </v>
   <v>      -0.16000000       0.16666667       0.00000000 </v>
   <v>      -0.12000000       0.16666667       0.00000000 </v>
   <v>      -0.08000000       0.16666667       0.00000000 </v>
   <v>      -0.04000000       0.16666667       0.00000000 </v>
   <v>       0.00000000       0.20833333       0.00000000 </v>
   <v>       0.04000000       0.20833333       0.00000000 </v>
   <v>       0.08000000       0.20833333       0.00000000 </v>
   <v>       0.12000000       0.20833333       0.00000000 </v>
   <v>       0.16000000       0.20833333       0.00000000 </v>
   <v>       0.20000000       0.20833333       0.00000000 </v>
   <v>       0.24000000       0.20833333       0.00000000 </v>
   <v>       0.28000000       0.20833333       0.00000000 </v>
   <v>       0.32000000       0.20833333       0.00000000 </v>
   <v>       0.36000000       0.20833333       0.00000000 </v>
   <v>       0.40000000       0.20833333       0.00000000 </v>
   <v>       0.44000000       0.20833333       0.00000000 </v>
   <v>       0.48000000       0.20833333       0.00000000 </v>
   <v>      -0.48000000       0.20833333       0.00000000 </v>
   <v>      -0.44000000       0.20833333       0.00000000 </v>
   <v>      -0.40000000       0.20833333       0.00000000 </v>
   <v>      -0.36000000       0.20833333       0.00000000 </v>
   <v>      -0.32000000       0.20833333       0.00000000 </v>
   <v>      -0.28000000       0.20833333       0.00000000 </v>
   <v>      -0.24000000       0.20833333       0.00000000 </v>
   <v>      -0.20000000       0.20833333       0.00000000 </v>
   <v>      -0.16000000       0.20833333       0.00000000 </v>
   <v>      -0.12000000       0.20833333       0.00000000 </v>
   <v>      -0.08000000       0.20833333       0.00000000 </v>
   <v>      -0.04000000       0.20833333       0.00000000 </v>
   <v>       0.00000000       0.25000000       0.00000000 </v>
   <v>       0.04000000       0.25000000       0.00000000 </v>
   <v>       0.08000000       0.25000000       0.00000000 </v>
   <v>       0.12000000       0.25000000       0.00000000 </v>
   <v>       0.16000000       0.25000000       0.00000000 </v>
   <v>       0.20000000       0.25000000       0.00000000 </v>
   <v>       0.24000000       0.25000000       0.00000000 </v>
   <v>       0.28000000       0.25000000       0.00000000 </v>
   <v>       0.32000000       0.25000000       0.00000000 </v>
   <v>       0.36000000       0.25000000       0.00000000 </v>
   <v>       0.40000000       0.25000000       0.00000000 </v>
   <v>       0.44000000       0.25000000       0.00000000 </v>
   <v>       0.48000000       0.25000000       0.00000000 </v>
   <v>      -0.48000000       0.25000000       0.00000000 </v>
   <v>      -0.44000000       0.25000000       0.00000000 </v>
   <v>      -0.40000000       0.25000000       0.00000000 </v>
   <v>      -0.36000000       0.25000000       0.00000000 </v>
   <v>      -0.32000000       0.25000000       0.00000000 </v>
   <v>      -0.28000000       0.25000000       0.00000000 </v>
   <v>      -0.24000000       0.25000000       0.00000000 </v>
   <v>      -0.20000000       0.25000000       0.00000000 </v>
   <v>      -0.16000000       0.25000000       0.00000000 </v>
   <v>      -0.12000000       0.25000000       0.00000000 </v>
   <v>      -0.08000000       0.25000000       0.00000000 </v>
   <v>      -0.04000000       0.25000000       0.00000000 </v>
   <v>       0.00000000       0.29166667       0.00000000 </v>
   <v>       0.04000000       0.29166667       0.00000000 </v>
   <v>       0.08000000       0.29166667       0.00000000 </v>
   <v>       0.12000000       0.29166667       0.00000000 </v>
   <v>       0.16000000       0.29166667       0.00000000 </v>
   <v>       0.20000000       0.29166667       0.00000000 </v>
   <v>       0.24000000       0.29166667       0.00000000 </v>
   <v>       0.28000000       0.29166667       0.00000000 </v>
   <v>       0.32000000       0.29166667       0.00000000 </v>
   <v>       0.36000000       0.29166667       0.00000000 </v>
   <v>       0.40000000       0.29166667       0.00000000 </v>
   <v>       0.44000000       0.29166667       0.00000000 </v>
   <v>       0.48000000       0.29166667       0.00000000 </v>
   <v>      -0.48000000       0.29166667       0.00000000 </v>
   <v>      -0.44000000       0.29166667       0.00000000 </v>
   <v>      -0.40000000       0.29166667       0.00000000 </v>
   <v>      -0.36000000       0.29166667       0.00000000 </v>
   <v>      -0.32000000       0.29166667       0.00000000 </v>
   <v>      -0.28000000       0.29166667       0.00000000 </v>
   <v>      -0.24000000       0.29166667       0.00000000 </v>
   <v>      -0.20000000       0.29166667       0.00000000 </v>
   <v>      -0.16000000       0.29166667       0.00000000 </v>
   <v>      -0.12000000       0.29166667       0.00000000 </v>
   <v>      -0.08000000       0.29166667       0.00000000 </v>
   <v>      -0.04000000       0.29166667       0.00000000 </v>
   <v>       0.00000000       0.33333333       0.00000000 </v>
   <v>       0.04000000       0.33333333       0.00000000 </v>
   <v>       0.08000000       0.33333333       0.00000000 </v>
   <v>       0.12000000       0.33333333       0.00000000 </v>
   <v>       0.16000000       0.33333333       0.00000000 </v>
   <v>       0.20000000       0.33333333       0.00000000 </v>
   <v>       0.24000000       0.33333333       0.00000000 </v>
   <v>       0.28000000       0.33333333       0.00000000 </v>
   <v>       0.32000000       0.33333333       0.00000000 </v>
   <v>       0.36000000       0.33333333       0.00000000 </v>
   <v>       0.40000000       0.33333333       0.00000000 </v>
   <v>       0.44000000       0.33333333       0.00000000 </v>
   <v>       0.48000000       0.33333333       0.00000000 </v>
   <v>      -0.48000000       0.33333333       0.00000000 </v>
   <v>      -0.44000000       0.33333333       0.00000000 </v>
   <v>      -0.40000000       0.33333333       0.00000000 </v>
   <v>      -0.36000000       0.33333333       0.00000000 </v>
   <v>      -0.32000000       0.33333333       0.00000000 </v>
   <v>      -0.28000000       0.33333333       0.00000000 </v>
   <v>      -0.24000000       0.33333333       0.00000000 </v>
   <v>      -0.20000000       0.33333333       0.00000000 </v>
   <v>      -0.16000000       0.33333333       0.00000000 </v>
   <v>      -0.12000000       0.33333333       0.00000000 </v>
   <v>      -0.08000000       0.33333333       0.00000000 </v>
   <v>      -0.04000000       0.33333333       0.00000000 </v>
   <v>       0.00000000       0.37500000       0.00000000 </v>
   <v>       0.04000000       0.37500000       0.00000000 </v>
   <v>       0.08000000       0.37500000       0.00000000 </v>
   <v>       0.12000000       0.37500000       0.00000000 </v>
   <v>       0.16000000       0.37500000       0.00000000 </v>
   <v>       0.20000000       0.37500000       0.00000000 </v>
   <v>       0.24000000       0.37500000       0.00000000 </v>
   <v>       0.28000000       0.37500000       0.00000000 </v>
   <v>       0.32000000       0.37500000       0.00000000 </v>
   <v>       0.36000000       0.37500000       0.00000000 </v>
   <v>       0.40000000       0.37500000       0.00000000 </v>
   <v>       0.44000000       0.37500000       0.00000000 </v>
   <v>       0.48000000       0.37500000       0.00000000 </v>
   <v>      -0.48000000       0.37500000       0.00000000 </v>
   <v>      -0.44000000       0.37500000       0.00000000 </v>
   <v>      -0.40000000       0.37500000       0.00000000 </v>
   <v>      -0.36000000       0.37500000       0.00000000 </v>
   <v>      -0.32000000       0.37500000       0.00000000 </v>
   <v>      -0.28000000       0.37500000       0.00000000 </v>
   <v>      -0.24000000       0.37500000       0.00000000 </v>
   <v>      -0.20000000       0.37500000       0.00000000 </v>
   <v>      -0.16000000       0.37500000       0.00000000 </v>
   <v>      -0.12000000       0.37500000       0.00000000 </v>
   <v>      -0.08000000       0.37500000       0.00000000 </v>
   <v>      -0.04000000       0.37500000       0.00000000 </v>
   <v>       0.00000000       0.41666667       0.00000000 </v>
   <v>       0.04000000       0.41666667       0.00000000 </v>
   <v>       0.08000000       0.41666667       0.00000000 </v>
   <v>       0.12000000       0.41666667       0.00000000 </v>
   <v>       0.16000000       0.41666667       0.00000000 </v>
   <v>       0.20000000       0.41666667       0.00000000 </v>
   <v>       0.24000000       0.41666667       0.00000000 </v>
   <v>       0.28000000       0.41666667       0.00000000 </v>
   <v>       0.32000000       0.41666667       0.00000000 </v>
   <v>       0.36000000       0.41666667       0.00000000 </v>
   <v>       0.40000000       0.41666667       0.00000000 </v>
   <v>       0.44000000       0.41666667       0.00000000 </v>
   <v>       0.48000000       0.41666667       0.00000000 </v>
   <v>      -0.48000000       0.41666667       0.00000000 </v>
   <v>      -0.44000000       0.41666667       0.00000000 </v>
   <v>      -0.40000000       0.41666667       0.00000000 </v>
   <v>      -0.36000000       0.41666667       0.00000000 </v>
   <v>      -0.32000000       0.41666667       0.00000000 </v>
   <v>      -0.28000000       0.41666667       0.00000000 </v>
   <v>      -0.24000000       0.41666667       0.00000000 </v>
   <v>      -0.20000000       0.41666667       0.00000000 </v>
   <v>      -0.16000000       0.41666667       0.00000000 </v>
   <v>      -0.12000000       0.41666667       0.00000000 </v>
   <v>      -0.08000000       0.41666667       0.00000000 </v>
   <v>      -0.04000000       0.41666667       0.00000000 </v>
   <v>       0.00000000       0.45833333       0.00000000 </v>
   <v>       0.04000000       0.45833333       0.00000000 </v>
   <v>       0.08000000       0.45833333       0.00000000 </v>
   <v>       0.12000000       0.45833333       0.00000000 </v>
   <v>       0.16000000       0.45833333       0.00000000 </v>
   <v>       0.20000000       0.45833333       0.00000000 </v>
   <v>       0.24000000       0.45833333       0.00000000 </v>
   <v>       0.28000000       0.45833333       0.00000000 </v>
   <v>       0.32000000       0.45833333       0.00000000 </v>
   <v>       0.36000000       0.45833333       0.00000000 </v>
   <v>       0.40000000       0.45833333       0.00000000 </v>
   <v>       0.44000000       0.45833333       0.00000000 </v>
   <v>       0.48000000       0.45833333       0.00000000 </v>
   <v>      -0.48000000       0.45833333       0.00000000 </v>
   <v>      -0.44000000       0.45833333       0.00000000 </v>
   <v>      -0.40000000       0.45833333       0.00000000 </v>
   <v>      -0.36000000       0.45833333       0.00000000 </v>
   <v>      -0.32000000       0.45833333       0.00000000 </v>
   <v>      -0.28000000       0.45833333       0.00000000 </v>
   <v>      -0.24000000       0.45833333       0.00000000 </v>
   <v>      -0.20000000       0.45833333       0.00000000 </v>
   <v>      -0.16000000       0.45833333       0.00000000 </v>
   <v>      -0.12000000       0.45833333       0.00000000 </v>
   <v>      -0.08000000       0.45833333       0.00000000 </v>
   <v>      -0.04000000       0.45833333       0.00000000 </v>
   <v>       0.00000000       0.50000000       0.00000000 </v>
   <v>       0.04000000       0.50000000       0.00000000 </v>
   <v>       0.08000000       0.50000000       0.00000000 </v>
   <v>       0.12000000       0.50000000       0.00000000 </v>
   <v>       0.16000000       0.50000000       0.00000000 </v>
   <v>       0.20000000       0.50000000       0.00000000 </v>
   <v>       0.24000000       0.50000000       0.00000000 </v>
   <v>       0.28000000       0.50000000       0.00000000 </v>
   <v>       0.32000000       0.50000000       0.00000000 </v>
   <v>       0.36000000       0.50000000       0.00000000 </v>
   <v>       0.40000000       0.50000000       0.00000000 </v>
   <v>       0.44000000       0.50000000       0.00000000 </v>
   <v>       0.48000000       0.50000000       0.00000000 </v>
  </varray>
  <varray name="weights" >
   <v>       0.00166667 </v>
   <v>       0.00333333 </v>
   <v>       0.00333333 </v>
   <v>       0.00333333 </v>
   <v>       0.00333333 </v>
   <v>       0.00333333 </v>
   <v>       0.00333333 </v>
   <v>       0.00333333 </v>
   <v>       0.00333333 </v>
   <v>       0.00333333 </v>
   <v>       0.00333333 </v>
   <v>       0.00333333 </v>
   <v>       0.00333333 </v>
   <v>       0.00333333 </v>
   <v>       0.00333333 </v>
   <v>       0.00333333 </v>
   <v>       0.00333333 </v>
   <v>       0.00333333 </v>
   <v>       0.00333333 </v>
   <v>       0.00333333 </v>
   <v>       0.00333333 </v>
   <v>       0.00333333 </v>
   <v>       0.00333333 </v>
   <v>       0.00333333 </v>
   <v>       0.00333333 </v>
   <v>       0.00333333 </v>
   <v>       0.00333333 </v>
   <v>       0.00333333 </v>
   <v>       0.00333333 </v>
   <v>       0.00333333 </v>
   <v>       0.00333333 </v>
   <v>       0.00333333 </v>
   <v>       0.00333333 </v>
   <v>       0.00333333 </v>
   <v>       0.00333333 </v>
   <v>       0.00333333 </v>
   <v>       0.00333333 </v>
   <v>       0.00333333 </v>
   <v>       0.00333333 </v>
   <v>       0.00333333 </v>
   <v>       0.00333333 </v>
   <v>       0.00333333 </v>
   <v>       0.00333333 </v>
   <v>       0.00333333 </v>
   <v>       0.00333333 </v>
   <v>       0.00333333 </v>
   <v>       0.00333333 </v>
   <v>       0.00333333 </v>
   <v>       0.00333333 </v>
   <v>       0.00333333 </v>
   <v>       0.00333333 </v>
   <v>       0.00333333 </v>
   <v>       0.00333333 </v>
   <v>       0.00333333 </v>
   <v>       0.00333333 </v>
   <v>       0.00333333 </v>
   <v>       0.00333333 </v>
   <v>       0.00333333 </v>
   <v>       0.00333333 </v>
   <v>       0.00333333 </v>
   <v>       0.00333333 </v>
   <v>       0.00333333 </v>
   <v>       0.00333333 </v>
   <v>       0.00333333 </v>
   <v>       0.00333333 </v>
   <v>       0.00333333 </v>
   <v>       0.00333333 </v>
   <v>       0.00333333 </v>
   <v>       0.00333333 </v>
   <v>       0.00333333 </v>
   <v>       0.00333333 </v>
   <v>       0.00333333 </v>
   <v>       0.00333333 </v>
   <v>       0.00333333 </v>
   <v>       0.00333333 </v>
   <v>       0.00333333 </v>
   <v>       0.00333333 </v>
   <v>       0.00333333 </v>
   <v>       0.00333333 </v>
   <v>       0.00333333 </v>
   <v>       0.00333333 </v>
   <v>       0.00333333 </v>
   <v>       0.00333333 </v>
   <v>       0.00333333 </v>
   <v>       0.00333333 </v>
   <v>       0.00333333 </v>
   <v>       0.00333333 </v>
   <v>       0.00333333 </v>
   <v>       0.00333333 </v>
   <v>       0.00333333 </v>
   <v>       0.00333333 </v>
   <v>       0.00333333 </v>
   <v>       0.00333333 </v>
   <v>       0.00333333 </v>
   <v>       0.00333333 </v>
   <v>       0.00333333 </v>
   <v>       0.00333333 </v>
   <v>       0.00333333 </v>
   <v>       0.00333333 </v>
   <v>       0.00333333 </v>
   <v>       0.00333333 </v>
   <v>       0.00333333 </v>
   <v>       0.00333333 </v>
   <v>       0.00333333 </v>
   <v>       0.00333333 </v>
   <v>       0.00333333 </v>
   <v>       0.00333333 </v>
   <v>       0.00333333 </v>
   <v>       0.00333333 </v>
   <v>       0.00333333 </v>
   <v>       0.00333333 </v>
   <v>       0.00333333 </v>
   <v>       0.00333333 </v>
   <v>       0.00333333 </v>
   <v>       0.00333333 </v>
   <v>       0.00333333 </v>
   <v>       0.00333333 </v>
   <v>       0.00333333 </v>
   <v>       0.00333333 </v>
   <v>       0.00333333 </v>
   <v>       0.00333333 </v>
   <v>       0.00333333 </v>
   <v>       0.00333333 </v>
   <v>       0.00333333 </v>
   <v>       0.00333333 </v>
   <v>       0.00333333 </v>
   <v>       0.00333333 </v>
   <v>       0.00333333 </v>
   <v>       0.00333333 </v>
   <v>       0.00333333 </v>
   <v>       0.00333333 </v>
   <v>       0.00333333 </v>
   <v>       0.00333333 </v>
   <v>       0.00333333 </v>
   <v>       0.00333333 </v>
   <v>       0.00333333 </v>
   <v>       0.00333333 </v>
   <v>       0.00333333 </v>
   <v>       0.00333333 </v>
   <v>       0.00333333 </v>
   <v>       0.00333333 </v>
   <v>       0.00333333 </v>
   <v>       0.00333333 </v>
   <v>       0.00333333 </v>
   <v>       0.00333333 </v>
   <v>       0.00333333 </v>
   <v>       0.00333333 </v>
   <v>       0.00333333 </v>
   <v>       0.00333333 </v>
   <v>       0.00333333 </v>
   <v>       0.00333333 </v>
   <v>       0.00333333 </v>
   <v>       0.00333333 </v>
   <v>       0.00333333 </v>
   <v>       0.00333333 </v>
   <v>       0.00333333 </v>
   <v>       0.00333333 </v>
   <v>       0.00333333 </v>
   <v>       0.00333333 </v>
   <v>       0.00333333 </v>
   <v>       0.00333333 </v>
   <v>       0.00333333 </v>
   <v>       0.00333333 </v>
   <v>       0.00333333 </v>
   <v>       0.00333333 </v>
   <v>       0.00333333 </v>
   <v>       0.00333333 </v>
   <v>       0.00333333 </v>
   <v>       0.00333333 </v>
   <v>       0.00333333 </v>
   <v>       0.00333333 </v>
   <v>       0.00333333 </v>
   <v>       0.00333333 </v>
   <v>       0.00333333 </v>
   <v>       0.00333333 </v>
   <v>       0.00333333 </v>
   <v>       0.00333333 </v>
   <v>       0.00333333 </v>
   <v>       0.00333333 </v>
   <v>       0.00333333 </v>
   <v>       0.00333333 </v>
   <v>       0.00333333 </v>
   <v>       0.00333333 </v>
   <v>       0.00333333 </v>
   <v>       0.00333333 </v>
   <v>       0.00333333 </v>
   <v>       0.00333333 </v>
   <v>       0.00333333 </v>
   <v>       0.00333333 </v>
   <v>       0.00333333 </v>
   <v>       0.00333333 </v>
   <v>       0.00333333 </v>
   <v>       0.00333333 </v>
   <v>       0.00333333 </v>
   <v>       0.00333333 </v>
   <v>       0.00333333 </v>
   <v>       0.00333333 </v>
   <v>       0.00333333 </v>
   <v>       0.00333333 </v>
   <v>       0.00333333 </v>
   <v>       0.00333333 </v>
   <v>       0.00333333 </v>
   <v>       0.00333333 </v>
   <v>       0.00333333 </v>
   <v>       0.00333333 </v>
   <v>       0.00333333 </v>
   <v>       0.00333333 </v>
   <v>       0.00333333 </v>
   <v>       0.00333333 </v>
   <v>       0.00333333 </v>
   <v>       0.00333333 </v>
   <v>       0.00333333 </v>
   <v>       0.00333333 </v>
   <v>       0.00333333 </v>
   <v>       0.00333333 </v>
   <v>       0.00333333 </v>
   <v>       0.00333333 </v>
   <v>       0.00333333 </v>
   <v>       0.00333333 </v>
   <v>       0.00333333 </v>
   <v>       0.00333333 </v>
   <v>       0.00333333 </v>
   <v>       0.00333333 </v>
   <v>       0.00333333 </v>
   <v>       0.00333333 </v>
   <v>       0.00333333 </v>
   <v>       0.00333333 </v>
   <v>       0.00333333 </v>
   <v>       0.00333333 </v>
   <v>       0.00333333 </v>
   <v>       0.00333333 </v>
   <v>       0.00333333 </v>
   <v>       0.00333333 </v>
   <v>       0.00333333 </v>
   <v>       0.00333333 </v>
   <v>       0.00333333 </v>
   <v>       0.00333333 </v>
   <v>       0.00333333 </v>
   <v>       0.00333333 </v>
   <v>       0.00333333 </v>
   <v>       0.00333333 </v>
   <v>       0.00333333 </v>
   <v>       0.00333333 </v>
   <v>       0.00333333 </v>
   <v>       0.00333333 </v>
   <v>       0.00333333 </v>
   <v>       0.00333333 </v>
   <v>       0.00333333 </v>
   <v>       0.00333333 </v>
   <v>       0.00333333 </v>
   <v>       0.00333333 </v>
   <v>       0.00333333 </v>
   <v>       0.00333333 </v>
   <v>       0.00333333 </v>
   <v>       0.00333333 </v>
   <v>       0.00333333 </v>
   <v>       0.00333333 </v>
   <v>       0.00333333 </v>
   <v>       0.00333333 </v>
   <v>       0.00333333 </v>
   <v>       0.00333333 </v>
   <v>       0.00333333 </v>
   <v>       0.00333333 </v>
   <v>       0.00333333 </v>
   <v>       0.00333333 </v>
   <v>       0.00333333 </v>
   <v>       0.00333333 </v>
   <v>       0.00333333 </v>
   <v>       0.00333333 </v>
   <v>       0.00333333 </v>
   <v>       0.00333333 </v>
   <v>       0.00333333 </v>
   <v>       0.00333333 </v>
   <v>       0.00333333 </v>
   <v>       0.00333333 </v>
   <v>       0.00333333 </v>
   <v>       0.00333333 </v>
   <v>       0.00333333 </v>
   <v>       0.00333333 </v>
   <v>       0.00333333 </v>
   <v>       0.00333333 </v>
   <v>       0.00333333 </v>
   <v>       0.00333333 </v>
   <v>       0.00333333 </v>
   <v>       0.00333333 </v>
   <v>       0.00333333 </v>
   <v>       0.00333333 </v>
   <v>       0.00333333 </v>
   <v>       0.00166667 </v>
   <v>       0.00333333 </v>
   <v>       0.00333333 </v>
   <v>       0.00333333 </v>
   <v>       0.00333333 </v>
   <v>       0.00333333 </v>
   <v>       0.00333333 </v>
   <v>       0.00333333 </v>
   <v>       0.00333333 </v>
   <v>       0.00333333 </v>
   <v>       0.00333333 </v>
   <v>       0.00333333 </v>
   <v>       0.00333333 </v>
  </varray>
 </kpoints>
 <parameters>
  <separator name="general" >
   <i type="string" name="SYSTEM">unknown system</i>
   <i type="logical" name="LCOMPAT"> F  </i>
  </separator>
  <separator name="electronic" >
   <i type="string" name="PREC">a</i>
   <i name="ENMAX">    520.00000000</i>
   <i name="ENAUG">    644.87300000</i>
   <i name="EDIFF">      0.00001000</i>
   <i type="int" name="IALGO">    38</i>
   <i type="int" name="IWAVPR">    10</i>
   <i type="int" name="NBANDS">    12</i>
   <i name="NELECT">      8.00000000</i>
   <i type="int" name="TURBO">     0</i>
   <i type="int" name="IRESTART">     0</i>
   <i type="int" name="NREBOOT">     0</i>
   <i type="int" name="NMIN">     0</i>
   <i name="EREF">      0.00000000</i>
   <separator name="electronic smearing" >
    <i type="int" name="ISMEAR">     0</i>
    <i name="SIGMA">      0.02000000</i>
    <i name="KSPACING">      0.50000000</i>
    <i type="logical" name="KGAMMA"> T  </i>
   </separator>
   <separator name="electronic projectors" >
    <i type="logical" name="LREAL"> T  </i>
    <v name="ROPT">     -0.00025000</v>
    <i type="int" name="LMAXPAW">  -100</i>
    <i type="int" name="LMAXMIX">     2</i>
    <i type="logical" name="NLSPLINE"> F  </i>
   </separator>
   <separator name="electronic startup" >
    <i type="int" name="ISTART">     0</i>
    <i type="int" name="ICHARG">     2</i>
    <i type="int" name="INIWAV">     1</i>
   </separator>
   <separator name="electronic spin" >
    <i type="int" name="ISPIN">     1</i>
    <i type="logical" name="LNONCOLLINEAR"> F  </i>
    <v name="MAGMOM">      0.60000000      0.60000000</v>
    <i name="NUPDOWN">     -1.00000000</i>
    <i type="logical" name="LSORBIT"> F  </i>
    <v name="SAXIS">      0.00000000      0.00000000      1.00000000</v>
    <i type="logical" name="LSPIRAL"> F  </i>
    <v name="QSPIRAL">      0.00000000      0.00000000      0.00000000</v>
    <i type="logical" name="LZEROZ"> F  </i>
   </separator>
   <separator name="electronic exchange-correlation" >
    <i type="logical" name="LASPH"> F  </i>
    <i type="logical" name="LMETAGGA"> F  </i>
   </separator>
   <separator name="electronic convergence" >
    <i type="int" name="NELM">   250</i>
    <i type="int" name="NELMDL">    -5</i>
    <i type="int" name="NELMIN">     6</i>
    <i name="ENINI">    520.00000000</i>
    <separator name="electronic convergence detail" >
     <i type="logical" name="LDIAG"> T  </i>
     <i type="logical" name="LSUBROT"> F  </i>
     <i name="WEIMIN">      0.00000000</i>
     <i name="EBREAK">      0.00000021</i>
     <i name="DEPER">      0.30000000</i>
     <i type="int" name="NRMM">     4</i>
     <i name="TIME">      0.40000000</i>
    </separator>
   </separator>
   <separator name="electronic mixer" >
    <i name="AMIX">      0.40000000</i>
    <i name="BMIX">      1.00000000</i>
    <i name="AMIN">      0.10000000</i>
    <i name="AMIX_MAG">      1.60000000</i>
    <i name="BMIX_MAG">      1.00000000</i>
    <separator name="electronic mixer details" >
     <i type="int" name="IMIX">     4</i>
     <i type="logical" name="MIXFIRST"> F  </i>
     <i type="int" name="MAXMIX">   -45</i>
     <i name="WC">    100.00000000</i>
     <i type="int" name="INIMIX">     1</i>
     <i type="int" name="MIXPRE">     1</i>
     <i type="int" name="MREMOVE">     5</i>
    </separator>
   </separator>
   <separator name="electronic dipolcorrection" >
    <i type="logical" name="LDIPOL"> F  </i>
    <i type="logical" name="LMONO"> F  </i>
    <i type="int" name="IDIPOL">     0</i>
    <i name="EPSILON">      1.00000000</i>
    <v name="DIPOL">   -100.00000000   -100.00000000   -100.00000000</v>
    <i name="EFIELD">      0.00000000</i>
   </separator>
  </separator>
  <separator name="grids" >
   <i type="int" name="NGX">    18</i>
   <i type="int" name="NGY">    18</i>
   <i type="int" name="NGZ">   112</i>
   <i type="int" name="NGXF">    36</i>
   <i type="int" name="NGYF">    36</i>
   <i type="int" name="NGZF">   224</i>
   <i type="logical" name="ADDGRID"> F  </i>
  </separator>
  <separator name="ionic" >
   <i type="int" name="NSW">     0</i>
   <i type="int" name="IBRION">    -1</i>
   <i type="int" name="ISIF">     2</i>
   <i name="PSTRESS">      0.00000000</i>
   <i name="EDIFFG">     -0.00500000</i>
   <i type="int" name="NFREE">     1</i>
   <i name="POTIM">      0.25000000</i>
   <i name="SMASS">     -3.00000000</i>
   <i name="SCALEE">      1.00000000</i>
  </separator>
  <separator name="ionic md" >
   <i name="TEBEG">      0.00010000</i>
   <i name="TEEND">      0.00010000</i>
   <i type="int" name="NBLOCK">     1</i>
   <i type="int" name="KBLOCK">     1</i>
   <i type="int" name="NPACO">   256</i>
   <i name="APACO">     16.00000000</i>
  </separator>
  <separator name="symmetry" >
   <i type="int" name="ISYM">     2</i>
   <i name="SYMPREC">      0.00001000</i>
  </separator>
  <separator name="dos" >
   <i type="logical" name="LORBIT"> F  </i>
   <v name="RWIGS">     -1.00000000</v>
   <i type="int" name="NEDOS">   301</i>
   <i name="EMIN">     10.00000000</i>
   <i name="EMAX">    -10.00000000</i>
   <i name="EFERMI">      0.00000000</i>
  </separator>
  <separator name="writing" >
   <i type="int" name="NWRITE">     2</i>
   <i type="logical" name="LWAVE"> F  </i>
   <i type="logical" name="LCHARG"> F  </i>
   <i type="logical" name="LPARD"> F  </i>
   <i type="logical" name="LVTOT"> F  </i>
   <i type="logical" name="LVHAR"> F  </i>
   <i type="logical" name="LELF"> F  </i>
   <i type="logical" name="LOPTICS"> F  </i>
   <v name="STM">      0.00000000      0.00000000      0.00000000      0.00000000      0.00000000      0.00000000      0.00000000</v>
  </separator>
  <separator name="performance" >
   <i type="int" name="NPAR">     6</i>
   <i type="int" name="NSIM">     4</i>
   <i type="int" name="NBLK">    -1</i>
   <i type="logical" name="LPLANE"> T  </i>
   <i type="logical" name="LSCALAPACK"> T  </i>
   <i type="logical" name="LSCAAWARE"> F  </i>
   <i type="logical" name="LSCALU"> F  </i>
   <i type="logical" name="LASYNC"> F  </i>
   <i type="logical" name="LORBITALREAL"> F  </i>
  </separator>
  <separator name="miscellaneous" >
   <i type="int" name="IDIOT">     3</i>
   <i type="logical" name="LMUSIC"> F  </i>
   <v name="POMASS">     12.01100000</v>
   <v name="DARWINR">      0.00000000</v>
   <v name="DARWINV">      1.00000000</v>
   <i type="logical" name="LCORR"> T  </i>
  </separator>
  <i type="logical" name="GGA_COMPAT"> T  </i>
  <i type="logical" name="LBERRY"> F  </i>
  <i type="int" name="ICORELEVEL">     0</i>
  <i type="logical" name="LDAU"> F  </i>
  <i type="int" name="I_CONSTRAINED_M">     0</i>
  <separator name="electronic exchange-correlation" >
   <i type="string" name="GGA">--</i>
   <i type="int" name="VOSKOWN">     0</i>
   <i type="logical" name="LHFCALC"> F  </i>
   <i type="string" name="PRECFOCK"></i>
   <i type="logical" name="LSYMGRAD"> F  </i>
   <i type="logical" name="LHFONE"> F  </i>
   <i type="logical" name="LRHFCALC"> F  </i>
   <i type="logical" name="LTHOMAS"> F  </i>
   <i type="logical" name="LMODELHF"> F  </i>
   <i name="ENCUT4O">     -1.00000000</i>
   <i type="int" name="EXXOEP">     0</i>
   <i type="int" name="FOURORBIT">     0</i>
   <i name="AEXX">      0.00000000</i>
   <i name="HFALPHA">      0.00000000</i>
   <i name="MCALPHA">      0.00000000</i>
   <i name="ALDAX">      1.00000000</i>
   <i name="AGGAX">      1.00000000</i>
   <i name="ALDAC">      1.00000000</i>
   <i name="AGGAC">      1.00000000</i>
   <i type="int" name="NKREDX">     1</i>
   <i type="int" name="NKREDY">     1</i>
   <i type="int" name="NKREDZ">     1</i>
   <i type="logical" name="SHIFTRED"> F  </i>
   <i type="logical" name="ODDONLY"> F  </i>
   <i type="logical" name="EVENONLY"> F  </i>
   <i type="int" name="LMAXFOCK">     0</i>
   <i type="int" name="NMAXFOCKAE">     0</i>
   <i type="logical" name="LFOCKAEDFT"> F  </i>
   <i name="HFSCREEN">      0.00000000</i>
   <i name="HFSCREENC">      0.00000000</i>
   <i type="int" name="NBANDSGWLOW">     0</i>
  </separator>
  <separator name="vdW DFT" >
   <i type="logical" name="LUSE_VDW"> F  </i>
   <i name="Zab_VDW">     -0.84910000</i>
   <i name="PARAM1">      0.12340000</i>
   <i name="PARAM2">      1.00000000</i>
   <i name="PARAM3">      0.00000000</i>
  </separator>
  <separator name="model GW" >
   <i type="int" name="MODEL_GW">     0</i>
   <i name="MODEL_EPS0">     23.13660047</i>
   <i name="MODEL_ALPHA">      1.00000000</i>
  </separator>
  <separator name="linear response parameters" >
   <i type="logical" name="LEPSILON"> F  </i>
   <i type="logical" name="LRPA"> F  </i>
   <i type="logical" name="LNABLA"> F  </i>
   <i type="logical" name="LVEL"> F  </i>
   <i type="int" name="KINTER">     0</i>
   <i name="CSHIFT">      0.10000000</i>
   <i name="OMEGAMAX">     -1.00000000</i>
   <i name="DEG_THRESHOLD">      0.00200000</i>
  </separator>
  <separator name="orbital magnetization" >
   <i type="logical" name="NUCIND"> F  </i>
   <v name="MAGPOS">      0.00000000      0.00000000      0.00000000</v>
   <i type="logical" name="LNICSALL"> T  </i>
   <i type="logical" name="ORBITALMAG"> F  </i>
   <i type="logical" name="LMAGBLOCH"> F  </i>
   <i type="logical" name="LCHIMAG"> F  </i>
   <i type="logical" name="LGAUGE"> T  </i>
   <i type="int" name="MAGATOM">     0</i>
   <v name="MAGDIPOL">      0.00000000      0.00000000      0.00000000</v>
   <v name="AVECCONST">      0.00000000      0.00000000      0.00000000</v>
  </separator>
  <separator name="response functions" >
   <i type="logical" name="LADDER"> F  </i>
   <i type="logical" name="LFXC"> F  </i>
   <i type="logical" name="LHARTREE"> T  </i>
   <i type="int" name="IBSE">     0</i>
   <v type="int" name="KPOINT">    -1     0     0     0</v>
   <i type="logical" name="LTCTE"> F  </i>
   <i type="logical" name="LTETE"> F  </i>
   <i type="logical" name="LTRIPLET"> F  </i>
   <i type="logical" name="LFXCEPS"> F  </i>
   <i type="logical" name="LFXHEG"> F  </i>
   <i type="int" name="NATURALO">     0</i>
   <i type="logical" name="L2ORDER"> F  </i>
   <i type="logical" name="LUSEW"> F  </i>
   <i name="ENCUTGW">     -2.00000000</i>
   <i name="ENCUTGWSOFT">     -2.00000000</i>
   <i name="ENCUTLF">     -1.00000000</i>
   <i type="int" name="LMAXMP2">    -1</i>
   <i name="SCISSOR">      0.00000000</i>
   <i type="int" name="NOMEGA">     0</i>
   <i type="int" name="NOMEGAR">     0</i>
   <i type="int" name="NBANDSGW">    -1</i>
   <i type="int" name="NBANDSO">    -1</i>
   <i type="int" name="NBANDSV">    -1</i>
   <i type="int" name="NELM">   250</i>
   <i type="int" name="NELMHF">     1</i>
   <i type="int" name="DIM">     3</i>
   <i type="int" name="ANTIRES">     0</i>
   <i name="OMEGAMAX">    -30.00000000</i>
   <i name="OMEGAMIN">    -30.00000000</i>
   <i name="OMEGATL">   -200.00000000</i>
   <i type="int" name="OMEGAGRID">     0</i>
   <i name="CSHIFT">     -0.10000000</i>
   <i type="logical" name="SELFENERGY"> F  </i>
   <i type="logical" name="LSPECTRAL"> F  </i>
   <i type="logical" name="LSPECTRALGW"> F  </i>
   <i type="logical" name="LSINGLES"> F  </i>
   <i type="logical" name="LFERMIGW"> F  </i>
   <i type="logical" name="ODDONLYGW"> F  </i>
   <i type="logical" name="EVENONLYGW"> F  </i>
   <i type="int" name="NKREDLFX">     1</i>
   <i type="int" name="NKREDLFY">     1</i>
   <i type="int" name="NKREDLFZ">     1</i>
   <i type="int" name="MAXMEM">  1800</i>
   <i type="int" name="TELESCOPE">     0</i>
   <i type="int" name="TAUPAR">     1</i>
   <i type="int" name="OMEGAPAR">    -1</i>
   <i name="LAMBDA">      1.00000000</i>
  </separator>
  <separator name="External order field" >
   <i name="OFIELD_KAPPA">      0.00000000</i>
   <v name="OFIELD_K">      0.00000000      0.00000000      0.00000000</v>
   <i name="OFIELD_Q6_NEAR">      0.00000000</i>
   <i name="OFIELD_Q6_FAR">      0.00000000</i>
   <i name="OFIELD_A">      0.00000000</i>
  </separator>
 </parameters>
 <atominfo>
  <atoms>       2 </atoms>
  <types>       1 </types>
  <array name="atoms" >
   <dimension dim="1">ion</dimension>
   <field type="string">element</field>
   <field type="int">atomtype</field>
   <set>
    <rc><c>C </c><c>   1</c></rc>
    <rc><c>C </c><c>   1</c></rc>
   </set>
  </array>
  <array name="atomtypes" >
   <dimension dim="1">type</dimension>
   <field type="int">atomspertype</field>
   <field type="string">element</field>
   <field>mass</field>
   <field>valence</field>
   <field type="string">pseudopotential</field>
   <set>
    <rc><c>   2</c><c>C </c><c>     12.01100000</c><c>      4.00000000</c><c>  PAW_PBE C 08Apr2002                   </c></rc>
   </set>
  </array>
 </atominfo>
 <structure name="initialpos" >
  <crystal>
   <varray name="basis" >
    <v>       2.40552100       0.00000000       0.00000000 </v>
    <v>      -1.20276000       2.13736100       0.00000000 </v>
    <v>       0.00000000       0.00000000      15.00000000 </v>
   </varray>
   <i name="volume">     77.12200155 </i>
   <varray name="rec_basis" >
    <v>       0.41571036       0.23393324       0.00000000 </v>
    <v>       0.00000000       0.46786668       0.00000000 </v>
    <v>       0.00000000       0.00000000       0.06666667 </v>
   </varray>
  </crystal>
  <varray name="positions" >
   <v>       0.00042228       0.00084456       0.50000000 </v>
   <v>       0.33291072       0.66582244       0.50000000 </v>
  </varray>
 </structure>
 <calculation>
  <scstep>
   <time name="dav">    0.85    0.85</time>
   <time name="total">    0.86    0.87</time>
   <energy>
    <i name="alphaZ">      4.26061121 </i>
    <i name="ewald">    863.55440202 </i>
    <i name="hartreedc">  -1080.48584572 </i>
    <i name="XCdc">     26.52264882 </i>
    <i name="pawpsdc">    217.04409276 </i>
    <i name="pawaedc">   -218.18290438 </i>
    <i name="eentropy">     -0.00012117 </i>
    <i name="bandstr">    -72.09605695 </i>
    <i name="atom">    294.29778662 </i>
    <i name="e_fr_energy">     34.91461322 </i>
    <i name="e_wo_entrp">     34.91473439 </i>
    <i name="e_0_energy">     34.91467380 </i>
   </energy>
  </scstep>
  <scstep>
   <time name="dav">    1.12    1.12</time>
   <time name="total">    1.12    1.12</time>
   <energy>
    <i name="e_fr_energy">    -18.17058527 </i>
    <i name="e_wo_entrp">    -18.17058527 </i>
    <i name="e_0_energy">    -18.17058527 </i>
   </energy>
  </scstep>
  <scstep>
   <time name="dav">    1.32    1.32</time>
   <time name="total">    1.32    1.32</time>
   <energy>
    <i name="e_fr_energy">    -19.82903846 </i>
    <i name="e_wo_entrp">    -19.82903846 </i>
    <i name="e_0_energy">    -19.82903846 </i>
   </energy>
  </scstep>
  <scstep>
   <time name="dav">    1.21    1.21</time>
   <time name="total">    1.21    1.22</time>
   <energy>
    <i name="e_fr_energy">    -19.83494785 </i>
    <i name="e_wo_entrp">    -19.83494785 </i>
    <i name="e_0_energy">    -19.83494785 </i>
   </energy>
  </scstep>
  <scstep>
   <time name="dav">    1.24    1.24</time>
   <time name="total">    1.27    1.28</time>
   <energy>
    <i name="e_fr_energy">    -19.83495423 </i>
    <i name="e_wo_entrp">    -19.83495423 </i>
    <i name="e_0_energy">    -19.83495423 </i>
   </energy>
  </scstep>
  <scstep>
   <time name="dav">    1.07    1.07</time>
   <time name="total">    1.10    1.11</time>
   <energy>
    <i name="e_fr_energy">    -18.81312163 </i>
    <i name="e_wo_entrp">    -18.81312163 </i>
    <i name="e_0_energy">    -18.81312163 </i>
   </energy>
  </scstep>
  <scstep>
   <time name="dav">    1.23    1.24</time>
   <time name="total">    1.27    1.27</time>
   <energy>
    <i name="e_fr_energy">    -18.42084606 </i>
    <i name="e_wo_entrp">    -18.42084606 </i>
    <i name="e_0_energy">    -18.42084606 </i>
   </energy>
  </scstep>
  <scstep>
   <time name="dav">    1.20    1.20</time>
   <time name="total">    1.23    1.23</time>
   <energy>
    <i name="e_fr_energy">    -18.41228068 </i>
    <i name="e_wo_entrp">    -18.41228068 </i>
    <i name="e_0_energy">    -18.41228068 </i>
   </energy>
  </scstep>
  <scstep>
   <time name="dav">    1.11    1.11</time>
   <time name="total">    1.14    1.14</time>
   <energy>
    <i name="e_fr_energy">    -18.41023121 </i>
    <i name="e_wo_entrp">    -18.41023121 </i>
    <i name="e_0_energy">    -18.41023121 </i>
   </energy>
  </scstep>
  <scstep>
   <time name="dav">    0.99    0.99</time>
   <time name="total">    1.03    1.03</time>
   <energy>
    <i name="e_fr_energy">    -18.40834059 </i>
    <i name="e_wo_entrp">    -18.40834059 </i>
    <i name="e_0_energy">    -18.40834059 </i>
   </energy>
  </scstep>
  <scstep>
   <time name="dav">    0.91    0.91</time>
   <time name="total">    0.94    0.94</time>
   <energy>
    <i name="e_fr_energy">    -18.40852356 </i>
    <i name="e_wo_entrp">    -18.40852356 </i>
    <i name="e_0_energy">    -18.40852356 </i>
   </energy>
  </scstep>
  <scstep>
   <time name="dav">    0.97    0.97</time>
   <time name="total">    1.00    1.00</time>
   <energy>
    <i name="e_fr_energy">    -18.40880606 </i>
    <i name="e_wo_entrp">    -18.40880606 </i>
    <i name="e_0_energy">    -18.40880606 </i>
   </energy>
  </scstep>
  <scstep>
   <time name="dav">    0.95    0.95</time>
   <time name="total">    0.99    0.99</time>
   <energy>
    <i name="e_fr_energy">    -18.40955752 </i>
    <i name="e_wo_entrp">    -18.40955752 </i>
    <i name="e_0_energy">    -18.40955752 </i>
   </energy>
  </scstep>
  <scstep>
   <time name="dav">    1.12    1.12</time>
   <time name="total">    1.15    1.15</time>
   <energy>
    <i name="e_fr_energy">    -18.40961486 </i>
    <i name="e_wo_entrp">    -18.40961486 </i>
    <i name="e_0_energy">    -18.40961486 </i>
   </energy>
  </scstep>
  <scstep>
   <time name="dav">    0.90    0.90</time>
   <time name="total">    0.94    0.94</time>
   <energy>
    <i name="e_fr_energy">    -18.40972381 </i>
    <i name="e_wo_entrp">    -18.40972381 </i>
    <i name="e_0_energy">    -18.40972381 </i>
   </energy>
  </scstep>
  <scstep>
   <time name="dav">    0.94    0.94</time>
   <time name="total">    0.97    0.97</time>
   <energy>
    <i name="e_fr_energy">    -18.40973422 </i>
    <i name="e_wo_entrp">    -18.40973422 </i>
    <i name="e_0_energy">    -18.40973422 </i>
   </energy>
  </scstep>
  <scstep>
   <time name="dav">    0.89    0.89</time>
   <time name="total">    0.89    0.89</time>
   <energy>
    <i name="alphaZ">      4.26061121 </i>
    <i name="ewald">    863.55440202 </i>
    <i name="hartreedc">  -1115.79296253 </i>
    <i name="XCdc">     27.76268463 </i>
    <i name="pawpsdc">    883.29217641 </i>
    <i name="pawaedc">   -884.67913904 </i>
    <i name="eentropy">     -0.00000000 </i>
    <i name="bandstr">    -91.10529634 </i>
    <i name="atom">    294.29778662 </i>
    <i name="e_fr_energy">    -18.40973702 </i>
    <i name="e_wo_entrp">    -18.40973702 </i>
    <i name="e_0_energy">    -18.40973702 </i>
   </energy>
  </scstep>
  <structure>
   <crystal>
    <varray name="basis" >
     <v>       2.40552100       0.00000000       0.00000000 </v>
     <v>      -1.20276000       2.13736100       0.00000000 </v>
     <v>       0.00000000       0.00000000      15.00000000 </v>
    </varray>
    <i name="volume">     77.12200155 </i>
    <varray name="rec_basis" >
     <v>       0.41571036       0.23393324       0.00000000 </v>
     <v>       0.00000000       0.46786668       0.00000000 </v>
     <v>       0.00000000       0.00000000       0.06666667 </v>
    </varray>
   </crystal>
   <varray name="positions" >
    <v>       0.00042228       0.00084456       0.50000000 </v>
    <v>       0.33291072       0.66582244       0.50000000 </v>
   </varray>
  </structure>
  <varray name="forces" >
   <v>       0.00000004       0.15045261       0.00000000 </v>
   <v>      -0.00000004      -0.15045261       0.00000000 </v>
  </varray>
  <varray name="stress" >
   <v>      64.48933920       0.00000257       0.00000000 </v>
   <v>       0.00000257      11.00385806       0.00000000 </v>
   <v>       0.00000000       0.00000000      -0.18335683 </v>
  </varray>
  <energy>
   <i name="e_fr_energy">    -18.40973702 </i>
   <i name="e_wo_entrp">    -18.40973702 </i>
   <i name="e_0_energy">     -0.00000000 </i>
  </energy>
  <time name="totalsc">   19.14   19.19</time>
  <eigenvalues>
   <array>
    <dimension dim="1">band</dimension>
    <dimension dim="2">kpoint</dimension>
    <dimension dim="3">spin</dimension>
    <field>eigene</field>
    <field>occ</field>
    <set>
     <set comment="spin 1">
      <set comment="kpoint 1">
       <r>  -21.9222    1.0000 </r>
       <r>   -9.9790    1.0000 </r>
       <r>   -5.2539    1.0000 </r>
       <r>   -5.0021    1.0000 </r>
       <r>    1.0278    0.0000 </r>
       <r>    1.9432    0.0000 </r>
       <r>    2.4366    0.0000 </r>
       <r>    4.3667    0.0000 </r>
       <r>    5.1075    0.0000 </r>
       <r>    6.1616    0.0000 </r>
       <r>    6.6753    0.0000 </r>
       <r>    8.2499    0.0000 </r>
      </set>
      <set comment="kpoint 2">
       <r>  -21.8831    1.0000 </r>
       <r>   -9.9319    1.0000 </r>
       <r>   -5.3563    1.0000 </r>
       <r>   -5.1434    1.0000 </r>
       <r>    1.0811    0.0000 </r>
       <r>    1.9970    0.0000 </r>
       <r>    2.4909    0.0000 </r>
       <r>    4.4202    0.0000 </r>
       <r>    5.1598    0.0000 </r>
       <r>    6.2850    0.0000 </r>
       <r>    6.7298    0.0000 </r>
       <r>    8.3020    0.0000 </r>
      </set>
      <set comment="kpoint 3">
       <r>  -21.7657    1.0000 </r>
       <r>   -9.7906    1.0000 </r>
       <r>   -5.7044    1.0000 </r>
       <r>   -5.4884    1.0000 </r>
       <r>    1.2410    0.0000 </r>
       <r>    2.1583    0.0000 </r>
       <r>    2.6538    0.0000 </r>
       <r>    4.5806    0.0000 </r>
       <r>    5.3167    0.0000 </r>
       <r>    6.4621    0.0000 </r>
       <r>    7.0522    0.0000 </r>
       <r>    8.4578    0.0000 </r>
      </set>
      <set comment="kpoint 4">
       <r>  -21.5703    1.0000 </r>
       <r>   -9.5561    1.0000 </r>
       <r>   -6.3543    1.0000 </r>
       <r>   -5.8863    1.0000 </r>
       <r>    1.5075    0.0000 </r>
       <r>    2.4269    0.0000 </r>
       <r>    2.9253    0.0000 </r>
       <r>    4.8476    0.0000 </r>
       <r>    5.5763    0.0000 </r>
       <r>    6.4798    0.0000 </r>
       <r>    7.7821    0.0000 </r>
       <r>    8.5624    0.0000 </r>
      </set>
      <set comment="kpoint 5">
       <r>  -21.2975    1.0000 </r>
       <r>   -9.2299    1.0000 </r>
       <r>   -7.2060    1.0000 </r>
       <r>   -6.3248    1.0000 </r>
       <r>    1.8804    0.0000 </r>
       <r>    2.8024    0.0000 </r>
       <r>    3.3053    0.0000 </r>
       <r>    5.2203    0.0000 </r>
       <r>    5.9256    0.0000 </r>
       <r>    6.4209    0.0000 </r>
       <r>    7.7426    0.0000 </r>
       <r>    9.0786    0.0000 </r>
      </set>
      <set comment="kpoint 6">
       <r>  -20.9479    1.0000 </r>
       <r>   -8.8142    1.0000 </r>
       <r>   -8.1809    1.0000 </r>
       <r>   -6.7812    1.0000 </r>
       <r>    2.3595    0.0000 </r>
       <r>    3.2835    0.0000 </r>
       <r>    3.7938    0.0000 </r>
       <r>    5.6945    0.0000 </r>
       <r>    6.1631    0.0000 </r>
       <r>    6.5244    0.0000 </r>
       <r>    6.7814    0.0000 </r>
       <r>    9.5403    0.0000 </r>
      </set>
      <set comment="kpoint 7">
       <r>  -20.5224    1.0000 </r>
       <r>   -9.2275    1.0000 </r>
       <r>   -8.3126    1.0000 </r>
       <r>   -7.2262    1.0000 </r>
       <r>    2.9442    0.0000 </r>
       <r>    3.8659    0.0000 </r>
       <r>    4.3902    0.0000 </r>
       <r>    5.6853    0.0000 </r>
       <r>    6.0461    0.0000 </r>
       <r>    6.3099    0.0000 </r>
       <r>    7.0585    0.0000 </r>
       <r>   10.0990    0.0000 </r>
      </set>
      <set comment="kpoint 8">
       <r>  -20.0225    1.0000 </r>
       <r>  -10.3085    1.0000 </r>
       <r>   -7.7308    1.0000 </r>
       <r>   -7.6372    1.0000 </r>
       <r>    3.6334    0.0000 </r>
       <r>    4.3870    0.0000 </r>
       <r>    4.7360    0.0000 </r>
       <r>    5.0923    0.0000 </r>
       <r>    5.8823    0.0000 </r>
       <r>    6.9856    0.0000 </r>
       <r>    7.7402    0.0000 </r>
       <r>   10.7491    0.0000 </r>
      </set>
      <set comment="kpoint 9">
       <r>  -19.4499    1.0000 </r>
       <r>  -11.3960    1.0000 </r>
       <r>   -7.9979    1.0000 </r>
       <r>   -7.0781    1.0000 </r>
       <r>    3.3685    0.0000 </r>
       <r>    4.4239    0.0000 </r>
       <r>    5.3947    0.0000 </r>
       <r>    5.6871    0.0000 </r>
       <r>    5.9404    0.0000 </r>
       <r>    7.7757    0.0000 </r>
       <r>    8.5330    0.0000 </r>
       <r>   11.4787    0.0000 </r>
      </set>
      <set comment="kpoint 10">
       <r>  -18.8072    1.0000 </r>
       <r>  -12.4690    1.0000 </r>
       <r>   -8.2971    1.0000 </r>
       <r>   -6.3712    1.0000 </r>
       <r>    2.2317    0.0000 </r>
       <r>    5.2760    0.0000 </r>
       <r>    5.6085    0.0000 </r>
       <r>    6.2911    0.0000 </r>
       <r>    6.8416    0.0000 </r>
       <r>    8.6662    0.0000 </r>
       <r>    9.4314    0.0000 </r>
       <r>   12.2566    0.0000 </r>
      </set>
      <set comment="kpoint 11">
       <r>  -18.0989    1.0000 </r>
       <r>  -13.5099    1.0000 </r>
       <r>   -8.5272    1.0000 </r>
       <r>   -5.6431    1.0000 </r>
       <r>    1.1605    0.0000 </r>
       <r>    5.4148    0.0000 </r>
       <r>    6.3554    0.0000 </r>
       <r>    7.2926    0.0000 </r>
       <r>    7.8696    0.0000 </r>
       <r>    9.6497    0.0000 </r>
       <r>   10.4320    0.0000 </r>
       <r>   12.5785    0.0000 </r>
      </set>
      <set comment="kpoint 12">
       <r>  -17.3359    1.0000 </r>
       <r>  -14.4991    1.0000 </r>
       <r>   -8.6831    1.0000 </r>
       <r>   -4.9674    1.0000 </r>
       <r>    0.2473    0.0000 </r>
       <r>    5.3438    0.0000 </r>
       <r>    7.4451    0.0000 </r>
       <r>    8.3899    0.0000 </r>
       <r>    9.0061    0.0000 </r>
       <r>   10.7044    0.0000 </r>
       <r>   11.2441    0.0000 </r>
       <r>   11.5356    0.0000 </r>
      </set>
      <set comment="kpoint 13">
       <r>  -16.5796    1.0000 </r>
       <r>  -15.3698    1.0000 </r>
       <r>   -8.7617    1.0000 </r>
       <r>   -4.5103    1.0000 </r>
       <r>   -0.3310    0.0000 </r>
       <r>    5.3047    0.0000 </r>
       <r>    8.6333    0.0000 </r>
       <r>    9.5659    0.0000 </r>
       <r>    9.9133    0.0000 </r>
       <r>   10.2512    0.0000 </r>
       <r>   10.8269    0.0000 </r>
       <r>   11.5969    0.0000 </r>
      </set>
      <set comment="kpoint 14">
       <r>  -21.8814    1.0000 </r>
       <r>   -9.9299    1.0000 </r>
       <r>   -5.4329    1.0000 </r>
       <r>   -5.0880    1.0000 </r>
       <r>    1.0832    0.0000 </r>
       <r>    1.9994    0.0000 </r>
       <r>    2.4932    0.0000 </r>
       <r>    4.4225    0.0000 </r>
       <r>    5.1612    0.0000 </r>
       <r>    6.2345    0.0000 </r>
       <r>    6.8509    0.0000 </r>
       <r>    8.3040    0.0000 </r>
      </set>
      <set comment="kpoint 15">
       <r>  -21.8031    1.0000 </r>
       <r>   -9.8358    1.0000 </r>
       <r>   -5.7005    1.0000 </r>
       <r>   -5.2979    1.0000 </r>
       <r>    1.1898    0.0000 </r>
       <r>    2.1070    0.0000 </r>
       <r>    2.6019    0.0000 </r>
       <r>    4.5295    0.0000 </r>
       <r>    5.2654    0.0000 </r>
       <r>    6.3753    0.0000 </r>
       <r>    7.1045    0.0000 </r>
       <r>    8.4076    0.0000 </r>
      </set>
      <set comment="kpoint 16">
       <r>  -21.6467    1.0000 </r>
       <r>   -9.6479    1.0000 </r>
       <r>   -6.1685    1.0000 </r>
       <r>   -5.7079    1.0000 </r>
       <r>    1.4030    0.0000 </r>
       <r>    2.3220    0.0000 </r>
       <r>    2.8191    0.0000 </r>
       <r>    4.7432    0.0000 </r>
       <r>    5.4740    0.0000 </r>
       <r>    6.5282    0.0000 </r>
       <r>    7.6199    0.0000 </r>
       <r>    8.6143    0.0000 </r>
      </set>
      <set comment="kpoint 17">
       <r>  -21.4127    1.0000 </r>
       <r>   -9.3676    1.0000 </r>
       <r>   -6.8522    1.0000 </r>
       <r>   -6.1987    1.0000 </r>
       <r>    1.7228    0.0000 </r>
       <r>    2.6442    0.0000 </r>
       <r>    3.1450    0.0000 </r>
       <r>    5.0633    0.0000 </r>
       <r>    5.7838    0.0000 </r>
       <r>    6.5754    0.0000 </r>
       <r>    8.0542    0.0000 </r>
       <r>    8.4400    0.0000 </r>
      </set>
      <set comment="kpoint 18">
       <r>  -21.1015    1.0000 </r>
       <r>   -8.9965    1.0000 </r>
       <r>   -7.7204    1.0000 </r>
       <r>   -6.6941    1.0000 </r>
       <r>    2.1489    0.0000 </r>
       <r>    3.0728    0.0000 </r>
       <r>    3.5794    0.0000 </r>
       <r>    5.4883    0.0000 </r>
       <r>    6.1654    0.0000 </r>
       <r>    6.5551    0.0000 </r>
       <r>    7.1703    0.0000 </r>
       <r>    9.3348    0.0000 </r>
      </set>
      <set comment="kpoint 19">
       <r>  -20.7141    1.0000 </r>
       <r>   -8.7071    1.0000 </r>
       <r>   -8.5377    1.0000 </r>
       <r>   -7.1688    1.0000 </r>
       <r>    2.6810    0.0000 </r>
       <r>    3.6059    0.0000 </r>
       <r>    4.1222    0.0000 </r>
       <r>    5.9821    0.0000 </r>
       <r>    6.2034    0.0000 </r>
       <r>    6.2991    0.0000 </r>
       <r>    6.8226    0.0000 </r>
       <r>    9.8431    0.0000 </r>
      </set>
      <set comment="kpoint 20">
       <r>  -20.2516    1.0000 </r>
       <r>   -9.7584    1.0000 </r>
       <r>   -7.9955    1.0000 </r>
       <r>   -7.6070    1.0000 </r>
       <r>    3.3183    0.0000 </r>
       <r>    4.2287    0.0000 </r>
       <r>    4.7725    0.0000 </r>
       <r>    5.0823    0.0000 </r>
       <r>    6.1663    0.0000 </r>
       <r>    6.6676    0.0000 </r>
       <r>    7.4304    0.0000 </r>
       <r>   10.4444    0.0000 </r>
      </set>
      <set comment="kpoint 21">
       <r>  -19.7156    1.0000 </r>
       <r>  -10.8362    1.0000 </r>
       <r>   -7.9951    1.0000 </r>
       <r>   -7.3772    1.0000 </r>
       <r>    3.8943    0.0000 </r>
       <r>    4.0591    0.0000 </r>
       <r>    5.0287    0.0000 </r>
       <r>    5.5243    0.0000 </r>
       <r>    6.0114    0.0000 </r>
       <r>    7.4050    0.0000 </r>
       <r>    8.1666    0.0000 </r>
       <r>   11.1287    0.0000 </r>
      </set>
      <set comment="kpoint 22">
       <r>  -19.1081    1.0000 </r>
       <r>  -11.9132    1.0000 </r>
       <r>   -8.3226    1.0000 </r>
       <r>   -6.6949    1.0000 </r>
       <r>    2.7640    0.0000 </r>
       <r>    4.8973    0.0000 </r>
       <r>    5.8376    0.0000 </r>
       <r>    5.8662    0.0000 </r>
       <r>    6.4165    0.0000 </r>
       <r>    8.2443    0.0000 </r>
       <r>    9.0115    0.0000 </r>
       <r>   11.8729    0.0000 </r>
      </set>
      <set comment="kpoint 23">
       <r>  -18.4328    1.0000 </r>
       <r>  -12.9689    1.0000 </r>
       <r>   -8.5822    1.0000 </r>
       <r>   -5.9716    1.0000 </r>
       <r>    1.6609    0.0000 </r>
       <r>    5.6204    0.0000 </r>
       <r>    5.9346    0.0000 </r>
       <r>    6.8157    0.0000 </r>
       <r>    7.3859    0.0000 </r>
       <r>    9.1788    0.0000 </r>
       <r>    9.9604    0.0000 </r>
       <r>   12.5940    0.0000 </r>
      </set>
      <set comment="kpoint 24">
       <r>  -17.6960    1.0000 </r>
       <r>  -13.9851    1.0000 </r>
       <r>   -8.7684    1.0000 </r>
       <r>   -5.2556    1.0000 </r>
       <r>    0.6605    0.0000 </r>
       <r>    5.5729    0.0000 </r>
       <r>    6.9284    0.0000 </r>
       <r>    7.8635    0.0000 </r>
       <r>    8.4681    0.0000 </r>
       <r>   10.1950    0.0000 </r>
       <r>   11.0084    0.0000 </r>
       <r>   11.9630    0.0000 </r>
      </set>
      <set comment="kpoint 25">
       <r>  -16.9200    1.0000 </r>
       <r>  -14.9322    1.0000 </r>
       <r>   -8.8778    1.0000 </r>
       <r>   -4.6590    1.0000 </r>
       <r>   -0.1114    0.0000 </r>
       <r>    5.5114    0.0000 </r>
       <r>    8.0674    0.0000 </r>
       <r>    8.9978    0.0000 </r>
       <r>    9.6574    0.0000 </r>
       <r>   10.6167    0.0000 </r>
       <r>   11.1561    0.0000 </r>
       <r>   11.6593    0.0000 </r>
      </set>
      <set comment="kpoint 26">
       <r>  -16.3547    1.0000 </r>
       <r>  -15.5561    1.0000 </r>
       <r>   -8.9087    1.0000 </r>
       <r>   -4.4054    1.0000 </r>
       <r>   -0.4233    0.0000 </r>
       <r>    5.4861    0.0000 </r>
       <r>    9.2359    0.0000 </r>
       <r>    9.3690    0.0000 </r>
       <r>   10.0601    0.0000 </r>
       <r>   10.3705    0.0000 </r>
       <r>   10.9429    0.0000 </r>
       <r>   10.9624    0.0000 </r>
      </set>
      <set comment="kpoint 27">
       <r>  -16.9160    1.0000 </r>
       <r>  -14.9396    1.0000 </r>
       <r>   -8.8603    1.0000 </r>
       <r>   -4.6594    1.0000 </r>
       <r>   -0.1077    0.0000 </r>
       <r>    5.5004    0.0000 </r>
       <r>    8.0691    0.0000 </r>
       <r>    8.9977    0.0000 </r>
       <r>    9.6560    0.0000 </r>
       <r>   10.6018    0.0000 </r>
       <r>   11.1609    0.0000 </r>
       <r>   11.6600    0.0000 </r>
      </set>
      <set comment="kpoint 28">
       <r>  -17.6929    1.0000 </r>
       <r>  -13.9951    1.0000 </r>
       <r>   -8.7337    1.0000 </r>
       <r>   -5.2560    1.0000 </r>
       <r>    0.6677    0.0000 </r>
       <r>    5.5517    0.0000 </r>
       <r>    6.9275    0.0000 </r>
       <r>    7.8636    0.0000 </r>
       <r>    8.4664    0.0000 </r>
       <r>   10.1972    0.0000 </r>
       <r>   11.0102    0.0000 </r>
       <r>   11.9192    0.0000 </r>
      </set>
      <set comment="kpoint 29">
       <r>  -18.4306    1.0000 </r>
       <r>  -12.9816    1.0000 </r>
       <r>   -8.5309    1.0000 </r>
       <r>   -5.9718    1.0000 </r>
       <r>    1.6722    0.0000 </r>
       <r>    5.6011    0.0000 </r>
       <r>    5.9209    0.0000 </r>
       <r>    6.8159    0.0000 </r>
       <r>    7.3839    0.0000 </r>
       <r>    9.1803    0.0000 </r>
       <r>    9.9606    0.0000 </r>
       <r>   12.6141    0.0000 </r>
      </set>
      <set comment="kpoint 30">
       <r>  -19.1067    1.0000 </r>
       <r>  -11.9287    1.0000 </r>
       <r>   -8.2560    1.0000 </r>
       <r>   -6.6949    1.0000 </r>
       <r>    2.7801    0.0000 </r>
       <r>    4.8990    0.0000 </r>
       <r>    5.7951    0.0000 </r>
       <r>    5.8667    0.0000 </r>
       <r>    6.4132    0.0000 </r>
       <r>    8.2455    0.0000 </r>
       <r>    9.0107    0.0000 </r>
       <r>   11.8841    0.0000 </r>
      </set>
      <set comment="kpoint 31">
       <r>  -19.7146    1.0000 </r>
       <r>  -10.8543    1.0000 </r>
       <r>   -7.9153    1.0000 </r>
       <r>   -7.3771    1.0000 </r>
       <r>    3.9150    0.0000 </r>
       <r>    4.0599    0.0000 </r>
       <r>    5.0312    0.0000 </r>
       <r>    5.5233    0.0000 </r>
       <r>    5.9616    0.0000 </r>
       <r>    7.4061    0.0000 </r>
       <r>    8.1647    0.0000 </r>
       <r>   11.1356    0.0000 </r>
      </set>
      <set comment="kpoint 32">
       <r>  -20.2510    1.0000 </r>
       <r>   -9.7775    1.0000 </r>
       <r>   -7.9953    1.0000 </r>
       <r>   -7.5185    1.0000 </r>
       <r>    3.3187    0.0000 </r>
       <r>    4.2264    0.0000 </r>
       <r>    4.7718    0.0000 </r>
       <r>    5.1148    0.0000 </r>
       <r>    6.1166    0.0000 </r>
       <r>    6.6694    0.0000 </r>
       <r>    7.4268    0.0000 </r>
       <r>   10.4489    0.0000 </r>
      </set>
      <set comment="kpoint 33">
       <r>  -20.7138    1.0000 </r>
       <r>   -8.7230    1.0000 </r>
       <r>   -8.5375    1.0000 </r>
       <r>   -7.0797    1.0000 </r>
       <r>    2.6814    0.0000 </r>
       <r>    3.6047    0.0000 </r>
       <r>    4.1215    0.0000 </r>
       <r>    5.9809    0.0000 </r>
       <r>    6.2457    0.0000 </r>
       <r>    6.2638    0.0000 </r>
       <r>    6.8118    0.0000 </r>
       <r>    9.8461    0.0000 </r>
      </set>
      <set comment="kpoint 34">
       <r>  -21.1014    1.0000 </r>
       <r>   -8.9963    1.0000 </r>
       <r>   -7.7223    1.0000 </r>
       <r>   -6.6203    1.0000 </r>
       <r>    2.1492    0.0000 </r>
       <r>    3.0719    0.0000 </r>
       <r>    3.5789    0.0000 </r>
       <r>    5.4874    0.0000 </r>
       <r>    6.1703    0.0000 </r>
       <r>    6.5270    0.0000 </r>
       <r>    7.2185    0.0000 </r>
       <r>    8.9813    0.0000 </r>
      </set>
      <set comment="kpoint 35">
       <r>  -21.4127    1.0000 </r>
       <r>   -9.3674    1.0000 </r>
       <r>   -6.8154    1.0000 </r>
       <r>   -6.1712    1.0000 </r>
       <r>    1.7231    0.0000 </r>
       <r>    2.6436    0.0000 </r>
       <r>    3.1446    0.0000 </r>
       <r>    5.0628    0.0000 </r>
       <r>    5.7883    0.0000 </r>
       <r>    6.6000    0.0000 </r>
       <r>    7.9904    0.0000 </r>
       <r>    8.1042    0.0000 </r>
      </set>
      <set comment="kpoint 36">
       <r>  -21.6468    1.0000 </r>
       <r>   -9.6478    1.0000 </r>
       <r>   -6.0501    1.0000 </r>
       <r>   -5.7760    1.0000 </r>
       <r>    1.4033    0.0000 </r>
       <r>    2.3216    0.0000 </r>
       <r>    2.8189    0.0000 </r>
       <r>    4.7429    0.0000 </r>
       <r>    5.4773    0.0000 </r>
       <r>    6.6602    0.0000 </r>
       <r>    7.1833    0.0000 </r>
       <r>    8.6152    0.0000 </r>
      </set>
      <set comment="kpoint 37">
       <r>  -21.8032    1.0000 </r>
       <r>   -9.8357    1.0000 </r>
       <r>   -5.4895    1.0000 </r>
       <r>   -5.4773    1.0000 </r>
       <r>    1.1900    0.0000 </r>
       <r>    2.1067    0.0000 </r>
       <r>    2.6017    0.0000 </r>
       <r>    4.5293    0.0000 </r>
       <r>    5.2675    0.0000 </r>
       <r>    6.5997    0.0000 </r>
       <r>    6.6975    0.0000 </r>
       <r>    8.4081    0.0000 </r>
      </set>
      <set comment="kpoint 38">
       <r>  -21.8814    1.0000 </r>
       <r>   -9.9299    1.0000 </r>
       <r>   -5.3638    1.0000 </r>
       <r>   -5.1464    1.0000 </r>
       <r>    1.0833    0.0000 </r>
       <r>    1.9993    0.0000 </r>
       <r>    2.4932    0.0000 </r>
       <r>    4.4224    0.0000 </r>
       <r>    5.1620    0.0000 </r>
       <r>    6.2863    0.0000 </r>
       <r>    6.7384    0.0000 </r>
       <r>    8.3041    0.0000 </r>
      </set>
      <set comment="kpoint 39">
       <r>  -21.7591    1.0000 </r>
       <r>   -9.7830    1.0000 </r>
       <r>   -5.9398    1.0000 </r>
       <r>   -5.3284    1.0000 </r>
       <r>    1.2496    0.0000 </r>
       <r>    2.1676    0.0000 </r>
       <r>    2.6631    0.0000 </r>
       <r>    4.5897    0.0000 </r>
       <r>    5.3232    0.0000 </r>
       <r>    6.4130    0.0000 </r>
       <r>    7.3593    0.0000 </r>
       <r>    8.4643    0.0000 </r>
      </set>
      <set comment="kpoint 40">
       <r>  -21.6418    1.0000 </r>
       <r>   -9.6423    1.0000 </r>
       <r>   -6.3270    1.0000 </r>
       <r>   -5.5984    1.0000 </r>
       <r>    1.4095    0.0000 </r>
       <r>    2.3289    0.0000 </r>
       <r>    2.8261    0.0000 </r>
       <r>    4.7500    0.0000 </r>
       <r>    5.4798    0.0000 </r>
       <r>    6.5723    0.0000 </r>
       <r>    7.7413    0.0000 </r>
       <r>    8.6036    0.0000 </r>
      </set>
      <set comment="kpoint 41">
       <r>  -21.4468    1.0000 </r>
       <r>   -9.4086    1.0000 </r>
       <r>   -6.8476    1.0000 </r>
       <r>   -6.0783    1.0000 </r>
       <r>    1.6762    0.0000 </r>
       <r>    2.5975    0.0000 </r>
       <r>    3.0978    0.0000 </r>
       <r>    5.0168    0.0000 </r>
       <r>    5.7417    0.0000 </r>
       <r>    6.7873    0.0000 </r>
       <r>    8.1151    0.0000 </r>
       <r>    8.2635    0.0000 </r>
      </set>
      <set comment="kpoint 42">
       <r>  -21.1744    1.0000 </r>
       <r>   -9.0834    1.0000 </r>
       <r>   -7.5042    1.0000 </r>
       <r>   -6.6668    1.0000 </r>
       <r>    2.0493    0.0000 </r>
       <r>    2.9729    0.0000 </r>
       <r>    3.4782    0.0000 </r>
       <r>    5.3895    0.0000 </r>
       <r>    6.1050    0.0000 </r>
       <r>    6.9257    0.0000 </r>
       <r>    7.3390    0.0000 </r>
       <r>    9.2369    0.0000 </r>
      </set>
      <set comment="kpoint 43">
       <r>  -20.8255    1.0000 </r>
       <r>   -8.6691    1.0000 </r>
       <r>   -8.3173    1.0000 </r>
       <r>   -7.2460    1.0000 </r>
       <r>    2.5287    0.0000 </r>
       <r>    3.4542    0.0000 </r>
       <r>    3.9671    0.0000 </r>
       <r>    5.8659    0.0000 </r>
       <r>    6.4320    0.0000 </r>
       <r>    6.5404    0.0000 </r>
       <r>    6.9647    0.0000 </r>
       <r>    9.6912    0.0000 </r>
      </set>
      <set comment="kpoint 44">
       <r>  -20.4010    1.0000 </r>
       <r>   -9.2627    1.0000 </r>
       <r>   -8.1691    1.0000 </r>
       <r>   -7.7593    1.0000 </r>
       <r>    3.1138    0.0000 </r>
       <r>    4.0379    0.0000 </r>
       <r>    4.5642    0.0000 </r>
       <r>    5.4229    0.0000 </r>
       <r>    6.4538    0.0000 </r>
       <r>    6.7294    0.0000 </r>
       <r>    7.2604    0.0000 </r>
       <r>   10.2379    0.0000 </r>
      </set>
      <set comment="kpoint 45">
       <r>  -19.9024    1.0000 </r>
       <r>  -10.2845    1.0000 </r>
       <r>   -8.2006    1.0000 </r>
       <r>   -7.5890    1.0000 </r>
       <r>    3.8035    0.0000 </r>
       <r>    4.3096    0.0000 </r>
       <r>    4.7713    0.0000 </r>
       <r>    5.2687    0.0000 </r>
       <r>    6.6177    0.0000 </r>
       <r>    7.1383    0.0000 </r>
       <r>    7.9162    0.0000 </r>
       <r>   10.8657    0.0000 </r>
      </set>
      <set comment="kpoint 46">
       <r>  -19.3316    1.0000 </r>
       <r>  -11.3367    1.0000 </r>
       <r>   -8.5704    1.0000 </r>
       <r>   -6.9380    1.0000 </r>
       <r>    3.2278    0.0000 </r>
       <r>    4.5959    0.0000 </r>
       <r>    5.5440    0.0000 </r>
       <r>    6.0724    0.0000 </r>
       <r>    6.4779    0.0000 </r>
       <r>    7.9232    0.0000 </r>
       <r>    8.7033    0.0000 </r>
       <r>   11.5492    0.0000 </r>
      </set>
      <set comment="kpoint 47">
       <r>  -18.6913    1.0000 </r>
       <r>  -12.3880    1.0000 </r>
       <r>   -8.8673    1.0000 </r>
       <r>   -6.2320    1.0000 </r>
       <r>    2.1310    0.0000 </r>
       <r>    5.4833    0.0000 </r>
       <r>    6.3173    0.0000 </r>
       <r>    6.4394    0.0000 </r>
       <r>    7.0186    0.0000 </r>
       <r>    8.8018    0.0000 </r>
       <r>    9.5983    0.0000 </r>
       <r>   12.2143    0.0000 </r>
      </set>
      <set comment="kpoint 48">
       <r>  -17.9863    1.0000 </r>
       <r>  -13.4151    1.0000 </r>
       <r>   -9.0884    1.0000 </r>
       <r>   -5.5031    1.0000 </r>
       <r>    1.0907    0.0000 </r>
       <r>    6.1349    0.0000 </r>
       <r>    6.5455    0.0000 </r>
       <r>    7.4320    0.0000 </r>
       <r>    8.0432    0.0000 </r>
       <r>    9.7603    0.0000 </r>
       <r>   10.5947    0.0000 </r>
       <r>   12.5832    0.0000 </r>
      </set>
      <set comment="kpoint 49">
       <r>  -17.2276    1.0000 </r>
       <r>  -14.3953    1.0000 </r>
       <r>   -9.2315    1.0000 </r>
       <r>   -4.8232    1.0000 </r>
       <r>    0.1954    0.0000 </r>
       <r>    6.0779    0.0000 </r>
       <r>    7.6078    0.0000 </r>
       <r>    8.5095    0.0000 </r>
       <r>    9.1783    0.0000 </r>
       <r>   10.7439    0.0000 </r>
       <r>   11.3809    0.0000 </r>
       <r>   11.6931    0.0000 </r>
      </set>
      <set comment="kpoint 50">
       <r>  -16.4764    1.0000 </r>
       <r>  -15.2608    1.0000 </r>
       <r>   -9.2951    1.0000 </r>
       <r>   -4.3594    1.0000 </r>
       <r>   -0.3771    0.0000 </r>
       <r>    6.0303    0.0000 </r>
       <r>    8.7855    0.0000 </r>
       <r>    9.6301    0.0000 </r>
       <r>   10.0674    0.0000 </r>
       <r>   10.4214    0.0000 </r>
       <r>   10.8525    0.0000 </r>
       <r>   11.7634    0.0000 </r>
      </set>
      <set comment="kpoint 51">
       <r>  -16.4686    1.0000 </r>
       <r>  -15.2722    1.0000 </r>
       <r>   -9.2784    1.0000 </r>
       <r>   -4.3600    1.0000 </r>
       <r>   -0.3733    0.0000 </r>
       <r>    6.0204    0.0000 </r>
       <r>    8.7930    0.0000 </r>
       <r>    9.6308    0.0000 </r>
       <r>   10.0468    0.0000 </r>
       <r>   10.4196    0.0000 </r>
       <r>   10.8570    0.0000 </r>
       <r>   11.7618    0.0000 </r>
      </set>
      <set comment="kpoint 52">
       <r>  -17.2202    1.0000 </r>
       <r>  -14.4137    1.0000 </r>
       <r>   -9.1816    1.0000 </r>
       <r>   -4.8240    1.0000 </r>
       <r>    0.2066    0.0000 </r>
       <r>    6.0490    0.0000 </r>
       <r>    7.6086    0.0000 </r>
       <r>    8.5105    0.0000 </r>
       <r>    9.1753    0.0000 </r>
       <r>   10.7527    0.0000 </r>
       <r>   11.3236    0.0000 </r>
       <r>   11.6991    0.0000 </r>
      </set>
      <set comment="kpoint 53">
       <r>  -17.9808    1.0000 </r>
       <r>  -13.4390    1.0000 </r>
       <r>   -9.0060    1.0000 </r>
       <r>   -5.5035    1.0000 </r>
       <r>    1.1097    0.0000 </r>
       <r>    6.0985    0.0000 </r>
       <r>    6.5320    0.0000 </r>
       <r>    7.4328    0.0000 </r>
       <r>    8.0394    0.0000 </r>
       <r>    9.7654    0.0000 </r>
       <r>   10.5966    0.0000 </r>
       <r>   12.4586    0.0000 </r>
      </set>
      <set comment="kpoint 54">
       <r>  -18.6876    1.0000 </r>
       <r>  -12.4178    1.0000 </r>
       <r>   -8.7543    1.0000 </r>
       <r>   -6.2320    1.0000 </r>
       <r>    2.1595    0.0000 </r>
       <r>    5.4873    0.0000 </r>
       <r>    6.2465    0.0000 </r>
       <r>    6.4401    0.0000 </r>
       <r>    7.0131    0.0000 </r>
       <r>    8.8051    0.0000 </r>
       <r>    9.5975    0.0000 </r>
       <r>   12.2517    0.0000 </r>
      </set>
      <set comment="kpoint 55">
       <r>  -19.3291    1.0000 </r>
       <r>  -11.3719    1.0000 </r>
       <r>   -8.4306    1.0000 </r>
       <r>   -6.9376    1.0000 </r>
       <r>    3.2678    0.0000 </r>
       <r>    4.5975    0.0000 </r>
       <r>    5.5455    0.0000 </r>
       <r>    6.0701    0.0000 </r>
       <r>    6.3925    0.0000 </r>
       <r>    7.9255    0.0000 </r>
       <r>    8.7003    0.0000 </r>
       <r>   11.5695    0.0000 </r>
      </set>
      <set comment="kpoint 56">
       <r>  -19.9009    1.0000 </r>
       <r>  -10.3219    1.0000 </r>
       <r>   -8.0415    1.0000 </r>
       <r>   -7.5885    1.0000 </r>
       <r>    3.8042    0.0000 </r>
       <r>    4.3522    0.0000 </r>
       <r>    4.7849    0.0000 </r>
       <r>    5.2671    0.0000 </r>
       <r>    6.5276    0.0000 </r>
       <r>    7.1403    0.0000 </r>
       <r>    7.9097    0.0000 </r>
       <r>   10.8773    0.0000 </r>
      </set>
      <set comment="kpoint 57">
       <r>  -20.4002    1.0000 </r>
       <r>   -9.2928    1.0000 </r>
       <r>   -8.1685    1.0000 </r>
       <r>   -7.5971    1.0000 </r>
       <r>    3.1142    0.0000 </r>
       <r>    4.0349    0.0000 </r>
       <r>    4.5627    0.0000 </r>
       <r>    5.4971    0.0000 </r>
       <r>    6.4571    0.0000 </r>
       <r>    6.6572    0.0000 </r>
       <r>    7.2401    0.0000 </r>
       <r>   10.2446    0.0000 </r>
      </set>
      <set comment="kpoint 58">
       <r>  -20.8251    1.0000 </r>
       <r>   -8.6684    1.0000 </r>
       <r>   -8.3161    1.0000 </r>
       <r>   -7.1135    1.0000 </r>
       <r>    2.5292    0.0000 </r>
       <r>    3.4524    0.0000 </r>
       <r>    3.9658    0.0000 </r>
       <r>    5.8629    0.0000 </r>
       <r>    6.5264    0.0000 </r>
       <r>    6.5441    0.0000 </r>
       <r>    6.8927    0.0000 </r>
       <r>    9.0158    0.0000 </r>
      </set>
      <set comment="kpoint 59">
       <r>  -21.1743    1.0000 </r>
       <r>   -9.0829    1.0000 </r>
       <r>   -7.4287    1.0000 </r>
       <r>   -6.6178    1.0000 </r>
       <r>    2.0498    0.0000 </r>
       <r>    2.9716    0.0000 </r>
       <r>    3.4772    0.0000 </r>
       <r>    5.3886    0.0000 </r>
       <r>    6.1114    0.0000 </r>
       <r>    6.9028    0.0000 </r>
       <r>    7.4407    0.0000 </r>
       <r>    8.1745    0.0000 </r>
      </set>
      <set comment="kpoint 60">
       <r>  -21.4468    1.0000 </r>
       <r>   -9.4081    1.0000 </r>
       <r>   -6.6682    1.0000 </r>
       <r>   -6.1543    1.0000 </r>
       <r>    1.6766    0.0000 </r>
       <r>    2.5966    0.0000 </r>
       <r>    3.0971    0.0000 </r>
       <r>    5.0162    0.0000 </r>
       <r>    5.7468    0.0000 </r>
       <r>    6.8251    0.0000 </r>
       <r>    7.5730    0.0000 </r>
       <r>    8.2159    0.0000 </r>
      </set>
      <set comment="kpoint 61">
       <r>  -21.6419    1.0000 </r>
       <r>   -9.6419    1.0000 </r>
       <r>   -6.0729    1.0000 </r>
       <r>   -5.7801    1.0000 </r>
       <r>    1.4099    0.0000 </r>
       <r>    2.3283    0.0000 </r>
       <r>    2.8257    0.0000 </r>
       <r>    4.7496    0.0000 </r>
       <r>    5.4836    0.0000 </r>
       <r>    6.6285    0.0000 </r>
       <r>    7.2428    0.0000 </r>
       <r>    8.6216    0.0000 </r>
      </set>
      <set comment="kpoint 62">
       <r>  -21.7592    1.0000 </r>
       <r>   -9.7828    1.0000 </r>
       <r>   -5.7330    1.0000 </r>
       <r>   -5.4986    1.0000 </r>
       <r>    1.2499    0.0000 </r>
       <r>    2.1673    0.0000 </r>
       <r>    2.6629    0.0000 </r>
       <r>    4.5895    0.0000 </r>
       <r>    5.3253    0.0000 </r>
       <r>    6.4583    0.0000 </r>
       <r>    7.0929    0.0000 </r>
       <r>    8.4664    0.0000 </r>
      </set>
      <set comment="kpoint 63">
       <r>  -21.7982    1.0000 </r>
[...]
       <r>   10.2749    0.0000 </r>
       <r>   11.3335    0.0000 </r>
       <r>   11.7132    0.0000 </r>
      </set>
      <set comment="kpoint 294">
       <r>  -17.5766    1.0000 </r>
       <r>  -13.2249    1.0000 </r>
       <r>  -10.6119    1.0000 </r>
       <r>   -5.0177    1.0000 </r>
       <r>    0.6692    0.0000 </r>
       <r>    7.1107    0.0000 </r>
       <r>    7.9076    0.0000 </r>
       <r>    8.6804    0.0000 </r>
       <r>    9.9208    0.0000 </r>
       <r>   10.0036    0.0000 </r>
       <r>   11.1865    0.0000 </r>
       <r>   11.6559    0.0000 </r>
      </set>
      <set comment="kpoint 295">
       <r>  -17.6077    1.0000 </r>
       <r>  -12.7225    1.0000 </r>
       <r>  -11.1627    1.0000 </r>
       <r>   -5.0181    1.0000 </r>
       <r>    0.8117    0.0000 </r>
       <r>    7.0573    0.0000 </r>
       <r>    7.8108    0.0000 </r>
       <r>    8.6258    0.0000 </r>
       <r>    9.8709    0.0000 </r>
       <r>   10.4947    0.0000 </r>
       <r>   11.1908    0.0000 </r>
       <r>   11.3385    0.0000 </r>
      </set>
      <set comment="kpoint 296">
       <r>  -17.5673    1.0000 </r>
       <r>  -12.7490    1.0000 </r>
       <r>  -11.1664    1.0000 </r>
       <r>   -4.9749    1.0000 </r>
       <r>    0.7921    0.0000 </r>
       <r>    7.1075    0.0000 </r>
       <r>    7.8571    0.0000 </r>
       <r>    8.6759    0.0000 </r>
       <r>    9.5312    0.0000 </r>
       <r>    9.9109    0.0000 </r>
       <r>   11.2002    0.0000 </r>
       <r>   11.6756    0.0000 </r>
      </set>
      <set comment="kpoint 297">
       <r>  -17.4551    1.0000 </r>
       <r>  -13.2853    1.0000 </r>
       <r>  -10.6460    1.0000 </r>
       <r>   -4.8901    1.0000 </r>
       <r>    0.6151    0.0000 </r>
       <r>    7.2580    0.0000 </r>
       <r>    8.0474    0.0000 </r>
       <r>    8.3718    0.0000 </r>
       <r>    8.8539    0.0000 </r>
       <r>   10.1232    0.0000 </r>
       <r>   11.3525    0.0000 </r>
       <r>   11.8532    0.0000 </r>
      </set>
      <set comment="kpoint 298">
       <r>  -17.2726    1.0000 </r>
       <r>  -13.9213    1.0000 </r>
       <r>  -10.0298    1.0000 </r>
       <r>   -4.7730    1.0000 </r>
       <r>    0.3334    0.0000 </r>
       <r>    7.2399    0.0000 </r>
       <r>    7.5791    0.0000 </r>
       <r>    8.3614    0.0000 </r>
       <r>    9.1162    0.0000 </r>
       <r>   10.4735    0.0000 </r>
       <r>   11.6086    0.0000 </r>
       <r>   11.9893    0.0000 </r>
      </set>
      <set comment="kpoint 299">
       <r>  -17.0243    1.0000 </r>
       <r>  -14.5387    1.0000 </r>
       <r>   -9.4671    1.0000 </r>
       <r>   -4.6418    1.0000 </r>
       <r>    0.0226    0.0000 </r>
       <r>    6.3644    0.0000 </r>
       <r>    7.9074    0.0000 </r>
       <r>    8.7772    0.0000 </r>
       <r>    9.4933    0.0000 </r>
       <r>   10.9000    0.0000 </r>
       <r>   11.1766    0.0000 </r>
       <r>   11.9866    0.0000 </r>
      </set>
      <set comment="kpoint 300">
       <r>  -16.7244    1.0000 </r>
       <r>  -15.0934    1.0000 </r>
       <r>   -9.0368    1.0000 </r>
       <r>   -4.5241    1.0000 </r>
       <r>   -0.2413    0.0000 </r>
       <r>    5.6995    0.0000 </r>
       <r>    8.3724    0.0000 </r>
       <r>    9.2809    0.0000 </r>
       <r>    9.9781    0.0000 </r>
       <r>   10.3655    0.0000 </r>
       <r>   11.0970    0.0000 </r>
       <r>   11.7113    0.0000 </r>
      </set>
      <set comment="kpoint 301">
       <r>  -16.4382    1.0000 </r>
       <r>  -15.5092    1.0000 </r>
       <r>   -8.8020    1.0000 </r>
       <r>   -4.4530    1.0000 </r>
       <r>   -0.3932    0.0000 </r>
       <r>    5.3451    0.0000 </r>
       <r>    8.9370    0.0000 </r>
       <r>    9.6152    0.0000 </r>
       <r>    9.8522    0.0000 </r>
       <r>   10.5502    0.0000 </r>
       <r>   10.5739    0.0000 </r>
       <r>   11.2740    0.0000 </r>
      </set>
     </set>
    </set>
   </array>
  </eigenvalues>
  <separator name="orbital magnetization" >
   <v name="MAGDIPOLOUT">      0.00000000      0.00000000      0.00000000</v>
  </separator>
  <dos>
   <i name="efermi">     -2.35254944 </i>
   <total>
    <array>
     <dimension dim="1">gridpoints</dimension>
     <dimension dim="2">spin</dimension>
     <field>energy</field>
     <field>total</field>
     <field>integrated</field>
     <set>
      <set comment="spin 1">
       <r>   -23.7059     0.0000     0.0000 </r>
       <r>   -23.5751     0.0000     0.0000 </r>
       <r>   -23.4443     0.0000     0.0000 </r>
       <r>   -23.3135     0.0000     0.0000 </r>
       <r>   -23.1827     0.0000     0.0000 </r>
       <r>   -23.0519     0.0000     0.0000 </r>
       <r>   -22.9211     0.0000     0.0000 </r>
       <r>   -22.7903     0.0000     0.0000 </r>
       <r>   -22.6595     0.0000     0.0000 </r>
       <r>   -22.5287     0.0000     0.0000 </r>
       <r>   -22.3979     0.0000     0.0000 </r>
       <r>   -22.2671     0.0000     0.0000 </r>
       <r>   -22.1363     0.0000     0.0000 </r>
       <r>   -22.0055     0.0000     0.0000 </r>
       <r>   -21.8747     0.1320     0.0173 </r>
       <r>   -21.7439     0.3347     0.0611 </r>
       <r>   -21.6131     0.3129     0.1020 </r>
       <r>   -21.4823     0.1629     0.1234 </r>
       <r>   -21.3515     0.4576     0.1833 </r>
       <r>   -21.2207     0.1529     0.2033 </r>
       <r>   -21.0899     0.4084     0.2568 </r>
       <r>   -20.9591     0.2141     0.2848 </r>
       <r>   -20.8283     0.2964     0.3235 </r>
       <r>   -20.6975     0.4001     0.3759 </r>
       <r>   -20.5667     0.2100     0.4033 </r>
       <r>   -20.4359     0.3507     0.4492 </r>
       <r>   -20.3051     0.4074     0.5027 </r>
       <r>   -20.1743     0.2557     0.5362 </r>
       <r>   -20.0435     0.0898     0.5479 </r>
       <r>   -19.9127     0.5729     0.6229 </r>
       <r>   -19.7819     0.3048     0.6629 </r>
       <r>   -19.6511     0.1287     0.6797 </r>
       <r>   -19.5203     0.3420     0.7245 </r>
       <r>   -19.3894     0.4031     0.7772 </r>
       <r>   -19.2586     0.3595     0.8242 </r>
       <r>   -19.1278     0.1537     0.8443 </r>
       <r>   -18.9970     0.2590     0.8782 </r>
       <r>   -18.8662     0.4616     0.9386 </r>
       <r>   -18.7354     0.3377     0.9827 </r>
       <r>   -18.6046     0.2992     1.0219 </r>
       <r>   -18.4738     0.1642     1.0434 </r>
       <r>   -18.3430     0.3474     1.0888 </r>
       <r>   -18.2122     0.4890     1.1528 </r>
       <r>   -18.0814     0.3288     1.1958 </r>
       <r>   -17.9506     0.2756     1.2319 </r>
       <r>   -17.8198     0.1901     1.2569 </r>
       <r>   -17.6890     0.3993     1.3091 </r>
       <r>   -17.5582     0.4558     1.3688 </r>
       <r>   -17.4274     0.3648     1.4167 </r>
       <r>   -17.2966     0.1995     1.4428 </r>
       <r>   -17.1658     0.2377     1.4739 </r>
       <r>   -17.0350     0.3922     1.5252 </r>
       <r>   -16.9042     0.4234     1.5806 </r>
       <r>   -16.7734     0.4462     1.6390 </r>
       <r>   -16.6426     0.4570     1.6988 </r>
       <r>   -16.5118     0.1137     1.7137 </r>
       <r>   -16.3810     0.2998     1.7529 </r>
       <r>   -16.2502     0.5450     1.8242 </r>
       <r>   -16.1194     0.4347     1.8811 </r>
       <r>   -15.9886     0.0937     1.8935 </r>
       <r>   -15.8578     0.0905     1.9053 </r>
       <r>   -15.7270     0.0783     1.9156 </r>
       <r>   -15.5962     0.3557     1.9621 </r>
       <r>   -15.4654     0.2549     1.9955 </r>
       <r>   -15.3346     0.3437     2.0404 </r>
       <r>   -15.2038     0.1953     2.0660 </r>
       <r>   -15.0730     0.3322     2.1095 </r>
       <r>   -14.9422     0.4338     2.1663 </r>
       <r>   -14.8114     0.2767     2.2025 </r>
       <r>   -14.6806     0.4144     2.2567 </r>
       <r>   -14.5498     0.3523     2.3029 </r>
       <r>   -14.4190     0.4589     2.3631 </r>
       <r>   -14.2882     0.3265     2.4058 </r>
       <r>   -14.1574     0.3418     2.4505 </r>
       <r>   -14.0266     0.4040     2.5034 </r>
       <r>   -13.8958     0.2984     2.5425 </r>
       <r>   -13.7650     0.3804     2.5922 </r>
       <r>   -13.6342     0.2346     2.6230 </r>
       <r>   -13.5034     0.4071     2.6762 </r>
       <r>   -13.3726     0.2180     2.7047 </r>
       <r>   -13.2418     0.2274     2.7345 </r>
       <r>   -13.1110     0.3528     2.7806 </r>
       <r>   -12.9802     0.2732     2.8164 </r>
       <r>   -12.8494     0.3382     2.8606 </r>
       <r>   -12.7186     0.3055     2.9006 </r>
       <r>   -12.5878     0.3285     2.9436 </r>
       <r>   -12.4570     0.4269     2.9995 </r>
       <r>   -12.3262     0.3661     3.0474 </r>
       <r>   -12.1954     0.3222     3.0895 </r>
       <r>   -12.0646     0.3033     3.1292 </r>
       <r>   -11.9338     0.4062     3.1823 </r>
       <r>   -11.8030     0.4854     3.2458 </r>
       <r>   -11.6722     0.1454     3.2649 </r>
       <r>   -11.5414     0.4082     3.3182 </r>
       <r>   -11.4106     0.4829     3.3815 </r>
       <r>   -11.2798     0.5129     3.4486 </r>
       <r>   -11.1490     0.3021     3.4882 </r>
       <r>   -11.0182     0.1938     3.5135 </r>
       <r>   -10.8873     0.3900     3.5646 </r>
       <r>   -10.7565     0.6161     3.6451 </r>
       <r>   -10.6257     0.2716     3.6807 </r>
       <r>   -10.4949     0.4609     3.7410 </r>
       <r>   -10.3641     0.3769     3.7903 </r>
       <r>   -10.2333     0.5086     3.8569 </r>
       <r>   -10.1025     0.3063     3.8969 </r>
       <r>    -9.9717     0.3011     3.9363 </r>
       <r>    -9.8409     0.8779     4.0513 </r>
       <r>    -9.7101     0.9575     4.1766 </r>
       <r>    -9.5793     0.5068     4.2429 </r>
       <r>    -9.4485     0.4587     4.3029 </r>
       <r>    -9.3177     1.0754     4.4436 </r>
       <r>    -9.1869     0.8703     4.5577 </r>
       <r>    -9.0561     0.6946     4.6486 </r>
       <r>    -8.9253     1.0127     4.7811 </r>
       <r>    -8.7945     0.6544     4.8667 </r>
       <r>    -8.6637     1.2234     5.0268 </r>
       <r>    -8.5329     0.9152     5.1465 </r>
       <r>    -8.4021     0.8624     5.2594 </r>
       <r>    -8.2713     0.7855     5.3621 </r>
       <r>    -8.1405     1.3288     5.5361 </r>
       <r>    -8.0097     0.3956     5.5880 </r>
       <r>    -7.8789     0.8015     5.6929 </r>
       <r>    -7.7481     0.4211     5.7481 </r>
       <r>    -7.6173     1.1811     5.9026 </r>
       <r>    -7.4865     0.6593     5.9889 </r>
       <r>    -7.3557     0.3790     6.0386 </r>
       <r>    -7.2249     0.6786     6.1274 </r>
       <r>    -7.0941     0.7028     6.2194 </r>
       <r>    -6.9633     0.6562     6.3053 </r>
       <r>    -6.8325     0.6876     6.3952 </r>
       <r>    -6.7017     0.3892     6.4462 </r>
       <r>    -6.5709     0.6025     6.5250 </r>
       <r>    -6.4401     0.5531     6.5974 </r>
       <r>    -6.3093     0.7499     6.6955 </r>
       <r>    -6.1785     0.5383     6.7659 </r>
       <r>    -6.0477     0.5630     6.8396 </r>
       <r>    -5.9169     0.3076     6.8800 </r>
       <r>    -5.7861     0.6643     6.9668 </r>
       <r>    -5.6553     0.7865     7.0698 </r>
       <r>    -5.5245     0.3759     7.1190 </r>
       <r>    -5.3937     0.5740     7.1941 </r>
       <r>    -5.2629     0.3651     7.2418 </r>
       <r>    -5.1321     0.5835     7.3182 </r>
       <r>    -5.0013     0.5060     7.3845 </r>
       <r>    -4.8705     0.5267     7.4534 </r>
       <r>    -4.7397     0.4350     7.5104 </r>
       <r>    -4.6089     0.2021     7.5369 </r>
       <r>    -4.4781     0.3175     7.5785 </r>
       <r>    -4.3473     1.0093     7.7107 </r>
       <r>    -4.2165     0.2543     7.7440 </r>
       <r>    -4.0857     0.2177     7.7725 </r>
       <r>    -3.9549     0.0798     7.7829 </r>
       <r>    -3.8241     0.2494     7.8155 </r>
       <r>    -3.6933     0.4619     7.8759 </r>
       <r>    -3.5625     0.0990     7.8889 </r>
       <r>    -3.4317     0.1846     7.9131 </r>
       <r>    -3.3009     0.0530     7.9200 </r>
       <r>    -3.1701     0.0809     7.9306 </r>
       <r>    -3.0393     0.1935     7.9559 </r>
       <r>    -2.9085     0.1333     7.9733 </r>
       <r>    -2.7777     0.0510     7.9800 </r>
       <r>    -2.6469     0.0000     7.9800 </r>
       <r>    -2.5161     0.0510     7.9867 </r>
       <r>    -2.3852     0.1018     8.0000 </r>
       <r>    -2.2544     0.0000     8.0000 </r>
       <r>    -2.1236     0.0000     8.0000 </r>
       <r>    -1.9928     0.0000     8.0000 </r>
       <r>    -1.8620     0.0000     8.0000 </r>
       <r>    -1.7312     0.1018     8.0133 </r>
       <r>    -1.6004     0.0505     8.0199 </r>
       <r>    -1.4696     0.0000     8.0200 </r>
       <r>    -1.3388     0.0510     8.0267 </r>
       <r>    -1.2080     0.1348     8.0443 </r>
       <r>    -1.0772     0.2601     8.0783 </r>
       <r>    -0.9464     0.1068     8.0923 </r>
       <r>    -0.8156     0.0588     8.1000 </r>
       <r>    -0.6848     0.2626     8.1343 </r>
       <r>    -0.5540     0.3924     8.1857 </r>
       <r>    -0.4232     0.6332     8.2685 </r>
       <r>    -0.2924     0.5606     8.3419 </r>
       <r>    -0.1616     0.3795     8.3915 </r>
       <r>    -0.0308     0.3661     8.4394 </r>
       <r>     0.1000     0.4160     8.4938 </r>
       <r>     0.2308     0.4906     8.5580 </r>
       <r>     0.3616     0.2442     8.5901 </r>
       <r>     0.4924     0.1935     8.6154 </r>
       <r>     0.6232     0.2545     8.6487 </r>
       <r>     0.7540     0.3144     8.6898 </r>
       <r>     0.8848     0.2697     8.7251 </r>
       <r>     1.0156     0.2950     8.7637 </r>
       <r>     1.1464     0.5548     8.8363 </r>
       <r>     1.2772     0.4101     8.8900 </r>
       <r>     1.4080     0.2565     8.9236 </r>
       <r>     1.5388     0.5578     8.9966 </r>
       <r>     1.6696     0.3245     9.0391 </r>
       <r>     1.8004     0.7017     9.1309 </r>
       <r>     1.9312     0.3029     9.1705 </r>
       <r>     2.0620     0.5920     9.2480 </r>
       <r>     2.1928     0.8422     9.3582 </r>
       <r>     2.3236     0.3897     9.4094 </r>
       <r>     2.4544     0.6071     9.4888 </r>
       <r>     2.5852     0.9055     9.6073 </r>
       <r>     2.7160     1.0132     9.7402 </r>
       <r>     2.8468     0.9888     9.8696 </r>
       <r>     2.9776     0.4326     9.9263 </r>
       <r>     3.1084     0.9407    10.0496 </r>
       <r>     3.2392     0.9845    10.1785 </r>
       <r>     3.3700     0.6104    10.2583 </r>
       <r>     3.5008     0.9163    10.3783 </r>
       <r>     3.6316     0.8806    10.4935 </r>
       <r>     3.7624     0.8623    10.6063 </r>
       <r>     3.8932     0.6818    10.6955 </r>
       <r>     4.0240     1.0114    10.8279 </r>
       <r>     4.1548     0.7114    10.9210 </r>
       <r>     4.2856     0.7350    11.0173 </r>
       <r>     4.4164     0.7955    11.1214 </r>
       <r>     4.5472     1.1053    11.2661 </r>
       <r>     4.6780     1.0395    11.4021 </r>
       <r>     4.8088     1.2796    11.5695 </r>
       <r>     4.9396     0.7005    11.6614 </r>
       <r>     5.0704     0.6606    11.7478 </r>
       <r>     5.2012     1.4932    11.9432 </r>
       <r>     5.3320     1.5294    12.1433 </r>
       <r>     5.4628     1.6080    12.3536 </r>
       <r>     5.5936     1.7606    12.5839 </r>
       <r>     5.7244     1.2883    12.7525 </r>
       <r>     5.8552     1.3605    12.9307 </r>
       <r>     5.9860     1.6941    13.1526 </r>
       <r>     6.1168     1.9064    13.4021 </r>
       <r>     6.2477     1.9359    13.6555 </r>
       <r>     6.3785     1.5603    13.8597 </r>
       <r>     6.5093     2.1564    14.1418 </r>
       <r>     6.6401     2.6638    14.4906 </r>
       <r>     6.7709     1.6205    14.7029 </r>
       <r>     6.9017     2.1682    14.9870 </r>
       <r>     7.0325     1.9545    15.2428 </r>
       <r>     7.1633     2.4241    15.5600 </r>
       <r>     7.2941     1.8680    15.8046 </r>
       <r>     7.4249     1.2039    15.9622 </r>
       <r>     7.5557     1.4772    16.1555 </r>
       <r>     7.6865     1.6440    16.3707 </r>
       <r>     7.8173     1.7802    16.6038 </r>
       <r>     7.9481     2.1814    16.8894 </r>
       <r>     8.0789     1.4509    17.0794 </r>
       <r>     8.2097     1.5273    17.2795 </r>
       <r>     8.3405     1.4572    17.4703 </r>
       <r>     8.4713     2.2358    17.7630 </r>
       <r>     8.6021     1.6810    17.9832 </r>
       <r>     8.7329     2.2528    18.2780 </r>
       <r>     8.8637     1.9165    18.5291 </r>
       <r>     8.9945     1.4314    18.7164 </r>
       <r>     9.1253     1.4111    18.9010 </r>
       <r>     9.2561     1.8559    19.1440 </r>
       <r>     9.3869     1.6212    19.3562 </r>
       <r>     9.5177     1.5509    19.5593 </r>
       <r>     9.6485     1.4396    19.7476 </r>
       <r>     9.7793     1.4182    19.9334 </r>
       <r>     9.9101     1.6959    20.1553 </r>
       <r>    10.0409     1.6588    20.3725 </r>
       <r>    10.1717     1.2799    20.5399 </r>
       <r>    10.3025     1.9318    20.7929 </r>
       <r>    10.4333     1.3446    20.9688 </r>
       <r>    10.5641     1.6566    21.1855 </r>
       <r>    10.6949     1.6745    21.4049 </r>
       <r>    10.8257     1.5308    21.6053 </r>
       <r>    10.9565     2.4850    21.9305 </r>
       <r>    11.0873     1.5671    22.1357 </r>
       <r>    11.2181     1.4481    22.3252 </r>
       <r>    11.3489     1.6344    22.5393 </r>
       <r>    11.4797     0.9122    22.6586 </r>
       <r>    11.6105     1.2528    22.8225 </r>
       <r>    11.7413     1.6044    23.0325 </r>
       <r>    11.8721     1.1047    23.1772 </r>
       <r>    12.0029     1.6845    23.3976 </r>
       <r>    12.1337     1.1967    23.5542 </r>
       <r>    12.2645     0.7058    23.6466 </r>
       <r>    12.3953     0.4922    23.7110 </r>
       <r>    12.5261     0.4282    23.7670 </r>
       <r>    12.6569     0.4312    23.8234 </r>
       <r>    12.7877     0.4368    23.8805 </r>
       <r>    12.9185     0.1830    23.9045 </r>
       <r>    13.0493     0.3289    23.9475 </r>
       <r>    13.1801     0.0458    23.9535 </r>
       <r>    13.3109     0.2024    23.9800 </r>
       <r>    13.4417     0.0000    23.9800 </r>
       <r>    13.5725     0.0000    23.9800 </r>
       <r>    13.7033     0.1020    23.9933 </r>
       <r>    13.8341     0.0509    24.0000 </r>
       <r>    13.9649     0.0000    24.0000 </r>
       <r>    14.0957     0.0000    24.0000 </r>
       <r>    14.2265     0.0000    24.0000 </r>
       <r>    14.3573     0.0000    24.0000 </r>
       <r>    14.4881     0.0000    24.0000 </r>
       <r>    14.6189     0.0000    24.0000 </r>
       <r>    14.7498     0.0000    24.0000 </r>
       <r>    14.8806     0.0000    24.0000 </r>
       <r>    15.0114     0.0000    24.0000 </r>
       <r>    15.1422     0.0000    24.0000 </r>
       <r>    15.2730     0.0000    24.0000 </r>
       <r>    15.4038     0.0000    24.0000 </r>
       <r>    15.5346     0.0000    24.0000 </r>
      </set>
     </set>
    </array>
   </total>
  </dos>
 </calculation>
 <structure name="finalpos" >
  <crystal>
   <varray name="basis" >
    <v>       2.40552100       0.00000000       0.00000000 </v>
    <v>      -1.20276000       2.13736100       0.00000000 </v>
    <v>       0.00000000       0.00000000      15.00000000 </v>
   </varray>
   <i name="volume">     77.12200155 </i>
   <varray name="rec_basis" >
    <v>       0.41571036       0.23393324       0.00000000 </v>
    <v>       0.00000000       0.46786668       0.00000000 </v>
    <v>       0.00000000       0.00000000       0.06666667 </v>
   </varray>
  </crystal>
  <varray name="positions" >
   <v>       0.00042228       0.00084456       0.50000000 </v>
   <v>       0.33291072       0.66582244       0.50000000 </v>
  </varray>
 </structure>
</modeling>
