<?xml version="1.0" encoding="ISO-8859-1"?>
<modeling>
 <generator>
  <i name="program" type="string">vasp </i>
  <i name="version" type="string">5.4.1  </i>
  <i name="subversion" type="string">24Jun15 (build Nov 20 2020 10:29:34) complex                          parallel </i>
  <i name="platform" type="string">IFC91_ompi </i>
  <i name="date" type="string">2021 09 09 </i>
  <i name="time" type="string">14:58:58 </i>
 </generator>
 <incar>
  <i type="string" name="PREC">a</i>
  <i type="string" name="ALGO"> Normal</i>
  <i type="int" name="ISPIN">     1</i>
  <i type="int" name="ICHARG">     2</i>
  <i type="int" name="NELM">   250</i>
  <i type="int" name="NELMDL">    -5</i>
  <i type="int" name="NELMIN">     6</i>
  <i type="int" name="IBRION">     2</i>
  <i name="EDIFF">      0.00001000</i>
  <i name="EDIFFG">     -0.01000000</i>
  <i type="int" name="NSW">   200</i>
  <i type="int" name="ISIF">     2</i>
  <i name="ENCUT">    520.00000000</i>
  <i name="POTIM">      0.30000000</i>
  <i type="logical" name="LREAL"> F  </i>
  <i type="int" name="ISMEAR">     0</i>
  <i name="SIGMA">      0.02000000</i>
  <i type="logical" name="LWAVE"> F  </i>
  <i type="logical" name="LCHARG"> F  </i>
  <i type="logical" name="LAECHG"> F  </i>
  <v type="int" name="KPOINT_BSE">    -1     0     0     0</v>
  <i type="int" name="NELM">   250</i>
 </incar>
 <kpoints>
  <generation param="Gamma">
   <v type="int" name="divisions">      15       13        1 </v>
   <v name="usershift">      0.00000000       0.00000000       0.00000000 </v>
   <v name="genvec1">      0.06666667       0.00000000       0.00000000 </v>
   <v name="genvec2">      0.00000000       0.07692308       0.00000000 </v>
   <v name="genvec3">      0.00000000       0.00000000       1.00000000 </v>
   <v name="shift">      0.00000000       0.00000000       0.00000000 </v>
  </generation>
  <varray name="kpointlist" >
   <v>       0.00000000       0.00000000       0.00000000 </v>
   <v>       0.06666667       0.00000000       0.00000000 </v>
   <v>       0.13333333       0.00000000       0.00000000 </v>
   <v>       0.20000000       0.00000000       0.00000000 </v>
   <v>       0.26666667       0.00000000       0.00000000 </v>
   <v>       0.33333333       0.00000000       0.00000000 </v>
   <v>       0.40000000       0.00000000       0.00000000 </v>
   <v>       0.46666667       0.00000000       0.00000000 </v>
   <v>       0.00000000       0.07692308       0.00000000 </v>
   <v>       0.06666667       0.07692308       0.00000000 </v>
   <v>       0.13333333       0.07692308       0.00000000 </v>
   <v>       0.20000000       0.07692308       0.00000000 </v>
   <v>       0.26666667       0.07692308       0.00000000 </v>
   <v>       0.33333333       0.07692308       0.00000000 </v>
   <v>       0.40000000       0.07692308       0.00000000 </v>
   <v>       0.46666667       0.07692308       0.00000000 </v>
   <v>       0.00000000       0.15384615       0.00000000 </v>
   <v>       0.06666667       0.15384615       0.00000000 </v>
   <v>       0.13333333       0.15384615       0.00000000 </v>
   <v>       0.20000000       0.15384615       0.00000000 </v>
   <v>       0.26666667       0.15384615       0.00000000 </v>
   <v>       0.33333333       0.15384615       0.00000000 </v>
   <v>       0.40000000       0.15384615       0.00000000 </v>
   <v>       0.46666667       0.15384615       0.00000000 </v>
   <v>       0.00000000       0.23076923       0.00000000 </v>
   <v>       0.06666667       0.23076923       0.00000000 </v>
   <v>       0.13333333       0.23076923       0.00000000 </v>
   <v>       0.20000000       0.23076923       0.00000000 </v>
   <v>       0.26666667       0.23076923       0.00000000 </v>
   <v>       0.33333333       0.23076923       0.00000000 </v>
   <v>       0.40000000       0.23076923       0.00000000 </v>
   <v>       0.46666667       0.23076923       0.00000000 </v>
   <v>       0.00000000       0.30769231       0.00000000 </v>
   <v>       0.06666667       0.30769231       0.00000000 </v>
   <v>       0.13333333       0.30769231       0.00000000 </v>
   <v>       0.20000000       0.30769231       0.00000000 </v>
   <v>       0.26666667       0.30769231       0.00000000 </v>
   <v>       0.33333333       0.30769231       0.00000000 </v>
   <v>       0.40000000       0.30769231       0.00000000 </v>
   <v>       0.46666667       0.30769231       0.00000000 </v>
   <v>       0.00000000       0.38461538       0.00000000 </v>
   <v>       0.06666667       0.38461538       0.00000000 </v>
   <v>       0.13333333       0.38461538       0.00000000 </v>
   <v>       0.20000000       0.38461538       0.00000000 </v>
   <v>       0.26666667       0.38461538       0.00000000 </v>
   <v>       0.33333333       0.38461538       0.00000000 </v>
   <v>       0.40000000       0.38461538       0.00000000 </v>
   <v>       0.46666667       0.38461538       0.00000000 </v>
   <v>       0.00000000       0.46153846       0.00000000 </v>
   <v>       0.06666667       0.46153846       0.00000000 </v>
   <v>       0.13333333       0.46153846       0.00000000 </v>
   <v>       0.20000000       0.46153846       0.00000000 </v>
   <v>       0.26666667       0.46153846       0.00000000 </v>
   <v>       0.33333333       0.46153846       0.00000000 </v>
   <v>       0.40000000       0.46153846       0.00000000 </v>
   <v>       0.46666667       0.46153846       0.00000000 </v>
  </varray>
  <varray name="weights" >
   <v>       0.00512821 </v>
   <v>       0.01025641 </v>
   <v>       0.01025641 </v>
   <v>       0.01025641 </v>
   <v>       0.01025641 </v>
   <v>       0.01025641 </v>
   <v>       0.01025641 </v>
   <v>       0.01025641 </v>
   <v>       0.01025641 </v>
   <v>       0.02051282 </v>
   <v>       0.02051282 </v>
   <v>       0.02051282 </v>
   <v>       0.02051282 </v>
   <v>       0.02051282 </v>
   <v>       0.02051282 </v>
   <v>       0.02051282 </v>
   <v>       0.01025641 </v>
   <v>       0.02051282 </v>
   <v>       0.02051282 </v>
   <v>       0.02051282 </v>
   <v>       0.02051282 </v>
   <v>       0.02051282 </v>
   <v>       0.02051282 </v>
   <v>       0.02051282 </v>
   <v>       0.01025641 </v>
   <v>       0.02051282 </v>
   <v>       0.02051282 </v>
   <v>       0.02051282 </v>
   <v>       0.02051282 </v>
   <v>       0.02051282 </v>
   <v>       0.02051282 </v>
   <v>       0.02051282 </v>
   <v>       0.01025641 </v>
   <v>       0.02051282 </v>
   <v>       0.02051282 </v>
   <v>       0.02051282 </v>
   <v>       0.02051282 </v>
   <v>       0.02051282 </v>
   <v>       0.02051282 </v>
   <v>       0.02051282 </v>
   <v>       0.01025641 </v>
   <v>       0.02051282 </v>
   <v>       0.02051282 </v>
   <v>       0.02051282 </v>
   <v>       0.02051282 </v>
   <v>       0.02051282 </v>
   <v>       0.02051282 </v>
   <v>       0.02051282 </v>
   <v>       0.01025641 </v>
   <v>       0.02051282 </v>
   <v>       0.02051282 </v>
   <v>       0.02051282 </v>
   <v>       0.02051282 </v>
   <v>       0.02051282 </v>
   <v>       0.02051282 </v>
   <v>       0.02051282 </v>
  </varray>
 </kpoints>
 <parameters>
  <separator name="general" >
   <i type="string" name="SYSTEM">unknown system</i>
   <i type="logical" name="LCOMPAT"> F  </i>
  </separator>
  <separator name="electronic" >
   <i type="string" name="PREC">a</i>
   <i name="ENMAX">    520.00000000</i>
   <i name="ENAUG">    531.35600000</i>
   <i name="EDIFF">      0.00001000</i>
   <i type="int" name="IALGO">    38</i>
   <i type="int" name="IWAVPR">    11</i>
   <i type="int" name="NBANDS">    32</i>
   <i name="NELECT">     52.00000000</i>
   <i type="int" name="TURBO">     0</i>
   <i type="int" name="IRESTART">     0</i>
   <i type="int" name="NREBOOT">     0</i>
   <i type="int" name="NMIN">     0</i>
   <i name="EREF">      0.00000000</i>
   <separator name="electronic smearing" >
    <i type="int" name="ISMEAR">     0</i>
    <i name="SIGMA">      0.02000000</i>
    <i name="KSPACING">      0.50000000</i>
    <i type="logical" name="KGAMMA"> T  </i>
   </separator>
   <separator name="electronic projectors" >
    <i type="logical" name="LREAL"> F  </i>
    <v name="ROPT">      0.00000000      0.00000000</v>
    <i type="int" name="LMAXPAW">  -100</i>
    <i type="int" name="LMAXMIX">     2</i>
    <i type="logical" name="NLSPLINE"> F  </i>
   </separator>
   <separator name="electronic startup" >
    <i type="int" name="ISTART">     0</i>
    <i type="int" name="ICHARG">     2</i>
    <i type="int" name="INIWAV">     1</i>
   </separator>
   <separator name="electronic spin" >
    <i type="int" name="ISPIN">     1</i>
    <i type="logical" name="LNONCOLLINEAR"> F  </i>
    <v name="MAGMOM">      1.00000000      1.00000000      1.00000000      1.00000000      1.00000000      1.00000000</v>
    <i name="NUPDOWN">     -1.00000000</i>
    <i type="logical" name="LSORBIT"> F  </i>
    <v name="SAXIS">      0.00000000      0.00000000      1.00000000</v>
    <i type="logical" name="LSPIRAL"> F  </i>
    <v name="QSPIRAL">      0.00000000      0.00000000      0.00000000</v>
    <i type="logical" name="LZEROZ"> F  </i>
   </separator>
   <separator name="electronic exchange-correlation" >
    <i type="logical" name="LASPH"> F  </i>
    <i type="logical" name="LMETAGGA"> F  </i>
   </separator>
   <separator name="electronic convergence" >
    <i type="int" name="NELM">   250</i>
    <i type="int" name="NELMDL">    -5</i>
    <i type="int" name="NELMIN">     6</i>
    <i name="ENINI">    520.00000000</i>
    <separator name="electronic convergence detail" >
     <i type="logical" name="LDIAG"> T  </i>
     <i type="logical" name="LSUBROT"> F  </i>
     <i name="WEIMIN">      0.00100000</i>
     <i name="EBREAK">      0.00000008</i>
     <i name="DEPER">      0.30000000</i>
     <i type="int" name="NRMM">     4</i>
     <i name="TIME">      0.40000000</i>
    </separator>
   </separator>
   <separator name="electronic mixer" >
    <i name="AMIX">      0.40000000</i>
    <i name="BMIX">      1.00000000</i>
    <i name="AMIN">      0.10000000</i>
    <i name="AMIX_MAG">      1.60000000</i>
    <i name="BMIX_MAG">      1.00000000</i>
    <separator name="electronic mixer details" >
     <i type="int" name="IMIX">     4</i>
     <i type="logical" name="MIXFIRST"> F  </i>
     <i type="int" name="MAXMIX">   -45</i>
     <i name="WC">    100.00000000</i>
     <i type="int" name="INIMIX">     1</i>
     <i type="int" name="MIXPRE">     1</i>
     <i type="int" name="MREMOVE">     5</i>
    </separator>
   </separator>
   <separator name="electronic dipolcorrection" >
    <i type="logical" name="LDIPOL"> F  </i>
    <i type="logical" name="LMONO"> F  </i>
    <i type="int" name="IDIPOL">     0</i>
    <i name="EPSILON">      1.00000000</i>
    <v name="DIPOL">   -100.00000000   -100.00000000   -100.00000000</v>
    <i name="EFIELD">      0.00000000</i>
   </separator>
  </separator>
  <separator name="grids" >
   <i type="int" name="NGX">    40</i>
   <i type="int" name="NGY">    42</i>
   <i type="int" name="NGZ">   140</i>
   <i type="int" name="NGXF">    80</i>
   <i type="int" name="NGYF">    84</i>
   <i type="int" name="NGZF">   280</i>
   <i type="logical" name="ADDGRID"> F  </i>
  </separator>
  <separator name="ionic" >
   <i type="int" name="NSW">   200</i>
   <i type="int" name="IBRION">     2</i>
   <i type="int" name="ISIF">     2</i>
   <i name="PSTRESS">      0.00000000</i>
   <i name="EDIFFG">     -0.01000000</i>
   <i type="int" name="NFREE">     1</i>
   <i name="POTIM">      0.30000000</i>
   <i name="SMASS">     -3.00000000</i>
   <i name="SCALEE">      1.00000000</i>
  </separator>
  <separator name="ionic md" >
   <i name="TEBEG">      0.00010000</i>
   <i name="TEEND">      0.00010000</i>
   <i type="int" name="NBLOCK">     1</i>
   <i type="int" name="KBLOCK">   200</i>
   <i type="int" name="NPACO">   256</i>
   <i name="APACO">     16.00000000</i>
  </separator>
  <separator name="symmetry" >
   <i type="int" name="ISYM">     2</i>
   <i name="SYMPREC">      0.00001000</i>
  </separator>
  <separator name="dos" >
   <i type="logical" name="LORBIT"> F  </i>
   <v name="RWIGS">     -1.00000000     -1.00000000</v>
   <i type="int" name="NEDOS">   301</i>
   <i name="EMIN">     10.00000000</i>
   <i name="EMAX">    -10.00000000</i>
   <i name="EFERMI">      0.00000000</i>
  </separator>
  <separator name="writing" >
   <i type="int" name="NWRITE">     2</i>
   <i type="logical" name="LWAVE"> F  </i>
   <i type="logical" name="LCHARG"> F  </i>
   <i type="logical" name="LPARD"> F  </i>
   <i type="logical" name="LVTOT"> F  </i>
   <i type="logical" name="LVHAR"> F  </i>
   <i type="logical" name="LELF"> F  </i>
   <i type="logical" name="LOPTICS"> F  </i>
   <v name="STM">      0.00000000      0.00000000      0.00000000      0.00000000      0.00000000      0.00000000      0.00000000</v>
  </separator>
  <separator name="performance" >
   <i type="int" name="NPAR">     4</i>
   <i type="int" name="NSIM">     4</i>
   <i type="int" name="NBLK">    -1</i>
   <i type="logical" name="LPLANE"> T  </i>
   <i type="logical" name="LSCALAPACK"> T  </i>
   <i type="logical" name="LSCAAWARE"> F  </i>
   <i type="logical" name="LSCALU"> F  </i>
   <i type="logical" name="LASYNC"> F  </i>
   <i type="logical" name="LORBITALREAL"> F  </i>
  </separator>
  <separator name="miscellaneous" >
   <i type="int" name="IDIOT">     3</i>
   <i type="logical" name="LMUSIC"> F  </i>
   <v name="POMASS">     72.61000000     78.96000000</v>
   <v name="DARWINR">      0.00000000      0.00000000</v>
   <v name="DARWINV">      1.00000000      1.00000000</v>
   <i type="logical" name="LCORR"> T  </i>
  </separator>
  <i type="logical" name="GGA_COMPAT"> T  </i>
  <i type="logical" name="LBERRY"> F  </i>
  <i type="int" name="ICORELEVEL">     0</i>
  <i type="logical" name="LDAU"> F  </i>
  <i type="int" name="I_CONSTRAINED_M">     0</i>
  <separator name="electronic exchange-correlation" >
   <i type="string" name="GGA">--</i>
   <i type="int" name="VOSKOWN">     0</i>
   <i type="logical" name="LHFCALC"> F  </i>
   <i type="string" name="PRECFOCK"></i>
   <i type="logical" name="LSYMGRAD"> F  </i>
   <i type="logical" name="LHFONE"> F  </i>
   <i type="logical" name="LRHFCALC"> F  </i>
   <i type="logical" name="LTHOMAS"> F  </i>
   <i type="logical" name="LMODELHF"> F  </i>
   <i name="ENCUT4O">     -1.00000000</i>
   <i type="int" name="EXXOEP">     0</i>
   <i type="int" name="FOURORBIT">     0</i>
   <i name="AEXX">      0.00000000</i>
   <i name="HFALPHA">      0.00000000</i>
   <i name="MCALPHA">      0.00000000</i>
   <i name="ALDAX">      1.00000000</i>
   <i name="AGGAX">      1.00000000</i>
   <i name="ALDAC">      1.00000000</i>
   <i name="AGGAC">      1.00000000</i>
   <i type="int" name="NKREDX">     1</i>
   <i type="int" name="NKREDY">     1</i>
   <i type="int" name="NKREDZ">     1</i>
   <i type="logical" name="SHIFTRED"> F  </i>
   <i type="logical" name="ODDONLY"> F  </i>
   <i type="logical" name="EVENONLY"> F  </i>
   <i type="int" name="LMAXFOCK">     0</i>
   <i type="int" name="NMAXFOCKAE">     0</i>
   <i type="logical" name="LFOCKAEDFT"> F  </i>
   <i name="HFSCREEN">      0.00000000</i>
   <i name="HFSCREENC">      0.00000000</i>
   <i type="int" name="NBANDSGWLOW">     0</i>
  </separator>
  <separator name="vdW DFT" >
   <i type="logical" name="LUSE_VDW"> F  </i>
   <i name="Zab_VDW">     -0.84910000</i>
   <i name="PARAM1">      0.12340000</i>
   <i name="PARAM2">      1.00000000</i>
   <i name="PARAM3">      0.00000000</i>
  </separator>
  <separator name="model GW" >
   <i type="int" name="MODEL_GW">     0</i>
   <i name="MODEL_EPS0">     50.40397944</i>
   <i name="MODEL_ALPHA">      1.00000000</i>
  </separator>
  <separator name="linear response parameters" >
   <i type="logical" name="LEPSILON"> F  </i>
   <i type="logical" name="LRPA"> F  </i>
   <i type="logical" name="LNABLA"> F  </i>
   <i type="logical" name="LVEL"> F  </i>
   <i type="int" name="KINTER">     0</i>
   <i name="CSHIFT">      0.10000000</i>
   <i name="OMEGAMAX">     -1.00000000</i>
   <i name="DEG_THRESHOLD">      0.00200000</i>
  </separator>
  <separator name="orbital magnetization" >
   <i type="logical" name="NUCIND"> F  </i>
   <v name="MAGPOS">      0.00000000      0.00000000      0.00000000</v>
   <i type="logical" name="LNICSALL"> T  </i>
   <i type="logical" name="ORBITALMAG"> F  </i>
   <i type="logical" name="LMAGBLOCH"> F  </i>
   <i type="logical" name="LCHIMAG"> F  </i>
   <i type="logical" name="LGAUGE"> T  </i>
   <i type="int" name="MAGATOM">     0</i>
   <v name="MAGDIPOL">      0.00000000      0.00000000      0.00000000</v>
   <v name="AVECCONST">      0.00000000      0.00000000      0.00000000</v>
  </separator>
  <separator name="response functions" >
   <i type="logical" name="LADDER"> F  </i>
   <i type="logical" name="LFXC"> F  </i>
   <i type="logical" name="LHARTREE"> T  </i>
   <i type="int" name="IBSE">     0</i>
   <v type="int" name="KPOINT">    -1     0     0     0</v>
   <i type="logical" name="LTCTE"> F  </i>
   <i type="logical" name="LTETE"> F  </i>
   <i type="logical" name="LTRIPLET"> F  </i>
   <i type="logical" name="LFXCEPS"> F  </i>
   <i type="logical" name="LFXHEG"> F  </i>
   <i type="int" name="NATURALO">     0</i>
   <i type="logical" name="L2ORDER"> F  </i>
   <i type="logical" name="LUSEW"> F  </i>
   <i name="ENCUTGW">     -2.00000000</i>
   <i name="ENCUTGWSOFT">     -2.00000000</i>
   <i name="ENCUTLF">     -1.00000000</i>
   <i type="int" name="LMAXMP2">    -1</i>
   <i name="SCISSOR">      0.00000000</i>
   <i type="int" name="NOMEGA">     0</i>
   <i type="int" name="NOMEGAR">     0</i>
   <i type="int" name="NBANDSGW">    -1</i>
   <i type="int" name="NBANDSO">    -1</i>
   <i type="int" name="NBANDSV">    -1</i>
   <i type="int" name="NELM">   250</i>
   <i type="int" name="NELMHF">     1</i>
   <i type="int" name="DIM">     3</i>
   <i type="int" name="ANTIRES">     0</i>
   <i name="OMEGAMAX">    -30.00000000</i>
   <i name="OMEGAMIN">    -30.00000000</i>
   <i name="OMEGATL">   -200.00000000</i>
   <i type="int" name="OMEGAGRID">     0</i>
   <i name="CSHIFT">     -0.10000000</i>
   <i type="logical" name="SELFENERGY"> F  </i>
   <i type="logical" name="LSPECTRAL"> F  </i>
   <i type="logical" name="LSPECTRALGW"> F  </i>
   <i type="logical" name="LSINGLES"> F  </i>
   <i type="logical" name="LFERMIGW"> F  </i>
   <i type="logical" name="ODDONLYGW"> F  </i>
   <i type="logical" name="EVENONLYGW"> F  </i>
   <i type="int" name="NKREDLFX">     1</i>
   <i type="int" name="NKREDLFY">     1</i>
   <i type="int" name="NKREDLFZ">     1</i>
   <i type="int" name="MAXMEM">  1800</i>
   <i type="int" name="TELESCOPE">     0</i>
   <i type="int" name="TAUPAR">     1</i>
   <i type="int" name="OMEGAPAR">    -1</i>
   <i name="LAMBDA">      1.00000000</i>
  </separator>
  <separator name="External order field" >
   <i name="OFIELD_KAPPA">      0.00000000</i>
   <v name="OFIELD_K">      0.00000000      0.00000000      0.00000000</v>
   <i name="OFIELD_Q6_NEAR">      0.00000000</i>
   <i name="OFIELD_Q6_FAR">      0.00000000</i>
   <i name="OFIELD_A">      0.00000000</i>
  </separator>
 </parameters>
 <atominfo>
  <atoms>       6 </atoms>
  <types>       2 </types>
  <array name="atoms" >
   <dimension dim="1">ion</dimension>
   <field type="string">element</field>
   <field type="int">atomtype</field>
   <set>
    <rc><c>Ge</c><c>   1</c></rc>
    <rc><c>Ge</c><c>   1</c></rc>
    <rc><c>Se</c><c>   2</c></rc>
    <rc><c>Se</c><c>   2</c></rc>
    <rc><c>Se</c><c>   2</c></rc>
    <rc><c>Se</c><c>   2</c></rc>
   </set>
  </array>
  <array name="atomtypes" >
   <dimension dim="1">type</dimension>
   <field type="int">atomspertype</field>
   <field type="string">element</field>
   <field>mass</field>
   <field>valence</field>
   <field type="string">pseudopotential</field>
   <set>
    <rc><c>   2</c><c>Ge</c><c>     72.61000000</c><c>     14.00000000</c><c>  PAW_PBE Ge_d 03Jul2007                </c></rc>
    <rc><c>   4</c><c>Se</c><c>     78.96000000</c><c>      6.00000000</c><c>  PAW_PBE Se 06Sep2000                  </c></rc>
   </set>
  </array>
 </atominfo>
 <structure name="initialpos" >
  <crystal>
   <varray name="basis" >
    <v>       4.95489500       0.00000000       0.00000000 </v>
    <v>       0.00000000       5.62663800       0.00000000 </v>
    <v>       0.00000000       0.00000000      18.07929100 </v>
   </varray>
   <i name="volume">    504.03979442 </i>
   <varray name="rec_basis" >
    <v>       0.20182062       0.00000000       0.00000000 </v>
    <v>       0.00000000       0.17772602       0.00000000 </v>
    <v>       0.00000000       0.00000000       0.05531190 </v>
   </varray>
  </crystal>
  <varray name="positions" >
   <v>       0.50000000       0.50000000       0.50000000 </v>
   <v>       0.00000000       0.00000000       0.50000000 </v>
   <v>       0.25000000       0.25000000       0.41502600 </v>
   <v>       0.75000000       0.75000000       0.41502600 </v>
   <v>       0.75000000       0.25000000       0.58497400 </v>
   <v>       0.25000000       0.75000000       0.58497400 </v>
  </varray>
 </structure>
 <calculation>
  <scstep>
   <time name="dav">    2.01    2.01</time>
   <time name="total">    2.05    2.05</time>
   <energy>
    <i name="alphaZ">     45.57385685 </i>
    <i name="ewald">   4840.70722419 </i>
    <i name="hartreedc">  -9626.33017682 </i>
    <i name="XCdc">    142.22763520 </i>
    <i name="pawpsdc">   4514.43351212 </i>
    <i name="pawaedc">  -5329.26418529 </i>
    <i name="eentropy">     -0.00053461 </i>
    <i name="bandstr">   -373.51819497 </i>
    <i name="atom">   6220.98622430 </i>
    <i name="e_fr_energy">    434.81536099 </i>
    <i name="e_wo_entrp">    434.81589560 </i>
    <i name="e_0_energy">    434.81562829 </i>
   </energy>
  </scstep>
  <scstep>
   <time name="dav">    2.13    2.13</time>
   <time name="total">    2.14    2.14</time>
   <energy>
    <i name="e_fr_energy">     44.84613608 </i>
    <i name="e_wo_entrp">     44.84668727 </i>
    <i name="e_0_energy">     44.84641167 </i>
   </energy>
  </scstep>
  <scstep>
   <time name="dav">    2.29    2.29</time>
   <time name="total">    2.29    2.29</time>
   <energy>
    <i name="e_fr_energy">    -21.59225390 </i>
    <i name="e_wo_entrp">    -21.59225390 </i>
    <i name="e_0_energy">    -21.59225390 </i>
   </energy>
  </scstep>
  <scstep>
   <time name="dav">    2.04    2.04</time>
   <time name="total">    2.04    2.05</time>
   <energy>
    <i name="e_fr_energy">    -24.75082155 </i>
    <i name="e_wo_entrp">    -24.75082155 </i>
    <i name="e_0_energy">    -24.75082155 </i>
   </energy>
  </scstep>
  <scstep>
   <time name="dav">    2.45    2.45</time>
   <time name="total">    2.57    2.57</time>
   <energy>
    <i name="e_fr_energy">    -24.86016671 </i>
    <i name="e_wo_entrp">    -24.86016671 </i>
    <i name="e_0_energy">    -24.86016671 </i>
   </energy>
  </scstep>
  <scstep>
   <time name="dav">    2.35    2.35</time>
   <time name="total">    2.50    2.50</time>
   <energy>
    <i name="e_fr_energy">    -24.35142513 </i>
    <i name="e_wo_entrp">    -24.35142513 </i>
    <i name="e_0_energy">    -24.35142513 </i>
   </energy>
  </scstep>
  <scstep>
   <time name="dav">    2.17    2.17</time>
   <time name="total">    2.31    2.32</time>
   <energy>
    <i name="e_fr_energy">    -24.25875181 </i>
    <i name="e_wo_entrp">    -24.25875181 </i>
    <i name="e_0_energy">    -24.25875181 </i>
   </energy>
  </scstep>
  <scstep>
   <time name="dav">    2.25    2.25</time>
   <time name="total">    2.39    2.39</time>
   <energy>
    <i name="e_fr_energy">    -24.25322637 </i>
    <i name="e_wo_entrp">    -24.25322637 </i>
    <i name="e_0_energy">    -24.25322637 </i>
   </energy>
  </scstep>
  <scstep>
   <time name="dav">    2.28    2.28</time>
   <time name="total">    2.42    2.42</time>
   <energy>
    <i name="e_fr_energy">    -24.25281896 </i>
    <i name="e_wo_entrp">    -24.25281896 </i>
    <i name="e_0_energy">    -24.25281896 </i>
   </energy>
  </scstep>
  <scstep>
   <time name="dav">    2.38    2.38</time>
   <time name="total">    2.52    2.52</time>
   <energy>
    <i name="e_fr_energy">    -24.25262367 </i>
    <i name="e_wo_entrp">    -24.25262367 </i>
    <i name="e_0_energy">    -24.25262367 </i>
   </energy>
  </scstep>
  <scstep>
   <time name="dav">    1.97    1.97</time>
   <time name="total">    2.11    2.12</time>
   <energy>
    <i name="e_fr_energy">    -24.25245688 </i>
    <i name="e_wo_entrp">    -24.25245688 </i>
    <i name="e_0_energy">    -24.25245688 </i>
   </energy>
  </scstep>
  <scstep>
   <time name="dav">    1.93    1.93</time>
   <time name="total">    2.08    2.08</time>
   <energy>
    <i name="e_fr_energy">    -24.25258971 </i>
    <i name="e_wo_entrp">    -24.25258971 </i>
    <i name="e_0_energy">    -24.25258971 </i>
   </energy>
  </scstep>
  <scstep>
   <time name="dav">    1.87    1.87</time>
   <time name="total">    2.02    2.02</time>
   <energy>
    <i name="e_fr_energy">    -24.25285060 </i>
    <i name="e_wo_entrp">    -24.25285060 </i>
    <i name="e_0_energy">    -24.25285060 </i>
   </energy>
  </scstep>
  <scstep>
   <time name="dav">    1.77    1.77</time>
   <time name="total">    1.91    1.91</time>
   <energy>
    <i name="e_fr_energy">    -24.25294670 </i>
    <i name="e_wo_entrp">    -24.25294670 </i>
    <i name="e_0_energy">    -24.25294670 </i>
   </energy>
  </scstep>
  <scstep>
   <time name="dav">    1.72    1.72</time>
   <time name="total">    1.87    1.87</time>
   <energy>
    <i name="e_fr_energy">    -24.25300237 </i>
    <i name="e_wo_entrp">    -24.25300237 </i>
    <i name="e_0_energy">    -24.25300237 </i>
   </energy>
  </scstep>
  <scstep>
   <time name="dav">    1.70    1.70</time>
   <time name="total">    1.84    1.85</time>
   <energy>
    <i name="e_fr_energy">    -24.25306123 </i>
    <i name="e_wo_entrp">    -24.25306123 </i>
    <i name="e_0_energy">    -24.25306123 </i>
   </energy>
  </scstep>
  <scstep>
   <time name="dav">    1.56    1.56</time>
   <time name="total">    1.70    1.70</time>
   <energy>
    <i name="e_fr_energy">    -24.25310848 </i>
    <i name="e_wo_entrp">    -24.25310848 </i>
    <i name="e_0_energy">    -24.25310848 </i>
   </energy>
  </scstep>
  <scstep>
   <time name="dav">    1.64    1.64</time>
   <time name="total">    1.78    1.78</time>
   <energy>
    <i name="e_fr_energy">    -24.25313705 </i>
    <i name="e_wo_entrp">    -24.25313705 </i>
    <i name="e_0_energy">    -24.25313705 </i>
   </energy>
  </scstep>
  <scstep>
   <time name="dav">    1.64    1.64</time>
   <time name="total">    1.67    1.68</time>
   <energy>
    <i name="alphaZ">     45.57385685 </i>
    <i name="ewald">   4840.70722419 </i>
    <i name="hartreedc">  -9629.39992120 </i>
    <i name="XCdc">    142.75590379 </i>
    <i name="pawpsdc">   5704.99695255 </i>
    <i name="pawaedc">  -6524.74326206 </i>
    <i name="eentropy">     -0.00000000 </i>
    <i name="bandstr">   -825.13012054 </i>
    <i name="atom">   6220.98622430 </i>
    <i name="e_fr_energy">    -24.25314212 </i>
    <i name="e_wo_entrp">    -24.25314212 </i>
    <i name="e_0_energy">    -24.25314212 </i>
   </energy>
  </scstep>
  <structure>
   <crystal>
    <varray name="basis" >
     <v>       4.95489500       0.00000000       0.00000000 </v>
     <v>       0.00000000       5.62663800       0.00000000 </v>
     <v>       0.00000000       0.00000000      18.07929100 </v>
    </varray>
    <i name="volume">    504.03979442 </i>
    <varray name="rec_basis" >
     <v>       0.20182062       0.00000000       0.00000000 </v>
     <v>       0.00000000       0.17772602       0.00000000 </v>
     <v>       0.00000000       0.00000000       0.05531190 </v>
    </varray>
   </crystal>
   <varray name="positions" >
    <v>       0.50000000       0.50000000       0.50000000 </v>
    <v>       0.00000000       0.00000000       0.50000000 </v>
    <v>       0.25000000       0.25000000       0.41502600 </v>
    <v>       0.75000000       0.75000000       0.41502600 </v>
    <v>       0.75000000       0.25000000       0.58497400 </v>
    <v>       0.25000000       0.75000000       0.58497400 </v>
   </varray>
  </structure>
  <varray name="forces" >
   <v>       0.00000000       0.00000000       0.00000000 </v>
   <v>       0.00000000      -0.00000000       0.00000000 </v>
   <v>       0.00000000      -0.00000000       0.10012188 </v>
   <v>       0.00000000      -0.00000000       0.10012188 </v>
   <v>       0.00000000      -0.00000000      -0.10012188 </v>
   <v>       0.00000000      -0.00000000      -0.10012188 </v>
  </varray>
  <varray name="stress" >
   <v>      -3.04981849       0.00000000       0.00000000 </v>
   <v>       0.00000000      -4.06873831       0.00000000 </v>
   <v>       0.00000000       0.00000000      -2.00151412 </v>
  </varray>
  <energy>
   <i name="e_fr_energy">    -24.25314212 </i>
   <i name="e_wo_entrp">    -24.25314212 </i>
   <i name="e_0_energy">     -0.00000000 </i>
  </energy>
  <time name="totalsc">   41.45   41.50</time>
 </calculation>
 <calculation>
  <scstep>
   <time name="dav">    1.82    1.82</time>
   <time name="total">    1.96    1.97</time>
   <energy>
    <i name="alphaZ">     45.57385685 </i>
    <i name="ewald">   4847.16865065 </i>
    <i name="hartreedc">  -9635.65788772 </i>
    <i name="XCdc">    142.78197125 </i>
    <i name="pawpsdc">   5704.98410000 </i>
    <i name="pawaedc">  -6524.73034868 </i>
    <i name="eentropy">     -0.00000000 </i>
    <i name="bandstr">   -825.36054305 </i>
    <i name="atom">   6220.98622430 </i>
    <i name="e_fr_energy">    -24.25397639 </i>
    <i name="e_wo_entrp">    -24.25397639 </i>
    <i name="e_0_energy">    -24.25397639 </i>
   </energy>
  </scstep>
  <scstep>
   <time name="dav">    2.10    2.10</time>
   <time name="total">    2.24    2.24</time>
   <energy>
    <i name="e_fr_energy">    -24.25412464 </i>
    <i name="e_wo_entrp">    -24.25412464 </i>
    <i name="e_0_energy">    -24.25412464 </i>
   </energy>
  </scstep>
  <scstep>
   <time name="dav">    1.88    1.88</time>
   <time name="total">    2.02    2.02</time>
   <energy>
    <i name="e_fr_energy">    -24.25412272 </i>
    <i name="e_wo_entrp">    -24.25412272 </i>
    <i name="e_0_energy">    -24.25412272 </i>
   </energy>
  </scstep>
  <scstep>
   <time name="dav">    1.55    1.55</time>
   <time name="total">    1.69    1.69</time>
   <energy>
    <i name="e_fr_energy">    -24.25412385 </i>
    <i name="e_wo_entrp">    -24.25412385 </i>
    <i name="e_0_energy">    -24.25412385 </i>
   </energy>
  </scstep>
  <scstep>
   <time name="dav">    1.43    1.44</time>
   <time name="total">    1.58    1.58</time>
   <energy>
    <i name="e_fr_energy">    -24.25412528 </i>
    <i name="e_wo_entrp">    -24.25412528 </i>
    <i name="e_0_energy">    -24.25412528 </i>
   </energy>
  </scstep>
  <scstep>
   <time name="dav">    1.37    1.37</time>
   <time name="total">    1.40    1.40</time>
   <energy>
    <i name="alphaZ">     45.57385685 </i>
    <i name="ewald">   4847.16865065 </i>
    <i name="hartreedc">  -9635.65748091 </i>
    <i name="XCdc">    142.77859666 </i>
    <i name="pawpsdc">   5711.55682402 </i>
    <i name="pawaedc">  -6531.34672969 </i>
    <i name="eentropy">     -0.00000000 </i>
    <i name="bandstr">   -825.31406730 </i>
    <i name="atom">   6220.98622430 </i>
    <i name="e_fr_energy">    -24.25412543 </i>
    <i name="e_wo_entrp">    -24.25412543 </i>
    <i name="e_0_energy">    -24.25412543 </i>
   </energy>
  </scstep>
  <structure>
   <crystal>
    <varray name="basis" >
     <v>       4.95489500       0.00000000       0.00000000 </v>
     <v>       0.00000000       5.62663800       0.00000000 </v>
     <v>       0.00000000       0.00000000      18.07929100 </v>
    </varray>
    <i name="volume">    504.03979442 </i>
    <varray name="rec_basis" >
     <v>       0.20182062       0.00000000       0.00000000 </v>
     <v>       0.00000000       0.17772602       0.00000000 </v>
     <v>       0.00000000       0.00000000       0.05531190 </v>
    </varray>
   </crystal>
   <varray name="positions" >
    <v>       0.50000000       0.50000000       0.50000000 </v>
    <v>       0.00000000      -0.00000000       0.50000000 </v>
    <v>       0.25000000       0.25000000       0.41518630 </v>
    <v>       0.75000000       0.75000000       0.41518630 </v>
    <v>       0.75000000       0.25000000       0.58481370 </v>
    <v>       0.25000000       0.75000000       0.58481370 </v>
   </varray>
  </structure>
  <varray name="forces" >
   <v>       0.00000000       0.00000000       0.00000000 </v>
   <v>       0.00000000      -0.00000000       0.00000000 </v>
   <v>       0.00000000      -0.00000000       0.06822458 </v>
   <v>       0.00000000      -0.00000000       0.06822458 </v>
   <v>       0.00000000      -0.00000000      -0.06822458 </v>
   <v>      -0.00000000      -0.00000000      -0.06822458 </v>
  </varray>
  <varray name="stress" >
   <v>      -2.89730823       0.00000000       0.00000000 </v>
   <v>       0.00000000      -3.89190122       0.00000000 </v>
   <v>       0.00000000       0.00000000      -1.40244292 </v>
  </varray>
  <energy>
   <i name="e_fr_energy">    -24.25412543 </i>
   <i name="e_wo_entrp">    -24.25412543 </i>
   <i name="e_0_energy">     -0.00000000 </i>
  </energy>
  <time name="totalsc">   12.11   12.13</time>
 </calculation>
 <calculation>
  <scstep>
   <time name="dav">    1.81    1.81</time>
   <time name="total">    1.95    1.96</time>
   <energy>
    <i name="alphaZ">     45.57385685 </i>
    <i name="ewald">   4860.98932913 </i>
    <i name="hartreedc">  -9649.02553989 </i>
    <i name="XCdc">    142.83440256 </i>
    <i name="pawpsdc">   5711.60953251 </i>
    <i name="pawaedc">  -6531.39913848 </i>
    <i name="eentropy">     -0.00000000 </i>
    <i name="bandstr">   -825.82297423 </i>
    <i name="atom">   6220.98622430 </i>
    <i name="e_fr_energy">    -24.25430724 </i>
    <i name="e_wo_entrp">    -24.25430724 </i>
    <i name="e_0_energy">    -24.25430724 </i>
   </energy>
  </scstep>
  <scstep>
   <time name="dav">    2.09    2.09</time>
   <time name="total">    2.23    2.23</time>
   <energy>
    <i name="e_fr_energy">    -24.25498350 </i>
    <i name="e_wo_entrp">    -24.25498350 </i>
    <i name="e_0_energy">    -24.25498350 </i>
   </energy>
  </scstep>
  <scstep>
   <time name="dav">    1.86    1.86</time>
   <time name="total">    2.00    2.00</time>
   <energy>
    <i name="e_fr_energy">    -24.25496964 </i>
    <i name="e_wo_entrp">    -24.25496964 </i>
    <i name="e_0_energy">    -24.25496964 </i>
   </energy>
  </scstep>
  <scstep>
   <time name="dav">    1.90    1.90</time>
   <time name="total">    2.04    2.05</time>
   <energy>
    <i name="e_fr_energy">    -24.25496984 </i>
    <i name="e_wo_entrp">    -24.25496984 </i>
    <i name="e_0_energy">    -24.25496984 </i>
   </energy>
  </scstep>
  <scstep>
   <time name="dav">    1.62    1.63</time>
   <time name="total">    1.77    1.77</time>
   <energy>
    <i name="e_fr_energy">    -24.25497245 </i>
    <i name="e_wo_entrp">    -24.25497245 </i>
    <i name="e_0_energy">    -24.25497245 </i>
   </energy>
  </scstep>
  <scstep>
   <time name="dav">    1.44    1.44</time>
   <time name="total">    1.47    1.47</time>
   <energy>
    <i name="alphaZ">     45.57385685 </i>
    <i name="ewald">   4860.98932913 </i>
    <i name="hartreedc">  -9649.01589864 </i>
    <i name="XCdc">    142.82713195 </i>
    <i name="pawpsdc">   5725.79963244 </i>
    <i name="pawaedc">  -6545.68299159 </i>
    <i name="eentropy">     -0.00000000 </i>
    <i name="bandstr">   -825.73225726 </i>
    <i name="atom">   6220.98622430 </i>
    <i name="e_fr_energy">    -24.25497282 </i>
    <i name="e_wo_entrp">    -24.25497282 </i>
    <i name="e_0_energy">    -24.25497282 </i>
   </energy>
  </scstep>
  <structure>
   <crystal>
    <varray name="basis" >
     <v>       4.95489500       0.00000000       0.00000000 </v>
     <v>       0.00000000       5.62663800       0.00000000 </v>
     <v>       0.00000000       0.00000000      18.07929100 </v>
    </varray>
    <i name="volume">    504.03979442 </i>
    <varray name="rec_basis" >
     <v>       0.20182062       0.00000000       0.00000000 </v>
     <v>       0.00000000       0.17772602       0.00000000 </v>
     <v>       0.00000000       0.00000000       0.05531190 </v>
    </varray>
   </crystal>
   <varray name="positions" >
    <v>       0.50000000       0.50000000       0.50000000 </v>
    <v>       0.00000000      -0.00000000       0.50000000 </v>
    <v>       0.25000000       0.25000000       0.41552916 </v>
    <v>       0.75000000       0.75000000       0.41552916 </v>
    <v>       0.75000000       0.25000000       0.58447084 </v>
    <v>       0.25000000       0.75000000       0.58447084 </v>
   </varray>
  </structure>
  <varray name="forces" >
   <v>       0.00000000       0.00000000      -0.00000000 </v>
   <v>       0.00000000       0.00000000      -0.00000000 </v>
   <v>       0.00000000       0.00000000      -0.00090208 </v>
   <v>       0.00000000       0.00000000      -0.00090208 </v>
   <v>      -0.00000000      -0.00000000       0.00090208 </v>
   <v>      -0.00000000       0.00000000       0.00090208 </v>
  </varray>
  <varray name="stress" >
   <v>      -2.55219695       0.00000000       0.00000000 </v>
   <v>       0.00000000      -3.49260750       0.00000000 </v>
   <v>       0.00000000       0.00000000      -0.09113183 </v>
  </varray>
  <energy>
   <i name="e_fr_energy">    -24.25497282 </i>
   <i name="e_wo_entrp">    -24.25497282 </i>
   <i name="e_0_energy">     -0.00000000 </i>
  </energy>
  <time name="totalsc">   12.60   12.62</time>
  <eigenvalues>
   <array>
    <dimension dim="1">band</dimension>
    <dimension dim="2">kpoint</dimension>
    <dimension dim="3">spin</dimension>
    <field>eigene</field>
    <field>occ</field>
    <set>
     <set comment="spin 1">
      <set comment="kpoint 1">
       <r>  -27.8713    1.0000 </r>
       <r>  -27.8678    1.0000 </r>
       <r>  -27.8629    1.0000 </r>
       <r>  -27.8600    1.0000 </r>
       <r>  -27.8594    1.0000 </r>
       <r>  -27.8473    1.0000 </r>
       <r>  -27.8427    1.0000 </r>
       <r>  -27.8381    1.0000 </r>
       <r>  -27.8246    1.0000 </r>
       <r>  -27.8195    1.0000 </r>
       <r>  -16.8975    1.0000 </r>
       <r>  -15.4038    1.0000 </r>
       <r>  -15.0359    1.0000 </r>
       <r>  -14.8304    1.0000 </r>
       <r>  -11.8574    1.0000 </r>
       <r>   -9.2402    1.0000 </r>
       <r>   -7.4691    1.0000 </r>
       <r>   -5.9221    1.0000 </r>
       <r>   -5.5709    1.0000 </r>
       <r>   -5.5373    1.0000 </r>
       <r>   -5.3450    1.0000 </r>
       <r>   -5.1555    1.0000 </r>
       <r>   -4.6491    1.0000 </r>
       <r>   -4.1679    1.0000 </r>
       <r>   -2.9369    1.0000 </r>
       <r>   -2.9021    1.0000 </r>
       <r>   -1.9995    0.0000 </r>
       <r>   -1.4116    0.0000 </r>
       <r>   -1.0621    0.0000 </r>
       <r>    0.1135    0.0000 </r>
       <r>    0.6379    0.0000 </r>
       <r>    1.9008    0.0000 </r>
      </set>
      <set comment="kpoint 2">
       <r>  -27.8712    1.0000 </r>
       <r>  -27.8678    1.0000 </r>
       <r>  -27.8629    1.0000 </r>
       <r>  -27.8601    1.0000 </r>
       <r>  -27.8592    1.0000 </r>
       <r>  -27.8473    1.0000 </r>
       <r>  -27.8428    1.0000 </r>
       <r>  -27.8383    1.0000 </r>
       <r>  -27.8245    1.0000 </r>
       <r>  -27.8195    1.0000 </r>
       <r>  -16.8815    1.0000 </r>
       <r>  -15.3982    1.0000 </r>
       <r>  -15.0379    1.0000 </r>
       <r>  -14.8679    1.0000 </r>
       <r>  -11.8155    1.0000 </r>
       <r>   -9.2575    1.0000 </r>
       <r>   -7.4681    1.0000 </r>
       <r>   -5.9150    1.0000 </r>
       <r>   -5.6437    1.0000 </r>
       <r>   -5.6232    1.0000 </r>
       <r>   -5.4005    1.0000 </r>
       <r>   -5.0612    1.0000 </r>
       <r>   -4.6474    1.0000 </r>
       <r>   -4.1540    1.0000 </r>
       <r>   -2.9929    1.0000 </r>
       <r>   -2.9293    1.0000 </r>
       <r>   -1.9039    0.0000 </r>
       <r>   -1.4073    0.0000 </r>
       <r>   -0.9567    0.0000 </r>
       <r>    0.1589    0.0000 </r>
       <r>    0.6836    0.0000 </r>
       <r>    1.9256    0.0000 </r>
      </set>
      <set comment="kpoint 3">
       <r>  -27.8708    1.0000 </r>
       <r>  -27.8676    1.0000 </r>
       <r>  -27.8629    1.0000 </r>
       <r>  -27.8605    1.0000 </r>
       <r>  -27.8587    1.0000 </r>
       <r>  -27.8471    1.0000 </r>
       <r>  -27.8429    1.0000 </r>
       <r>  -27.8391    1.0000 </r>
       <r>  -27.8244    1.0000 </r>
       <r>  -27.8197    1.0000 </r>
       <r>  -16.8335    1.0000 </r>
       <r>  -15.3818    1.0000 </r>
       <r>  -15.0442    1.0000 </r>
       <r>  -14.9737    1.0000 </r>
       <r>  -11.6959    1.0000 </r>
       <r>   -9.3112    1.0000 </r>
       <r>   -7.4638    1.0000 </r>
       <r>   -5.8911    1.0000 </r>
       <r>   -5.8330    1.0000 </r>
       <r>   -5.7729    1.0000 </r>
       <r>   -5.5436    1.0000 </r>
       <r>   -4.8898    1.0000 </r>
       <r>   -4.6571    1.0000 </r>
       <r>   -4.1136    1.0000 </r>
       <r>   -3.1382    1.0000 </r>
       <r>   -3.0032    1.0000 </r>
       <r>   -1.6553    0.0000 </r>
       <r>   -1.3844    0.0000 </r>
       <r>   -0.6597    0.0000 </r>
       <r>    0.2856    0.0000 </r>
       <r>    0.8105    0.0000 </r>
       <r>    1.9394    0.0000 </r>
      </set>
      <set comment="kpoint 4">
       <r>  -27.8702    1.0000 </r>
       <r>  -27.8673    1.0000 </r>
       <r>  -27.8631    1.0000 </r>
       <r>  -27.8611    1.0000 </r>
       <r>  -27.8577    1.0000 </r>
       <r>  -27.8468    1.0000 </r>
       <r>  -27.8431    1.0000 </r>
       <r>  -27.8403    1.0000 </r>
       <r>  -27.8241    1.0000 </r>
       <r>  -27.8199    1.0000 </r>
       <r>  -16.7544    1.0000 </r>
       <r>  -15.3558    1.0000 </r>
       <r>  -15.1319    1.0000 </r>
       <r>  -15.0553    1.0000 </r>
       <r>  -11.5139    1.0000 </r>
       <r>   -9.4050    1.0000 </r>
       <r>   -7.4527    1.0000 </r>
       <r>   -6.0845    1.0000 </r>
       <r>   -5.9135    1.0000 </r>
       <r>   -5.8448    1.0000 </r>
       <r>   -5.7247    1.0000 </r>
       <r>   -4.7224    1.0000 </r>
       <r>   -4.6995    1.0000 </r>
       <r>   -4.0505    1.0000 </r>
       <r>   -3.3349    1.0000 </r>
       <r>   -3.1064    1.0000 </r>
       <r>   -1.3251    0.0000 </r>
       <r>   -1.3213    0.0000 </r>
       <r>   -0.2131    0.0000 </r>
       <r>    0.4711    0.0000 </r>
       <r>    0.9871    0.0000 </r>
       <r>    1.7863    0.0000 </r>
      </set>
      <set comment="kpoint 5">
       <r>  -27.8694    1.0000 </r>
       <r>  -27.8670    1.0000 </r>
       <r>  -27.8634    1.0000 </r>
       <r>  -27.8619    1.0000 </r>
       <r>  -27.8564    1.0000 </r>
       <r>  -27.8464    1.0000 </r>
       <r>  -27.8433    1.0000 </r>
       <r>  -27.8418    1.0000 </r>
       <r>  -27.8237    1.0000 </r>
       <r>  -27.8202    1.0000 </r>
       <r>  -16.6456    1.0000 </r>
       <r>  -15.3243    1.0000 </r>
       <r>  -15.3219    1.0000 </r>
       <r>  -15.0721    1.0000 </r>
       <r>  -11.2864    1.0000 </r>
       <r>   -9.5428    1.0000 </r>
       <r>   -7.4284    1.0000 </r>
       <r>   -6.3544    1.0000 </r>
       <r>   -6.0287    1.0000 </r>
       <r>   -5.8993    1.0000 </r>
       <r>   -5.7709    1.0000 </r>
       <r>   -4.7829    1.0000 </r>
       <r>   -4.5810    1.0000 </r>
       <r>   -3.9695    1.0000 </r>
       <r>   -3.5519    1.0000 </r>
       <r>   -3.2220    1.0000 </r>
       <r>   -1.2027    0.0000 </r>
       <r>   -0.9825    0.0000 </r>
       <r>    0.3395    0.0000 </r>
       <r>    0.6868    0.0000 </r>
       <r>    1.1630    0.0000 </r>
       <r>    1.6299    0.0000 </r>
      </set>
      <set comment="kpoint 6">
       <r>  -27.8685    1.0000 </r>
       <r>  -27.8666    1.0000 </r>
       <r>  -27.8638    1.0000 </r>
       <r>  -27.8629    1.0000 </r>
       <r>  -27.8546    1.0000 </r>
       <r>  -27.8460    1.0000 </r>
       <r>  -27.8437    1.0000 </r>
       <r>  -27.8437    1.0000 </r>
       <r>  -27.8232    1.0000 </r>
       <r>  -27.8206    1.0000 </r>
       <r>  -16.5089    1.0000 </r>
       <r>  -15.5348    1.0000 </r>
       <r>  -15.2826    1.0000 </r>
       <r>  -15.0949    1.0000 </r>
       <r>  -11.0288    1.0000 </r>
       <r>   -9.7253    1.0000 </r>
       <r>   -7.3829    1.0000 </r>
       <r>   -6.6143    1.0000 </r>
       <r>   -6.1144    1.0000 </r>
       <r>   -6.0398    1.0000 </r>
       <r>   -5.6673    1.0000 </r>
       <r>   -4.9045    1.0000 </r>
       <r>   -4.4655    1.0000 </r>
       <r>   -3.8759    1.0000 </r>
       <r>   -3.7650    1.0000 </r>
       <r>   -3.3384    1.0000 </r>
       <r>   -1.0313    0.0000 </r>
       <r>   -0.6954    0.0000 </r>
       <r>    0.9000    0.0000 </r>
       <r>    0.9579    0.0000 </r>
       <r>    1.2865    0.0000 </r>
       <r>    1.5018    0.0000 </r>
      </set>
      <set comment="kpoint 7">
       <r>  -27.8674    1.0000 </r>
       <r>  -27.8660    1.0000 </r>
       <r>  -27.8643    1.0000 </r>
       <r>  -27.8639    1.0000 </r>
       <r>  -27.8526    1.0000 </r>
       <r>  -27.8459    1.0000 </r>
       <r>  -27.8455    1.0000 </r>
       <r>  -27.8441    1.0000 </r>
       <r>  -27.8227    1.0000 </r>
       <r>  -27.8211    1.0000 </r>
       <r>  -16.3471    1.0000 </r>
       <r>  -15.7509    1.0000 </r>
       <r>  -15.2406    1.0000 </r>
       <r>  -15.1241    1.0000 </r>
       <r>  -10.7542    1.0000 </r>
       <r>   -9.9479    1.0000 </r>
       <r>   -7.3075    1.0000 </r>
       <r>   -6.8467    1.0000 </r>
       <r>   -6.1700    1.0000 </r>
       <r>   -6.1348    1.0000 </r>
       <r>   -5.5361    1.0000 </r>
       <r>   -5.0543    1.0000 </r>
       <r>   -4.3621    1.0000 </r>
       <r>   -3.9573    1.0000 </r>
       <r>   -3.7743    1.0000 </r>
       <r>   -3.4512    1.0000 </r>
       <r>   -0.8302    0.0000 </r>
       <r>   -0.5292    0.0000 </r>
       <r>    1.0772    0.0000 </r>
       <r>    1.3410    0.0000 </r>
       <r>    1.3602    0.0000 </r>
       <r>    1.3863    0.0000 </r>
      </set>
      <set comment="kpoint 8">
       <r>  -27.8663    1.0000 </r>
       <r>  -27.8655    1.0000 </r>
       <r>  -27.8651    1.0000 </r>
       <r>  -27.8649    1.0000 </r>
       <r>  -27.8504    1.0000 </r>
       <r>  -27.8481    1.0000 </r>
       <r>  -27.8450    1.0000 </r>
       <r>  -27.8445    1.0000 </r>
       <r>  -27.8222    1.0000 </r>
       <r>  -27.8217    1.0000 </r>
       <r>  -16.1637    1.0000 </r>
       <r>  -15.9630    1.0000 </r>
       <r>  -15.1985    1.0000 </r>
       <r>  -15.1590    1.0000 </r>
       <r>  -10.4744    1.0000 </r>
       <r>  -10.2016    1.0000 </r>
       <r>   -7.1952    1.0000 </r>
       <r>   -7.0417    1.0000 </r>
       <r>   -6.1945    1.0000 </r>
       <r>   -6.1846    1.0000 </r>
       <r>   -5.3834    1.0000 </r>
       <r>   -5.2187    1.0000 </r>
       <r>   -4.2521    1.0000 </r>
       <r>   -4.1198    1.0000 </r>
       <r>   -3.6686    1.0000 </r>
       <r>   -3.5608    1.0000 </r>
       <r>   -0.6404    0.0000 </r>
       <r>   -0.5194    0.0000 </r>
       <r>    1.1974    0.0000 </r>
       <r>    1.2747    0.0000 </r>
       <r>    1.3540    0.0000 </r>
       <r>    1.3647    0.0000 </r>
      </set>
      <set comment="kpoint 9">
       <r>  -27.8712    1.0000 </r>
       <r>  -27.8677    1.0000 </r>
       <r>  -27.8630    1.0000 </r>
       <r>  -27.8597    1.0000 </r>
       <r>  -27.8595    1.0000 </r>
       <r>  -27.8473    1.0000 </r>
       <r>  -27.8428    1.0000 </r>
       <r>  -27.8384    1.0000 </r>
       <r>  -27.8245    1.0000 </r>
       <r>  -27.8195    1.0000 </r>
       <r>  -16.8794    1.0000 </r>
       <r>  -15.3957    1.0000 </r>
       <r>  -15.0838    1.0000 </r>
       <r>  -14.8388    1.0000 </r>
       <r>  -11.7964    1.0000 </r>
       <r>   -9.2608    1.0000 </r>
       <r>   -7.4565    1.0000 </r>
       <r>   -5.9454    1.0000 </r>
       <r>   -5.6252    1.0000 </r>
       <r>   -5.5280    1.0000 </r>
       <r>   -5.4241    1.0000 </r>
       <r>   -5.1213    1.0000 </r>
       <r>   -4.6470    1.0000 </r>
       <r>   -4.1394    1.0000 </r>
       <r>   -2.9690    1.0000 </r>
       <r>   -2.9644    1.0000 </r>
       <r>   -1.8861    0.0000 </r>
       <r>   -1.3897    0.0000 </r>
       <r>   -0.9369    0.0000 </r>
       <r>    0.1315    0.0000 </r>
       <r>    0.6696    0.0000 </r>
       <r>    1.9248    0.0000 </r>
      </set>
      <set comment="kpoint 10">
       <r>  -27.8711    1.0000 </r>
       <r>  -27.8676    1.0000 </r>
       <r>  -27.8631    1.0000 </r>
       <r>  -27.8598    1.0000 </r>
       <r>  -27.8593    1.0000 </r>
       <r>  -27.8472    1.0000 </r>
       <r>  -27.8428    1.0000 </r>
       <r>  -27.8386    1.0000 </r>
       <r>  -27.8245    1.0000 </r>
       <r>  -27.8196    1.0000 </r>
       <r>  -16.8635    1.0000 </r>
       <r>  -15.3903    1.0000 </r>
       <r>  -15.0891    1.0000 </r>
       <r>  -14.8703    1.0000 </r>
       <r>  -11.7582    1.0000 </r>
       <r>   -9.2797    1.0000 </r>
       <r>   -7.4525    1.0000 </r>
       <r>   -5.9503    1.0000 </r>
       <r>   -5.7493    1.0000 </r>
       <r>   -5.5976    1.0000 </r>
       <r>   -5.4011    1.0000 </r>
       <r>   -5.0324    1.0000 </r>
       <r>   -4.6520    1.0000 </r>
       <r>   -4.1264    1.0000 </r>
       <r>   -3.0946    1.0000 </r>
       <r>   -2.9057    1.0000 </r>
       <r>   -1.8450    0.0000 </r>
       <r>   -1.3844    0.0000 </r>
       <r>   -0.8095    0.0000 </r>
       <r>    0.1750    0.0000 </r>
       <r>    0.7144    0.0000 </r>
       <r>    1.8854    0.0000 </r>
      </set>
      <set comment="kpoint 11">
       <r>  -27.8707    1.0000 </r>
       <r>  -27.8674    1.0000 </r>
       <r>  -27.8632    1.0000 </r>
       <r>  -27.8601    1.0000 </r>
       <r>  -27.8587    1.0000 </r>
       <r>  -27.8470    1.0000 </r>
       <r>  -27.8430    1.0000 </r>
       <r>  -27.8393    1.0000 </r>
       <r>  -27.8243    1.0000 </r>
       <r>  -27.8197    1.0000 </r>
       <r>  -16.8161    1.0000 </r>
       <r>  -15.3745    1.0000 </r>
       <r>  -15.1124    1.0000 </r>
       <r>  -14.9520    1.0000 </r>
       <r>  -11.6489    1.0000 </r>
       <r>   -9.3375    1.0000 </r>
       <r>   -7.4401    1.0000 </r>
       <r>   -5.9804    1.0000 </r>
       <r>   -5.9760    1.0000 </r>
       <r>   -5.6973    1.0000 </r>
       <r>   -5.4470    1.0000 </r>
       <r>   -4.8657    1.0000 </r>
       <r>   -4.6728    1.0000 </r>
       <r>   -4.0877    1.0000 </r>
       <r>   -3.2666    1.0000 </r>
       <r>   -2.9206    1.0000 </r>
       <r>   -1.6993    0.0000 </r>
       <r>   -1.3594    0.0000 </r>
       <r>   -0.4759    0.0000 </r>
       <r>    0.2962    0.0000 </r>
       <r>    0.8396    0.0000 </r>
       <r>    1.7576    0.0000 </r>
      </set>
      <set comment="kpoint 12">
       <r>  -27.8703    1.0000 </r>
       <r>  -27.8671    1.0000 </r>
       <r>  -27.8636    1.0000 </r>
       <r>  -27.8606    1.0000 </r>
       <r>  -27.8577    1.0000 </r>
       <r>  -27.8467    1.0000 </r>
       <r>  -27.8432    1.0000 </r>
       <r>  -27.8404    1.0000 </r>
       <r>  -27.8240    1.0000 </r>
       <r>  -27.8200    1.0000 </r>
       <r>  -16.7379    1.0000 </r>
       <r>  -15.3494    1.0000 </r>
       <r>  -15.1930    1.0000 </r>
       <r>  -15.0312    1.0000 </r>
       <r>  -11.4813    1.0000 </r>
       <r>   -9.4375    1.0000 </r>
       <r>   -7.4172    1.0000 </r>
       <r>   -6.2283    1.0000 </r>
       <r>   -6.0400    1.0000 </r>
       <r>   -5.7316    1.0000 </r>
       <r>   -5.5810    1.0000 </r>
       <r>   -4.7250    1.0000 </r>
       <r>   -4.7022    1.0000 </r>
       <r>   -4.0245    1.0000 </r>
       <r>   -3.4585    1.0000 </r>
       <r>   -2.9966    1.0000 </r>
       <r>   -1.4471    0.0000 </r>
       <r>   -1.2952    0.0000 </r>
       <r>   -0.0159    0.0000 </r>
       <r>    0.4714    0.0000 </r>
       <r>    1.0168    0.0000 </r>
       <r>    1.6018    0.0000 </r>
      </set>
      <set comment="kpoint 13">
       <r>  -27.8696    1.0000 </r>
       <r>  -27.8666    1.0000 </r>
       <r>  -27.8640    1.0000 </r>
       <r>  -27.8612    1.0000 </r>
       <r>  -27.8564    1.0000 </r>
       <r>  -27.8463    1.0000 </r>
       <r>  -27.8437    1.0000 </r>
       <r>  -27.8418    1.0000 </r>
       <r>  -27.8236    1.0000 </r>
       <r>  -27.8203    1.0000 </r>
       <r>  -16.6305    1.0000 </r>
       <r>  -15.3529    1.0000 </r>
       <r>  -15.3168    1.0000 </r>
       <r>  -15.0702    1.0000 </r>
       <r>  -11.2703    1.0000 </r>
       <r>   -9.5817    1.0000 </r>
       <r>   -7.3803    1.0000 </r>
       <r>   -6.4615    1.0000 </r>
       <r>   -6.1179    1.0000 </r>
       <r>   -5.7554    1.0000 </r>
       <r>   -5.7008    1.0000 </r>
       <r>   -4.8189    1.0000 </r>
       <r>   -4.5655    1.0000 </r>
       <r>   -3.9400    1.0000 </r>
       <r>   -3.6499    1.0000 </r>
       <r>   -3.1083    1.0000 </r>
       <r>   -1.1791    0.0000 </r>
       <r>   -1.1384    0.0000 </r>
       <r>    0.5122    0.0000 </r>
       <r>    0.6711    0.0000 </r>
       <r>    1.1993    0.0000 </r>
       <r>    1.4625    0.0000 </r>
      </set>
      <set comment="kpoint 14">
       <r>  -27.8688    1.0000 </r>
       <r>  -27.8661    1.0000 </r>
       <r>  -27.8647    1.0000 </r>
       <r>  -27.8620    1.0000 </r>
       <r>  -27.8547    1.0000 </r>
       <r>  -27.8459    1.0000 </r>
       <r>  -27.8447    1.0000 </r>
       <r>  -27.8430    1.0000 </r>
       <r>  -27.8232    1.0000 </r>
       <r>  -27.8207    1.0000 </r>
       <r>  -16.4958    1.0000 </r>
       <r>  -15.5485    1.0000 </r>
       <r>  -15.2792    1.0000 </r>
       <r>  -15.0981    1.0000 </r>
       <r>  -11.0295    1.0000 </r>
       <r>   -9.7686    1.0000 </r>
       <r>   -7.3249    1.0000 </r>
       <r>   -6.6694    1.0000 </r>
       <r>   -6.1771    1.0000 </r>
       <r>   -5.9250    1.0000 </r>
       <r>   -5.6290    1.0000 </r>
       <r>   -4.9490    1.0000 </r>
       <r>   -4.4545    1.0000 </r>
       <r>   -3.8396    1.0000 </r>
       <r>   -3.8287    1.0000 </r>
       <r>   -3.2349    1.0000 </r>
       <r>   -1.0164    0.0000 </r>
       <r>   -0.8464    0.0000 </r>
       <r>    0.8643    0.0000 </r>
       <r>    1.0504    0.0000 </r>
       <r>    1.3351    0.0000 </r>
       <r>    1.3798    0.0000 </r>
      </set>
      <set comment="kpoint 15">
       <r>  -27.8680    1.0000 </r>
       <r>  -27.8654    1.0000 </r>
       <r>  -27.8654    1.0000 </r>
       <r>  -27.8629    1.0000 </r>
       <r>  -27.8527    1.0000 </r>
       <r>  -27.8464    1.0000 </r>
       <r>  -27.8454    1.0000 </r>
       <r>  -27.8437    1.0000 </r>
       <r>  -27.8227    1.0000 </r>
       <r>  -27.8211    1.0000 </r>
       <r>  -16.3367    1.0000 </r>
       <r>  -15.7554    1.0000 </r>
       <r>  -15.2390    1.0000 </r>
       <r>  -15.1277    1.0000 </r>
       <r>  -10.7705    1.0000 </r>
       <r>   -9.9917    1.0000 </r>
       <r>   -7.2463    1.0000 </r>
       <r>   -6.8515    1.0000 </r>
       <r>   -6.2055    1.0000 </r>
       <r>   -6.0612    1.0000 </r>
       <r>   -5.5269    1.0000 </r>
       <r>   -5.1000    1.0000 </r>
       <r>   -4.3552    1.0000 </r>
       <r>   -3.9898    1.0000 </r>
       <r>   -3.7289    1.0000 </r>
       <r>   -3.3638    1.0000 </r>
       <r>   -0.8329    0.0000 </r>
       <r>   -0.6479    0.0000 </r>
       <r>    1.0241    0.0000 </r>
       <r>    1.2570    0.0000 </r>
       <r>    1.3995    0.0000 </r>
       <r>    1.4509    0.0000 </r>
      </set>
      <set comment="kpoint 16">
       <r>  -27.8671    1.0000 </r>
       <r>  -27.8662    1.0000 </r>
       <r>  -27.8646    1.0000 </r>
       <r>  -27.8637    1.0000 </r>
       <r>  -27.8506    1.0000 </r>
       <r>  -27.8485    1.0000 </r>
       <r>  -27.8448    1.0000 </r>
       <r>  -27.8443    1.0000 </r>
       <r>  -27.8222    1.0000 </r>
       <r>  -27.8216    1.0000 </r>
       <r>  -16.1568    1.0000 </r>
       <r>  -15.9610    1.0000 </r>
       <r>  -15.1990    1.0000 </r>
       <r>  -15.1614    1.0000 </r>
       <r>  -10.5041    1.0000 </r>
       <r>  -10.2407    1.0000 </r>
       <r>   -7.1413    1.0000 </r>
       <r>   -7.0092    1.0000 </r>
       <r>   -6.1986    1.0000 </r>
       <r>   -6.1522    1.0000 </r>
       <r>   -5.4003    1.0000 </r>
       <r>   -5.2549    1.0000 </r>
       <r>   -4.2510    1.0000 </r>
       <r>   -4.1307    1.0000 </r>
       <r>   -3.6117    1.0000 </r>
       <r>   -3.4898    1.0000 </r>
       <r>   -0.6726    0.0000 </r>
       <r>   -0.5930    0.0000 </r>
       <r>    1.1414    0.0000 </r>
       <r>    1.2226    0.0000 </r>
       <r>    1.4042    0.0000 </r>
       <r>    1.4072    0.0000 </r>
      </set>
      <set comment="kpoint 17">
       <r>  -27.8708    1.0000 </r>
       <r>  -27.8674    1.0000 </r>
       <r>  -27.8635    1.0000 </r>
       <r>  -27.8599    1.0000 </r>
       <r>  -27.8587    1.0000 </r>
       <r>  -27.8470    1.0000 </r>
       <r>  -27.8430    1.0000 </r>
       <r>  -27.8393    1.0000 </r>
       <r>  -27.8243    1.0000 </r>
       <r>  -27.8197    1.0000 </r>
       <r>  -16.8253    1.0000 </r>
       <r>  -15.3718    1.0000 </r>
       <r>  -15.2156    1.0000 </r>
       <r>  -14.8637    1.0000 </r>
       <r>  -11.6257    1.0000 </r>
       <r>   -9.3252    1.0000 </r>
       <r>   -7.4173    1.0000 </r>
       <r>   -6.0049    1.0000 </r>
       <r>   -5.7637    1.0000 </r>
       <r>   -5.6264    1.0000 </r>
       <r>   -5.4985    1.0000 </r>
       <r>   -5.0283    1.0000 </r>
       <r>   -4.6586    1.0000 </r>
       <r>   -4.0591    1.0000 </r>
       <r>   -3.1334    1.0000 </r>
       <r>   -3.0330    1.0000 </r>
       <r>   -1.6006    0.0000 </r>
       <r>   -1.3215    0.0000 </r>
       <r>   -0.5900    0.0000 </r>
       <r>    0.1837    0.0000 </r>
       <r>    0.7566    0.0000 </r>
       <r>    1.8154    0.0000 </r>
      </set>
      <set comment="kpoint 18">
       <r>  -27.8708    1.0000 </r>
       <r>  -27.8673    1.0000 </r>
       <r>  -27.8636    1.0000 </r>
       <r>  -27.8597    1.0000 </r>
       <r>  -27.8587    1.0000 </r>
       <r>  -27.8470    1.0000 </r>
       <r>  -27.8430    1.0000 </r>
       <r>  -27.8395    1.0000 </r>
       <r>  -27.8242    1.0000 </r>
       <r>  -27.8198    1.0000 </r>
       <r>  -16.8099    1.0000 </r>
       <r>  -15.3670    1.0000 </r>
       <r>  -15.2232    1.0000 </r>
       <r>  -14.8861    1.0000 </r>
       <r>  -11.5975    1.0000 </r>
       <r>   -9.3481    1.0000 </r>
       <r>   -7.4054    1.0000 </r>
       <r>   -6.0269    1.0000 </r>
       <r>   -5.9586    1.0000 </r>
       <r>   -5.5442    1.0000 </r>
       <r>   -5.4794    1.0000 </r>
       <r>   -4.9507    1.0000 </r>
       <r>   -4.6738    1.0000 </r>
       <r>   -4.0475    1.0000 </r>
       <r>   -3.2676    1.0000 </r>
       <r>   -2.9400    1.0000 </r>
       <r>   -1.6512    0.0000 </r>
       <r>   -1.3140    0.0000 </r>
       <r>   -0.4299    0.0000 </r>
       <r>    0.2218    0.0000 </r>
       <r>    0.7992    0.0000 </r>
       <r>    1.6982    0.0000 </r>
      </set>
      <set comment="kpoint 19">
       <r>  -27.8706    1.0000 </r>
       <r>  -27.8669    1.0000 </r>
       <r>  -27.8639    1.0000 </r>
       <r>  -27.8595    1.0000 </r>
       <r>  -27.8585    1.0000 </r>
       <r>  -27.8468    1.0000 </r>
       <r>  -27.8433    1.0000 </r>
       <r>  -27.8401    1.0000 </r>
       <r>  -27.8241    1.0000 </r>
       <r>  -27.8199    1.0000 </r>
       <r>  -16.7642    1.0000 </r>
       <r>  -15.3529    1.0000 </r>
       <r>  -15.2511    1.0000 </r>
       <r>  -14.9447    1.0000 </r>
       <r>  -11.5156    1.0000 </r>
       <r>   -9.4174    1.0000 </r>
       <r>   -7.3702    1.0000 </r>
       <r>   -6.2097    1.0000 </r>
       <r>   -6.0938    1.0000 </r>
       <r>   -5.6039    1.0000 </r>
       <r>   -5.3766    1.0000 </r>
       <r>   -4.7972    1.0000 </r>
       <r>   -4.7191    1.0000 </r>
       <r>   -4.0102    1.0000 </r>
       <r>   -3.4561    1.0000 </r>
       <r>   -2.8701    1.0000 </r>
       <r>   -1.6937    0.0000 </r>
       <r>   -1.2845    0.0000 </r>
       <r>   -0.0594    0.0000 </r>
       <r>    0.3261    0.0000 </r>
       <r>    0.9211    0.0000 </r>
       <r>    1.5429    0.0000 </r>
      </set>
      <set comment="kpoint 20">
       <r>  -27.8703    1.0000 </r>
       <r>  -27.8664    1.0000 </r>
       <r>  -27.8644    1.0000 </r>
       <r>  -27.8598    1.0000 </r>
       <r>  -27.8576    1.0000 </r>
       <r>  -27.8464    1.0000 </r>
       <r>  -27.8438    1.0000 </r>
       <r>  -27.8408    1.0000 </r>
       <r>  -27.8238    1.0000 </r>
       <r>  -27.8201    1.0000 </r>
       <r>  -16.6889    1.0000 </r>
       <r>  -15.3306    1.0000 </r>
       <r>  -15.3155    1.0000 </r>
       <r>  -15.0145    1.0000 </r>
       <r>  -11.3874    1.0000 </r>
       <r>   -9.5332    1.0000 </r>
       <r>   -7.3137    1.0000 </r>
       <r>   -6.4353    1.0000 </r>
       <r>   -6.1876    1.0000 </r>
       <r>   -5.6208    1.0000 </r>
       <r>   -5.3932    1.0000 </r>
       <r>   -4.7989    1.0000 </r>
       <r>   -4.6480    1.0000 </r>
       <r>   -3.9426    1.0000 </r>
       <r>   -3.6381    1.0000 </r>
       <r>   -2.8693    1.0000 </r>
       <r>   -1.6180    0.0000 </r>
       <r>   -1.2200    0.0000 </r>
       <r>    0.3898    0.0000 </r>
       <r>    0.4726    0.0000 </r>
       <r>    1.1006    0.0000 </r>
       <r>    1.4073    0.0000 </r>
      </set>
      <set comment="kpoint 21">
       <r>  -27.8699    1.0000 </r>
       <r>  -27.8658    1.0000 </r>
       <r>  -27.8651    1.0000 </r>
       <r>  -27.8603    1.0000 </r>
       <r>  -27.8564    1.0000 </r>
       <r>  -27.8460    1.0000 </r>
       <r>  -27.8446    1.0000 </r>
       <r>  -27.8417    1.0000 </r>
       <r>  -27.8234    1.0000 </r>
       <r>  -27.8204    1.0000 </r>
       <r>  -16.5858    1.0000 </r>
       <r>  -15.4314    1.0000 </r>
       <r>  -15.3019    1.0000 </r>
       <r>  -15.0693    1.0000 </r>
       <r>  -11.2217    1.0000 </r>
       <r>   -9.6927    1.0000 </r>
       <r>   -7.2403    1.0000 </r>
       <r>   -6.6182    1.0000 </r>
       <r>   -6.2704    1.0000 </r>
       <r>   -5.6016    1.0000 </r>
       <r>   -5.5085    1.0000 </r>
       <r>   -4.9183    1.0000 </r>
       <r>   -4.5292    1.0000 </r>
       <r>   -3.8443    1.0000 </r>
       <r>   -3.7974    1.0000 </r>
       <r>   -2.9313    1.0000 </r>
       <r>   -1.4225    0.0000 </r>
       <r>   -1.1146    0.0000 </r>
       <r>    0.6349    0.0000 </r>
       <r>    0.8230    0.0000 </r>
       <r>    1.2953    0.0000 </r>
       <r>    1.3431    0.0000 </r>
      </set>
      <set comment="kpoint 22">
       <r>  -27.8694    1.0000 </r>
       <r>  -27.8658    1.0000 </r>
       <r>  -27.8650    1.0000 </r>
       <r>  -27.8609    1.0000 </r>
       <r>  -27.8549    1.0000 </r>
       <r>  -27.8459    1.0000 </r>
       <r>  -27.8455    1.0000 </r>
       <r>  -27.8425    1.0000 </r>
       <r>  -27.8230    1.0000 </r>
       <r>  -27.8208    1.0000 </r>
       <r>  -16.4571    1.0000 </r>
       <r>  -15.5897    1.0000 </r>
       <r>  -15.2691    1.0000 </r>
       <r>  -15.1069    1.0000 </r>
       <r>  -11.0271    1.0000 </r>
       <r>   -9.8886    1.0000 </r>
       <r>   -7.1584    1.0000 </r>
       <r>   -6.7566    1.0000 </r>
       <r>   -6.3106    1.0000 </r>
       <r>   -5.6800    1.0000 </r>
       <r>   -5.5605    1.0000 </r>
       <r>   -5.0633    1.0000 </r>
       <r>   -4.4363    1.0000 </r>
       <r>   -3.9340    1.0000 </r>
       <r>   -3.7235    1.0000 </r>
       <r>   -3.0364    1.0000 </r>
       <r>   -1.1688    0.0000 </r>
       <r>   -0.9807    0.0000 </r>
       <r>    0.7918    0.0000 </r>
       <r>    1.0535    0.0000 </r>
       <r>    1.4474    0.0000 </r>
       <r>    1.5108    0.0000 </r>
      </set>
      <set comment="kpoint 23">
       <r>  -27.8688    1.0000 </r>
       <r>  -27.8666    1.0000 </r>
       <r>  -27.8642    1.0000 </r>
       <r>  -27.8616    1.0000 </r>
       <r>  -27.8531    1.0000 </r>
       <r>  -27.8475    1.0000 </r>
       <r>  -27.8449    1.0000 </r>
       <r>  -27.8431    1.0000 </r>
       <r>  -27.8226    1.0000 </r>
       <r>  -27.8212    1.0000 </r>
       <r>  -16.3061    1.0000 </r>
       <r>  -15.7698    1.0000 </r>
       <r>  -15.2345    1.0000 </r>
       <r>  -15.1376    1.0000 </r>
       <r>  -10.8113    1.0000 </r>
       <r>  -10.1098    1.0000 </r>
       <r>   -7.0783    1.0000 </r>
       <r>   -6.8586    1.0000 </r>
       <r>   -6.2886    1.0000 </r>
       <r>   -5.8711    1.0000 </r>
       <r>   -5.5032    1.0000 </r>
       <r>   -5.2072    1.0000 </r>
       <r>   -4.3524    1.0000 </r>
       <r>   -4.0551    1.0000 </r>
       <r>   -3.5899    1.0000 </r>
       <r>   -3.1660    1.0000 </r>
       <r>   -0.9372    0.0000 </r>
       <r>   -0.8515    0.0000 </r>
       <r>    0.9319    0.0000 </r>
       <r>    1.1033    0.0000 </r>
       <r>    1.5119    0.0000 </r>
       <r>    1.5827    0.0000 </r>
      </set>
      <set comment="kpoint 24">
       <r>  -27.8681    1.0000 </r>
       <r>  -27.8674    1.0000 </r>
       <r>  -27.8633    1.0000 </r>
       <r>  -27.8625    1.0000 </r>
       <r>  -27.8512    1.0000 </r>
       <r>  -27.8493    1.0000 </r>
       <r>  -27.8444    1.0000 </r>
       <r>  -27.8438    1.0000 </r>
       <r>  -27.8221    1.0000 </r>
       <r>  -27.8216    1.0000 </r>
       <r>  -16.1371    1.0000 </r>
       <r>  -15.9558    1.0000 </r>
       <r>  -15.2003    1.0000 </r>
       <r>  -15.1680    1.0000 </r>
       <r>  -10.5811    1.0000 </r>
       <r>  -10.3443    1.0000 </r>
       <r>   -7.0061    1.0000 </r>
       <r>   -6.9370    1.0000 </r>
       <r>   -6.1990    1.0000 </r>
       <r>   -6.0526    1.0000 </r>
       <r>   -5.4284    1.0000 </r>
       <r>   -5.3309    1.0000 </r>
       <r>   -4.2640    1.0000 </r>
       <r>   -4.1650    1.0000 </r>
       <r>   -3.4496    1.0000 </r>
       <r>   -3.3066    1.0000 </r>
       <r>   -0.7962    0.0000 </r>
       <r>   -0.7744    0.0000 </r>
       <r>    1.0501    0.0000 </r>
       <r>    1.1171    0.0000 </r>
       <r>    1.4861    0.0000 </r>
       <r>    1.4954    0.0000 </r>
      </set>
      <set comment="kpoint 25">
       <r>  -27.8703    1.0000 </r>
       <r>  -27.8668    1.0000 </r>
       <r>  -27.8641    1.0000 </r>
       <r>  -27.8605    1.0000 </r>
       <r>  -27.8571    1.0000 </r>
       <r>  -27.8467    1.0000 </r>
       <r>  -27.8432    1.0000 </r>
       <r>  -27.8408    1.0000 </r>
       <r>  -27.8240    1.0000 </r>
       <r>  -27.8201    1.0000 </r>
       <r>  -16.7361    1.0000 </r>
       <r>  -15.4046    1.0000 </r>
       <r>  -15.3334    1.0000 </r>
       <r>  -14.9036    1.0000 </r>
       <r>  -11.3741    1.0000 </r>
       <r>   -9.4392    1.0000 </r>
       <r>   -7.3484    1.0000 </r>
       <r>   -6.0811    1.0000 </r>
       <r>   -5.9342    1.0000 </r>
       <r>   -5.8924    1.0000 </r>
       <r>   -5.4460    1.0000 </r>
       <r>   -4.8935    1.0000 </r>
       <r>   -4.7044    1.0000 </r>
       <r>   -3.9411    1.0000 </r>
       <r>   -3.3507    1.0000 </r>
       <r>   -3.1197    1.0000 </r>
       <r>   -1.2319    0.0000 </r>
       <r>   -1.2024    0.0000 </r>
       <r>   -0.0775    0.0000 </r>
       <r>    0.2661    0.0000 </r>
       <r>    0.8756    0.0000 </r>
       <r>    1.5599    0.0000 </r>
      </set>
      <set comment="kpoint 26">
       <r>  -27.8703    1.0000 </r>
       <r>  -27.8666    1.0000 </r>
       <r>  -27.8643    1.0000 </r>
       <r>  -27.8603    1.0000 </r>
       <r>  -27.8572    1.0000 </r>
       <r>  -27.8466    1.0000 </r>
       <r>  -27.8434    1.0000 </r>
       <r>  -27.8409    1.0000 </r>
       <r>  -27.8239    1.0000 </r>
       <r>  -27.8201    1.0000 </r>
       <r>  -16.7217    1.0000 </r>
       <r>  -15.4103    1.0000 </r>
       <r>  -15.3295    1.0000 </r>
       <r>  -14.9192    1.0000 </r>
       <r>  -11.3593    1.0000 </r>
       <r>   -9.4677    1.0000 </r>
       <r>   -7.3256    1.0000 </r>
       <r>   -6.1791    1.0000 </r>
       <r>   -6.1103    1.0000 </r>
       <r>   -5.6490    1.0000 </r>
       <r>   -5.4808    1.0000 </r>
       <r>   -4.8275    1.0000 </r>
       <r>   -4.7285    1.0000 </r>
       <r>   -3.9285    1.0000 </r>
       <r>   -3.4664    1.0000 </r>
       <r>   -3.0208    1.0000 </r>
       <r>   -1.3425    0.0000 </r>
       <r>   -1.1933    0.0000 </r>
       <r>    0.0875    0.0000 </r>
       <r>    0.2948    0.0000 </r>
       <r>    0.9168    0.0000 </r>
       <r>    1.4675    0.0000 </r>
      </set>
      <set comment="kpoint 27">
       <r>  -27.8703    1.0000 </r>
       <r>  -27.8662    1.0000 </r>
       <r>  -27.8648    1.0000 </r>
       <r>  -27.8598    1.0000 </r>
       <r>  -27.8571    1.0000 </r>
       <r>  -27.8464    1.0000 </r>
       <r>  -27.8439    1.0000 </r>
       <r>  -27.8411    1.0000 </r>
       <r>  -27.8237    1.0000 </r>
       <r>  -27.8202    1.0000 </r>
       <r>  -16.6787    1.0000 </r>
       <r>  -15.4301    1.0000 </r>
       <r>  -15.3182    1.0000 </r>
       <r>  -14.9619    1.0000 </r>
       <r>  -11.3150    1.0000 </r>
       <r>   -9.5519    1.0000 </r>
       <r>   -7.2587    1.0000 </r>
       <r>   -6.4131    1.0000 </r>
       <r>   -6.1940    1.0000 </r>
       <r>   -5.5292    1.0000 </r>
       <r>   -5.4328    1.0000 </r>
       <r>   -4.7997    1.0000 </r>
       <r>   -4.6947    1.0000 </r>
       <r>   -3.8854    1.0000 </r>
       <r>   -3.6419    1.0000 </r>
       <r>   -2.8948    1.0000 </r>
       <r>   -1.5320    0.0000 </r>
       <r>   -1.1627    0.0000 </r>
       <r>    0.3719    0.0000 </r>
       <r>    0.4386    0.0000 </r>
       <r>    1.0370    0.0000 </r>
       <r>    1.3453    0.0000 </r>
      </set>
      <set comment="kpoint 28">
       <r>  -27.8703    1.0000 </r>
       <r>  -27.8655    1.0000 </r>
       <r>  -27.8654    1.0000 </r>
       <r>  -27.8595    1.0000 </r>
       <r>  -27.8569    1.0000 </r>
       <r>  -27.8460    1.0000 </r>
       <r>  -27.8447    1.0000 </r>
       <r>  -27.8414    1.0000 </r>
       <r>  -27.8235    1.0000 </r>
       <r>  -27.8204    1.0000 </r>
       <r>  -16.6084    1.0000 </r>
       <r>  -15.4722    1.0000 </r>
       <r>  -15.3007    1.0000 </r>
       <r>  -15.0194    1.0000 </r>
       <r>  -11.2417    1.0000 </r>
       <r>   -9.6864    1.0000 </r>
       <r>   -7.1530    1.0000 </r>
       <r>   -6.5988    1.0000 </r>
       <r>   -6.3092    1.0000 </r>
       <r>   -5.5446    1.0000 </r>
       <r>   -5.3112    1.0000 </r>
       <r>   -4.9135    1.0000 </r>
       <r>   -4.5730    1.0000 </r>
       <r>   -3.8020    1.0000 </r>
       <r>   -3.7981    1.0000 </r>
       <r>   -2.8184    1.0000 </r>
       <r>   -1.6447    0.0000 </r>
       <r>   -1.1062    0.0000 </r>
       <r>    0.4790    0.0000 </r>
       <r>    0.7890    0.0000 </r>
       <r>    1.2192    0.0000 </r>
       <r>    1.2930    0.0000 </r>
      </set>
      <set comment="kpoint 29">
       <r>  -27.8702    1.0000 </r>
       <r>  -27.8662    1.0000 </r>
       <r>  -27.8648    1.0000 </r>
       <r>  -27.8595    1.0000 </r>
       <r>  -27.8561    1.0000 </r>
       <r>  -27.8458    1.0000 </r>
       <r>  -27.8455    1.0000 </r>
       <r>  -27.8418    1.0000 </r>
       <r>  -27.8232    1.0000 </r>
       <r>  -27.8206    1.0000 </r>
       <r>  -16.5127    1.0000 </r>
       <r>  -15.5468    1.0000 </r>
       <r>  -15.2785    1.0000 </r>
       <r>  -15.0755    1.0000 </r>
       <r>  -11.1401    1.0000 </r>
       <r>   -9.8608    1.0000 </r>
       <r>   -7.0222    1.0000 </r>
       <r>   -6.7315    1.0000 </r>
       <r>   -6.4141    1.0000 </r>
       <r>   -5.5315    1.0000 </r>
       <r>   -5.3101    1.0000 </r>
       <r>   -5.0590    1.0000 </r>
       <r>   -4.4874    1.0000 </r>
       <r>   -3.9245    1.0000 </r>
       <r>   -3.6789    1.0000 </r>
       <r>   -2.8055    1.0000 </r>
       <r>   -1.6234    0.0000 </r>
       <r>   -1.0287    0.0000 </r>
       <r>    0.6006    0.0000 </r>
       <r>    0.9440    0.0000 </r>
       <r>    1.4226    0.0000 </r>
       <r>    1.4570    0.0000 </r>
      </set>
      <set comment="kpoint 30">
       <r>  -27.8699    1.0000 </r>
       <r>  -27.8669    1.0000 </r>
       <r>  -27.8639    1.0000 </r>
       <r>  -27.8599    1.0000 </r>
       <r>  -27.8550    1.0000 </r>
       <r>  -27.8472    1.0000 </r>
       <r>  -27.8450    1.0000 </r>
       <r>  -27.8422    1.0000 </r>
       <r>  -27.8228    1.0000 </r>
       <r>  -27.8209    1.0000 </r>
       <r>  -16.3943    1.0000 </r>
       <r>  -15.6575    1.0000 </r>
       <r>  -15.2535    1.0000 </r>
       <r>  -15.1193    1.0000 </r>
       <r>  -11.0112    1.0000 </r>
       <r>  -10.0611    1.0000 </r>
       <r>   -6.9037    1.0000 </r>
       <r>   -6.8157    1.0000 </r>
       <r>   -6.4523    1.0000 </r>
       <r>   -5.5041    1.0000 </r>
       <r>   -5.4303    1.0000 </r>
       <r>   -5.2015    1.0000 </r>
       <r>   -4.4261    1.0000 </r>
       <r>   -4.0309    1.0000 </r>
       <r>   -3.5315    1.0000 </r>
       <r>   -2.8533    1.0000 </r>
       <r>   -1.4807    0.0000 </r>
       <r>   -0.9525    0.0000 </r>
       <r>    0.7297    0.0000 </r>
       <r>    0.9630    0.0000 </r>
       <r>    1.5825    0.0000 </r>
       <r>    1.7419    0.0000 </r>
      </set>
      <set comment="kpoint 31">
       <r>  -27.8695    1.0000 </r>
       <r>  -27.8677    1.0000 </r>
       <r>  -27.8630    1.0000 </r>
       <r>  -27.8606    1.0000 </r>
       <r>  -27.8535    1.0000 </r>
       <r>  -27.8487    1.0000 </r>
       <r>  -27.8444    1.0000 </r>
       <r>  -27.8427    1.0000 </r>
       <r>  -27.8224    1.0000 </r>
       <r>  -27.8212    1.0000 </r>
       <r>  -16.2573    1.0000 </r>
       <r>  -15.7964    1.0000 </r>
       <r>  -15.2278    1.0000 </r>
       <r>  -15.1515    1.0000 </r>
       <r>  -10.8564    1.0000 </r>
       <r>  -10.2723    1.0000 </r>
       <r>   -6.8602    1.0000 </r>
       <r>   -6.8584    1.0000 </r>
       <r>   -6.3572    1.0000 </r>
       <r>   -5.6474    1.0000 </r>
       <r>   -5.4706    1.0000 </r>
       <r>   -5.3053    1.0000 </r>
       <r>   -4.3681    1.0000 </r>
       <r>   -4.1282    1.0000 </r>
       <r>   -3.3757    1.0000 </r>
       <r>   -2.9487    1.0000 </r>
       <r>   -1.2764    0.0000 </r>
       <r>   -0.9153    0.0000 </r>
       <r>    0.8623    0.0000 </r>
       <r>    0.9914    0.0000 </r>
       <r>    1.6324    0.0000 </r>
       <r>    1.6688    0.0000 </r>
      </set>
      <set comment="kpoint 32">
       <r>  -27.8690    1.0000 </r>
       <r>  -27.8684    1.0000 </r>
       <r>  -27.8621    1.0000 </r>
       <r>  -27.8613    1.0000 </r>
       <r>  -27.8520    1.0000 </r>
       <r>  -27.8504    1.0000 </r>
       <r>  -27.8438    1.0000 </r>
       <r>  -27.8432    1.0000 </r>
       <r>  -27.8220    1.0000 </r>
       <r>  -27.8216    1.0000 </r>
       <r>  -16.1069    1.0000 </r>
       <r>  -15.9502    1.0000 </r>
       <r>  -15.2025    1.0000 </r>
       <r>  -15.1777    1.0000 </r>
       <r>  -10.6784    1.0000 </r>
       <r>  -10.4815    1.0000 </r>
       <r>   -6.8738    1.0000 </r>
       <r>   -6.8662    1.0000 </r>
       <r>   -6.1525    1.0000 </r>
       <r>   -5.9026    1.0000 </r>
       <r>   -5.4308    1.0000 </r>
       <r>   -5.3784    1.0000 </r>
       <r>   -4.3001    1.0000 </r>
       <r>   -4.2191    1.0000 </r>
       <r>   -3.2213    1.0000 </r>
       <r>   -3.0758    1.0000 </r>
       <r>   -1.0821    0.0000 </r>
       <r>   -0.9539    0.0000 </r>
       <r>    0.9793    0.0000 </r>
       <r>    1.0233    0.0000 </r>
       <r>    1.5637    0.0000 </r>
       <r>    1.5775    0.0000 </r>
      </set>
      <set comment="kpoint 33">
       <r>  -27.8695    1.0000 </r>
       <r>  -27.8660    1.0000 </r>
       <r>  -27.8649    1.0000 </r>
       <r>  -27.8612    1.0000 </r>
       <r>  -27.8552    1.0000 </r>
       <r>  -27.8462    1.0000 </r>
       <r>  -27.8436    1.0000 </r>
       <r>  -27.8428    1.0000 </r>
       <r>  -27.8235    1.0000 </r>
       <r>  -27.8206    1.0000 </r>
       <r>  -16.6133    1.0000 </r>
       <r>  -15.6234    1.0000 </r>
       <r>  -15.2824    1.0000 </r>
       <r>  -14.9560    1.0000 </r>
       <r>  -11.0721    1.0000 </r>
       <r>   -9.6084    1.0000 </r>
       <r>   -7.2457    1.0000 </r>
       <r>   -6.1780    1.0000 </r>
       <r>   -6.1576    1.0000 </r>
       <r>   -6.0887    1.0000 </r>
       <r>   -5.3689    1.0000 </r>
       <r>   -4.7867    1.0000 </r>
       <r>   -4.7280    1.0000 </r>
       <r>   -3.8031    1.0000 </r>
       <r>   -3.5944    1.0000 </r>
       <r>   -3.2118    1.0000 </r>
       <r>   -1.0328    0.0000 </r>
       <r>   -0.8638    0.0000 </r>
       <r>    0.3741    0.0000 </r>
       <r>    0.5509    0.0000 </r>
       <r>    0.9926    0.0000 </r>
       <r>    1.3054    0.0000 </r>
      </set>
      <set comment="kpoint 34">
       <r>  -27.8696    1.0000 </r>
       <r>  -27.8658    1.0000 </r>
       <r>  -27.8651    1.0000 </r>
       <r>  -27.8610    1.0000 </r>
       <r>  -27.8552    1.0000 </r>
       <r>  -27.8461    1.0000 </r>
       <r>  -27.8441    1.0000 </r>
       <r>  -27.8425    1.0000 </r>
       <r>  -27.8234    1.0000 </r>
       <r>  -27.8206    1.0000 </r>
       <r>  -16.6002    1.0000 </r>
       <r>  -15.6253    1.0000 </r>
       <r>  -15.2799    1.0000 </r>
       <r>  -14.9668    1.0000 </r>
       <r>  -11.0718    1.0000 </r>
       <r>   -9.6421    1.0000 </r>
       <r>   -7.2126    1.0000 </r>
       <r>   -6.3768    1.0000 </r>
       <r>   -6.1834    1.0000 </r>
       <r>   -5.8606    1.0000 </r>
       <r>   -5.4050    1.0000 </r>
       <r>   -4.8206    1.0000 </r>
       <r>   -4.6743    1.0000 </r>
       <r>   -3.7853    1.0000 </r>
       <r>   -3.6766    1.0000 </r>
       <r>   -3.1219    1.0000 </r>
       <r>   -1.0258    0.0000 </r>
       <r>   -0.9921    0.0000 </r>
       <r>    0.3904    0.0000 </r>
       <r>    0.6800    0.0000 </r>
       <r>    1.0336    0.0000 </r>
       <r>    1.2523    0.0000 </r>
      </set>
      <set comment="kpoint 35">
       <r>  -27.8699    1.0000 </r>
       <r>  -27.8657    1.0000 </r>
       <r>  -27.8653    1.0000 </r>
       <r>  -27.8605    1.0000 </r>
       <r>  -27.8553    1.0000 </r>
       <r>  -27.8459    1.0000 </r>
       <r>  -27.8450    1.0000 </r>
       <r>  -27.8422    1.0000 </r>
       <r>  -27.8233    1.0000 </r>
       <r>  -27.8206    1.0000 </r>
       <r>  -16.5614    1.0000 </r>
       <r>  -15.6327    1.0000 </r>
       <r>  -15.2727    1.0000 </r>
       <r>  -14.9974    1.0000 </r>
       <r>  -11.0685    1.0000 </r>
       <r>   -9.7386    1.0000 </r>
       <r>   -7.1161    1.0000 </r>
       <r>   -6.5667    1.0000 </r>
       <r>   -6.2604    1.0000 </r>
       <r>   -5.5958    1.0000 </r>
       <r>   -5.4639    1.0000 </r>
       <r>   -4.9163    1.0000 </r>
       <r>   -4.5698    1.0000 </r>
       <r>   -3.8135    1.0000 </r>
       <r>   -3.7254    1.0000 </r>
       <r>   -2.9683    1.0000 </r>
       <r>   -1.2556    0.0000 </r>
       <r>   -1.0058    0.0000 </r>
       <r>    0.4358    0.0000 </r>
       <r>    0.9021    0.0000 </r>
       <r>    1.1527    0.0000 </r>
       <r>    1.2368    0.0000 </r>
[...]
       <r>    1.1434    0.0000 </r>
       <r>    1.3034    0.0000 </r>
      </set>
      <set comment="kpoint 54">
       <r>  -27.8699    1.0000 </r>
       <r>  -27.8695    1.0000 </r>
       <r>  -27.8607    1.0000 </r>
       <r>  -27.8599    1.0000 </r>
       <r>  -27.8529    1.0000 </r>
       <r>  -27.8516    1.0000 </r>
       <r>  -27.8432    1.0000 </r>
       <r>  -27.8427    1.0000 </r>
       <r>  -27.8218    1.0000 </r>
       <r>  -27.8215    1.0000 </r>
       <r>  -16.0948    1.0000 </r>
       <r>  -15.9751    1.0000 </r>
       <r>  -15.1903    1.0000 </r>
       <r>  -15.1695    1.0000 </r>
       <r>  -10.7824    1.0000 </r>
       <r>  -10.6335    1.0000 </r>
       <r>   -6.8131    1.0000 </r>
       <r>   -6.7658    1.0000 </r>
       <r>   -5.9004    1.0000 </r>
       <r>   -5.6626    1.0000 </r>
       <r>   -5.3811    1.0000 </r>
       <r>   -5.2808    1.0000 </r>
       <r>   -4.3435    1.0000 </r>
       <r>   -4.2791    1.0000 </r>
       <r>   -2.8742    1.0000 </r>
       <r>   -2.7580    1.0000 </r>
       <r>   -1.5181    0.0000 </r>
       <r>   -1.3011    0.0000 </r>
       <r>    0.9793    0.0000 </r>
       <r>    1.0830    0.0000 </r>
       <r>    1.2239    0.0000 </r>
       <r>    1.3194    0.0000 </r>
      </set>
      <set comment="kpoint 55">
       <r>  -27.8702    1.0000 </r>
       <r>  -27.8699    1.0000 </r>
       <r>  -27.8599    1.0000 </r>
       <r>  -27.8594    1.0000 </r>
       <r>  -27.8533    1.0000 </r>
       <r>  -27.8524    1.0000 </r>
       <r>  -27.8428    1.0000 </r>
       <r>  -27.8425    1.0000 </r>
       <r>  -27.8217    1.0000 </r>
       <r>  -27.8215    1.0000 </r>
       <r>  -16.0404    1.0000 </r>
       <r>  -15.9631    1.0000 </r>
       <r>  -15.2016    1.0000 </r>
       <r>  -15.1916    1.0000 </r>
       <r>  -10.8331    1.0000 </r>
       <r>  -10.7416    1.0000 </r>
       <r>   -6.8284    1.0000 </r>
       <r>   -6.7963    1.0000 </r>
       <r>   -5.8226    1.0000 </r>
       <r>   -5.6991    1.0000 </r>
       <r>   -5.2769    1.0000 </r>
       <r>   -5.1692    1.0000 </r>
       <r>   -4.3712    1.0000 </r>
       <r>   -4.3282    1.0000 </r>
       <r>   -2.7582    1.0000 </r>
       <r>   -2.6922    1.0000 </r>
       <r>   -1.6602    0.0000 </r>
       <r>   -1.4996    0.0000 </r>
       <r>    1.0820    0.0000 </r>
       <r>    1.1080    0.0000 </r>
       <r>    1.2806    0.0000 </r>
       <r>    1.3186    0.0000 </r>
      </set>
      <set comment="kpoint 56">
       <r>  -27.8702    1.0000 </r>
       <r>  -27.8701    1.0000 </r>
       <r>  -27.8594    1.0000 </r>
       <r>  -27.8592    1.0000 </r>
       <r>  -27.8534    1.0000 </r>
       <r>  -27.8531    1.0000 </r>
       <r>  -27.8426    1.0000 </r>
       <r>  -27.8425    1.0000 </r>
       <r>  -27.8216    1.0000 </r>
       <r>  -27.8216    1.0000 </r>
       <r>  -15.9962    1.0000 </r>
       <r>  -15.9694    1.0000 </r>
       <r>  -15.2079    1.0000 </r>
       <r>  -15.2052    1.0000 </r>
       <r>  -10.8449    1.0000 </r>
       <r>  -10.8140    1.0000 </r>
       <r>   -6.8334    1.0000 </r>
       <r>   -6.8225    1.0000 </r>
       <r>   -5.7714    1.0000 </r>
       <r>   -5.7342    1.0000 </r>
       <r>   -5.1743    1.0000 </r>
       <r>   -5.1291    1.0000 </r>
       <r>   -4.3792    1.0000 </r>
       <r>   -4.3635    1.0000 </r>
       <r>   -2.6929    1.0000 </r>
       <r>   -2.6732    1.0000 </r>
       <r>   -1.7005    0.0000 </r>
       <r>   -1.6422    0.0000 </r>
       <r>    1.1368    0.0000 </r>
       <r>    1.1378    0.0000 </r>
       <r>    1.3052    0.0000 </r>
       <r>    1.3126    0.0000 </r>
      </set>
     </set>
    </set>
   </array>
  </eigenvalues>
  <separator name="orbital magnetization" >
   <v name="MAGDIPOLOUT">      0.00000000      0.00000000      0.00000000</v>
  </separator>
  <dos>
   <i name="efermi">     -2.55457968 </i>
   <total>
    <array>
     <dimension dim="1">gridpoints</dimension>
     <dimension dim="2">spin</dimension>
     <field>energy</field>
     <field>total</field>
     <field>integrated</field>
     <set>
      <set comment="spin 1">
       <r>   -29.3618     0.0000     0.0000 </r>
       <r>   -29.2525     0.0000     0.0000 </r>
       <r>   -29.1432     0.0000     0.0000 </r>
       <r>   -29.0339     0.0000     0.0000 </r>
       <r>   -28.9246     0.0000     0.0000 </r>
       <r>   -28.8153     0.0000     0.0000 </r>
       <r>   -28.7060     0.0000     0.0000 </r>
       <r>   -28.5967     0.0000     0.0000 </r>
       <r>   -28.4874     0.0000     0.0000 </r>
       <r>   -28.3781     0.0000     0.0000 </r>
       <r>   -28.2687     0.0000     0.0000 </r>
       <r>   -28.1594     0.0000     0.0000 </r>
       <r>   -28.0501     0.0000     0.0000 </r>
       <r>   -27.9408     0.0000     0.0000 </r>
       <r>   -27.8315   143.8440    15.7230 </r>
       <r>   -27.7222    39.1290    20.0000 </r>
       <r>   -27.6129     0.0000    20.0000 </r>
       <r>   -27.5036     0.0000    20.0000 </r>
       <r>   -27.3943     0.0000    20.0000 </r>
       <r>   -27.2850     0.0000    20.0000 </r>
       <r>   -27.1757     0.0000    20.0000 </r>
       <r>   -27.0664     0.0000    20.0000 </r>
       <r>   -26.9571     0.0000    20.0000 </r>
       <r>   -26.8478     0.0000    20.0000 </r>
       <r>   -26.7385     0.0000    20.0000 </r>
       <r>   -26.6292     0.0000    20.0000 </r>
       <r>   -26.5199     0.0000    20.0000 </r>
       <r>   -26.4106     0.0000    20.0000 </r>
       <r>   -26.3012     0.0000    20.0000 </r>
       <r>   -26.1919     0.0000    20.0000 </r>
       <r>   -26.0826     0.0000    20.0000 </r>
       <r>   -25.9733     0.0000    20.0000 </r>
       <r>   -25.8640     0.0000    20.0000 </r>
       <r>   -25.7547     0.0000    20.0000 </r>
       <r>   -25.6454     0.0000    20.0000 </r>
       <r>   -25.5361     0.0000    20.0000 </r>
       <r>   -25.4268     0.0000    20.0000 </r>
       <r>   -25.3175     0.0000    20.0000 </r>
       <r>   -25.2082     0.0000    20.0000 </r>
       <r>   -25.0989     0.0000    20.0000 </r>
       <r>   -24.9896     0.0000    20.0000 </r>
       <r>   -24.8803     0.0000    20.0000 </r>
       <r>   -24.7710     0.0000    20.0000 </r>
       <r>   -24.6617     0.0000    20.0000 </r>
       <r>   -24.5524     0.0000    20.0000 </r>
       <r>   -24.4430     0.0000    20.0000 </r>
       <r>   -24.3337     0.0000    20.0000 </r>
       <r>   -24.2244     0.0000    20.0000 </r>
       <r>   -24.1151     0.0000    20.0000 </r>
       <r>   -24.0058     0.0000    20.0000 </r>
       <r>   -23.8965     0.0000    20.0000 </r>
       <r>   -23.7872     0.0000    20.0000 </r>
       <r>   -23.6779     0.0000    20.0000 </r>
       <r>   -23.5686     0.0000    20.0000 </r>
       <r>   -23.4593     0.0000    20.0000 </r>
       <r>   -23.3500     0.0000    20.0000 </r>
       <r>   -23.2407     0.0000    20.0000 </r>
       <r>   -23.1314     0.0000    20.0000 </r>
       <r>   -23.0221     0.0000    20.0000 </r>
       <r>   -22.9128     0.0000    20.0000 </r>
       <r>   -22.8035     0.0000    20.0000 </r>
       <r>   -22.6942     0.0000    20.0000 </r>
       <r>   -22.5849     0.0000    20.0000 </r>
       <r>   -22.4755     0.0000    20.0000 </r>
       <r>   -22.3662     0.0000    20.0000 </r>
       <r>   -22.2569     0.0000    20.0000 </r>
       <r>   -22.1476     0.0000    20.0000 </r>
       <r>   -22.0383     0.0000    20.0000 </r>
       <r>   -21.9290     0.0000    20.0000 </r>
       <r>   -21.8197     0.0000    20.0000 </r>
       <r>   -21.7104     0.0000    20.0000 </r>
       <r>   -21.6011     0.0000    20.0000 </r>
       <r>   -21.4918     0.0000    20.0000 </r>
       <r>   -21.3825     0.0000    20.0000 </r>
       <r>   -21.2732     0.0000    20.0000 </r>
       <r>   -21.1639     0.0000    20.0000 </r>
       <r>   -21.0546     0.0000    20.0000 </r>
       <r>   -20.9453     0.0000    20.0000 </r>
       <r>   -20.8360     0.0000    20.0000 </r>
       <r>   -20.7267     0.0000    20.0000 </r>
       <r>   -20.6173     0.0000    20.0000 </r>
       <r>   -20.5080     0.0000    20.0000 </r>
       <r>   -20.3987     0.0000    20.0000 </r>
       <r>   -20.2894     0.0000    20.0000 </r>
       <r>   -20.1801     0.0000    20.0000 </r>
       <r>   -20.0708     0.0000    20.0000 </r>
       <r>   -19.9615     0.0000    20.0000 </r>
       <r>   -19.8522     0.0000    20.0000 </r>
       <r>   -19.7429     0.0000    20.0000 </r>
       <r>   -19.6336     0.0000    20.0000 </r>
       <r>   -19.5243     0.0000    20.0000 </r>
       <r>   -19.4150     0.0000    20.0000 </r>
       <r>   -19.3057     0.0000    20.0000 </r>
       <r>   -19.1964     0.0000    20.0000 </r>
       <r>   -19.0871     0.0000    20.0000 </r>
       <r>   -18.9778     0.0000    20.0000 </r>
       <r>   -18.8685     0.0000    20.0000 </r>
       <r>   -18.7592     0.0000    20.0000 </r>
       <r>   -18.6498     0.0000    20.0000 </r>
       <r>   -18.5405     0.0000    20.0000 </r>
       <r>   -18.4312     0.0000    20.0000 </r>
       <r>   -18.3219     0.0000    20.0000 </r>
       <r>   -18.2126     0.0000    20.0000 </r>
       <r>   -18.1033     0.0000    20.0000 </r>
       <r>   -17.9940     0.0000    20.0000 </r>
       <r>   -17.8847     0.0000    20.0000 </r>
       <r>   -17.7754     0.0000    20.0000 </r>
       <r>   -17.6661     0.0000    20.0000 </r>
       <r>   -17.5568     0.0000    20.0000 </r>
       <r>   -17.4475     0.0000    20.0000 </r>
       <r>   -17.3382     0.0000    20.0000 </r>
       <r>   -17.2289     0.0000    20.0000 </r>
       <r>   -17.1196     0.0000    20.0000 </r>
       <r>   -17.0103     0.0000    20.0000 </r>
       <r>   -16.9010     0.0672    20.0073 </r>
       <r>   -16.7916     1.8594    20.2106 </r>
       <r>   -16.6823     1.9497    20.4237 </r>
       <r>   -16.5730     2.2181    20.6662 </r>
       <r>   -16.4637     1.9265    20.8767 </r>
       <r>   -16.3544     2.1887    21.1160 </r>
       <r>   -16.2451     2.7154    21.4128 </r>
       <r>   -16.1358     2.5427    21.6907 </r>
       <r>   -16.0265     3.3666    22.0587 </r>
       <r>   -15.9172     4.3478    22.5339 </r>
       <r>   -15.8079     2.8695    22.8476 </r>
       <r>   -15.6986     1.7059    23.0341 </r>
       <r>   -15.5893     2.1770    23.2720 </r>
       <r>   -15.4800     1.2331    23.4068 </r>
       <r>   -15.3707     3.1345    23.7494 </r>
       <r>   -15.2614     7.3556    24.5534 </r>
       <r>   -15.1521    15.4645    26.2438 </r>
       <r>   -15.0428     9.6108    27.2943 </r>
       <r>   -14.9335     4.4091    27.7763 </r>
       <r>   -14.8241     1.9868    27.9935 </r>
       <r>   -14.7148     0.0599    28.0000 </r>
       <r>   -14.6055     0.0000    28.0000 </r>
       <r>   -14.4962     0.0000    28.0000 </r>
       <r>   -14.3869     0.0000    28.0000 </r>
       <r>   -14.2776     0.0000    28.0000 </r>
       <r>   -14.1683     0.0000    28.0000 </r>
       <r>   -14.0590     0.0000    28.0000 </r>
       <r>   -13.9497     0.0000    28.0000 </r>
       <r>   -13.8404     0.0000    28.0000 </r>
       <r>   -13.7311     0.0000    28.0000 </r>
       <r>   -13.6218     0.0000    28.0000 </r>
       <r>   -13.5125     0.0000    28.0000 </r>
       <r>   -13.4032     0.0000    28.0000 </r>
       <r>   -13.2939     0.0000    28.0000 </r>
       <r>   -13.1846     0.0000    28.0000 </r>
       <r>   -13.0753     0.0000    28.0000 </r>
       <r>   -12.9659     0.0000    28.0000 </r>
       <r>   -12.8566     0.0000    28.0000 </r>
       <r>   -12.7473     0.0000    28.0000 </r>
       <r>   -12.6380     0.0000    28.0000 </r>
       <r>   -12.5287     0.0000    28.0000 </r>
       <r>   -12.4194     0.0000    28.0000 </r>
       <r>   -12.3101     0.0000    28.0000 </r>
       <r>   -12.2008     0.0000    28.0000 </r>
       <r>   -12.0915     0.0000    28.0000 </r>
       <r>   -11.9822     0.0000    28.0000 </r>
       <r>   -11.8729     0.0129    28.0014 </r>
       <r>   -11.7636     0.5865    28.0655 </r>
       <r>   -11.6543     0.5686    28.1277 </r>
       <r>   -11.5450     0.8122    28.2164 </r>
       <r>   -11.4357     0.9285    28.3179 </r>
       <r>   -11.3264     1.0140    28.4288 </r>
       <r>   -11.2171     1.4585    28.5882 </r>
       <r>   -11.1078     0.5303    28.6462 </r>
       <r>   -10.9984     2.9147    28.9648 </r>
       <r>   -10.8891     1.0382    29.0782 </r>
       <r>   -10.7798     4.2934    29.5475 </r>
       <r>   -10.6705     2.9018    29.8647 </r>
       <r>   -10.5612     1.9581    30.0788 </r>
       <r>   -10.4519     2.1632    30.3152 </r>
       <r>   -10.3426     1.4081    30.4691 </r>
       <r>   -10.2333     1.7584    30.6613 </r>
       <r>   -10.1240     1.0361    30.7746 </r>
       <r>   -10.0147     1.5656    30.9457 </r>
       <r>    -9.9054     0.9952    31.0545 </r>
       <r>    -9.7961     1.6217    31.2318 </r>
       <r>    -9.6868     1.3614    31.3806 </r>
       <r>    -9.5775     1.1254    31.5036 </r>
       <r>    -9.4682     1.2623    31.6416 </r>
       <r>    -9.3589     1.4191    31.7967 </r>
       <r>    -9.2496     1.6900    31.9814 </r>
       <r>    -9.1402     0.1701    32.0000 </r>
       <r>    -9.0309     0.0000    32.0000 </r>
       <r>    -8.9216     0.0000    32.0000 </r>
       <r>    -8.8123     0.0000    32.0000 </r>
       <r>    -8.7030     0.0000    32.0000 </r>
       <r>    -8.5937     0.0000    32.0000 </r>
       <r>    -8.4844     0.0000    32.0000 </r>
       <r>    -8.3751     0.0000    32.0000 </r>
       <r>    -8.2658     0.0000    32.0000 </r>
       <r>    -8.1565     0.0000    32.0000 </r>
       <r>    -8.0472     0.0000    32.0000 </r>
       <r>    -7.9379     0.0000    32.0000 </r>
       <r>    -7.8286     0.0000    32.0000 </r>
       <r>    -7.7193     0.0000    32.0000 </r>
       <r>    -7.6100     0.0000    32.0000 </r>
       <r>    -7.5007     0.0044    32.0005 </r>
       <r>    -7.3914     2.7952    32.3060 </r>
       <r>    -7.2821     2.3711    32.5652 </r>
       <r>    -7.1727     1.9490    32.7782 </r>
       <r>    -7.0634     2.1776    33.0162 </r>
       <r>    -6.9541     2.1070    33.2466 </r>
       <r>    -6.8448     4.8018    33.7714 </r>
       <r>    -6.7355     9.7686    34.8392 </r>
       <r>    -6.6262     3.4536    35.2167 </r>
       <r>    -6.5169     2.0217    35.4377 </r>
       <r>    -6.4076     2.1723    35.6751 </r>
       <r>    -6.2983     3.0487    36.0084 </r>
       <r>    -6.1890     6.7969    36.7513 </r>
       <r>    -6.0797     5.4032    37.3419 </r>
       <r>    -5.9704     4.7869    37.8651 </r>
       <r>    -5.8611     4.1566    38.3195 </r>
       <r>    -5.7518     3.5757    38.7103 </r>
       <r>    -5.6425     4.8456    39.2400 </r>
       <r>    -5.5332     6.4304    39.9429 </r>
       <r>    -5.4239     8.7388    40.8981 </r>
       <r>    -5.3145     8.5034    41.8275 </r>
       <r>    -5.2052     5.8943    42.4718 </r>
       <r>    -5.0959     4.2765    42.9393 </r>
       <r>    -4.9866     3.1382    43.2823 </r>
       <r>    -4.8773     2.9941    43.6096 </r>
       <r>    -4.7680     2.9487    43.9319 </r>
       <r>    -4.6587     4.1292    44.3832 </r>
       <r>    -4.5494     2.5631    44.6634 </r>
       <r>    -4.4401     2.7275    44.9615 </r>
       <r>    -4.3308     7.1548    45.7436 </r>
       <r>    -4.2215     5.0354    46.2940 </r>
       <r>    -4.1122     4.5563    46.7920 </r>
       <r>    -4.0029     4.2189    47.2532 </r>
       <r>    -3.8936     3.9116    47.6807 </r>
       <r>    -3.7843     3.7392    48.0895 </r>
       <r>    -3.6750     2.3575    48.3471 </r>
       <r>    -3.5657     3.5187    48.7318 </r>
       <r>    -3.4564     3.0652    49.0668 </r>
       <r>    -3.3470     3.0317    49.3982 </r>
       <r>    -3.2377     2.7806    49.7021 </r>
       <r>    -3.1284     3.1476    50.0462 </r>
       <r>    -3.0191     4.0697    50.4910 </r>
       <r>    -2.9098     4.4923    50.9821 </r>
       <r>    -2.8005     4.4994    51.4739 </r>
       <r>    -2.6912     3.9968    51.9108 </r>
       <r>    -2.5819     0.8164    52.0000 </r>
       <r>    -2.4726     0.0000    52.0000 </r>
       <r>    -2.3633     0.0000    52.0000 </r>
       <r>    -2.2540     0.0000    52.0000 </r>
       <r>    -2.1447     0.0000    52.0000 </r>
       <r>    -2.0354     0.0005    52.0001 </r>
       <r>    -1.9261     0.1047    52.0115 </r>
       <r>    -1.8168     0.7307    52.0914 </r>
       <r>    -1.7075     0.3359    52.1281 </r>
       <r>    -1.5982     5.1041    52.6860 </r>
       <r>    -1.4888     2.3747    52.9456 </r>
       <r>    -1.3795     2.5960    53.2293 </r>
       <r>    -1.2702     4.0662    53.6738 </r>
       <r>    -1.1609     3.5294    54.0596 </r>
       <r>    -1.0516     2.9240    54.3792 </r>
       <r>    -0.9423     6.0347    55.0388 </r>
       <r>    -0.8330     3.4012    55.4106 </r>
       <r>    -0.7237     2.6608    55.7014 </r>
       <r>    -0.6144     2.2605    55.9485 </r>
       <r>    -0.5051     1.6092    56.1244 </r>
       <r>    -0.3958     0.8294    56.2151 </r>
       <r>    -0.2865     0.0030    56.2154 </r>
       <r>    -0.1772     0.1866    56.2358 </r>
       <r>    -0.0679     0.2450    56.2626 </r>
       <r>     0.0414     0.6946    56.3385 </r>
       <r>     0.1507     0.7110    56.4162 </r>
       <r>     0.2600     1.1442    56.5413 </r>
       <r>     0.3693     1.8959    56.7485 </r>
       <r>     0.4787     2.6349    57.0365 </r>
       <r>     0.5880     2.6951    57.3311 </r>
       <r>     0.6973     3.6483    57.7299 </r>
       <r>     0.8066     3.1858    58.0781 </r>
       <r>     0.9159     4.7385    58.5961 </r>
       <r>     1.0252     9.1808    59.5996 </r>
       <r>     1.1345     8.8416    60.5660 </r>
       <r>     1.2438     5.2854    61.1438 </r>
       <r>     1.3531     6.7220    61.8785 </r>
       <r>     1.4624     5.6521    62.4963 </r>
       <r>     1.5717     5.6956    63.1189 </r>
       <r>     1.6810     4.5809    63.6196 </r>
       <r>     1.7903     2.1900    63.8590 </r>
       <r>     1.8996     0.6316    63.9280 </r>
       <r>     2.0089     0.6584    64.0000 </r>
       <r>     2.1182     0.0000    64.0000 </r>
       <r>     2.2275     0.0000    64.0000 </r>
       <r>     2.3369     0.0000    64.0000 </r>
       <r>     2.4462     0.0000    64.0000 </r>
       <r>     2.5555     0.0000    64.0000 </r>
       <r>     2.6648     0.0000    64.0000 </r>
       <r>     2.7741     0.0000    64.0000 </r>
       <r>     2.8834     0.0000    64.0000 </r>
       <r>     2.9927     0.0000    64.0000 </r>
       <r>     3.1020     0.0000    64.0000 </r>
       <r>     3.2113     0.0000    64.0000 </r>
       <r>     3.3206     0.0000    64.0000 </r>
       <r>     3.4299     0.0000    64.0000 </r>
      </set>
     </set>
    </array>
   </total>
  </dos>
 </calculation>
 <structure name="finalpos" >
  <crystal>
   <varray name="basis" >
    <v>       4.95489500       0.00000000       0.00000000 </v>
    <v>       0.00000000       5.62663800       0.00000000 </v>
    <v>       0.00000000       0.00000000      18.07929100 </v>
   </varray>
   <i name="volume">    504.03979442 </i>
   <varray name="rec_basis" >
    <v>       0.20182062       0.00000000       0.00000000 </v>
    <v>       0.00000000       0.17772602       0.00000000 </v>
    <v>       0.00000000       0.00000000       0.05531190 </v>
   </varray>
  </crystal>
  <varray name="positions" >
   <v>       0.50000000       0.50000000       0.50000000 </v>
   <v>       0.00000000      -0.00000000       0.50000000 </v>
   <v>       0.25000000       0.25000000       0.41552916 </v>
   <v>       0.75000000       0.75000000       0.41552916 </v>
   <v>       0.75000000       0.25000000       0.58447084 </v>
   <v>       0.25000000       0.75000000       0.58447084 </v>
  </varray>
 </structure>
</modeling>
