<?xml version="1.0" encoding="ISO-8859-1"?>
<modeling>
 <generator>
  <i name="program" type="string">vasp </i>
  <i name="version" type="string">5.4.1  </i>
  <i name="subversion" type="string">24Jun15 (build Nov 20 2020 10:29:34) complex                          parallel </i>
  <i name="platform" type="string">IFC91_ompi </i>
  <i name="date" type="string">2021 09 09 </i>
  <i name="time" type="string">15:22:45 </i>
 </generator>
 <incar>
  <i type="string" name="PREC">a</i>
  <i type="string" name="ALGO"> Normal</i>
  <i type="int" name="ISPIN">     1</i>
  <i type="int" name="ICHARG">     2</i>
  <i type="int" name="NELM">   250</i>
  <i type="int" name="NELMDL">    -5</i>
  <i type="int" name="NELMIN">     6</i>
  <i type="int" name="IBRION">     2</i>
  <i name="EDIFF">      0.00001000</i>
  <i name="EDIFFG">     -0.01000000</i>
  <i type="int" name="NSW">   200</i>
  <i type="int" name="ISIF">     2</i>
  <i name="ENCUT">    520.00000000</i>
  <i name="POTIM">      0.30000000</i>
  <i type="logical" name="LREAL"> F  </i>
  <i type="int" name="ISMEAR">     0</i>
  <i name="SIGMA">      0.02000000</i>
  <i type="logical" name="LWAVE"> F  </i>
  <i type="logical" name="LCHARG"> F  </i>
  <i type="logical" name="LAECHG"> F  </i>
  <v type="int" name="KPOINT_BSE">    -1     0     0     0</v>
  <i type="int" name="NELM">   250</i>
 </incar>
 <kpoints>
  <generation param="Gamma">
   <v type="int" name="divisions">      21       15        1 </v>
   <v name="usershift">      0.00000000       0.00000000       0.00000000 </v>
   <v name="genvec1">      0.04761905       0.00000000       0.00000000 </v>
   <v name="genvec2">      0.00000000       0.06666667       0.00000000 </v>
   <v name="genvec3">      0.00000000      -0.00000000       1.00000000 </v>
   <v name="shift">      0.00000000       0.00000000       0.00000000 </v>
  </generation>
  <varray name="kpointlist" >
   <v>       0.00000000       0.00000000       0.00000000 </v>
   <v>       0.04761905       0.00000000       0.00000000 </v>
   <v>       0.09523810       0.00000000       0.00000000 </v>
   <v>       0.14285714       0.00000000       0.00000000 </v>
   <v>       0.19047619      -0.00000000       0.00000000 </v>
   <v>       0.23809524       0.00000000       0.00000000 </v>
   <v>       0.28571429       0.00000000       0.00000000 </v>
   <v>       0.33333333       0.00000000       0.00000000 </v>
   <v>       0.38095238       0.00000000       0.00000000 </v>
   <v>       0.42857143       0.00000000       0.00000000 </v>
   <v>       0.47619048       0.00000000       0.00000000 </v>
   <v>       0.00000000       0.06666667       0.00000000 </v>
   <v>       0.04761905       0.06666667       0.00000000 </v>
   <v>       0.09523810       0.06666667       0.00000000 </v>
   <v>       0.14285714       0.06666667       0.00000000 </v>
   <v>       0.19047619       0.06666667       0.00000000 </v>
   <v>       0.23809524       0.06666667       0.00000000 </v>
   <v>       0.28571429       0.06666667       0.00000000 </v>
   <v>       0.33333333       0.06666667       0.00000000 </v>
   <v>       0.38095238       0.06666667       0.00000000 </v>
   <v>       0.42857143       0.06666667       0.00000000 </v>
   <v>       0.47619048       0.06666667       0.00000000 </v>
   <v>      -0.47619048       0.06666667       0.00000000 </v>
   <v>      -0.42857143       0.06666667       0.00000000 </v>
   <v>      -0.38095238       0.06666667       0.00000000 </v>
   <v>      -0.33333333       0.06666667       0.00000000 </v>
   <v>      -0.28571429       0.06666667       0.00000000 </v>
   <v>      -0.23809524       0.06666667       0.00000000 </v>
   <v>      -0.19047619       0.06666667       0.00000000 </v>
   <v>      -0.14285714       0.06666667       0.00000000 </v>
   <v>      -0.09523810       0.06666667       0.00000000 </v>
   <v>      -0.04761905       0.06666667       0.00000000 </v>
   <v>       0.00000000       0.13333333       0.00000000 </v>
   <v>       0.04761905       0.13333333       0.00000000 </v>
   <v>       0.09523810       0.13333333       0.00000000 </v>
   <v>       0.14285714       0.13333333       0.00000000 </v>
   <v>       0.19047619       0.13333333       0.00000000 </v>
   <v>       0.23809524       0.13333333       0.00000000 </v>
   <v>       0.28571429       0.13333333       0.00000000 </v>
   <v>       0.33333333       0.13333333       0.00000000 </v>
   <v>       0.38095238       0.13333333       0.00000000 </v>
   <v>       0.42857143       0.13333333       0.00000000 </v>
   <v>       0.47619048       0.13333333       0.00000000 </v>
   <v>      -0.47619048       0.13333333       0.00000000 </v>
   <v>      -0.42857143       0.13333333       0.00000000 </v>
   <v>      -0.38095238       0.13333333       0.00000000 </v>
   <v>      -0.33333333       0.13333333       0.00000000 </v>
   <v>      -0.28571429       0.13333333       0.00000000 </v>
   <v>      -0.23809524       0.13333333       0.00000000 </v>
   <v>      -0.19047619       0.13333333       0.00000000 </v>
   <v>      -0.14285714       0.13333333       0.00000000 </v>
   <v>      -0.09523810       0.13333333       0.00000000 </v>
   <v>      -0.04761905       0.13333333       0.00000000 </v>
   <v>      -0.00000000       0.20000000       0.00000000 </v>
   <v>       0.04761905       0.20000000       0.00000000 </v>
   <v>       0.09523810       0.20000000       0.00000000 </v>
   <v>       0.14285714       0.20000000       0.00000000 </v>
   <v>       0.19047619       0.20000000       0.00000000 </v>
   <v>       0.23809524       0.20000000       0.00000000 </v>
   <v>       0.28571429       0.20000000       0.00000000 </v>
   <v>       0.33333333       0.20000000       0.00000000 </v>
   <v>       0.38095238       0.20000000       0.00000000 </v>
   <v>       0.42857143       0.20000000       0.00000000 </v>
   <v>       0.47619048       0.20000000       0.00000000 </v>
   <v>      -0.47619048       0.20000000       0.00000000 </v>
   <v>      -0.42857143       0.20000000       0.00000000 </v>
   <v>      -0.38095238       0.20000000       0.00000000 </v>
   <v>      -0.33333333       0.20000000       0.00000000 </v>
   <v>      -0.28571429       0.20000000       0.00000000 </v>
   <v>      -0.23809524       0.20000000       0.00000000 </v>
   <v>      -0.19047619       0.20000000       0.00000000 </v>
   <v>      -0.14285714       0.20000000       0.00000000 </v>
   <v>      -0.09523810       0.20000000       0.00000000 </v>
   <v>      -0.04761905       0.20000000       0.00000000 </v>
   <v>      -0.00000000       0.26666667       0.00000000 </v>
   <v>       0.04761905       0.26666667       0.00000000 </v>
   <v>       0.09523810       0.26666667       0.00000000 </v>
   <v>       0.14285714       0.26666667       0.00000000 </v>
   <v>       0.19047619       0.26666667       0.00000000 </v>
   <v>       0.23809524       0.26666667       0.00000000 </v>
   <v>       0.28571429       0.26666667       0.00000000 </v>
   <v>       0.33333333       0.26666667       0.00000000 </v>
   <v>       0.38095238       0.26666667       0.00000000 </v>
   <v>       0.42857143       0.26666667       0.00000000 </v>
   <v>       0.47619048       0.26666667       0.00000000 </v>
   <v>      -0.47619048       0.26666667       0.00000000 </v>
   <v>      -0.42857143       0.26666667       0.00000000 </v>
   <v>      -0.38095238       0.26666667       0.00000000 </v>
   <v>      -0.33333333       0.26666667       0.00000000 </v>
   <v>      -0.28571429       0.26666667       0.00000000 </v>
   <v>      -0.23809524       0.26666667       0.00000000 </v>
   <v>      -0.19047619       0.26666667       0.00000000 </v>
   <v>      -0.14285714       0.26666667       0.00000000 </v>
   <v>      -0.09523810       0.26666667       0.00000000 </v>
   <v>      -0.04761905       0.26666667       0.00000000 </v>
   <v>       0.00000000       0.33333333       0.00000000 </v>
   <v>       0.04761905       0.33333333       0.00000000 </v>
   <v>       0.09523810       0.33333333       0.00000000 </v>
   <v>       0.14285714       0.33333333       0.00000000 </v>
   <v>       0.19047619       0.33333333       0.00000000 </v>
   <v>       0.23809524       0.33333333       0.00000000 </v>
   <v>       0.28571429       0.33333333       0.00000000 </v>
   <v>       0.33333333       0.33333333       0.00000000 </v>
   <v>       0.38095238       0.33333333       0.00000000 </v>
   <v>       0.42857143       0.33333333       0.00000000 </v>
   <v>       0.47619048       0.33333333       0.00000000 </v>
   <v>      -0.47619048       0.33333333       0.00000000 </v>
   <v>      -0.42857143       0.33333333       0.00000000 </v>
   <v>      -0.38095238       0.33333333       0.00000000 </v>
   <v>      -0.33333333       0.33333333       0.00000000 </v>
   <v>      -0.28571429       0.33333333       0.00000000 </v>
   <v>      -0.23809524       0.33333333       0.00000000 </v>
   <v>      -0.19047619       0.33333333       0.00000000 </v>
   <v>      -0.14285714       0.33333333       0.00000000 </v>
   <v>      -0.09523810       0.33333333       0.00000000 </v>
   <v>      -0.04761905       0.33333333       0.00000000 </v>
   <v>      -0.00000000       0.40000000       0.00000000 </v>
   <v>       0.04761905       0.40000000       0.00000000 </v>
   <v>       0.09523810       0.40000000       0.00000000 </v>
   <v>       0.14285714       0.40000000       0.00000000 </v>
   <v>       0.19047619       0.40000000       0.00000000 </v>
   <v>       0.23809524       0.40000000       0.00000000 </v>
   <v>       0.28571429       0.40000000       0.00000000 </v>
   <v>       0.33333333       0.40000000       0.00000000 </v>
   <v>       0.38095238       0.40000000       0.00000000 </v>
   <v>       0.42857143       0.40000000       0.00000000 </v>
   <v>       0.47619048       0.40000000       0.00000000 </v>
   <v>      -0.47619048       0.40000000       0.00000000 </v>
   <v>      -0.42857143       0.40000000       0.00000000 </v>
   <v>      -0.38095238       0.40000000       0.00000000 </v>
   <v>      -0.33333333       0.40000000       0.00000000 </v>
   <v>      -0.28571429       0.40000000       0.00000000 </v>
   <v>      -0.23809524       0.40000000       0.00000000 </v>
   <v>      -0.19047619       0.40000000       0.00000000 </v>
   <v>      -0.14285714       0.40000000       0.00000000 </v>
   <v>      -0.09523810       0.40000000       0.00000000 </v>
   <v>      -0.04761905       0.40000000       0.00000000 </v>
   <v>       0.00000000       0.46666667       0.00000000 </v>
   <v>       0.04761905       0.46666667       0.00000000 </v>
   <v>       0.09523810       0.46666667       0.00000000 </v>
   <v>       0.14285714       0.46666667       0.00000000 </v>
   <v>       0.19047619       0.46666667       0.00000000 </v>
   <v>       0.23809524       0.46666667       0.00000000 </v>
   <v>       0.28571429       0.46666667       0.00000000 </v>
   <v>       0.33333333       0.46666667       0.00000000 </v>
   <v>       0.38095238       0.46666667       0.00000000 </v>
   <v>       0.42857143       0.46666667       0.00000000 </v>
   <v>       0.47619048       0.46666667       0.00000000 </v>
   <v>      -0.47619048       0.46666667       0.00000000 </v>
   <v>      -0.42857143       0.46666667       0.00000000 </v>
   <v>      -0.38095238       0.46666667       0.00000000 </v>
   <v>      -0.33333333       0.46666667       0.00000000 </v>
   <v>      -0.28571429       0.46666667       0.00000000 </v>
   <v>      -0.23809524       0.46666667       0.00000000 </v>
   <v>      -0.19047619       0.46666667       0.00000000 </v>
   <v>      -0.14285714       0.46666667       0.00000000 </v>
   <v>      -0.09523810       0.46666667       0.00000000 </v>
   <v>      -0.04761905       0.46666667       0.00000000 </v>
  </varray>
  <varray name="weights" >
   <v>       0.00317460 </v>
   <v>       0.00634921 </v>
   <v>       0.00634921 </v>
   <v>       0.00634921 </v>
   <v>       0.00634921 </v>
   <v>       0.00634921 </v>
   <v>       0.00634921 </v>
   <v>       0.00634921 </v>
   <v>       0.00634921 </v>
   <v>       0.00634921 </v>
   <v>       0.00634921 </v>
   <v>       0.00634921 </v>
   <v>       0.00634921 </v>
   <v>       0.00634921 </v>
   <v>       0.00634921 </v>
   <v>       0.00634921 </v>
   <v>       0.00634921 </v>
   <v>       0.00634921 </v>
   <v>       0.00634921 </v>
   <v>       0.00634921 </v>
   <v>       0.00634921 </v>
   <v>       0.00634921 </v>
   <v>       0.00634921 </v>
   <v>       0.00634921 </v>
   <v>       0.00634921 </v>
   <v>       0.00634921 </v>
   <v>       0.00634921 </v>
   <v>       0.00634921 </v>
   <v>       0.00634921 </v>
   <v>       0.00634921 </v>
   <v>       0.00634921 </v>
   <v>       0.00634921 </v>
   <v>       0.00634921 </v>
   <v>       0.00634921 </v>
   <v>       0.00634921 </v>
   <v>       0.00634921 </v>
   <v>       0.00634921 </v>
   <v>       0.00634921 </v>
   <v>       0.00634921 </v>
   <v>       0.00634921 </v>
   <v>       0.00634921 </v>
   <v>       0.00634921 </v>
   <v>       0.00634921 </v>
   <v>       0.00634921 </v>
   <v>       0.00634921 </v>
   <v>       0.00634921 </v>
   <v>       0.00634921 </v>
   <v>       0.00634921 </v>
   <v>       0.00634921 </v>
   <v>       0.00634921 </v>
   <v>       0.00634921 </v>
   <v>       0.00634921 </v>
   <v>       0.00634921 </v>
   <v>       0.00634921 </v>
   <v>       0.00634921 </v>
   <v>       0.00634921 </v>
   <v>       0.00634921 </v>
   <v>       0.00634921 </v>
   <v>       0.00634921 </v>
   <v>       0.00634921 </v>
   <v>       0.00634921 </v>
   <v>       0.00634921 </v>
   <v>       0.00634921 </v>
   <v>       0.00634921 </v>
   <v>       0.00634921 </v>
   <v>       0.00634921 </v>
   <v>       0.00634921 </v>
   <v>       0.00634921 </v>
   <v>       0.00634921 </v>
   <v>       0.00634921 </v>
   <v>       0.00634921 </v>
   <v>       0.00634921 </v>
   <v>       0.00634921 </v>
   <v>       0.00634921 </v>
   <v>       0.00634921 </v>
   <v>       0.00634921 </v>
   <v>       0.00634921 </v>
   <v>       0.00634921 </v>
   <v>       0.00634921 </v>
   <v>       0.00634921 </v>
   <v>       0.00634921 </v>
   <v>       0.00634921 </v>
   <v>       0.00634921 </v>
   <v>       0.00634921 </v>
   <v>       0.00634921 </v>
   <v>       0.00634921 </v>
   <v>       0.00634921 </v>
   <v>       0.00634921 </v>
   <v>       0.00634921 </v>
   <v>       0.00634921 </v>
   <v>       0.00634921 </v>
   <v>       0.00634921 </v>
   <v>       0.00634921 </v>
   <v>       0.00634921 </v>
   <v>       0.00634921 </v>
   <v>       0.00634921 </v>
   <v>       0.00634921 </v>
   <v>       0.00634921 </v>
   <v>       0.00634921 </v>
   <v>       0.00634921 </v>
   <v>       0.00634921 </v>
   <v>       0.00634921 </v>
   <v>       0.00634921 </v>
   <v>       0.00634921 </v>
   <v>       0.00634921 </v>
   <v>       0.00634921 </v>
   <v>       0.00634921 </v>
   <v>       0.00634921 </v>
   <v>       0.00634921 </v>
   <v>       0.00634921 </v>
   <v>       0.00634921 </v>
   <v>       0.00634921 </v>
   <v>       0.00634921 </v>
   <v>       0.00634921 </v>
   <v>       0.00634921 </v>
   <v>       0.00634921 </v>
   <v>       0.00634921 </v>
   <v>       0.00634921 </v>
   <v>       0.00634921 </v>
   <v>       0.00634921 </v>
   <v>       0.00634921 </v>
   <v>       0.00634921 </v>
   <v>       0.00634921 </v>
   <v>       0.00634921 </v>
   <v>       0.00634921 </v>
   <v>       0.00634921 </v>
   <v>       0.00634921 </v>
   <v>       0.00634921 </v>
   <v>       0.00634921 </v>
   <v>       0.00634921 </v>
   <v>       0.00634921 </v>
   <v>       0.00634921 </v>
   <v>       0.00634921 </v>
   <v>       0.00634921 </v>
   <v>       0.00634921 </v>
   <v>       0.00634921 </v>
   <v>       0.00634921 </v>
   <v>       0.00634921 </v>
   <v>       0.00634921 </v>
   <v>       0.00634921 </v>
   <v>       0.00634921 </v>
   <v>       0.00634921 </v>
   <v>       0.00634921 </v>
   <v>       0.00634921 </v>
   <v>       0.00634921 </v>
   <v>       0.00634921 </v>
   <v>       0.00634921 </v>
   <v>       0.00634921 </v>
   <v>       0.00634921 </v>
   <v>       0.00634921 </v>
   <v>       0.00634921 </v>
   <v>       0.00634921 </v>
   <v>       0.00634921 </v>
   <v>       0.00634921 </v>
   <v>       0.00634921 </v>
   <v>       0.00634921 </v>
   <v>       0.00634921 </v>
   <v>       0.00634921 </v>
  </varray>
 </kpoints>
 <parameters>
  <separator name="general" >
   <i type="string" name="SYSTEM">unknown system</i>
   <i type="logical" name="LCOMPAT"> F  </i>
  </separator>
  <separator name="electronic" >
   <i type="string" name="PREC">a</i>
   <i name="ENMAX">    520.00000000</i>
   <i name="ENAUG">    342.92400000</i>
   <i name="EDIFF">      0.00001000</i>
   <i type="int" name="IALGO">    38</i>
   <i type="int" name="IWAVPR">    11</i>
   <i type="int" name="NBANDS">    16</i>
   <i name="NELECT">     20.00000000</i>
   <i type="int" name="TURBO">     0</i>
   <i type="int" name="IRESTART">     0</i>
   <i type="int" name="NREBOOT">     0</i>
   <i type="int" name="NMIN">     0</i>
   <i name="EREF">      0.00000000</i>
   <separator name="electronic smearing" >
    <i type="int" name="ISMEAR">     0</i>
    <i name="SIGMA">      0.02000000</i>
    <i name="KSPACING">      0.50000000</i>
    <i type="logical" name="KGAMMA"> T  </i>
   </separator>
   <separator name="electronic projectors" >
    <i type="logical" name="LREAL"> F  </i>
    <v name="ROPT">      0.00000000</v>
    <i type="int" name="LMAXPAW">  -100</i>
    <i type="int" name="LMAXMIX">     2</i>
    <i type="logical" name="NLSPLINE"> F  </i>
   </separator>
   <separator name="electronic startup" >
    <i type="int" name="ISTART">     0</i>
    <i type="int" name="ICHARG">     2</i>
    <i type="int" name="INIWAV">     1</i>
   </separator>
   <separator name="electronic spin" >
    <i type="int" name="ISPIN">     1</i>
    <i type="logical" name="LNONCOLLINEAR"> F  </i>
    <v name="MAGMOM">      1.00000000      1.00000000      1.00000000      1.00000000</v>
    <i name="NUPDOWN">     -1.00000000</i>
    <i type="logical" name="LSORBIT"> F  </i>
    <v name="SAXIS">      0.00000000      0.00000000      1.00000000</v>
    <i type="logical" name="LSPIRAL"> F  </i>
    <v name="QSPIRAL">      0.00000000      0.00000000      0.00000000</v>
    <i type="logical" name="LZEROZ"> F  </i>
   </separator>
   <separator name="electronic exchange-correlation" >
    <i type="logical" name="LASPH"> F  </i>
    <i type="logical" name="LMETAGGA"> F  </i>
   </separator>
   <separator name="electronic convergence" >
    <i type="int" name="NELM">   250</i>
    <i type="int" name="NELMDL">    -5</i>
    <i type="int" name="NELMIN">     6</i>
    <i name="ENINI">    520.00000000</i>
    <separator name="electronic convergence detail" >
     <i type="logical" name="LDIAG"> T  </i>
     <i type="logical" name="LSUBROT"> F  </i>
     <i name="WEIMIN">      0.00100000</i>
     <i name="EBREAK">      0.00000016</i>
     <i name="DEPER">      0.30000000</i>
     <i type="int" name="NRMM">     4</i>
     <i name="TIME">      0.40000000</i>
    </separator>
   </separator>
   <separator name="electronic mixer" >
    <i name="AMIX">      0.40000000</i>
    <i name="BMIX">      1.00000000</i>
    <i name="AMIN">      0.10000000</i>
    <i name="AMIX_MAG">      1.60000000</i>
    <i name="BMIX_MAG">      1.00000000</i>
    <separator name="electronic mixer details" >
     <i type="int" name="IMIX">     4</i>
     <i type="logical" name="MIXFIRST"> F  </i>
     <i type="int" name="MAXMIX">   -45</i>
     <i name="WC">    100.00000000</i>
     <i type="int" name="INIMIX">     1</i>
     <i type="int" name="MIXPRE">     1</i>
     <i type="int" name="MREMOVE">     5</i>
    </separator>
   </separator>
   <separator name="electronic dipolcorrection" >
    <i type="logical" name="LDIPOL"> F  </i>
    <i type="logical" name="LMONO"> F  </i>
    <i type="int" name="IDIPOL">     0</i>
    <i name="EPSILON">      1.00000000</i>
    <v name="DIPOL">   -100.00000000   -100.00000000   -100.00000000</v>
    <i name="EFIELD">      0.00000000</i>
   </separator>
  </separator>
  <separator name="grids" >
   <i type="int" name="NGX">    28</i>
   <i type="int" name="NGY">    36</i>
   <i type="int" name="NGZ">   150</i>
   <i type="int" name="NGXF">    56</i>
   <i type="int" name="NGYF">    72</i>
   <i type="int" name="NGZF">   300</i>
   <i type="logical" name="ADDGRID"> F  </i>
  </separator>
  <separator name="ionic" >
   <i type="int" name="NSW">   200</i>
   <i type="int" name="IBRION">     2</i>
   <i type="int" name="ISIF">     2</i>
   <i name="PSTRESS">      0.00000000</i>
   <i name="EDIFFG">     -0.01000000</i>
   <i type="int" name="NFREE">     1</i>
   <i name="POTIM">      0.30000000</i>
   <i name="SMASS">     -3.00000000</i>
   <i name="SCALEE">      1.00000000</i>
  </separator>
  <separator name="ionic md" >
   <i name="TEBEG">      0.00010000</i>
   <i name="TEEND">      0.00010000</i>
   <i type="int" name="NBLOCK">     1</i>
   <i type="int" name="KBLOCK">   200</i>
   <i type="int" name="NPACO">   256</i>
   <i name="APACO">     16.00000000</i>
  </separator>
  <separator name="symmetry" >
   <i type="int" name="ISYM">     2</i>
   <i name="SYMPREC">      0.00001000</i>
  </separator>
  <separator name="dos" >
   <i type="logical" name="LORBIT"> F  </i>
   <v name="RWIGS">     -1.00000000</v>
   <i type="int" name="NEDOS">   301</i>
   <i name="EMIN">     10.00000000</i>
   <i name="EMAX">    -10.00000000</i>
   <i name="EFERMI">      0.00000000</i>
  </separator>
  <separator name="writing" >
   <i type="int" name="NWRITE">     2</i>
   <i type="logical" name="LWAVE"> F  </i>
   <i type="logical" name="LCHARG"> F  </i>
   <i type="logical" name="LPARD"> F  </i>
   <i type="logical" name="LVTOT"> F  </i>
   <i type="logical" name="LVHAR"> F  </i>
   <i type="logical" name="LELF"> F  </i>
   <i type="logical" name="LOPTICS"> F  </i>
   <v name="STM">      0.00000000      0.00000000      0.00000000      0.00000000      0.00000000      0.00000000      0.00000000</v>
  </separator>
  <separator name="performance" >
   <i type="int" name="NPAR">     4</i>
   <i type="int" name="NSIM">     4</i>
   <i type="int" name="NBLK">    -1</i>
   <i type="logical" name="LPLANE"> T  </i>
   <i type="logical" name="LSCALAPACK"> T  </i>
   <i type="logical" name="LSCAAWARE"> F  </i>
   <i type="logical" name="LSCALU"> F  </i>
   <i type="logical" name="LASYNC"> F  </i>
   <i type="logical" name="LORBITALREAL"> F  </i>
  </separator>
  <separator name="miscellaneous" >
   <i type="int" name="IDIOT">     3</i>
   <i type="logical" name="LMUSIC"> F  </i>
   <v name="POMASS">     30.97400000</v>
   <v name="DARWINR">      0.00000000</v>
   <v name="DARWINV">      1.00000000</v>
   <i type="logical" name="LCORR"> T  </i>
  </separator>
  <i type="logical" name="GGA_COMPAT"> T  </i>
  <i type="logical" name="LBERRY"> F  </i>
  <i type="int" name="ICORELEVEL">     0</i>
  <i type="logical" name="LDAU"> F  </i>
  <i type="int" name="I_CONSTRAINED_M">     0</i>
  <separator name="electronic exchange-correlation" >
   <i type="string" name="GGA">--</i>
   <i type="int" name="VOSKOWN">     0</i>
   <i type="logical" name="LHFCALC"> F  </i>
   <i type="string" name="PRECFOCK"></i>
   <i type="logical" name="LSYMGRAD"> F  </i>
   <i type="logical" name="LHFONE"> F  </i>
   <i type="logical" name="LRHFCALC"> F  </i>
   <i type="logical" name="LTHOMAS"> F  </i>
   <i type="logical" name="LMODELHF"> F  </i>
   <i name="ENCUT4O">     -1.00000000</i>
   <i type="int" name="EXXOEP">     0</i>
   <i type="int" name="FOURORBIT">     0</i>
   <i name="AEXX">      0.00000000</i>
   <i name="HFALPHA">      0.00000000</i>
   <i name="MCALPHA">      0.00000000</i>
   <i name="ALDAX">      1.00000000</i>
   <i name="AGGAX">      1.00000000</i>
   <i name="ALDAC">      1.00000000</i>
   <i name="AGGAC">      1.00000000</i>
   <i type="int" name="NKREDX">     1</i>
   <i type="int" name="NKREDY">     1</i>
   <i type="int" name="NKREDZ">     1</i>
   <i type="logical" name="SHIFTRED"> F  </i>
   <i type="logical" name="ODDONLY"> F  </i>
   <i type="logical" name="EVENONLY"> F  </i>
   <i type="int" name="LMAXFOCK">     0</i>
   <i type="int" name="NMAXFOCKAE">     0</i>
   <i type="logical" name="LFOCKAEDFT"> F  </i>
   <i name="HFSCREEN">      0.00000000</i>
   <i name="HFSCREENC">      0.00000000</i>
   <i type="int" name="NBANDSGWLOW">     0</i>
  </separator>
  <separator name="vdW DFT" >
   <i type="logical" name="LUSE_VDW"> F  </i>
   <i name="Zab_VDW">     -0.84910000</i>
   <i name="PARAM1">      0.12340000</i>
   <i name="PARAM2">      1.00000000</i>
   <i name="PARAM3">      0.00000000</i>
  </separator>
  <separator name="model GW" >
   <i type="int" name="MODEL_GW">     0</i>
   <i name="MODEL_EPS0">     44.86304870</i>
   <i name="MODEL_ALPHA">      1.00000000</i>
  </separator>
  <separator name="linear response parameters" >
   <i type="logical" name="LEPSILON"> F  </i>
   <i type="logical" name="LRPA"> F  </i>
   <i type="logical" name="LNABLA"> F  </i>
   <i type="logical" name="LVEL"> F  </i>
   <i type="int" name="KINTER">     0</i>
   <i name="CSHIFT">      0.10000000</i>
   <i name="OMEGAMAX">     -1.00000000</i>
   <i name="DEG_THRESHOLD">      0.00200000</i>
  </separator>
  <separator name="orbital magnetization" >
   <i type="logical" name="NUCIND"> F  </i>
   <v name="MAGPOS">      0.00000000      0.00000000      0.00000000</v>
   <i type="logical" name="LNICSALL"> T  </i>
   <i type="logical" name="ORBITALMAG"> F  </i>
   <i type="logical" name="LMAGBLOCH"> F  </i>
   <i type="logical" name="LCHIMAG"> F  </i>
   <i type="logical" name="LGAUGE"> T  </i>
   <i type="int" name="MAGATOM">     0</i>
   <v name="MAGDIPOL">      0.00000000      0.00000000      0.00000000</v>
   <v name="AVECCONST">      0.00000000      0.00000000      0.00000000</v>
  </separator>
  <separator name="response functions" >
   <i type="logical" name="LADDER"> F  </i>
   <i type="logical" name="LFXC"> F  </i>
   <i type="logical" name="LHARTREE"> T  </i>
   <i type="int" name="IBSE">     0</i>
   <v type="int" name="KPOINT">    -1     0     0     0</v>
   <i type="logical" name="LTCTE"> F  </i>
   <i type="logical" name="LTETE"> F  </i>
   <i type="logical" name="LTRIPLET"> F  </i>
   <i type="logical" name="LFXCEPS"> F  </i>
   <i type="logical" name="LFXHEG"> F  </i>
   <i type="int" name="NATURALO">     0</i>
   <i type="logical" name="L2ORDER"> F  </i>
   <i type="logical" name="LUSEW"> F  </i>
   <i name="ENCUTGW">     -2.00000000</i>
   <i name="ENCUTGWSOFT">     -2.00000000</i>
   <i name="ENCUTLF">     -1.00000000</i>
   <i type="int" name="LMAXMP2">    -1</i>
   <i name="SCISSOR">      0.00000000</i>
   <i type="int" name="NOMEGA">     0</i>
   <i type="int" name="NOMEGAR">     0</i>
   <i type="int" name="NBANDSGW">    -1</i>
   <i type="int" name="NBANDSO">    -1</i>
   <i type="int" name="NBANDSV">    -1</i>
   <i type="int" name="NELM">   250</i>
   <i type="int" name="NELMHF">     1</i>
   <i type="int" name="DIM">     3</i>
   <i type="int" name="ANTIRES">     0</i>
   <i name="OMEGAMAX">    -30.00000000</i>
   <i name="OMEGAMIN">    -30.00000000</i>
   <i name="OMEGATL">   -200.00000000</i>
   <i type="int" name="OMEGAGRID">     0</i>
   <i name="CSHIFT">     -0.10000000</i>
   <i type="logical" name="SELFENERGY"> F  </i>
   <i type="logical" name="LSPECTRAL"> F  </i>
   <i type="logical" name="LSPECTRALGW"> F  </i>
   <i type="logical" name="LSINGLES"> F  </i>
   <i type="logical" name="LFERMIGW"> F  </i>
   <i type="logical" name="ODDONLYGW"> F  </i>
   <i type="logical" name="EVENONLYGW"> F  </i>
   <i type="int" name="NKREDLFX">     1</i>
   <i type="int" name="NKREDLFY">     1</i>
   <i type="int" name="NKREDLFZ">     1</i>
   <i type="int" name="MAXMEM">  1800</i>
   <i type="int" name="TELESCOPE">     0</i>
   <i type="int" name="TAUPAR">     1</i>
   <i type="int" name="OMEGAPAR">    -1</i>
   <i name="LAMBDA">      1.00000000</i>
  </separator>
  <separator name="External order field" >
   <i name="OFIELD_KAPPA">      0.00000000</i>
   <v name="OFIELD_K">      0.00000000      0.00000000      0.00000000</v>
   <i name="OFIELD_Q6_NEAR">      0.00000000</i>
   <i name="OFIELD_Q6_FAR">      0.00000000</i>
   <i name="OFIELD_A">      0.00000000</i>
  </separator>
 </parameters>
 <atominfo>
  <atoms>       4 </atoms>
  <types>       1 </types>
  <array name="atoms" >
   <dimension dim="1">ion</dimension>
   <field type="string">element</field>
   <field type="int">atomtype</field>
   <set>
    <rc><c>P </c><c>   1</c></rc>
    <rc><c>P </c><c>   1</c></rc>
    <rc><c>P </c><c>   1</c></rc>
    <rc><c>P </c><c>   1</c></rc>
   </set>
  </array>
  <array name="atomtypes" >
   <dimension dim="1">type</dimension>
   <field type="int">atomspertype</field>
   <field type="string">element</field>
   <field>mass</field>
   <field>valence</field>
   <field type="string">pseudopotential</field>
   <set>
    <rc><c>   4</c><c>P </c><c>     30.97400000</c><c>      5.00000000</c><c>  PAW_PBE P 06Sep2000                   </c></rc>
   </set>
  </array>
 </atominfo>
 <structure name="initialpos" >
  <crystal>
   <varray name="basis" >
    <v>       3.28050700       0.33139900       0.00000000 </v>
    <v>       0.46468800       4.59993900      -0.00005300 </v>
    <v>       0.00000000       0.00000000      20.02439000 </v>
   </varray>
   <i name="volume">    299.08699134 </i>
   <varray name="rec_basis" >
    <v>       0.30797385      -0.03111166       0.00000000 </v>
    <v>      -0.02218773       0.21963560       0.00000000 </v>
    <v>      -0.00000006       0.00000058       0.04993910 </v>
   </varray>
  </crystal>
  <varray name="positions" >
   <v>       0.50000000       0.91077300       0.55252100 </v>
   <v>       0.50000000       0.08922700       0.44747900 </v>
   <v>       0.00000000       0.41076900       0.44747900 </v>
   <v>       0.00000000       0.58923100       0.55252100 </v>
  </varray>
 </structure>
 <calculation>
  <scstep>
   <time name="dav">    1.49    1.49</time>
   <time name="total">    1.51    1.51</time>
   <energy>
    <i name="alphaZ">      5.36352662 </i>
    <i name="ewald">   1917.34993782 </i>
    <i name="hartreedc">  -2507.45622692 </i>
    <i name="XCdc">     13.32933067 </i>
    <i name="pawpsdc">    559.04011960 </i>
    <i name="pawaedc">   -526.39432044 </i>
    <i name="eentropy">     -0.00059274 </i>
    <i name="bandstr">    -28.23964967 </i>
    <i name="atom">    704.16778566 </i>
    <i name="e_fr_energy">    137.15991061 </i>
    <i name="e_wo_entrp">    137.16050335 </i>
    <i name="e_0_energy">    137.16020698 </i>
   </energy>
  </scstep>
  <scstep>
   <time name="dav">    1.98    1.98</time>
   <time name="total">    1.99    1.99</time>
   <energy>
    <i name="e_fr_energy">     -4.90587727 </i>
    <i name="e_wo_entrp">     -4.90584549 </i>
    <i name="e_0_energy">     -4.90586138 </i>
   </energy>
  </scstep>
  <scstep>
   <time name="dav">    1.78    1.78</time>
   <time name="total">    1.78    1.79</time>
   <energy>
    <i name="e_fr_energy">    -20.32607540 </i>
    <i name="e_wo_entrp">    -20.32607540 </i>
    <i name="e_0_energy">    -20.32607540 </i>
   </energy>
  </scstep>
  <scstep>
   <time name="dav">    1.91    1.91</time>
   <time name="total">    1.91    1.92</time>
   <energy>
    <i name="e_fr_energy">    -20.65403371 </i>
    <i name="e_wo_entrp">    -20.65403371 </i>
    <i name="e_0_energy">    -20.65403371 </i>
   </energy>
  </scstep>
  <scstep>
   <time name="dav">    1.96    1.96</time>
   <time name="total">    2.05    2.05</time>
   <energy>
    <i name="e_fr_energy">    -20.66373438 </i>
    <i name="e_wo_entrp">    -20.66373438 </i>
    <i name="e_0_energy">    -20.66373438 </i>
   </energy>
  </scstep>
  <scstep>
   <time name="dav">    1.81    1.81</time>
   <time name="total">    1.93    1.93</time>
   <energy>
    <i name="e_fr_energy">    -20.34853645 </i>
    <i name="e_wo_entrp">    -20.34853645 </i>
    <i name="e_0_energy">    -20.34853645 </i>
   </energy>
  </scstep>
  <scstep>
   <time name="dav">    1.81    1.81</time>
   <time name="total">    1.93    1.93</time>
   <energy>
    <i name="e_fr_energy">    -20.24719119 </i>
    <i name="e_wo_entrp">    -20.24719118 </i>
    <i name="e_0_energy">    -20.24719118 </i>
   </energy>
  </scstep>
  <scstep>
   <time name="dav">    1.82    1.82</time>
   <time name="total">    1.93    1.93</time>
   <energy>
    <i name="e_fr_energy">    -20.24433824 </i>
    <i name="e_wo_entrp">    -20.24433823 </i>
    <i name="e_0_energy">    -20.24433823 </i>
   </energy>
  </scstep>
  <scstep>
   <time name="dav">    2.07    2.07</time>
   <time name="total">    2.18    2.18</time>
   <energy>
    <i name="e_fr_energy">    -20.24383013 </i>
    <i name="e_wo_entrp">    -20.24383012 </i>
    <i name="e_0_energy">    -20.24383013 </i>
   </energy>
  </scstep>
  <scstep>
   <time name="dav">    1.84    1.84</time>
   <time name="total">    1.95    1.95</time>
   <energy>
    <i name="e_fr_energy">    -20.24269351 </i>
    <i name="e_wo_entrp">    -20.24269351 </i>
    <i name="e_0_energy">    -20.24269351 </i>
   </energy>
  </scstep>
  <scstep>
   <time name="dav">    1.88    1.88</time>
   <time name="total">    1.99    2.00</time>
   <energy>
    <i name="e_fr_energy">    -20.24264231 </i>
    <i name="e_wo_entrp">    -20.24264231 </i>
    <i name="e_0_energy">    -20.24264231 </i>
   </energy>
  </scstep>
  <scstep>
   <time name="dav">    1.69    1.69</time>
   <time name="total">    1.80    1.80</time>
   <energy>
    <i name="e_fr_energy">    -20.24284811 </i>
    <i name="e_wo_entrp">    -20.24284811 </i>
    <i name="e_0_energy">    -20.24284811 </i>
   </energy>
  </scstep>
  <scstep>
   <time name="dav">    1.68    1.68</time>
   <time name="total">    1.79    1.80</time>
   <energy>
    <i name="e_fr_energy">    -20.24305303 </i>
    <i name="e_wo_entrp">    -20.24305302 </i>
    <i name="e_0_energy">    -20.24305302 </i>
   </energy>
  </scstep>
  <scstep>
   <time name="dav">    1.59    1.59</time>
   <time name="total">    1.70    1.71</time>
   <energy>
    <i name="e_fr_energy">    -20.24317655 </i>
    <i name="e_wo_entrp">    -20.24317655 </i>
    <i name="e_0_energy">    -20.24317655 </i>
   </energy>
  </scstep>
  <scstep>
   <time name="dav">    1.58    1.58</time>
   <time name="total">    1.70    1.70</time>
   <energy>
    <i name="e_fr_energy">    -20.24335470 </i>
    <i name="e_wo_entrp">    -20.24335470 </i>
    <i name="e_0_energy">    -20.24335470 </i>
   </energy>
  </scstep>
  <scstep>
   <time name="dav">    1.60    1.60</time>
   <time name="total">    1.71    1.72</time>
   <energy>
    <i name="e_fr_energy">    -20.24338306 </i>
    <i name="e_wo_entrp">    -20.24338305 </i>
    <i name="e_0_energy">    -20.24338305 </i>
   </energy>
  </scstep>
  <scstep>
   <time name="dav">    1.45    1.45</time>
   <time name="total">    1.56    1.56</time>
   <energy>
    <i name="e_fr_energy">    -20.24342835 </i>
    <i name="e_wo_entrp">    -20.24342835 </i>
    <i name="e_0_energy">    -20.24342835 </i>
   </energy>
  </scstep>
  <scstep>
   <time name="dav">    1.58    1.58</time>
   <time name="total">    1.60    1.60</time>
   <energy>
    <i name="alphaZ">      5.36352662 </i>
    <i name="ewald">   1917.34993782 </i>
    <i name="hartreedc">  -2526.21121032 </i>
    <i name="XCdc">     14.51276731 </i>
    <i name="pawpsdc">   2398.77330226 </i>
    <i name="pawaedc">  -2366.59048378 </i>
    <i name="eentropy">     -0.00000000 </i>
    <i name="bandstr">   -167.60906021 </i>
    <i name="atom">    704.16778566 </i>
    <i name="e_fr_energy">    -20.24343465 </i>
    <i name="e_wo_entrp">    -20.24343465 </i>
    <i name="e_0_energy">    -20.24343465 </i>
   </energy>
  </scstep>
  <structure>
   <crystal>
    <varray name="basis" >
     <v>       3.28050700       0.33139900       0.00000000 </v>
     <v>       0.46468800       4.59993900      -0.00005300 </v>
     <v>       0.00000000       0.00000000      20.02439000 </v>
    </varray>
    <i name="volume">    299.08699134 </i>
    <varray name="rec_basis" >
     <v>       0.30797385      -0.03111166       0.00000000 </v>
     <v>      -0.02218773       0.21963560       0.00000000 </v>
     <v>      -0.00000006       0.00000058       0.04993910 </v>
    </varray>
   </crystal>
   <varray name="positions" >
    <v>       0.50000000       0.91077300       0.55252100 </v>
    <v>       0.50000000       0.08922700       0.44747900 </v>
    <v>       0.00000000       0.41076900       0.44747900 </v>
    <v>       0.00000000       0.58923100       0.55252100 </v>
   </varray>
  </structure>
  <varray name="forces" >
   <v>      -3.06368451       1.64870057       0.03253586 </v>
   <v>       3.06368451      -1.64870057      -0.03253586 </v>
   <v>      -3.06366142       1.64866059      -0.03257194 </v>
   <v>       3.06366142      -1.64866059       0.03257194 </v>
  </varray>
  <varray name="stress" >
   <v>      32.07251911     -62.89377757       0.00050551 </v>
   <v>     -62.89377749      30.81418796       0.00001403 </v>
   <v>       0.00050542       0.00001403       0.65725601 </v>
  </varray>
  <energy>
   <i name="e_fr_energy">    -20.24343465 </i>
   <i name="e_wo_entrp">    -20.24343465 </i>
   <i name="e_0_energy">     -0.00000000 </i>
  </energy>
  <time name="totalsc">   33.79   33.84</time>
 </calculation>
 <calculation>
  <scstep>
   <time name="dav">    1.51    1.51</time>
   <time name="total">    1.63    1.63</time>
   <energy>
    <i name="alphaZ">      5.36352662 </i>
    <i name="ewald">   1903.67008575 </i>
    <i name="hartreedc">  -2517.92453526 </i>
    <i name="XCdc">     14.15428826 </i>
    <i name="pawpsdc">   2398.12732462 </i>
    <i name="pawaedc">  -2365.94451467 </i>
    <i name="eentropy">     -0.00000000 </i>
    <i name="bandstr">   -162.37519888 </i>
    <i name="atom">    704.16778566 </i>
    <i name="e_fr_energy">    -20.76123790 </i>
    <i name="e_wo_entrp">    -20.76123790 </i>
    <i name="e_0_energy">    -20.76123790 </i>
   </energy>
  </scstep>
  <scstep>
   <time name="dav">    1.83    1.83</time>
   <time name="total">    1.94    1.95</time>
   <energy>
    <i name="e_fr_energy">    -20.91861629 </i>
    <i name="e_wo_entrp">    -20.91861629 </i>
    <i name="e_0_energy">    -20.91861629 </i>
   </energy>
  </scstep>
  <scstep>
   <time name="dav">    1.95    1.95</time>
   <time name="total">    2.06    2.06</time>
   <energy>
    <i name="e_fr_energy">    -20.90568921 </i>
    <i name="e_wo_entrp">    -20.90568921 </i>
    <i name="e_0_energy">    -20.90568921 </i>
   </energy>
  </scstep>
  <scstep>
   <time name="dav">    1.78    1.78</time>
   <time name="total">    1.89    1.90</time>
   <energy>
    <i name="e_fr_energy">    -20.90226986 </i>
    <i name="e_wo_entrp">    -20.90226986 </i>
    <i name="e_0_energy">    -20.90226986 </i>
   </energy>
  </scstep>
  <scstep>
   <time name="dav">    1.78    1.78</time>
   <time name="total">    1.89    1.89</time>
   <energy>
    <i name="e_fr_energy">    -20.90231674 </i>
    <i name="e_wo_entrp">    -20.90231674 </i>
    <i name="e_0_energy">    -20.90231674 </i>
   </energy>
  </scstep>
  <scstep>
   <time name="dav">    1.99    1.99</time>
   <time name="total">    2.10    2.10</time>
   <energy>
    <i name="e_fr_energy">    -20.90233814 </i>
    <i name="e_wo_entrp">    -20.90233814 </i>
    <i name="e_0_energy">    -20.90233814 </i>
   </energy>
  </scstep>
  <scstep>
   <time name="dav">    1.77    1.78</time>
   <time name="total">    1.89    1.89</time>
   <energy>
    <i name="e_fr_energy">    -20.90230498 </i>
    <i name="e_wo_entrp">    -20.90230498 </i>
    <i name="e_0_energy">    -20.90230498 </i>
   </energy>
  </scstep>
  <scstep>
   <time name="dav">    1.64    1.64</time>
   <time name="total">    1.66    1.67</time>
   <energy>
    <i name="alphaZ">      5.36352662 </i>
    <i name="ewald">   1903.67008575 </i>
    <i name="hartreedc">  -2517.42138432 </i>
    <i name="XCdc">     14.05308021 </i>
    <i name="pawpsdc">   2018.95899703 </i>
    <i name="pawaedc">  -1986.61707365 </i>
    <i name="eentropy">     -0.00000000 </i>
    <i name="bandstr">   -163.07732429 </i>
    <i name="atom">    704.16778566 </i>
    <i name="e_fr_energy">    -20.90230699 </i>
    <i name="e_wo_entrp">    -20.90230699 </i>
    <i name="e_0_energy">    -20.90230699 </i>
   </energy>
  </scstep>
  <structure>
   <crystal>
    <varray name="basis" >
     <v>       3.28050700       0.33139900       0.00000000 </v>
     <v>       0.46468800       4.59993900      -0.00005300 </v>
     <v>       0.00000000       0.00000000      20.02439000 </v>
    </varray>
    <i name="volume">    299.08699134 </i>
    <varray name="rec_basis" >
     <v>       0.30797385      -0.03111166       0.00000000 </v>
     <v>      -0.02218773       0.21963560       0.00000000 </v>
     <v>      -0.00000006       0.00000058       0.04993910 </v>
    </varray>
   </crystal>
   <varray name="positions" >
    <v>       0.47120410       0.92322220       0.55256806 </v>
    <v>       0.52879590       0.07677780       0.44743194 </v>
    <v>      -0.02879566       0.42321793       0.44743195 </v>
    <v>       0.02879566       0.57678207       0.55256805 </v>
   </varray>
  </structure>
  <varray name="forces" >
   <v>      -0.52050322      -0.63413362      -0.02343903 </v>
   <v>       0.52050322       0.63413362       0.02343903 </v>
   <v>      -0.52048682      -0.63416171       0.02345590 </v>
   <v>       0.52048682       0.63416171      -0.02345590 </v>
  </varray>
  <varray name="stress" >
   <v>       4.69982179     -29.08574893       0.00016291 </v>
   <v>     -29.08574888       3.89761622       0.00023244 </v>
   <v>       0.00016302       0.00023244      -0.56602274 </v>
  </varray>
  <energy>
   <i name="e_fr_energy">    -20.90230699 </i>
   <i name="e_wo_entrp">    -20.90230699 </i>
   <i name="e_0_energy">     -0.00000000 </i>
  </energy>
  <time name="totalsc">   15.83   15.85</time>
 </calculation>
 <calculation>
  <scstep>
   <time name="dav">    1.52    1.52</time>
   <time name="total">    1.63    1.64</time>
   <energy>
    <i name="alphaZ">      5.36352662 </i>
    <i name="ewald">   1902.85713447 </i>
    <i name="hartreedc">  -2516.90964389 </i>
    <i name="XCdc">     14.03022591 </i>
    <i name="pawpsdc">   2017.89478636 </i>
    <i name="pawaedc">  -1985.55281889 </i>
    <i name="eentropy">     -0.00000000 </i>
    <i name="bandstr">   -162.75476046 </i>
    <i name="atom">    704.16778566 </i>
    <i name="e_fr_energy">    -20.90376421 </i>
    <i name="e_wo_entrp">    -20.90376421 </i>
    <i name="e_0_energy">    -20.90376421 </i>
   </energy>
  </scstep>
  <scstep>
   <time name="dav">    1.83    1.83</time>
   <time name="total">    1.94    1.94</time>
   <energy>
    <i name="e_fr_energy">    -20.90450617 </i>
    <i name="e_wo_entrp">    -20.90450617 </i>
    <i name="e_0_energy">    -20.90450617 </i>
   </energy>
  </scstep>
  <scstep>
   <time name="dav">    1.93    1.93</time>
   <time name="total">    2.05    2.05</time>
   <energy>
    <i name="e_fr_energy">    -20.90447008 </i>
    <i name="e_wo_entrp">    -20.90447008 </i>
    <i name="e_0_energy">    -20.90447008 </i>
   </energy>
  </scstep>
  <scstep>
   <time name="dav">    1.82    1.82</time>
   <time name="total">    1.93    1.93</time>
   <energy>
    <i name="e_fr_energy">    -20.90446165 </i>
    <i name="e_wo_entrp">    -20.90446165 </i>
    <i name="e_0_energy">    -20.90446165 </i>
   </energy>
  </scstep>
  <scstep>
   <time name="dav">    1.34    1.34</time>
   <time name="total">    1.45    1.45</time>
   <energy>
    <i name="e_fr_energy">    -20.90446316 </i>
    <i name="e_wo_entrp">    -20.90446316 </i>
    <i name="e_0_energy">    -20.90446316 </i>
   </energy>
  </scstep>
  <scstep>
   <time name="dav">    1.33    1.33</time>
   <time name="total">    1.35    1.36</time>
   <energy>
    <i name="alphaZ">      5.36352662 </i>
    <i name="ewald">   1902.85713447 </i>
    <i name="hartreedc">  -2516.95425397 </i>
    <i name="XCdc">     14.02477531 </i>
    <i name="pawpsdc">   1997.70344215 </i>
    <i name="pawaedc">  -1965.35324200 </i>
    <i name="eentropy">     -0.00000000 </i>
    <i name="bandstr">   -162.71363258 </i>
    <i name="atom">    704.16778566 </i>
    <i name="e_fr_energy">    -20.90446434 </i>
    <i name="e_wo_entrp">    -20.90446434 </i>
    <i name="e_0_energy">    -20.90446434 </i>
   </energy>
  </scstep>
  <structure>
   <crystal>
    <varray name="basis" >
     <v>       3.28050700       0.33139900       0.00000000 </v>
     <v>       0.46468800       4.59993900      -0.00005300 </v>
     <v>       0.00000000       0.00000000      20.02439000 </v>
    </varray>
    <i name="volume">    299.08699134 </i>
    <varray name="rec_basis" >
     <v>       0.30797385      -0.03111166       0.00000000 </v>
     <v>      -0.02218773       0.21963560       0.00000000 </v>
     <v>      -0.00000006       0.00000058       0.04993910 </v>
    </varray>
   </crystal>
   <varray name="positions" >
    <v>       0.46908714       0.92413741       0.55257152 </v>
    <v>       0.53091286       0.07586259       0.44742848 </v>
    <v>      -0.03091260       0.42413312       0.44742849 </v>
    <v>       0.03091260       0.57586688       0.55257151 </v>
   </varray>
  </structure>
  <varray name="forces" >
   <v>      -0.38650493      -0.73884859      -0.02803849 </v>
   <v>       0.38650493       0.73884859       0.02803849 </v>
   <v>      -0.38648907      -0.73887582       0.02805755 </v>
   <v>       0.38648907       0.73887582      -0.02805755 </v>
  </varray>
  <varray name="stress" >
   <v>       3.60611463     -27.14791611       0.00014128 </v>
   <v>     -27.14791608       2.68112708       0.00024238 </v>
   <v>       0.00014134       0.00024236      -0.67474965 </v>
  </varray>
  <energy>
   <i name="e_fr_energy">    -20.90446434 </i>
   <i name="e_wo_entrp">    -20.90446434 </i>
   <i name="e_0_energy">     -0.00000000 </i>
  </energy>
  <time name="totalsc">   11.12   11.14</time>
 </calculation>
 <calculation>
  <scstep>
   <time name="dav">    1.54    1.54</time>
   <time name="total">    1.65    1.65</time>
   <energy>
    <i name="alphaZ">      5.36352662 </i>
    <i name="ewald">   1905.19031795 </i>
    <i name="hartreedc">  -2518.82047184 </i>
    <i name="XCdc">     14.08533004 </i>
    <i name="pawpsdc">   1997.77097511 </i>
    <i name="pawaedc">  -1965.42085069 </i>
    <i name="eentropy">     -0.00000000 </i>
    <i name="bandstr">   -163.29976291 </i>
    <i name="atom">    704.16778566 </i>
    <i name="e_fr_energy">    -20.96315006 </i>
    <i name="e_wo_entrp">    -20.96315006 </i>
    <i name="e_0_energy">    -20.96315006 </i>
   </energy>
  </scstep>
  <scstep>
   <time name="dav">    1.79    1.79</time>
   <time name="total">    1.90    1.90</time>
   <energy>
    <i name="e_fr_energy">    -20.97046304 </i>
    <i name="e_wo_entrp">    -20.97046304 </i>
    <i name="e_0_energy">    -20.97046304 </i>
   </energy>
  </scstep>
  <scstep>
   <time name="dav">    1.98    1.98</time>
   <time name="total">    2.09    2.10</time>
   <energy>
    <i name="e_fr_energy">    -20.97032785 </i>
    <i name="e_wo_entrp">    -20.97032785 </i>
    <i name="e_0_energy">    -20.97032785 </i>
   </energy>
  </scstep>
  <scstep>
   <time name="dav">    1.81    1.81</time>
   <time name="total">    1.92    1.92</time>
   <energy>
    <i name="e_fr_energy">    -20.97026851 </i>
    <i name="e_wo_entrp">    -20.97026851 </i>
    <i name="e_0_energy">    -20.97026851 </i>
   </energy>
  </scstep>
  <scstep>
   <time name="dav">    1.83    1.83</time>
   <time name="total">    1.94    1.94</time>
   <energy>
    <i name="e_fr_energy">    -20.97027291 </i>
    <i name="e_wo_entrp">    -20.97027291 </i>
    <i name="e_0_energy">    -20.97027291 </i>
   </energy>
  </scstep>
  <scstep>
   <time name="dav">    1.40    1.40</time>
   <time name="total">    1.42    1.42</time>
   <energy>
    <i name="alphaZ">      5.36352662 </i>
    <i name="ewald">   1905.19031795 </i>
    <i name="hartreedc">  -2518.64817043 </i>
    <i name="XCdc">     14.08530009 </i>
    <i name="pawpsdc">   2027.83230987 </i>
    <i name="pawaedc">  -1995.49209131 </i>
    <i name="eentropy">     -0.00000000 </i>
    <i name="bandstr">   -163.46925175 </i>
    <i name="atom">    704.16778566 </i>
    <i name="e_fr_energy">    -20.97027330 </i>
    <i name="e_wo_entrp">    -20.97027330 </i>
    <i name="e_0_energy">    -20.97027330 </i>
   </energy>
  </scstep>
  <structure>
   <crystal>
    <varray name="basis" >
     <v>       3.28050700       0.33139900       0.00000000 </v>
     <v>       0.46468800       4.59993900      -0.00005300 </v>
     <v>       0.00000000       0.00000000      20.02439000 </v>
    </varray>
    <i name="volume">    299.08699134 </i>
    <varray name="rec_basis" >
     <v>       0.30797385      -0.03111166       0.00000000 </v>
     <v>      -0.02218773       0.21963560       0.00000000 </v>
     <v>      -0.00000006       0.00000058       0.04993910 </v>
    </varray>
   </crystal>
   <varray name="positions" >
    <v>       0.46450157       0.92038588       0.55253327 </v>
    <v>       0.53549843       0.07961412       0.44746673 </v>
    <v>      -0.03549799       0.42038138       0.44746675 </v>
    <v>       0.03549799       0.57961862       0.55253325 </v>
   </varray>
  </structure>
  <varray name="forces" >
   <v>      -0.19148893      -0.47831518      -0.07215684 </v>
   <v>       0.19148893       0.47831518       0.07215684 </v>
   <v>      -0.19147563      -0.47833608       0.07216754 </v>
   <v>       0.19147563       0.47833608      -0.07216754 </v>
  </varray>
  <varray name="stress" >
   <v>       2.39145069     -24.89013080       0.00014239 </v>
   <v>     -24.89013083       6.45379767       0.00012859 </v>
   <v>       0.00014231       0.00012856      -1.78592666 </v>
  </varray>
  <energy>
   <i name="e_fr_energy">    -20.97027330 </i>
   <i name="e_wo_entrp">    -20.97027330 </i>
   <i name="e_0_energy">     -0.00000000 </i>
  </energy>
  <time name="totalsc">   11.68   11.70</time>
 </calculation>
 <calculation>
  <scstep>
   <time name="dav">    1.55    1.55</time>
   <time name="total">    1.66    1.67</time>
   <energy>
    <i name="alphaZ">      5.36352662 </i>
    <i name="ewald">   1908.32619857 </i>
    <i name="hartreedc">  -2521.02149988 </i>
    <i name="XCdc">     14.16381594 </i>
    <i name="pawpsdc">   2027.89678109 </i>
    <i name="pawaedc">  -1995.55649085 </i>
    <i name="eentropy">     -0.00000000 </i>
    <i name="bandstr">   -164.33052049 </i>
    <i name="atom">    704.16778566 </i>
    <i name="e_fr_energy">    -20.99040333 </i>
    <i name="e_wo_entrp">    -20.99040333 </i>
    <i name="e_0_energy">    -20.99040333 </i>
   </energy>
  </scstep>
  <scstep>
   <time name="dav">    1.81    1.81</time>
   <time name="total">    1.92    1.92</time>
   <energy>
    <i name="e_fr_energy">    -21.00201519 </i>
    <i name="e_wo_entrp">    -21.00201519 </i>
    <i name="e_0_energy">    -21.00201519 </i>
   </energy>
  </scstep>
  <scstep>
   <time name="dav">    2.01    2.01</time>
   <time name="total">    2.12    2.12</time>
   <energy>
    <i name="e_fr_energy">    -21.00167142 </i>
    <i name="e_wo_entrp">    -21.00167142 </i>
    <i name="e_0_energy">    -21.00167142 </i>
   </energy>
  </scstep>
  <scstep>
   <time name="dav">    1.84    1.84</time>
   <time name="total">    1.95    1.96</time>
   <energy>
    <i name="e_fr_energy">    -21.00156996 </i>
    <i name="e_wo_entrp">    -21.00156996 </i>
    <i name="e_0_energy">    -21.00156996 </i>
   </energy>
  </scstep>
  <scstep>
   <time name="dav">    1.76    1.76</time>
   <time name="total">    1.87    1.87</time>
   <energy>
    <i name="e_fr_energy">    -21.00158255 </i>
    <i name="e_wo_entrp">    -21.00158255 </i>
    <i name="e_0_energy">    -21.00158255 </i>
   </energy>
  </scstep>
  <scstep>
   <time name="dav">    1.43    1.43</time>
   <time name="total">    1.45    1.45</time>
   <energy>
    <i name="alphaZ">      5.36352662 </i>
    <i name="ewald">   1908.32619857 </i>
    <i name="hartreedc">  -2520.81184841 </i>
    <i name="XCdc">     14.16545365 </i>
    <i name="pawpsdc">   2073.39532409 </i>
    <i name="pawaedc">  -2041.07099822 </i>
    <i name="eentropy">     -0.00000000 </i>
    <i name="bandstr">   -164.53702917 </i>
    <i name="atom">    704.16778566 </i>
    <i name="e_fr_energy">    -21.00158721 </i>
    <i name="e_wo_entrp">    -21.00158721 </i>
    <i name="e_0_energy">    -21.00158721 </i>
   </energy>
  </scstep>
  <structure>
   <crystal>
    <varray name="basis" >
     <v>       3.28050700       0.33139900       0.00000000 </v>
     <v>       0.46468800       4.59993900      -0.00005300 </v>
     <v>       0.00000000       0.00000000      20.02439000 </v>
    </varray>
    <i name="volume">    299.08699134 </i>
    <varray name="rec_basis" >
     <v>       0.30797385      -0.03111166       0.00000000 </v>
     <v>      -0.02218773       0.21963560       0.00000000 </v>
     <v>      -0.00000006       0.00000058       0.04993910 </v>
    </varray>
   </crystal>
   <varray name="positions" >
    <v>       0.45885232       0.91576412       0.55248614 </v>
    <v>       0.54114768       0.08423588       0.44751386 </v>
    <v>      -0.04114702       0.41575938       0.44751388 </v>
    <v>       0.04114702       0.58424062       0.55248612 </v>
   </varray>
  </structure>
  <varray name="forces" >
   <v>       0.11390218      -0.09628064      -0.12227787 </v>
   <v>      -0.11390218       0.09628064       0.12227787 </v>
   <v>       0.11391241      -0.09629388       0.12227706 </v>
   <v>      -0.11391241       0.09629388      -0.12227706 </v>
  </varray>
  <varray name="stress" >
   <v>       1.50813086     -21.14938044       0.00013493 </v>
   <v>     -21.14938040      11.92552239      -0.00001685 </v>
   <v>       0.00013487      -0.00001685      -2.94707796 </v>
  </varray>
  <energy>
   <i name="e_fr_energy">    -21.00158721 </i>
   <i name="e_wo_entrp">    -21.00158721 </i>
   <i name="e_0_energy">     -0.00000000 </i>
  </energy>
  <time name="totalsc">   11.74   11.75</time>
 </calculation>
 <calculation>
  <scstep>
   <time name="dav">    1.48    1.48</time>
   <time name="total">    1.59    1.59</time>
   <energy>
    <i name="alphaZ">      5.36352662 </i>
    <i name="ewald">   1913.21176632 </i>
    <i name="hartreedc">  -2525.20203697 </i>
    <i name="XCdc">     14.21319288 </i>
    <i name="pawpsdc">   2073.54941860 </i>
    <i name="pawaedc">  -2041.22498678 </i>
    <i name="eentropy">     -0.00000000 </i>
    <i name="bandstr">   -165.08303878 </i>
    <i name="atom">    704.16778566 </i>
    <i name="e_fr_energy">    -21.00437245 </i>
    <i name="e_wo_entrp">    -21.00437245 </i>
    <i name="e_0_energy">    -21.00437245 </i>
   </energy>
  </scstep>
  <scstep>
   <time name="dav">    1.89    1.89</time>
   <time name="total">    2.00    2.01</time>
   <energy>
    <i name="e_fr_energy">    -21.00515395 </i>
    <i name="e_wo_entrp">    -21.00515395 </i>
    <i name="e_0_energy">    -21.00515395 </i>
   </energy>
  </scstep>
  <scstep>
   <time name="dav">    1.97    1.97</time>
   <time name="total">    2.08    2.08</time>
   <energy>
    <i name="e_fr_energy">    -21.00513709 </i>
    <i name="e_wo_entrp">    -21.00513709 </i>
    <i name="e_0_energy">    -21.00513709 </i>
   </energy>
  </scstep>
  <scstep>
   <time name="dav">    1.80    1.80</time>
   <time name="total">    1.91    1.92</time>
   <energy>
    <i name="e_fr_energy">    -21.00513726 </i>
    <i name="e_wo_entrp">    -21.00513726 </i>
    <i name="e_0_energy">    -21.00513726 </i>
   </energy>
  </scstep>
  <scstep>
   <time name="dav">    1.32    1.32</time>
   <time name="total">    1.43    1.43</time>
   <energy>
    <i name="e_fr_energy">    -21.00513954 </i>
    <i name="e_wo_entrp">    -21.00513954 </i>
    <i name="e_0_energy">    -21.00513954 </i>
   </energy>
  </scstep>
  <scstep>
   <time name="dav">    1.35    1.35</time>
   <time name="total">    1.36    1.37</time>
   <energy>
    <i name="alphaZ">      5.36352662 </i>
    <i name="ewald">   1913.21176632 </i>
    <i name="hartreedc">  -2525.16449667 </i>
    <i name="XCdc">     14.21807476 </i>
    <i name="pawpsdc">   2102.63838613 </i>
    <i name="pawaedc">  -2070.32486567 </i>
    <i name="eentropy">     -0.00000000 </i>
    <i name="bandstr">   -165.11531875 </i>
    <i name="atom">    704.16778566 </i>
    <i name="e_fr_energy">    -21.00514160 </i>
    <i name="e_wo_entrp">    -21.00514160 </i>
    <i name="e_0_energy">    -21.00514160 </i>
   </energy>
  </scstep>
  <structure>
   <crystal>
    <varray name="basis" >
     <v>       3.28050700       0.33139900       0.00000000 </v>
     <v>       0.46468800       4.59993900      -0.00005300 </v>
     <v>       0.00000000       0.00000000      20.02439000 </v>
    </varray>
    <i name="volume">    299.08699134 </i>
    <varray name="rec_basis" >
     <v>       0.30797385      -0.03111166       0.00000000 </v>
     <v>      -0.02218773       0.21963560       0.00000000 </v>
     <v>      -0.00000006       0.00000058       0.04993910 </v>
    </varray>
   </crystal>
   <varray name="positions" >
    <v>       0.46019154       0.91485279       0.55226214 </v>
    <v>       0.53980846       0.08514721       0.44773786 </v>
    <v>      -0.03980766       0.41484793       0.44773788 </v>
    <v>       0.03980766       0.58515207       0.55226212 </v>
   </varray>
  </structure>
  <varray name="forces" >
   <v>       0.01497173      -0.01223490      -0.06479940 </v>
   <v>      -0.01497173       0.01223490       0.06479940 </v>
   <v>       0.01498034      -0.01224639       0.06479734 </v>
   <v>      -0.01498034       0.01224639      -0.06479734 </v>
  </varray>
  <varray name="stress" >
   <v>       2.40624333     -22.44072612       0.00016847 </v>
   <v>     -22.44072618      13.18938387      -0.00005004 </v>
   <v>       0.00016841      -0.00005010      -1.58261976 </v>
  </varray>
  <energy>
   <i name="e_fr_energy">    -21.00514160 </i>
   <i name="e_wo_entrp">    -21.00514160 </i>
   <i name="e_0_energy">     -0.00000000 </i>
  </energy>
  <time name="totalsc">   11.14   11.16</time>
 </calculation>
 <calculation>
  <scstep>
   <time name="dav">    1.47    1.47</time>
   <time name="total">    1.58    1.58</time>
   <energy>
    <i name="alphaZ">      5.36352662 </i>
    <i name="ewald">   1915.21864114 </i>
    <i name="hartreedc">  -2526.95709188 </i>
    <i name="XCdc">     14.23759247 </i>
    <i name="pawpsdc">   2102.77411030 </i>
    <i name="pawaedc">  -2070.46046201 </i>
    <i name="eentropy">     -0.00000000 </i>
    <i name="bandstr">   -165.34944541 </i>
    <i name="atom">    704.16778566 </i>
    <i name="e_fr_energy">    -21.00534311 </i>
    <i name="e_wo_entrp">    -21.00534311 </i>
    <i name="e_0_energy">    -21.00534311 </i>
   </energy>
  </scstep>
  <scstep>
   <time name="dav">    1.88    1.88</time>
   <time name="total">    1.99    2.00</time>
   <energy>
    <i name="e_fr_energy">    -21.00547908 </i>
    <i name="e_wo_entrp">    -21.00547908 </i>
    <i name="e_0_energy">    -21.00547908 </i>
   </energy>
  </scstep>
  <scstep>
   <time name="dav">    1.85    1.85</time>
   <time name="total">    1.96    1.96</time>
   <energy>
    <i name="e_fr_energy">    -21.00547731 </i>
    <i name="e_wo_entrp">    -21.00547731 </i>
    <i name="e_0_energy">    -21.00547731 </i>
   </energy>
  </scstep>
  <scstep>
   <time name="dav">    1.37    1.37</time>
   <time name="total">    1.48    1.48</time>
   <energy>
    <i name="e_fr_energy">    -21.00547889 </i>
    <i name="e_wo_entrp">    -21.00547889 </i>
    <i name="e_0_energy">    -21.00547889 </i>
   </energy>
  </scstep>
  <scstep>
   <time name="dav">    1.29    1.29</time>
   <time name="total">    1.40    1.40</time>
   <energy>
    <i name="e_fr_energy">    -21.00547987 </i>
    <i name="e_wo_entrp">    -21.00547987 </i>
    <i name="e_0_energy">    -21.00547987 </i>
   </energy>
  </scstep>
  <scstep>
   <time name="dav">    1.28    1.28</time>
   <time name="total">    1.30    1.30</time>
   <energy>
    <i name="alphaZ">      5.36352662 </i>
    <i name="ewald">   1915.21864114 </i>
    <i name="hartreedc">  -2526.93870618 </i>
    <i name="XCdc">     14.23961148 </i>
    <i name="pawpsdc">   2114.80347853 </i>
    <i name="pawaedc">  -2082.49438489 </i>
    <i name="eentropy">     -0.00000000 </i>
    <i name="bandstr">   -165.36543296 </i>
    <i name="atom">    704.16778566 </i>
    <i name="e_fr_energy">    -21.00548060 </i>
    <i name="e_wo_entrp">    -21.00548060 </i>
    <i name="e_0_energy">    -21.00548060 </i>
   </energy>
  </scstep>
  <structure>
   <crystal>
    <varray name="basis" >
     <v>       3.28050700       0.33139900       0.00000000 </v>
     <v>       0.46468800       4.59993900      -0.00005300 </v>
     <v>       0.00000000       0.00000000      20.02439000 </v>
    </varray>
    <i name="volume">    299.08699134 </i>
    <varray name="rec_basis" >
     <v>       0.30797385      -0.03111166       0.00000000 </v>
     <v>      -0.02218773       0.21963560       0.00000000 </v>
     <v>      -0.00000006       0.00000058       0.04993910 </v>
    </varray>
   </crystal>
   <varray name="positions" >
    <v>       0.46074074       0.91447907       0.55217028 </v>
    <v>       0.53925926       0.08552093       0.44782972 </v>
    <v>      -0.03925841       0.41447417       0.44782974 </v>
    <v>       0.03925841       0.58552583       0.55217026 </v>
   </varray>
  </structure>
  <varray name="forces" >
   <v>      -0.02616690       0.02298301      -0.04138990 </v>
   <v>       0.02616690      -0.02298301       0.04138990 </v>
   <v>      -0.02615877       0.02297216       0.04138708 </v>
   <v>       0.02615877      -0.02297216      -0.04138708 </v>
  </varray>
  <varray name="stress" >
   <v>       2.80782688     -22.95595220       0.00018157 </v>
   <v>     -22.95595218      13.72543895      -0.00006536 </v>
   <v>       0.00018154      -0.00006536      -1.02707138 </v>
  </varray>
  <energy>
   <i name="e_fr_energy">    -21.00548060 </i>
   <i name="e_wo_entrp">    -21.00548060 </i>
   <i name="e_0_energy">     -0.00000000 </i>
  </energy>
  <time name="totalsc">   10.47   10.49</time>
 </calculation>
 <calculation>
  <scstep>
   <time name="dav">    1.46    1.46</time>
   <time name="total">    1.57    1.57</time>
   <energy>
    <i name="alphaZ">      5.36352662 </i>
    <i name="ewald">   1917.03129645 </i>
    <i name="hartreedc">  -2528.67568151 </i>
    <i name="XCdc">     14.24890111 </i>
    <i name="pawpsdc">   2114.97538354 </i>
    <i name="pawaedc">  -2082.66622754 </i>
    <i name="eentropy">     -0.00000000 </i>
    <i name="bandstr">   -165.45069449 </i>
    <i name="atom">    704.16778566 </i>
    <i name="e_fr_energy">    -21.00571017 </i>
    <i name="e_wo_entrp">    -21.00571017 </i>
    <i name="e_0_energy">    -21.00571017 </i>
   </energy>
  </scstep>
  <scstep>
   <time name="dav">    1.86    1.86</time>
   <time name="total">    1.97    1.97</time>
   <energy>
    <i name="e_fr_energy">    -21.00579749 </i>
    <i name="e_wo_entrp">    -21.00579749 </i>
    <i name="e_0_energy">    -21.00579749 </i>
   </energy>
  </scstep>
  <scstep>
   <time name="dav">    1.71    1.71</time>
   <time name="total">    1.82    1.82</time>
   <energy>
    <i name="e_fr_energy">    -21.00579513 </i>
    <i name="e_wo_entrp">    -21.00579513 </i>
    <i name="e_0_energy">    -21.00579513 </i>
   </energy>
  </scstep>
  <scstep>
   <time name="dav">    1.30    1.30</time>
   <time name="total">    1.41    1.42</time>
   <energy>
    <i name="e_fr_energy">    -21.00579534 </i>
    <i name="e_wo_entrp">    -21.00579534 </i>
    <i name="e_0_energy">    -21.00579534 </i>
   </energy>
  </scstep>
  <scstep>
   <time name="dav">    1.28    1.28</time>
   <time name="total">    1.39    1.39</time>
   <energy>
    <i name="e_fr_energy">    -21.00579568 </i>
    <i name="e_wo_entrp">    -21.00579568 </i>
    <i name="e_0_energy">    -21.00579568 </i>
   </energy>
  </scstep>
  <scstep>
   <time name="dav">    1.24    1.24</time>
   <time name="total">    1.26    1.26</time>
   <energy>
    <i name="alphaZ">      5.36352662 </i>
    <i name="ewald">   1917.03129645 </i>
    <i name="hartreedc">  -2528.67388785 </i>
    <i name="XCdc">     14.24879887 </i>
    <i name="pawpsdc">   2118.34505456 </i>
    <i name="pawaedc">  -2086.03682497 </i>
    <i name="eentropy">     -0.00000000 </i>
    <i name="bandstr">   -165.45154517 </i>
    <i name="atom">    704.16778566 </i>
    <i name="e_fr_energy">    -21.00579584 </i>
    <i name="e_wo_entrp">    -21.00579584 </i>
    <i name="e_0_energy">    -21.00579584 </i>
   </energy>
  </scstep>
  <structure>
   <crystal>
    <varray name="basis" >
     <v>       3.28050700       0.33139900       0.00000000 </v>
     <v>       0.46468800       4.59993900      -0.00005300 </v>
     <v>       0.00000000       0.00000000      20.02439000 </v>
    </varray>
    <i name="volume">    299.08699134 </i>
    <varray name="rec_basis" >
     <v>       0.30797385      -0.03111166       0.00000000 </v>
     <v>      -0.02218773       0.21963560       0.00000000 </v>
     <v>      -0.00000006       0.00000058       0.04993910 </v>
    </varray>
   </crystal>
   <varray name="positions" >
    <v>       0.46051230       0.91462098       0.55206849 </v>
    <v>       0.53948770       0.08537902       0.44793151 </v>
    <v>      -0.03948672       0.41461596       0.44793153 </v>
    <v>       0.03948672       0.58538404       0.55206847 </v>
   </varray>
  </structure>
  <varray name="forces" >
   <v>      -0.01259138       0.00440720      -0.01384061 </v>
   <v>       0.01259138      -0.00440720       0.01384061 </v>
   <v>      -0.01258477       0.00439855       0.01383906 </v>
   <v>       0.01258477      -0.00439855      -0.01383906 </v>
  </varray>
  <varray name="stress" >
   <v>       2.73185886     -22.67328401       0.00019452 </v>
   <v>     -22.67328406      13.71393882      -0.00009035 </v>
   <v>       0.00019446      -0.00009038      -0.39423826 </v>
  </varray>
  <energy>
   <i name="e_fr_energy">    -21.00579584 </i>
   <i name="e_wo_entrp">    -21.00579584 </i>
   <i name="e_0_energy">     -0.00000000 </i>
  </energy>
  <time name="totalsc">   10.17   10.19</time>
 </calculation>
 <calculation>
  <scstep>
   <time name="dav">    1.47    1.47</time>
   <time name="total">    1.58    1.58</time>
   <energy>
    <i name="alphaZ">      5.36352662 </i>
    <i name="ewald">   1917.96871797 </i>
    <i name="hartreedc">  -2529.57052326 </i>
    <i name="XCdc">     14.25361819 </i>
    <i name="pawpsdc">   2118.41278832 </i>
    <i name="pawaedc">  -2086.10453292 </i>
    <i name="eentropy">     -0.00000000 </i>
    <i name="bandstr">   -165.49719534 </i>
    <i name="atom">    704.16778566 </i>
    <i name="e_fr_energy">    -21.00581476 </i>
    <i name="e_wo_entrp">    -21.00581476 </i>
    <i name="e_0_energy">    -21.00581476 </i>
   </energy>
  </scstep>
  <scstep>
   <time name="dav">    1.85    1.85</time>
   <time name="total">    1.96    1.96</time>
   <energy>
    <i name="e_fr_energy">    -21.00583842 </i>
    <i name="e_wo_entrp">    -21.00583842 </i>
    <i name="e_0_energy">    -21.00583842 </i>
   </energy>
  </scstep>
  <scstep>
   <time name="dav">    1.34    1.34</time>
   <time name="total">    1.45    1.45</time>
   <energy>
    <i name="e_fr_energy">    -21.00583763 </i>
    <i name="e_wo_entrp">    -21.00583763 </i>
    <i name="e_0_energy">    -21.00583763 </i>
   </energy>
  </scstep>
  <scstep>
   <time name="dav">    1.25    1.25</time>
   <time name="total">    1.36    1.37</time>
   <energy>
    <i name="e_fr_energy">    -21.00583780 </i>
    <i name="e_wo_entrp">    -21.00583780 </i>
    <i name="e_0_energy">    -21.00583780 </i>
   </energy>
  </scstep>
  <scstep>
   <time name="dav">    1.23    1.23</time>
   <time name="total">    1.34    1.35</time>
   <energy>
    <i name="e_fr_energy">    -21.00583787 </i>
    <i name="e_wo_entrp">    -21.00583787 </i>
    <i name="e_0_energy">    -21.00583787 </i>
   </energy>
  </scstep>
  <scstep>
   <time name="dav">    1.17    1.17</time>
   <time name="total">    1.19    1.19</time>
   <energy>
    <i name="alphaZ">      5.36352662 </i>
    <i name="ewald">   1917.96871797 </i>
    <i name="hartreedc">  -2529.57290000 </i>
    <i name="XCdc">     14.25361645 </i>
    <i name="pawpsdc">   2120.07790179 </i>
    <i name="pawaedc">  -2087.77014444 </i>
    <i name="eentropy">     -0.00000000 </i>
    <i name="bandstr">   -165.49434196 </i>
    <i name="atom">    704.16778566 </i>
    <i name="e_fr_energy">    -21.00583791 </i>
    <i name="e_wo_entrp">    -21.00583791 </i>
    <i name="e_0_energy">    -21.00583791 </i>
   </energy>
  </scstep>
  <structure>
   <crystal>
    <varray name="basis" >
     <v>       3.28050700       0.33139900       0.00000000 </v>
     <v>       0.46468800       4.59993900      -0.00005300 </v>
     <v>       0.00000000       0.00000000      20.02439000 </v>
    </varray>
    <i name="volume">    299.08699134 </i>
    <varray name="rec_basis" >
     <v>       0.30797385      -0.03111166       0.00000000 </v>
     <v>      -0.02218773       0.21963560       0.00000000 </v>
     <v>      -0.00000006       0.00000058       0.04993910 </v>
    </varray>
   </crystal>
   <varray name="positions" >
    <v>       0.46039424       0.91469431       0.55201588 </v>
    <v>       0.53960576       0.08530569       0.44798412 </v>
    <v>      -0.03960472       0.41468924       0.44798413 </v>
    <v>       0.03960472       0.58531076       0.55201587 </v>
   </varray>
  </structure>
  <varray name="forces" >
   <v>      -0.00567062      -0.00525251       0.00064117 </v>
   <v>       0.00567062       0.00525251      -0.00064117 </v>
   <v>      -0.00566478      -0.00525993      -0.00064195 </v>
   <v>       0.00566478       0.00525993       0.00064195 </v>
  </varray>
  <varray name="stress" >
   <v>       2.69648424     -22.52991355       0.00020153 </v>
   <v>     -22.52991354      13.70599402      -0.00010311 </v>
   <v>       0.00020150      -0.00010316      -0.06677783 </v>
  </varray>
  <energy>
   <i name="e_fr_energy">    -21.00583791 </i>
   <i name="e_wo_entrp">    -21.00583791 </i>
   <i name="e_0_energy">     -0.00000000 </i>
  </energy>
  <time name="totalsc">    9.58    9.60</time>
  <eigenvalues>
   <array>
    <dimension dim="1">band</dimension>
    <dimension dim="2">kpoint</dimension>
    <dimension dim="3">spin</dimension>
    <field>eigene</field>
    <field>occ</field>
    <set>
     <set comment="spin 1">
      <set comment="kpoint 1">
       <r>  -17.2299    1.0000 </r>
       <r>  -14.6027    1.0000 </r>
       <r>  -11.1203    1.0000 </r>
       <r>   -7.8269    1.0000 </r>
       <r>   -6.9885    1.0000 </r>
       <r>   -6.6800    1.0000 </r>
       <r>   -5.1787    1.0000 </r>
       <r>   -4.0440    1.0000 </r>
       <r>   -3.9823    1.0000 </r>
       <r>   -2.0325    1.0000 </r>
       <r>   -1.2894    0.0000 </r>
       <r>   -0.4622    0.0000 </r>
       <r>   -0.4455    0.0000 </r>
       <r>    1.7098    0.0000 </r>
       <r>    2.2238    0.0000 </r>
       <r>    2.3265    0.0000 </r>
      </set>
      <set comment="kpoint 2">
       <r>  -17.2019    1.0000 </r>
       <r>  -14.5754    1.0000 </r>
       <r>  -11.1325    1.0000 </r>
       <r>   -7.8095    1.0000 </r>
       <r>   -6.9590    1.0000 </r>
       <r>   -6.7108    1.0000 </r>
       <r>   -5.3704    1.0000 </r>
       <r>   -4.1640    1.0000 </r>
       <r>   -4.0207    1.0000 </r>
       <r>   -2.0429    1.0000 </r>
       <r>   -1.2703    0.0000 </r>
       <r>   -0.3398    0.0000 </r>
       <r>   -0.1826    0.0000 </r>
       <r>    1.6641    0.0000 </r>
       <r>    2.2413    0.0000 </r>
       <r>    2.3576    0.0000 </r>
      </set>
      <set comment="kpoint 3">
       <r>  -17.1181    1.0000 </r>
       <r>  -14.4936    1.0000 </r>
       <r>  -11.1744    1.0000 </r>
       <r>   -7.7578    1.0000 </r>
       <r>   -6.8745    1.0000 </r>
       <r>   -6.8261    1.0000 </r>
       <r>   -5.8287    1.0000 </r>
       <r>   -4.5542    1.0000 </r>
       <r>   -3.9693    1.0000 </r>
       <r>   -2.0874    1.0000 </r>
       <r>   -1.2104    0.0000 </r>
       <r>   -0.2296    0.0000 </r>
       <r>    0.4948    0.0000 </r>
       <r>    1.7538    0.0000 </r>
       <r>    2.2049    0.0000 </r>
       <r>    2.4514    0.0000 </r>
      </set>
      <set comment="kpoint 4">
       <r>  -16.9789    1.0000 </r>
       <r>  -14.3576    1.0000 </r>
       <r>  -11.2612    1.0000 </r>
       <r>   -7.6744    1.0000 </r>
       <r>   -7.0877    1.0000 </r>
       <r>   -6.7709    1.0000 </r>
       <r>   -6.3319    1.0000 </r>
       <r>   -4.9202    1.0000 </r>
       <r>   -3.8990    1.0000 </r>
       <r>   -2.1806    1.0000 </r>
       <r>   -1.1148    0.0000 </r>
       <r>   -0.4276    0.0000 </r>
       <r>    1.3009    0.0000 </r>
       <r>    1.9629    0.0000 </r>
       <r>    2.2026    0.0000 </r>
       <r>    2.6253    0.0000 </r>
      </set>
      <set comment="kpoint 5">
       <r>  -16.7849    1.0000 </r>
       <r>  -14.1681    1.0000 </r>
       <r>  -11.4165    1.0000 </r>
       <r>   -7.5679    1.0000 </r>
       <r>   -7.5326    1.0000 </r>
       <r>   -6.9782    1.0000 </r>
       <r>   -6.4234    1.0000 </r>
       <r>   -5.1196    1.0000 </r>
       <r>   -3.8407    1.0000 </r>
       <r>   -2.3320    1.0000 </r>
       <r>   -0.9962    0.0000 </r>
       <r>   -0.7760    0.0000 </r>
       <r>    1.2262    0.0000 </r>
       <r>    2.5812    0.0000 </r>
       <r>    2.6064    0.0000 </r>
       <r>    2.8588    0.0000 </r>
      </set>
      <set comment="kpoint 6">
       <r>  -16.5372    1.0000 </r>
       <r>  -13.9263    1.0000 </r>
       <r>  -11.6640    1.0000 </r>
       <r>   -8.1293    1.0000 </r>
       <r>   -7.4328    1.0000 </r>
       <r>   -7.3360    1.0000 </r>
       <r>   -6.1932    1.0000 </r>
       <r>   -5.1526    1.0000 </r>
       <r>   -3.8395    1.0000 </r>
       <r>   -2.5498    1.0000 </r>
       <r>   -1.0651    0.0000 </r>
       <r>   -0.8753    0.0000 </r>
       <r>    0.8470    0.0000 </r>
       <r>    2.2539    0.0000 </r>
       <r>    3.0378    0.0000 </r>
       <r>    3.0615    0.0000 </r>
      </set>
      <set comment="kpoint 7">
       <r>  -16.2372    1.0000 </r>
       <r>  -13.6357    1.0000 </r>
       <r>  -12.0107    1.0000 </r>
       <r>   -8.7868    1.0000 </r>
       <r>   -7.5624    1.0000 </r>
       <r>   -7.2962    1.0000 </r>
       <r>   -5.8978    1.0000 </r>
       <r>   -5.0785    1.0000 </r>
       <r>   -3.9331    1.0000 </r>
       <r>   -2.8327    1.0000 </r>
       <r>   -1.1843    0.0000 </r>
       <r>   -0.7933    0.0000 </r>
       <r>    0.5584    0.0000 </r>
       <r>    1.5574    0.0000 </r>
       <r>    3.1103    0.0000 </r>
       <r>    3.1300    0.0000 </r>
      </set>
      <set comment="kpoint 8">
       <r>  -15.8870    1.0000 </r>
       <r>  -13.3111    1.0000 </r>
       <r>  -12.4280    1.0000 </r>
       <r>   -9.4580    1.0000 </r>
       <r>   -7.6428    1.0000 </r>
       <r>   -7.1746    1.0000 </r>
       <r>   -5.5702    1.0000 </r>
       <r>   -4.9466    1.0000 </r>
       <r>   -4.1039    1.0000 </r>
       <r>   -3.1650    1.0000 </r>
       <r>   -1.1210    0.0000 </r>
       <r>   -0.8120    0.0000 </r>
       <r>    0.4405    0.0000 </r>
       <r>    0.8839    0.0000 </r>
       <r>    2.8140    0.0000 </r>
       <r>    2.8722    0.0000 </r>
      </set>
      <set comment="kpoint 9">
       <r>  -15.4894    1.0000 </r>
       <r>  -13.1458    1.0000 </r>
       <r>  -12.6927    1.0000 </r>
       <r>  -10.1149    1.0000 </r>
       <r>   -7.6042    1.0000 </r>
       <r>   -7.0987    1.0000 </r>
       <r>   -5.2353    1.0000 </r>
       <r>   -4.7898    1.0000 </r>
       <r>   -4.2823    1.0000 </r>
       <r>   -3.5194    1.0000 </r>
       <r>   -0.9625    0.0000 </r>
       <r>   -0.9353    0.0000 </r>
       <r>    0.3560    0.0000 </r>
       <r>    0.4983    0.0000 </r>
       <r>    2.3606    0.0000 </r>
       <r>    2.5173    0.0000 </r>
      </set>
      <set comment="kpoint 10">
       <r>  -15.0487    1.0000 </r>
       <r>  -13.5567    1.0000 </r>
       <r>  -12.3567    1.0000 </r>
       <r>  -10.7422    1.0000 </r>
       <r>   -7.4856    1.0000 </r>
       <r>   -7.0997    1.0000 </r>
       <r>   -4.9271    1.0000 </r>
       <r>   -4.6255    1.0000 </r>
       <r>   -4.4114    1.0000 </r>
       <r>   -3.8650    1.0000 </r>
       <r>   -1.0701    0.0000 </r>
       <r>   -0.9084    0.0000 </r>
       <r>    0.1611    0.0000 </r>
       <r>    0.6223    0.0000 </r>
       <r>    1.9144    0.0000 </r>
       <r>    2.1474    0.0000 </r>
      </set>
      <set comment="kpoint 11">
       <r>  -14.5712    1.0000 </r>
       <r>  -14.0670    1.0000 </r>
       <r>  -11.8726    1.0000 </r>
       <r>  -11.3305    1.0000 </r>
       <r>   -7.3304    1.0000 </r>
       <r>   -7.1860    1.0000 </r>
       <r>   -4.6857    1.0000 </r>
       <r>   -4.5389    1.0000 </r>
       <r>   -4.4115    1.0000 </r>
       <r>   -4.1718    1.0000 </r>
       <r>   -1.1179    0.0000 </r>
       <r>   -1.0348    0.0000 </r>
       <r>    0.3541    0.0000 </r>
       <r>    0.6068    0.0000 </r>
       <r>    1.6918    0.0000 </r>
       <r>    1.8299    0.0000 </r>
      </set>
      <set comment="kpoint 12">
       <r>  -17.2064    1.0000 </r>
       <r>  -14.6302    1.0000 </r>
       <r>  -11.1553    1.0000 </r>
       <r>   -7.9701    1.0000 </r>
       <r>   -6.8628    1.0000 </r>
       <r>   -6.6290    1.0000 </r>
       <r>   -5.1730    1.0000 </r>
       <r>   -4.0137    1.0000 </r>
       <r>   -3.8961    1.0000 </r>
       <r>   -2.2616    1.0000 </r>
       <r>   -1.0843    0.0000 </r>
       <r>   -0.4536    0.0000 </r>
       <r>   -0.4276    0.0000 </r>
       <r>    1.7026    0.0000 </r>
       <r>    2.2877    0.0000 </r>
       <r>    2.3593    0.0000 </r>
      </set>
      <set comment="kpoint 13">
       <r>  -17.1889    1.0000 </r>
       <r>  -14.5937    1.0000 </r>
       <r>  -11.1279    1.0000 </r>
       <r>   -7.9276    1.0000 </r>
       <r>   -6.9394    1.0000 </r>
       <r>   -6.6313    1.0000 </r>
       <r>   -5.2822    1.0000 </r>
       <r>   -4.2652    1.0000 </r>
       <r>   -3.9544    1.0000 </r>
       <r>   -2.2171    1.0000 </r>
       <r>   -1.1034    0.0000 </r>
       <r>   -0.3011    0.0000 </r>
       <r>   -0.2229    0.0000 </r>
       <r>    1.7128    0.0000 </r>
       <r>    2.2905    0.0000 </r>
       <r>    2.3758    0.0000 </r>
      </set>
      <set comment="kpoint 14">
       <r>  -17.1156    1.0000 </r>
       <r>  -14.5029    1.0000 </r>
       <r>  -11.1276    1.0000 </r>
       <r>   -7.8649    1.0000 </r>
       <r>   -6.9796    1.0000 </r>
       <r>   -6.7055    1.0000 </r>
       <r>   -5.6660    1.0000 </r>
       <r>   -4.6833    1.0000 </r>
       <r>   -3.9992    1.0000 </r>
       <r>   -2.2043    1.0000 </r>
       <r>   -1.0756    0.0000 </r>
       <r>   -0.1984    0.0000 </r>
       <r>    0.4147    0.0000 </r>
       <r>    1.8713    0.0000 </r>
       <r>    2.0580    0.0000 </r>
       <r>    2.4135    0.0000 </r>
      </set>
      <set comment="kpoint 15">
       <r>  -16.9870    1.0000 </r>
       <r>  -14.3578    1.0000 </r>
       <r>  -11.1741    1.0000 </r>
       <r>   -7.8093    1.0000 </r>
[...]
       <r>    2.2694    0.0000 </r>
       <r>    4.1312    0.0000 </r>
      </set>
      <set comment="kpoint 153">
       <r>  -15.3681    1.0000 </r>
       <r>  -14.8695    1.0000 </r>
       <r>  -10.9898    1.0000 </r>
       <r>  -10.4162    1.0000 </r>
       <r>   -7.7833    1.0000 </r>
       <r>   -7.6889    1.0000 </r>
       <r>   -5.4147    1.0000 </r>
       <r>   -4.7348    1.0000 </r>
       <r>   -3.4069    1.0000 </r>
       <r>   -3.2383    1.0000 </r>
       <r>    0.2575    0.0000 </r>
       <r>    0.7300    0.0000 </r>
       <r>    1.2788    0.0000 </r>
       <r>    1.8257    0.0000 </r>
       <r>    2.5711    0.0000 </r>
       <r>    3.9119    0.0000 </r>
      </set>
      <set comment="kpoint 154">
       <r>  -15.5636    1.0000 </r>
       <r>  -15.2109    1.0000 </r>
       <r>  -10.7742    1.0000 </r>
       <r>  -10.3827    1.0000 </r>
       <r>   -7.6140    1.0000 </r>
       <r>   -7.1571    1.0000 </r>
       <r>   -5.1097    1.0000 </r>
       <r>   -4.8077    1.0000 </r>
       <r>   -3.4869    1.0000 </r>
       <r>   -2.8913    1.0000 </r>
       <r>    0.3093    0.0000 </r>
       <r>    1.0178    0.0000 </r>
       <r>    1.2108    0.0000 </r>
       <r>    1.7645    0.0000 </r>
       <r>    2.7760    0.0000 </r>
       <r>    3.5765    0.0000 </r>
      </set>
      <set comment="kpoint 155">
       <r>  -15.7218    1.0000 </r>
       <r>  -15.5047    1.0000 </r>
       <r>  -10.6881    1.0000 </r>
       <r>  -10.4182    1.0000 </r>
       <r>   -7.2165    1.0000 </r>
       <r>   -6.4966    1.0000 </r>
       <r>   -4.9771    1.0000 </r>
       <r>   -4.8850    1.0000 </r>
       <r>   -3.4079    1.0000 </r>
       <r>   -2.6730    1.0000 </r>
       <r>    0.3607    0.0000 </r>
       <r>    1.1252    0.0000 </r>
       <r>    1.3777    0.0000 </r>
       <r>    1.6086    0.0000 </r>
       <r>    2.4826    0.0000 </r>
       <r>    2.9906    0.0000 </r>
      </set>
      <set comment="kpoint 156">
       <r>  -15.8359    1.0000 </r>
       <r>  -15.7483    1.0000 </r>
       <r>  -10.6931    1.0000 </r>
       <r>  -10.4684    1.0000 </r>
       <r>   -6.6476    1.0000 </r>
       <r>   -5.8130    1.0000 </r>
       <r>   -4.9617    1.0000 </r>
       <r>   -4.9432    1.0000 </r>
       <r>   -3.2313    1.0000 </r>
       <r>   -2.6223    1.0000 </r>
       <r>    0.2995    0.0000 </r>
       <r>    1.1691    0.0000 </r>
       <r>    1.3346    0.0000 </r>
       <r>    1.6073    0.0000 </r>
       <r>    2.1739    0.0000 </r>
       <r>    2.1795    0.0000 </r>
      </set>
      <set comment="kpoint 157">
       <r>  -15.9402    1.0000 </r>
       <r>  -15.9021    1.0000 </r>
       <r>  -10.7372    1.0000 </r>
       <r>  -10.5050    1.0000 </r>
       <r>   -5.9890    1.0000 </r>
       <r>   -5.3364    1.0000 </r>
       <r>   -4.9716    1.0000 </r>
       <r>   -4.8528    1.0000 </r>
       <r>   -3.0626    1.0000 </r>
       <r>   -2.7282    1.0000 </r>
       <r>   -0.0146    0.0000 </r>
       <r>    0.9940    0.0000 </r>
       <r>    1.2387    0.0000 </r>
       <r>    1.4697    0.0000 </r>
       <r>    1.8786    0.0000 </r>
       <r>    2.0920    0.0000 </r>
      </set>
      <set comment="kpoint 158">
       <r>  -16.0794    1.0000 </r>
       <r>  -15.9181    1.0000 </r>
       <r>  -10.7842    1.0000 </r>
       <r>  -10.5157    1.0000 </r>
       <r>   -5.3401    1.0000 </r>
       <r>   -5.2799    1.0000 </r>
       <r>   -4.9602    1.0000 </r>
       <r>   -4.5819    1.0000 </r>
       <r>   -2.9629    1.0000 </r>
       <r>   -2.9148    1.0000 </r>
       <r>   -0.2742    0.0000 </r>
       <r>    0.3929    0.0000 </r>
       <r>    1.2532    0.0000 </r>
       <r>    1.3210    0.0000 </r>
       <r>    2.0854    0.0000 </r>
       <r>    2.0963    0.0000 </r>
      </set>
     </set>
    </set>
   </array>
  </eigenvalues>
  <separator name="orbital magnetization" >
   <v name="MAGDIPOLOUT">      0.00000000      0.00000000      0.00000000</v>
  </separator>
  <dos>
   <i name="efermi">     -1.90761782 </i>
   <total>
    <array>
     <dimension dim="1">gridpoints</dimension>
     <dimension dim="2">spin</dimension>
     <field>energy</field>
     <field>total</field>
     <field>integrated</field>
     <set>
      <set comment="spin 1">
       <r>   -18.2987     0.0000     0.0000 </r>
       <r>   -18.2203     0.0000     0.0000 </r>
       <r>   -18.1419     0.0000     0.0000 </r>
       <r>   -18.0635     0.0000     0.0000 </r>
       <r>   -17.9852     0.0000     0.0000 </r>
       <r>   -17.9068     0.0000     0.0000 </r>
       <r>   -17.8284     0.0000     0.0000 </r>
       <r>   -17.7500     0.0000     0.0000 </r>
       <r>   -17.6716     0.0000     0.0000 </r>
       <r>   -17.5933     0.0000     0.0000 </r>
       <r>   -17.5149     0.0000     0.0000 </r>
       <r>   -17.4365     0.0000     0.0000 </r>
       <r>   -17.3581     0.0000     0.0000 </r>
       <r>   -17.2797     0.0000     0.0000 </r>
       <r>   -17.2014     0.2984     0.0234 </r>
       <r>   -17.1230     0.7823     0.0847 </r>
       <r>   -17.0446     0.7884     0.1465 </r>
       <r>   -16.9662     0.9327     0.2196 </r>
       <r>   -16.8879     0.5603     0.2635 </r>
       <r>   -16.8095     0.9880     0.3410 </r>
       <r>   -16.7311     0.7293     0.3981 </r>
       <r>   -16.6527     1.0121     0.4775 </r>
       <r>   -16.5743     0.6655     0.5296 </r>
       <r>   -16.4960     0.7561     0.5889 </r>
       <r>   -16.4176     1.2043     0.6833 </r>
       <r>   -16.3392     0.6205     0.7319 </r>
       <r>   -16.2608     0.6781     0.7851 </r>
       <r>   -16.1824     1.2188     0.8806 </r>
       <r>   -16.1041     0.7760     0.9414 </r>
       <r>   -16.0257     0.6419     0.9917 </r>
       <r>   -15.9473     0.9209     1.0639 </r>
       <r>   -15.8689     1.0694     1.1477 </r>
       <r>   -15.7905     1.0445     1.2296 </r>
       <r>   -15.7122     0.8433     1.2957 </r>
       <r>   -15.6338     0.5765     1.3409 </r>
       <r>   -15.5554     1.2938     1.4423 </r>
       <r>   -15.4770     1.1410     1.5317 </r>
       <r>   -15.3986     0.7574     1.5911 </r>
       <r>   -15.3203     0.9734     1.6674 </r>
       <r>   -15.2419     0.8927     1.7373 </r>
       <r>   -15.1635     1.1079     1.8242 </r>
       <r>   -15.0851     1.3960     1.9336 </r>
       <r>   -15.0068     1.0563     2.0164 </r>
       <r>   -14.9284     0.9931     2.0942 </r>
       <r>   -14.8500     1.4139     2.2050 </r>
       <r>   -14.7716     1.2697     2.3045 </r>
       <r>   -14.6932     1.8103     2.4464 </r>
       <r>   -14.6149     1.6356     2.5746 </r>
       <r>   -14.5365     2.1202     2.7408 </r>
       <r>   -14.4581     1.3772     2.8488 </r>
       <r>   -14.3797     1.3528     2.9548 </r>
       <r>   -14.3013     1.2361     3.0517 </r>
       <r>   -14.2230     0.7745     3.1124 </r>
       <r>   -14.1446     1.2649     3.2115 </r>
       <r>   -14.0662     0.7903     3.2735 </r>
       <r>   -13.9878     0.6887     3.3275 </r>
       <r>   -13.9094     1.0544     3.4101 </r>
       <r>   -13.8311     0.7301     3.4673 </r>
       <r>   -13.7527     0.4152     3.4999 </r>
       <r>   -13.6743     0.8593     3.5672 </r>
       <r>   -13.5959     0.7646     3.6271 </r>
       <r>   -13.5175     0.6935     3.6815 </r>
       <r>   -13.4392     0.2838     3.7037 </r>
       <r>   -13.3608     0.8730     3.7722 </r>
       <r>   -13.2824     0.3930     3.8030 </r>
       <r>   -13.2040     0.8011     3.8658 </r>
       <r>   -13.1256     0.6993     3.9206 </r>
       <r>   -13.0473     0.4171     3.9533 </r>
       <r>   -12.9689     0.2724     3.9746 </r>
       <r>   -12.8905     0.1591     3.9871 </r>
       <r>   -12.8121     0.1822     4.0014 </r>
       <r>   -12.7338     0.1450     4.0127 </r>
       <r>   -12.6554     0.1610     4.0253 </r>
       <r>   -12.5770     0.2257     4.0430 </r>
       <r>   -12.4986     0.1030     4.0511 </r>
       <r>   -12.4202     0.3347     4.0773 </r>
       <r>   -12.3419     0.8151     4.1412 </r>
       <r>   -12.2635     1.1227     4.2292 </r>
       <r>   -12.1851     0.5706     4.2740 </r>
       <r>   -12.1067     0.8022     4.3368 </r>
       <r>   -12.0283     1.1274     4.4252 </r>
       <r>   -11.9500     1.1527     4.5155 </r>
       <r>   -11.8716     1.5096     4.6339 </r>
       <r>   -11.7932     1.2174     4.7293 </r>
       <r>   -11.7148     0.9916     4.8070 </r>
       <r>   -11.6364     0.9022     4.8777 </r>
       <r>   -11.5581     1.0343     4.9588 </r>
       <r>   -11.4797     1.0787     5.0433 </r>
       <r>   -11.4013     1.5429     5.1643 </r>
       <r>   -11.3229     2.2498     5.3406 </r>
       <r>   -11.2445     2.3564     5.5253 </r>
       <r>   -11.1662     2.5298     5.7236 </r>
       <r>   -11.0878     2.4504     5.9156 </r>
       <r>   -11.0094     1.6561     6.0454 </r>
       <r>   -10.9310     1.3099     6.1481 </r>
       <r>   -10.8526     0.7402     6.2061 </r>
       <r>   -10.7743     1.3356     6.3108 </r>
       <r>   -10.6959     1.4919     6.4277 </r>
       <r>   -10.6175     0.8453     6.4940 </r>
       <r>   -10.5391     0.2288     6.5119 </r>
       <r>   -10.4608     1.0727     6.5960 </r>
       <r>   -10.3824     0.8556     6.6631 </r>
       <r>   -10.3040     1.0864     6.7482 </r>
       <r>   -10.2256     0.0685     6.7536 </r>
       <r>   -10.1472     0.7458     6.8120 </r>
       <r>   -10.0689     1.5166     6.9309 </r>
       <r>    -9.9905     0.5111     6.9710 </r>
       <r>    -9.9121     0.5401     7.0133 </r>
       <r>    -9.8337     0.2806     7.0353 </r>
       <r>    -9.7553     0.2629     7.0559 </r>
       <r>    -9.6770     1.1919     7.1493 </r>
       <r>    -9.5986     0.4005     7.1807 </r>
       <r>    -9.5202     0.5176     7.2213 </r>
       <r>    -9.4418     0.6921     7.2755 </r>
       <r>    -9.3634     0.3385     7.3020 </r>
       <r>    -9.2851     0.7644     7.3620 </r>
       <r>    -9.2067     0.4132     7.3944 </r>
       <r>    -9.1283     0.2317     7.4125 </r>
       <r>    -9.0499     0.4695     7.4493 </r>
       <r>    -8.9715     0.2595     7.4696 </r>
       <r>    -8.8932     0.5288     7.5111 </r>
       <r>    -8.8148     0.6108     7.5590 </r>
       <r>    -8.7364     0.5208     7.5998 </r>
       <r>    -8.6580     0.2170     7.6168 </r>
       <r>    -8.5797     0.5403     7.6592 </r>
       <r>    -8.5013     0.2174     7.6762 </r>
       <r>    -8.4229     0.0905     7.6833 </r>
       <r>    -8.3445     0.5454     7.7260 </r>
       <r>    -8.2661     0.4209     7.7590 </r>
       <r>    -8.1878     0.6932     7.8134 </r>
       <r>    -8.1094     0.9961     7.8914 </r>
       <r>    -8.0310     1.2801     7.9918 </r>
       <r>    -7.9526     2.1437     8.1598 </r>
       <r>    -7.8742     2.0217     8.3182 </r>
       <r>    -7.7959     1.5797     8.4421 </r>
       <r>    -7.7175     2.4621     8.6350 </r>
       <r>    -7.6391     1.6848     8.7671 </r>
       <r>    -7.5607     2.3164     8.9486 </r>
       <r>    -7.4823     2.0879     9.1123 </r>
       <r>    -7.4040     2.8733     9.3375 </r>
       <r>    -7.3256     1.7951     9.4782 </r>
       <r>    -7.2472     2.1719     9.6484 </r>
       <r>    -7.1688     3.3757     9.9130 </r>
       <r>    -7.0904     2.0480    10.0735 </r>
       <r>    -7.0121     2.3136    10.2549 </r>
       <r>    -6.9337     2.2463    10.4309 </r>
       <r>    -6.8553     2.2922    10.6106 </r>
       <r>    -6.7769     1.7473    10.7475 </r>
       <r>    -6.6985     2.8451    10.9705 </r>
       <r>    -6.6202     2.4593    11.1633 </r>
       <r>    -6.5418     1.0844    11.2483 </r>
       <r>    -6.4634     1.6867    11.3805 </r>
       <r>    -6.3850     0.9212    11.4527 </r>
       <r>    -6.3067     1.8725    11.5995 </r>
       <r>    -6.2283     1.1814    11.6920 </r>
       <r>    -6.1499     2.2157    11.8657 </r>
       <r>    -6.0715     1.5439    11.9867 </r>
       <r>    -5.9931     1.0387    12.0681 </r>
       <r>    -5.9148     1.3466    12.1737 </r>
       <r>    -5.8364     2.2054    12.3465 </r>
       <r>    -5.7580     1.7612    12.4846 </r>
       <r>    -5.6796     1.6602    12.6147 </r>
       <r>    -5.6012     1.8671    12.7610 </r>
       <r>    -5.5229     1.2662    12.8603 </r>
       <r>    -5.4445     3.0971    13.1030 </r>
       <r>    -5.3661     2.5667    13.3042 </r>
       <r>    -5.2877     2.6665    13.5132 </r>
       <r>    -5.2093     2.8571    13.7371 </r>
       <r>    -5.1310     3.9423    14.0461 </r>
       <r>    -5.0526     3.4113    14.3135 </r>
       <r>    -4.9742     2.3553    14.4981 </r>
       <r>    -4.8958     3.1454    14.7446 </r>
       <r>    -4.8174     1.4684    14.8597 </r>
       <r>    -4.7391     1.8676    15.0061 </r>
       <r>    -4.6607     2.0417    15.1662 </r>
       <r>    -4.5823     1.3428    15.2714 </r>
       <r>    -4.5039     2.1558    15.4404 </r>
       <r>    -4.4256     2.1104    15.6058 </r>
       <r>    -4.3472     1.8094    15.7476 </r>
       <r>    -4.2688     1.7883    15.8878 </r>
       <r>    -4.1904     1.5512    16.0093 </r>
       <r>    -4.1120     3.4402    16.2790 </r>
       <r>    -4.0337     2.7405    16.4938 </r>
       <r>    -3.9553     2.8990    16.7210 </r>
       <r>    -3.8769     2.1756    16.8915 </r>
       <r>    -3.7985     1.9160    17.0417 </r>
       <r>    -3.7201     1.9044    17.1910 </r>
       <r>    -3.6418     1.7265    17.3263 </r>
       <r>    -3.5634     2.3890    17.5135 </r>
       <r>    -3.4850     3.2761    17.7703 </r>
       <r>    -3.4066     1.9516    17.9233 </r>
       <r>    -3.3282     2.7363    18.1378 </r>
       <r>    -3.2499     2.0851    18.3012 </r>
       <r>    -3.1715     3.3389    18.5629 </r>
       <r>    -3.0931     1.8304    18.7063 </r>
       <r>    -3.0147     1.8123    18.8484 </r>
       <r>    -2.9363     1.8234    18.9913 </r>
       <r>    -2.8580     2.0955    19.1556 </r>
       <r>    -2.7796     1.4689    19.2707 </r>
       <r>    -2.7012     1.3089    19.3733 </r>
       <r>    -2.6228     1.2765    19.4733 </r>
       <r>    -2.5444     1.9887    19.6292 </r>
       <r>    -2.4661     0.9039    19.7001 </r>
       <r>    -2.3877     0.8365    19.7656 </r>
       <r>    -2.3093     1.0627    19.8489 </r>
       <r>    -2.2309     0.9984    19.9272 </r>
       <r>    -2.1526     0.5203    19.9680 </r>
       <r>    -2.0742     0.1400    19.9789 </r>
       <r>    -1.9958     0.2685    20.0000 </r>
       <r>    -1.9174     0.0005    20.0000 </r>
       <r>    -1.8390     0.0000    20.0000 </r>
       <r>    -1.7607     0.0000    20.0000 </r>
       <r>    -1.6823     0.0000    20.0000 </r>
       <r>    -1.6039     0.0000    20.0000 </r>
       <r>    -1.5255     0.0000    20.0000 </r>
       <r>    -1.4471     0.1644    20.0129 </r>
       <r>    -1.3688     0.4908    20.0514 </r>
       <r>    -1.2904     0.5587    20.0951 </r>
       <r>    -1.2120     1.1635    20.1863 </r>
       <r>    -1.1336     0.8489    20.2529 </r>
       <r>    -1.0552     2.0348    20.4124 </r>
       <r>    -0.9769     1.4692    20.5275 </r>
       <r>    -0.8985     1.4145    20.6384 </r>
       <r>    -0.8201     2.1904    20.8101 </r>
       <r>    -0.7417     2.3050    20.9907 </r>
       <r>    -0.6633     1.5738    21.1141 </r>
       <r>    -0.5850     2.4005    21.3022 </r>
       <r>    -0.5066     1.5957    21.4273 </r>
       <r>    -0.4282     2.6826    21.6375 </r>
       <r>    -0.3498     2.9715    21.8704 </r>
       <r>    -0.2715     3.0385    22.1086 </r>
       <r>    -0.1931     3.2367    22.3623 </r>
       <r>    -0.1147     4.0094    22.6765 </r>
       <r>    -0.0363     2.4049    22.8650 </r>
       <r>     0.0421     2.3535    23.0495 </r>
       <r>     0.1204     2.8987    23.2767 </r>
       <r>     0.1988     2.0211    23.4351 </r>
       <r>     0.2772     2.2653    23.6127 </r>
       <r>     0.3556     4.2297    23.9442 </r>
       <r>     0.4340     3.3136    24.2039 </r>
       <r>     0.5123     2.2229    24.3781 </r>
       <r>     0.5907     2.2465    24.5542 </r>
       <r>     0.6691     2.1362    24.7216 </r>
       <r>     0.7475     1.8670    24.8680 </r>
       <r>     0.8259     1.9232    25.0187 </r>
       <r>     0.9042     1.4731    25.1342 </r>
       <r>     0.9826     2.0057    25.2914 </r>
       <r>     1.0610     2.5644    25.4924 </r>
       <r>     1.1394     1.8092    25.6342 </r>
       <r>     1.2178     1.8584    25.7798 </r>
       <r>     1.2961     2.7177    25.9928 </r>
       <r>     1.3745     3.6038    26.2753 </r>
       <r>     1.4529     3.3128    26.5350 </r>
       <r>     1.5313     2.7747    26.7524 </r>
       <r>     1.6097     3.1190    26.9969 </r>
       <r>     1.6880     2.9224    27.2260 </r>
       <r>     1.7664     2.9679    27.4586 </r>
       <r>     1.8448     2.7723    27.6759 </r>
       <r>     1.9232     2.9454    27.9067 </r>
       <r>     2.0015     2.8488    28.1300 </r>
       <r>     2.0799     2.5355    28.3288 </r>
       <r>     2.1583     2.4828    28.5234 </r>
       <r>     2.2367     2.6790    28.7333 </r>
       <r>     2.3151     2.3329    28.9162 </r>
       <r>     2.3934     4.4292    29.2633 </r>
       <r>     2.4718     3.2863    29.5209 </r>
       <r>     2.5502     3.5031    29.7955 </r>
       <r>     2.6286     2.4066    29.9841 </r>
       <r>     2.7070     2.7790    30.2019 </r>
       <r>     2.7853     3.2804    30.4591 </r>
       <r>     2.8637     2.8975    30.6862 </r>
       <r>     2.9421     1.4433    30.7993 </r>
       <r>     3.0205     2.3775    30.9856 </r>
       <r>     3.0989     1.9335    31.1372 </r>
       <r>     3.1772     2.5846    31.3398 </r>
       <r>     3.2556     1.9693    31.4941 </r>
       <r>     3.3340     1.3996    31.6038 </r>
       <r>     3.4124     0.9070    31.6749 </r>
       <r>     3.4908     0.6826    31.7284 </r>
       <r>     3.5691     0.2994    31.7519 </r>
       <r>     3.6475     0.6233    31.8007 </r>
       <r>     3.7259     0.7275    31.8577 </r>
       <r>     3.8043     0.2021    31.8736 </r>
       <r>     3.8826     0.1581    31.8860 </r>
       <r>     3.9610     0.5140    31.9263 </r>
       <r>     4.0394     0.4027    31.9578 </r>
       <r>     4.1178     0.1930    31.9730 </r>
       <r>     4.1962     0.3450    32.0000 </r>
       <r>     4.2745     0.0000    32.0000 </r>
       <r>     4.3529     0.0000    32.0000 </r>
       <r>     4.4313     0.0000    32.0000 </r>
       <r>     4.5097     0.0000    32.0000 </r>
       <r>     4.5881     0.0000    32.0000 </r>
       <r>     4.6664     0.0000    32.0000 </r>
       <r>     4.7448     0.0000    32.0000 </r>
       <r>     4.8232     0.0000    32.0000 </r>
       <r>     4.9016     0.0000    32.0000 </r>
       <r>     4.9800     0.0000    32.0000 </r>
       <r>     5.0583     0.0000    32.0000 </r>
       <r>     5.1367     0.0000    32.0000 </r>
       <r>     5.2151     0.0000    32.0000 </r>
      </set>
     </set>
    </array>
   </total>
  </dos>
 </calculation>
 <structure name="finalpos" >
  <crystal>
   <varray name="basis" >
    <v>       3.28050700       0.33139900       0.00000000 </v>
    <v>       0.46468800       4.59993900      -0.00005300 </v>
    <v>       0.00000000       0.00000000      20.02439000 </v>
   </varray>
   <i name="volume">    299.08699134 </i>
   <varray name="rec_basis" >
    <v>       0.30797385      -0.03111166       0.00000000 </v>
    <v>      -0.02218773       0.21963560       0.00000000 </v>
    <v>      -0.00000006       0.00000058       0.04993910 </v>
   </varray>
  </crystal>
  <varray name="positions" >
   <v>       0.46039424       0.91469431       0.55201588 </v>
   <v>       0.53960576       0.08530569       0.44798412 </v>
   <v>      -0.03960472       0.41468924       0.44798413 </v>
   <v>       0.03960472       0.58531076       0.55201587 </v>
  </varray>
 </structure>
</modeling>
