<?xml version="1.0" encoding="ISO-8859-1"?>
<modeling>
 <generator>
  <i name="program" type="string">vasp </i>
  <i name="version" type="string">5.4.1  </i>
  <i name="subversion" type="string">24Jun15 (build Nov 20 2020 10:29:34) complex                          parallel </i>
  <i name="platform" type="string">IFC91_ompi </i>
  <i name="date" type="string">2021 09 09 </i>
  <i name="time" type="string">14:50:33 </i>
 </generator>
 <incar>
  <i type="string" name="PREC">a</i>
  <i type="string" name="ALGO"> Normal</i>
  <i type="int" name="ISPIN">     1</i>
  <i type="int" name="ICHARG">     2</i>
  <i type="int" name="NELM">   250</i>
  <i type="int" name="NELMDL">    -5</i>
  <i type="int" name="NELMIN">     6</i>
  <i type="int" name="IBRION">     2</i>
  <i name="EDIFF">      0.00001000</i>
  <i name="EDIFFG">     -0.01000000</i>
  <i type="int" name="NSW">   200</i>
  <i type="int" name="ISIF">     2</i>
  <i name="ENCUT">    520.00000000</i>
  <i name="POTIM">      0.30000000</i>
  <i type="logical" name="LREAL"> F  </i>
  <i type="int" name="ISMEAR">     0</i>
  <i name="SIGMA">      0.02000000</i>
  <i type="logical" name="LWAVE"> F  </i>
  <i type="logical" name="LCHARG"> F  </i>
  <i type="logical" name="LAECHG"> F  </i>
  <v type="int" name="KPOINT_BSE">    -1     0     0     0</v>
  <i type="int" name="NELM">   250</i>
 </incar>
 <kpoints>
  <generation param="Gamma">
   <v type="int" name="divisions">      22       15        1 </v>
   <v name="usershift">      0.00000000       0.00000000       0.00000000 </v>
   <v name="genvec1">      0.04545455       0.00000000       0.00000000 </v>
   <v name="genvec2">      0.00000000       0.06666667       0.00000000 </v>
   <v name="genvec3">      0.00000000      -0.00000000       1.00000000 </v>
   <v name="shift">      0.00000000       0.00000000       0.00000000 </v>
  </generation>
  <varray name="kpointlist" >
   <v>       0.00000000       0.00000000       0.00000000 </v>
   <v>       0.04545455       0.00000000       0.00000000 </v>
   <v>       0.09090909       0.00000000       0.00000000 </v>
   <v>       0.13636364       0.00000000       0.00000000 </v>
   <v>       0.18181818       0.00000000       0.00000000 </v>
   <v>       0.22727273       0.00000000       0.00000000 </v>
   <v>       0.27272727       0.00000000       0.00000000 </v>
   <v>       0.31818182       0.00000000       0.00000000 </v>
   <v>       0.36363636       0.00000000       0.00000000 </v>
   <v>       0.40909091       0.00000000       0.00000000 </v>
   <v>       0.45454545       0.00000000       0.00000000 </v>
   <v>       0.50000000       0.00000000       0.00000000 </v>
   <v>       0.00000000       0.06666667       0.00000000 </v>
   <v>       0.04545455       0.06666667       0.00000000 </v>
   <v>       0.09090909       0.06666667       0.00000000 </v>
   <v>       0.13636364       0.06666667       0.00000000 </v>
   <v>       0.18181818       0.06666667       0.00000000 </v>
   <v>       0.22727273       0.06666667       0.00000000 </v>
   <v>       0.27272727       0.06666667       0.00000000 </v>
   <v>       0.31818182       0.06666667       0.00000000 </v>
   <v>       0.36363636       0.06666667       0.00000000 </v>
   <v>       0.40909091       0.06666667       0.00000000 </v>
   <v>       0.45454545       0.06666667       0.00000000 </v>
   <v>       0.50000000       0.06666667       0.00000000 </v>
   <v>      -0.45454545       0.06666667       0.00000000 </v>
   <v>      -0.40909091       0.06666667       0.00000000 </v>
   <v>      -0.36363636       0.06666667       0.00000000 </v>
   <v>      -0.31818182       0.06666667       0.00000000 </v>
   <v>      -0.27272727       0.06666667       0.00000000 </v>
   <v>      -0.22727273       0.06666667       0.00000000 </v>
   <v>      -0.18181818       0.06666667       0.00000000 </v>
   <v>      -0.13636364       0.06666667       0.00000000 </v>
   <v>      -0.09090909       0.06666667       0.00000000 </v>
   <v>      -0.04545455       0.06666667       0.00000000 </v>
   <v>       0.00000000       0.13333333       0.00000000 </v>
   <v>       0.04545455       0.13333333       0.00000000 </v>
   <v>       0.09090909       0.13333333       0.00000000 </v>
   <v>       0.13636364       0.13333333       0.00000000 </v>
   <v>       0.18181818       0.13333333       0.00000000 </v>
   <v>       0.22727273       0.13333333       0.00000000 </v>
   <v>       0.27272727       0.13333333       0.00000000 </v>
   <v>       0.31818182       0.13333333       0.00000000 </v>
   <v>       0.36363636       0.13333333       0.00000000 </v>
   <v>       0.40909091       0.13333333       0.00000000 </v>
   <v>       0.45454545       0.13333333       0.00000000 </v>
   <v>       0.50000000       0.13333333       0.00000000 </v>
   <v>      -0.45454545       0.13333333       0.00000000 </v>
   <v>      -0.40909091       0.13333333       0.00000000 </v>
   <v>      -0.36363636       0.13333333       0.00000000 </v>
   <v>      -0.31818182       0.13333333       0.00000000 </v>
   <v>      -0.27272727       0.13333333       0.00000000 </v>
   <v>      -0.22727273       0.13333333       0.00000000 </v>
   <v>      -0.18181818       0.13333333       0.00000000 </v>
   <v>      -0.13636364       0.13333333       0.00000000 </v>
   <v>      -0.09090909       0.13333333       0.00000000 </v>
   <v>      -0.04545455       0.13333333       0.00000000 </v>
   <v>       0.00000000       0.20000000       0.00000000 </v>
   <v>       0.04545455       0.20000000       0.00000000 </v>
   <v>       0.09090909       0.20000000       0.00000000 </v>
   <v>       0.13636364       0.20000000       0.00000000 </v>
   <v>       0.18181818       0.20000000       0.00000000 </v>
   <v>       0.22727273       0.20000000       0.00000000 </v>
   <v>       0.27272727       0.20000000       0.00000000 </v>
   <v>       0.31818182       0.20000000       0.00000000 </v>
   <v>       0.36363636       0.20000000       0.00000000 </v>
   <v>       0.40909091       0.20000000       0.00000000 </v>
   <v>       0.45454545       0.20000000       0.00000000 </v>
   <v>       0.50000000       0.20000000       0.00000000 </v>
   <v>      -0.45454545       0.20000000       0.00000000 </v>
   <v>      -0.40909091       0.20000000       0.00000000 </v>
   <v>      -0.36363636       0.20000000       0.00000000 </v>
   <v>      -0.31818182       0.20000000       0.00000000 </v>
   <v>      -0.27272727       0.20000000       0.00000000 </v>
   <v>      -0.22727273       0.20000000       0.00000000 </v>
   <v>      -0.18181818       0.20000000       0.00000000 </v>
   <v>      -0.13636364       0.20000000       0.00000000 </v>
   <v>      -0.09090909       0.20000000       0.00000000 </v>
   <v>      -0.04545455       0.20000000       0.00000000 </v>
   <v>       0.00000000       0.26666667       0.00000000 </v>
   <v>       0.04545455       0.26666667       0.00000000 </v>
   <v>       0.09090909       0.26666667       0.00000000 </v>
   <v>       0.13636364       0.26666667       0.00000000 </v>
   <v>       0.18181818       0.26666667       0.00000000 </v>
   <v>       0.22727273       0.26666667       0.00000000 </v>
   <v>       0.27272727       0.26666667       0.00000000 </v>
   <v>       0.31818182       0.26666667       0.00000000 </v>
   <v>       0.36363636       0.26666667       0.00000000 </v>
   <v>       0.40909091       0.26666667       0.00000000 </v>
   <v>       0.45454545       0.26666667       0.00000000 </v>
   <v>       0.50000000       0.26666667       0.00000000 </v>
   <v>      -0.45454545       0.26666667       0.00000000 </v>
   <v>      -0.40909091       0.26666667       0.00000000 </v>
   <v>      -0.36363636       0.26666667       0.00000000 </v>
   <v>      -0.31818182       0.26666667       0.00000000 </v>
   <v>      -0.27272727       0.26666667       0.00000000 </v>
   <v>      -0.22727273       0.26666667       0.00000000 </v>
   <v>      -0.18181818       0.26666667       0.00000000 </v>
   <v>      -0.13636364       0.26666667       0.00000000 </v>
   <v>      -0.09090909       0.26666667       0.00000000 </v>
   <v>      -0.04545455       0.26666667       0.00000000 </v>
   <v>       0.00000000       0.33333333       0.00000000 </v>
   <v>       0.04545455       0.33333333       0.00000000 </v>
   <v>       0.09090909       0.33333333       0.00000000 </v>
   <v>       0.13636364       0.33333333       0.00000000 </v>
   <v>       0.18181818       0.33333333       0.00000000 </v>
   <v>       0.22727273       0.33333333       0.00000000 </v>
   <v>       0.27272727       0.33333333       0.00000000 </v>
   <v>       0.31818182       0.33333333       0.00000000 </v>
   <v>       0.36363636       0.33333333       0.00000000 </v>
   <v>       0.40909091       0.33333333       0.00000000 </v>
   <v>       0.45454545       0.33333333       0.00000000 </v>
   <v>       0.50000000       0.33333333       0.00000000 </v>
   <v>      -0.45454545       0.33333333       0.00000000 </v>
   <v>      -0.40909091       0.33333333       0.00000000 </v>
   <v>      -0.36363636       0.33333333       0.00000000 </v>
   <v>      -0.31818182       0.33333333       0.00000000 </v>
   <v>      -0.27272727       0.33333333       0.00000000 </v>
   <v>      -0.22727273       0.33333333       0.00000000 </v>
   <v>      -0.18181818       0.33333333       0.00000000 </v>
   <v>      -0.13636364       0.33333333       0.00000000 </v>
   <v>      -0.09090909       0.33333333       0.00000000 </v>
   <v>      -0.04545455       0.33333333       0.00000000 </v>
   <v>       0.00000000       0.40000000       0.00000000 </v>
   <v>       0.04545455       0.40000000       0.00000000 </v>
   <v>       0.09090909       0.40000000       0.00000000 </v>
   <v>       0.13636364       0.40000000       0.00000000 </v>
   <v>       0.18181818       0.40000000       0.00000000 </v>
   <v>       0.22727273       0.40000000       0.00000000 </v>
   <v>       0.27272727       0.40000000       0.00000000 </v>
   <v>       0.31818182       0.40000000       0.00000000 </v>
   <v>       0.36363636       0.40000000       0.00000000 </v>
   <v>       0.40909091       0.40000000       0.00000000 </v>
   <v>       0.45454545       0.40000000       0.00000000 </v>
   <v>       0.50000000       0.40000000       0.00000000 </v>
   <v>      -0.45454545       0.40000000       0.00000000 </v>
   <v>      -0.40909091       0.40000000       0.00000000 </v>
   <v>      -0.36363636       0.40000000       0.00000000 </v>
   <v>      -0.31818182       0.40000000       0.00000000 </v>
   <v>      -0.27272727       0.40000000       0.00000000 </v>
   <v>      -0.22727273       0.40000000       0.00000000 </v>
   <v>      -0.18181818       0.40000000       0.00000000 </v>
   <v>      -0.13636364       0.40000000       0.00000000 </v>
   <v>      -0.09090909       0.40000000       0.00000000 </v>
   <v>      -0.04545455       0.40000000       0.00000000 </v>
   <v>       0.00000000       0.46666667       0.00000000 </v>
   <v>       0.04545455       0.46666667       0.00000000 </v>
   <v>       0.09090909       0.46666667       0.00000000 </v>
   <v>       0.13636364       0.46666667       0.00000000 </v>
   <v>       0.18181818       0.46666667       0.00000000 </v>
   <v>       0.22727273       0.46666667       0.00000000 </v>
   <v>       0.27272727       0.46666667       0.00000000 </v>
   <v>       0.31818182       0.46666667       0.00000000 </v>
   <v>       0.36363636       0.46666667       0.00000000 </v>
   <v>       0.40909091       0.46666667       0.00000000 </v>
   <v>       0.45454545       0.46666667       0.00000000 </v>
   <v>       0.50000000       0.46666667       0.00000000 </v>
   <v>      -0.45454545       0.46666667       0.00000000 </v>
   <v>      -0.40909091       0.46666667       0.00000000 </v>
   <v>      -0.36363636       0.46666667       0.00000000 </v>
   <v>      -0.31818182       0.46666667       0.00000000 </v>
   <v>      -0.27272727       0.46666667       0.00000000 </v>
   <v>      -0.22727273       0.46666667       0.00000000 </v>
   <v>      -0.18181818       0.46666667       0.00000000 </v>
   <v>      -0.13636364       0.46666667       0.00000000 </v>
   <v>      -0.09090909       0.46666667       0.00000000 </v>
   <v>      -0.04545455       0.46666667       0.00000000 </v>
  </varray>
  <varray name="weights" >
   <v>       0.00303030 </v>
   <v>       0.00606061 </v>
   <v>       0.00606061 </v>
   <v>       0.00606061 </v>
   <v>       0.00606061 </v>
   <v>       0.00606061 </v>
   <v>       0.00606061 </v>
   <v>       0.00606061 </v>
   <v>       0.00606061 </v>
   <v>       0.00606061 </v>
   <v>       0.00606061 </v>
   <v>       0.00303030 </v>
   <v>       0.00606061 </v>
   <v>       0.00606061 </v>
   <v>       0.00606061 </v>
   <v>       0.00606061 </v>
   <v>       0.00606061 </v>
   <v>       0.00606061 </v>
   <v>       0.00606061 </v>
   <v>       0.00606061 </v>
   <v>       0.00606061 </v>
   <v>       0.00606061 </v>
   <v>       0.00606061 </v>
   <v>       0.00606061 </v>
   <v>       0.00606061 </v>
   <v>       0.00606061 </v>
   <v>       0.00606061 </v>
   <v>       0.00606061 </v>
   <v>       0.00606061 </v>
   <v>       0.00606061 </v>
   <v>       0.00606061 </v>
   <v>       0.00606061 </v>
   <v>       0.00606061 </v>
   <v>       0.00606061 </v>
   <v>       0.00606061 </v>
   <v>       0.00606061 </v>
   <v>       0.00606061 </v>
   <v>       0.00606061 </v>
   <v>       0.00606061 </v>
   <v>       0.00606061 </v>
   <v>       0.00606061 </v>
   <v>       0.00606061 </v>
   <v>       0.00606061 </v>
   <v>       0.00606061 </v>
   <v>       0.00606061 </v>
   <v>       0.00606061 </v>
   <v>       0.00606061 </v>
   <v>       0.00606061 </v>
   <v>       0.00606061 </v>
   <v>       0.00606061 </v>
   <v>       0.00606061 </v>
   <v>       0.00606061 </v>
   <v>       0.00606061 </v>
   <v>       0.00606061 </v>
   <v>       0.00606061 </v>
   <v>       0.00606061 </v>
   <v>       0.00606061 </v>
   <v>       0.00606061 </v>
   <v>       0.00606061 </v>
   <v>       0.00606061 </v>
   <v>       0.00606061 </v>
   <v>       0.00606061 </v>
   <v>       0.00606061 </v>
   <v>       0.00606061 </v>
   <v>       0.00606061 </v>
   <v>       0.00606061 </v>
   <v>       0.00606061 </v>
   <v>       0.00606061 </v>
   <v>       0.00606061 </v>
   <v>       0.00606061 </v>
   <v>       0.00606061 </v>
   <v>       0.00606061 </v>
   <v>       0.00606061 </v>
   <v>       0.00606061 </v>
   <v>       0.00606061 </v>
   <v>       0.00606061 </v>
   <v>       0.00606061 </v>
   <v>       0.00606061 </v>
   <v>       0.00606061 </v>
   <v>       0.00606061 </v>
   <v>       0.00606061 </v>
   <v>       0.00606061 </v>
   <v>       0.00606061 </v>
   <v>       0.00606061 </v>
   <v>       0.00606061 </v>
   <v>       0.00606061 </v>
   <v>       0.00606061 </v>
   <v>       0.00606061 </v>
   <v>       0.00606061 </v>
   <v>       0.00606061 </v>
   <v>       0.00606061 </v>
   <v>       0.00606061 </v>
   <v>       0.00606061 </v>
   <v>       0.00606061 </v>
   <v>       0.00606061 </v>
   <v>       0.00606061 </v>
   <v>       0.00606061 </v>
   <v>       0.00606061 </v>
   <v>       0.00606061 </v>
   <v>       0.00606061 </v>
   <v>       0.00606061 </v>
   <v>       0.00606061 </v>
   <v>       0.00606061 </v>
   <v>       0.00606061 </v>
   <v>       0.00606061 </v>
   <v>       0.00606061 </v>
   <v>       0.00606061 </v>
   <v>       0.00606061 </v>
   <v>       0.00606061 </v>
   <v>       0.00606061 </v>
   <v>       0.00606061 </v>
   <v>       0.00606061 </v>
   <v>       0.00606061 </v>
   <v>       0.00606061 </v>
   <v>       0.00606061 </v>
   <v>       0.00606061 </v>
   <v>       0.00606061 </v>
   <v>       0.00606061 </v>
   <v>       0.00606061 </v>
   <v>       0.00606061 </v>
   <v>       0.00606061 </v>
   <v>       0.00606061 </v>
   <v>       0.00606061 </v>
   <v>       0.00606061 </v>
   <v>       0.00606061 </v>
   <v>       0.00606061 </v>
   <v>       0.00606061 </v>
   <v>       0.00606061 </v>
   <v>       0.00606061 </v>
   <v>       0.00606061 </v>
   <v>       0.00606061 </v>
   <v>       0.00606061 </v>
   <v>       0.00606061 </v>
   <v>       0.00606061 </v>
   <v>       0.00606061 </v>
   <v>       0.00606061 </v>
   <v>       0.00606061 </v>
   <v>       0.00606061 </v>
   <v>       0.00606061 </v>
   <v>       0.00606061 </v>
   <v>       0.00606061 </v>
   <v>       0.00606061 </v>
   <v>       0.00606061 </v>
   <v>       0.00606061 </v>
   <v>       0.00606061 </v>
   <v>       0.00606061 </v>
   <v>       0.00606061 </v>
   <v>       0.00606061 </v>
   <v>       0.00606061 </v>
   <v>       0.00606061 </v>
   <v>       0.00606061 </v>
   <v>       0.00606061 </v>
   <v>       0.00606061 </v>
   <v>       0.00606061 </v>
   <v>       0.00606061 </v>
   <v>       0.00606061 </v>
   <v>       0.00606061 </v>
   <v>       0.00606061 </v>
   <v>       0.00606061 </v>
   <v>       0.00606061 </v>
   <v>       0.00606061 </v>
   <v>       0.00606061 </v>
   <v>       0.00606061 </v>
   <v>       0.00606061 </v>
   <v>       0.00606061 </v>
   <v>       0.00606061 </v>
  </varray>
 </kpoints>
 <parameters>
  <separator name="general" >
   <i type="string" name="SYSTEM">unknown system</i>
   <i type="logical" name="LCOMPAT"> F  </i>
  </separator>
  <separator name="electronic" >
   <i type="string" name="PREC">a</i>
   <i name="ENMAX">    520.00000000</i>
   <i name="ENAUG">    342.92400000</i>
   <i name="EDIFF">      0.00001000</i>
   <i type="int" name="IALGO">    38</i>
   <i type="int" name="IWAVPR">    11</i>
   <i type="int" name="NBANDS">    16</i>
   <i name="NELECT">     20.00000000</i>
   <i type="int" name="TURBO">     0</i>
   <i type="int" name="IRESTART">     0</i>
   <i type="int" name="NREBOOT">     0</i>
   <i type="int" name="NMIN">     0</i>
   <i name="EREF">      0.00000000</i>
   <separator name="electronic smearing" >
    <i type="int" name="ISMEAR">     0</i>
    <i name="SIGMA">      0.02000000</i>
    <i name="KSPACING">      0.50000000</i>
    <i type="logical" name="KGAMMA"> T  </i>
   </separator>
   <separator name="electronic projectors" >
    <i type="logical" name="LREAL"> F  </i>
    <v name="ROPT">      0.00000000</v>
    <i type="int" name="LMAXPAW">  -100</i>
    <i type="int" name="LMAXMIX">     2</i>
    <i type="logical" name="NLSPLINE"> F  </i>
   </separator>
   <separator name="electronic startup" >
    <i type="int" name="ISTART">     0</i>
    <i type="int" name="ICHARG">     2</i>
    <i type="int" name="INIWAV">     1</i>
   </separator>
   <separator name="electronic spin" >
    <i type="int" name="ISPIN">     1</i>
    <i type="logical" name="LNONCOLLINEAR"> F  </i>
    <v name="MAGMOM">      1.00000000      1.00000000      1.00000000      1.00000000</v>
    <i name="NUPDOWN">     -1.00000000</i>
    <i type="logical" name="LSORBIT"> F  </i>
    <v name="SAXIS">      0.00000000      0.00000000      1.00000000</v>
    <i type="logical" name="LSPIRAL"> F  </i>
    <v name="QSPIRAL">      0.00000000      0.00000000      0.00000000</v>
    <i type="logical" name="LZEROZ"> F  </i>
   </separator>
   <separator name="electronic exchange-correlation" >
    <i type="logical" name="LASPH"> F  </i>
    <i type="logical" name="LMETAGGA"> F  </i>
   </separator>
   <separator name="electronic convergence" >
    <i type="int" name="NELM">   250</i>
    <i type="int" name="NELMDL">    -5</i>
    <i type="int" name="NELMIN">     6</i>
    <i name="ENINI">    520.00000000</i>
    <separator name="electronic convergence detail" >
     <i type="logical" name="LDIAG"> T  </i>
     <i type="logical" name="LSUBROT"> F  </i>
     <i name="WEIMIN">      0.00100000</i>
     <i name="EBREAK">      0.00000016</i>
     <i name="DEPER">      0.30000000</i>
     <i type="int" name="NRMM">     4</i>
     <i name="TIME">      0.40000000</i>
    </separator>
   </separator>
   <separator name="electronic mixer" >
    <i name="AMIX">      0.40000000</i>
    <i name="BMIX">      1.00000000</i>
    <i name="AMIN">      0.10000000</i>
    <i name="AMIX_MAG">      1.60000000</i>
    <i name="BMIX_MAG">      1.00000000</i>
    <separator name="electronic mixer details" >
     <i type="int" name="IMIX">     4</i>
     <i type="logical" name="MIXFIRST"> F  </i>
     <i type="int" name="MAXMIX">   -45</i>
     <i name="WC">    100.00000000</i>
     <i type="int" name="INIMIX">     1</i>
     <i type="int" name="MIXPRE">     1</i>
     <i type="int" name="MREMOVE">     5</i>
    </separator>
   </separator>
   <separator name="electronic dipolcorrection" >
    <i type="logical" name="LDIPOL"> F  </i>
    <i type="logical" name="LMONO"> F  </i>
    <i type="int" name="IDIPOL">     0</i>
    <i name="EPSILON">      1.00000000</i>
    <v name="DIPOL">   -100.00000000   -100.00000000   -100.00000000</v>
    <i name="EFIELD">      0.00000000</i>
   </separator>
  </separator>
  <separator name="grids" >
   <i type="int" name="NGX">    24</i>
   <i type="int" name="NGY">    36</i>
   <i type="int" name="NGZ">   150</i>
   <i type="int" name="NGXF">    48</i>
   <i type="int" name="NGYF">    72</i>
   <i type="int" name="NGZF">   300</i>
   <i type="logical" name="ADDGRID"> F  </i>
  </separator>
  <separator name="ionic" >
   <i type="int" name="NSW">   200</i>
   <i type="int" name="IBRION">     2</i>
   <i type="int" name="ISIF">     2</i>
   <i name="PSTRESS">      0.00000000</i>
   <i name="EDIFFG">     -0.01000000</i>
   <i type="int" name="NFREE">     1</i>
   <i name="POTIM">      0.30000000</i>
   <i name="SMASS">     -3.00000000</i>
   <i name="SCALEE">      1.00000000</i>
  </separator>
  <separator name="ionic md" >
   <i name="TEBEG">      0.00010000</i>
   <i name="TEEND">      0.00010000</i>
   <i type="int" name="NBLOCK">     1</i>
   <i type="int" name="KBLOCK">   200</i>
   <i type="int" name="NPACO">   256</i>
   <i name="APACO">     16.00000000</i>
  </separator>
  <separator name="symmetry" >
   <i type="int" name="ISYM">     2</i>
   <i name="SYMPREC">      0.00001000</i>
  </separator>
  <separator name="dos" >
   <i type="logical" name="LORBIT"> F  </i>
   <v name="RWIGS">     -1.00000000</v>
   <i type="int" name="NEDOS">   301</i>
   <i name="EMIN">     10.00000000</i>
   <i name="EMAX">    -10.00000000</i>
   <i name="EFERMI">      0.00000000</i>
  </separator>
  <separator name="writing" >
   <i type="int" name="NWRITE">     2</i>
   <i type="logical" name="LWAVE"> F  </i>
   <i type="logical" name="LCHARG"> F  </i>
   <i type="logical" name="LPARD"> F  </i>
   <i type="logical" name="LVTOT"> F  </i>
   <i type="logical" name="LVHAR"> F  </i>
   <i type="logical" name="LELF"> F  </i>
   <i type="logical" name="LOPTICS"> F  </i>
   <v name="STM">      0.00000000      0.00000000      0.00000000      0.00000000      0.00000000      0.00000000      0.00000000</v>
  </separator>
  <separator name="performance" >
   <i type="int" name="NPAR">     4</i>
   <i type="int" name="NSIM">     4</i>
   <i type="int" name="NBLK">    -1</i>
   <i type="logical" name="LPLANE"> T  </i>
   <i type="logical" name="LSCALAPACK"> T  </i>
   <i type="logical" name="LSCAAWARE"> F  </i>
   <i type="logical" name="LSCALU"> F  </i>
   <i type="logical" name="LASYNC"> F  </i>
   <i type="logical" name="LORBITALREAL"> F  </i>
  </separator>
  <separator name="miscellaneous" >
   <i type="int" name="IDIOT">     3</i>
   <i type="logical" name="LMUSIC"> F  </i>
   <v name="POMASS">     30.97400000</v>
   <v name="DARWINR">      0.00000000</v>
   <v name="DARWINV">      1.00000000</v>
   <i type="logical" name="LCORR"> T  </i>
  </separator>
  <i type="logical" name="GGA_COMPAT"> T  </i>
  <i type="logical" name="LBERRY"> F  </i>
  <i type="int" name="ICORELEVEL">     0</i>
  <i type="logical" name="LDAU"> F  </i>
  <i type="int" name="I_CONSTRAINED_M">     0</i>
  <separator name="electronic exchange-correlation" >
   <i type="string" name="GGA">--</i>
   <i type="int" name="VOSKOWN">     0</i>
   <i type="logical" name="LHFCALC"> F  </i>
   <i type="string" name="PRECFOCK"></i>
   <i type="logical" name="LSYMGRAD"> F  </i>
   <i type="logical" name="LHFONE"> F  </i>
   <i type="logical" name="LRHFCALC"> F  </i>
   <i type="logical" name="LTHOMAS"> F  </i>
   <i type="logical" name="LMODELHF"> F  </i>
   <i name="ENCUT4O">     -1.00000000</i>
   <i type="int" name="EXXOEP">     0</i>
   <i type="int" name="FOURORBIT">     0</i>
   <i name="AEXX">      0.00000000</i>
   <i name="HFALPHA">      0.00000000</i>
   <i name="MCALPHA">      0.00000000</i>
   <i name="ALDAX">      1.00000000</i>
   <i name="AGGAX">      1.00000000</i>
   <i name="ALDAC">      1.00000000</i>
   <i name="AGGAC">      1.00000000</i>
   <i type="int" name="NKREDX">     1</i>
   <i type="int" name="NKREDY">     1</i>
   <i type="int" name="NKREDZ">     1</i>
   <i type="logical" name="SHIFTRED"> F  </i>
   <i type="logical" name="ODDONLY"> F  </i>
   <i type="logical" name="EVENONLY"> F  </i>
   <i type="int" name="LMAXFOCK">     0</i>
   <i type="int" name="NMAXFOCKAE">     0</i>
   <i type="logical" name="LFOCKAEDFT"> F  </i>
   <i name="HFSCREEN">      0.00000000</i>
   <i name="HFSCREENC">      0.00000000</i>
   <i type="int" name="NBANDSGWLOW">     0</i>
  </separator>
  <separator name="vdW DFT" >
   <i type="logical" name="LUSE_VDW"> F  </i>
   <i name="Zab_VDW">     -0.84910000</i>
   <i name="PARAM1">      0.12340000</i>
   <i name="PARAM2">      1.00000000</i>
   <i name="PARAM3">      0.00000000</i>
  </separator>
  <separator name="model GW" >
   <i type="int" name="MODEL_GW">     0</i>
   <i name="MODEL_EPS0">     43.95663565</i>
   <i name="MODEL_ALPHA">      1.00000000</i>
  </separator>
  <separator name="linear response parameters" >
   <i type="logical" name="LEPSILON"> F  </i>
   <i type="logical" name="LRPA"> F  </i>
   <i type="logical" name="LNABLA"> F  </i>
   <i type="logical" name="LVEL"> F  </i>
   <i type="int" name="KINTER">     0</i>
   <i name="CSHIFT">      0.10000000</i>
   <i name="OMEGAMAX">     -1.00000000</i>
   <i name="DEG_THRESHOLD">      0.00200000</i>
  </separator>
  <separator name="orbital magnetization" >
   <i type="logical" name="NUCIND"> F  </i>
   <v name="MAGPOS">      0.00000000      0.00000000      0.00000000</v>
   <i type="logical" name="LNICSALL"> T  </i>
   <i type="logical" name="ORBITALMAG"> F  </i>
   <i type="logical" name="LMAGBLOCH"> F  </i>
   <i type="logical" name="LCHIMAG"> F  </i>
   <i type="logical" name="LGAUGE"> T  </i>
   <i type="int" name="MAGATOM">     0</i>
   <v name="MAGDIPOL">      0.00000000      0.00000000      0.00000000</v>
   <v name="AVECCONST">      0.00000000      0.00000000      0.00000000</v>
  </separator>
  <separator name="response functions" >
   <i type="logical" name="LADDER"> F  </i>
   <i type="logical" name="LFXC"> F  </i>
   <i type="logical" name="LHARTREE"> T  </i>
   <i type="int" name="IBSE">     0</i>
   <v type="int" name="KPOINT">    -1     0     0     0</v>
   <i type="logical" name="LTCTE"> F  </i>
   <i type="logical" name="LTETE"> F  </i>
   <i type="logical" name="LTRIPLET"> F  </i>
   <i type="logical" name="LFXCEPS"> F  </i>
   <i type="logical" name="LFXHEG"> F  </i>
   <i type="int" name="NATURALO">     0</i>
   <i type="logical" name="L2ORDER"> F  </i>
   <i type="logical" name="LUSEW"> F  </i>
   <i name="ENCUTGW">     -2.00000000</i>
   <i name="ENCUTGWSOFT">     -2.00000000</i>
   <i name="ENCUTLF">     -1.00000000</i>
   <i type="int" name="LMAXMP2">    -1</i>
   <i name="SCISSOR">      0.00000000</i>
   <i type="int" name="NOMEGA">     0</i>
   <i type="int" name="NOMEGAR">     0</i>
   <i type="int" name="NBANDSGW">    -1</i>
   <i type="int" name="NBANDSO">    -1</i>
   <i type="int" name="NBANDSV">    -1</i>
   <i type="int" name="NELM">   250</i>
   <i type="int" name="NELMHF">     1</i>
   <i type="int" name="DIM">     3</i>
   <i type="int" name="ANTIRES">     0</i>
   <i name="OMEGAMAX">    -30.00000000</i>
   <i name="OMEGAMIN">    -30.00000000</i>
   <i name="OMEGATL">   -200.00000000</i>
   <i type="int" name="OMEGAGRID">     0</i>
   <i name="CSHIFT">     -0.10000000</i>
   <i type="logical" name="SELFENERGY"> F  </i>
   <i type="logical" name="LSPECTRAL"> F  </i>
   <i type="logical" name="LSPECTRALGW"> F  </i>
   <i type="logical" name="LSINGLES"> F  </i>
   <i type="logical" name="LFERMIGW"> F  </i>
   <i type="logical" name="ODDONLYGW"> F  </i>
   <i type="logical" name="EVENONLYGW"> F  </i>
   <i type="int" name="NKREDLFX">     1</i>
   <i type="int" name="NKREDLFY">     1</i>
   <i type="int" name="NKREDLFZ">     1</i>
   <i type="int" name="MAXMEM">  1800</i>
   <i type="int" name="TELESCOPE">     0</i>
   <i type="int" name="TAUPAR">     1</i>
   <i type="int" name="OMEGAPAR">    -1</i>
   <i name="LAMBDA">      1.00000000</i>
  </separator>
  <separator name="External order field" >
   <i name="OFIELD_KAPPA">      0.00000000</i>
   <v name="OFIELD_K">      0.00000000      0.00000000      0.00000000</v>
   <i name="OFIELD_Q6_NEAR">      0.00000000</i>
   <i name="OFIELD_Q6_FAR">      0.00000000</i>
   <i name="OFIELD_A">      0.00000000</i>
  </separator>
 </parameters>
 <atominfo>
  <atoms>       4 </atoms>
  <types>       1 </types>
  <array name="atoms" >
   <dimension dim="1">ion</dimension>
   <field type="string">element</field>
   <field type="int">atomtype</field>
   <set>
    <rc><c>P </c><c>   1</c></rc>
    <rc><c>P </c><c>   1</c></rc>
    <rc><c>P </c><c>   1</c></rc>
    <rc><c>P </c><c>   1</c></rc>
   </set>
  </array>
  <array name="atomtypes" >
   <dimension dim="1">type</dimension>
   <field type="int">atomspertype</field>
   <field type="string">element</field>
   <field>mass</field>
   <field>valence</field>
   <field type="string">pseudopotential</field>
   <set>
    <rc><c>   4</c><c>P </c><c>     30.97400000</c><c>      5.00000000</c><c>  PAW_PBE P 06Sep2000                   </c></rc>
   </set>
  </array>
 </atominfo>
 <structure name="initialpos" >
  <crystal>
   <varray name="basis" >
    <v>       3.23058700       0.00000000       0.00000000 </v>
    <v>       0.00000000       4.52994000      -0.00005300 </v>
    <v>       0.00000000       0.00000000      20.02439000 </v>
   </varray>
   <i name="volume">    293.04423766 </i>
   <varray name="rec_basis" >
    <v>       0.30954127       0.00000000       0.00000000 </v>
    <v>       0.00000000       0.22075348       0.00000000 </v>
    <v>       0.00000000       0.00000058       0.04993910 </v>
   </varray>
  </crystal>
  <varray name="positions" >
   <v>       0.50000000       0.91077300       0.55252100 </v>
   <v>       0.50000000       0.08922700       0.44747900 </v>
   <v>       0.00000000       0.41076900       0.44747900 </v>
   <v>       0.00000000       0.58923100       0.55252100 </v>
  </varray>
 </structure>
 <calculation>
  <scstep>
   <time name="dav">    1.30    1.30</time>
   <time name="total">    1.32    1.32</time>
   <energy>
    <i name="alphaZ">      5.47412586 </i>
    <i name="ewald">   1961.69113596 </i>
    <i name="hartreedc">  -2554.60021720 </i>
    <i name="XCdc">     13.41229994 </i>
    <i name="pawpsdc">    559.04011960 </i>
    <i name="pawaedc">   -526.39432044 </i>
    <i name="eentropy">     -0.00056075 </i>
    <i name="bandstr">    -27.02235202 </i>
    <i name="atom">    704.16778566 </i>
    <i name="e_fr_energy">    135.76801662 </i>
    <i name="e_wo_entrp">    135.76857737 </i>
    <i name="e_0_energy">    135.76829699 </i>
   </energy>
  </scstep>
  <scstep>
   <time name="dav">    1.73    1.73</time>
   <time name="total">    1.73    1.74</time>
   <energy>
    <i name="e_fr_energy">     -6.37381559 </i>
    <i name="e_wo_entrp">     -6.37378923 </i>
    <i name="e_0_energy">     -6.37380241 </i>
   </energy>
  </scstep>
  <scstep>
   <time name="dav">    1.58    1.59</time>
   <time name="total">    1.58    1.59</time>
   <energy>
    <i name="e_fr_energy">    -21.34549512 </i>
    <i name="e_wo_entrp">    -21.34549512 </i>
    <i name="e_0_energy">    -21.34549512 </i>
   </energy>
  </scstep>
  <scstep>
   <time name="dav">    1.62    1.62</time>
   <time name="total">    1.62    1.62</time>
   <energy>
    <i name="e_fr_energy">    -21.65128818 </i>
    <i name="e_wo_entrp">    -21.65128818 </i>
    <i name="e_0_energy">    -21.65128818 </i>
   </energy>
  </scstep>
  <scstep>
   <time name="dav">    1.72    1.72</time>
   <time name="total">    1.79    1.79</time>
   <energy>
    <i name="e_fr_energy">    -21.66079219 </i>
    <i name="e_wo_entrp">    -21.66079219 </i>
    <i name="e_0_energy">    -21.66079219 </i>
   </energy>
  </scstep>
  <scstep>
   <time name="dav">    1.53    1.53</time>
   <time name="total">    1.62    1.62</time>
   <energy>
    <i name="e_fr_energy">    -21.48447012 </i>
    <i name="e_wo_entrp">    -21.48447012 </i>
    <i name="e_0_energy">    -21.48447012 </i>
   </energy>
  </scstep>
  <scstep>
   <time name="dav">    1.52    1.52</time>
   <time name="total">    1.60    1.61</time>
   <energy>
    <i name="e_fr_energy">    -21.40669094 </i>
    <i name="e_wo_entrp">    -21.40669094 </i>
    <i name="e_0_energy">    -21.40669094 </i>
   </energy>
  </scstep>
  <scstep>
   <time name="dav">    1.56    1.56</time>
   <time name="total">    1.65    1.65</time>
   <energy>
    <i name="e_fr_energy">    -21.40523194 </i>
    <i name="e_wo_entrp">    -21.40523194 </i>
    <i name="e_0_energy">    -21.40523194 </i>
   </energy>
  </scstep>
  <scstep>
   <time name="dav">    1.82    1.83</time>
   <time name="total">    1.91    1.91</time>
   <energy>
    <i name="e_fr_energy">    -21.40505866 </i>
    <i name="e_wo_entrp">    -21.40505866 </i>
    <i name="e_0_energy">    -21.40505866 </i>
   </energy>
  </scstep>
  <scstep>
   <time name="dav">    1.54    1.54</time>
   <time name="total">    1.63    1.63</time>
   <energy>
    <i name="e_fr_energy">    -21.40474571 </i>
    <i name="e_wo_entrp">    -21.40474571 </i>
    <i name="e_0_energy">    -21.40474571 </i>
   </energy>
  </scstep>
  <scstep>
   <time name="dav">    1.58    1.58</time>
   <time name="total">    1.67    1.67</time>
   <energy>
    <i name="e_fr_energy">    -21.40460234 </i>
    <i name="e_wo_entrp">    -21.40460234 </i>
    <i name="e_0_energy">    -21.40460234 </i>
   </energy>
  </scstep>
  <scstep>
   <time name="dav">    1.39    1.39</time>
   <time name="total">    1.48    1.48</time>
   <energy>
    <i name="e_fr_energy">    -21.40504011 </i>
    <i name="e_wo_entrp">    -21.40504011 </i>
    <i name="e_0_energy">    -21.40504011 </i>
   </energy>
  </scstep>
  <scstep>
   <time name="dav">    1.38    1.38</time>
   <time name="total">    1.47    1.47</time>
   <energy>
    <i name="e_fr_energy">    -21.40513554 </i>
    <i name="e_wo_entrp">    -21.40513554 </i>
    <i name="e_0_energy">    -21.40513554 </i>
   </energy>
  </scstep>
  <scstep>
   <time name="dav">    1.29    1.30</time>
   <time name="total">    1.38    1.38</time>
   <energy>
    <i name="e_fr_energy">    -21.40528561 </i>
    <i name="e_wo_entrp">    -21.40528561 </i>
    <i name="e_0_energy">    -21.40528561 </i>
   </energy>
  </scstep>
  <scstep>
   <time name="dav">    1.33    1.33</time>
   <time name="total">    1.41    1.42</time>
   <energy>
    <i name="e_fr_energy">    -21.40535066 </i>
    <i name="e_wo_entrp">    -21.40535066 </i>
    <i name="e_0_energy">    -21.40535066 </i>
   </energy>
  </scstep>
  <scstep>
   <time name="dav">    1.27    1.27</time>
   <time name="total">    1.35    1.36</time>
   <energy>
    <i name="e_fr_energy">    -21.40538896 </i>
    <i name="e_wo_entrp">    -21.40538896 </i>
    <i name="e_0_energy">    -21.40538896 </i>
   </energy>
  </scstep>
  <scstep>
   <time name="dav">    1.30    1.30</time>
   <time name="total">    1.31    1.31</time>
   <energy>
    <i name="alphaZ">      5.47412586 </i>
    <i name="ewald">   1961.69113596 </i>
    <i name="hartreedc">  -2571.87822799 </i>
    <i name="XCdc">     14.54355876 </i>
    <i name="pawpsdc">   2292.63788575 </i>
    <i name="pawaedc">  -2260.39729472 </i>
    <i name="eentropy">     -0.00000000 </i>
    <i name="bandstr">   -167.64436057 </i>
    <i name="atom">    704.16778566 </i>
    <i name="e_fr_energy">    -21.40539127 </i>
    <i name="e_wo_entrp">    -21.40539127 </i>
    <i name="e_0_energy">    -21.40539127 </i>
   </energy>
  </scstep>
  <structure>
   <crystal>
    <varray name="basis" >
     <v>       3.23058700       0.00000000       0.00000000 </v>
     <v>       0.00000000       4.52994000      -0.00005300 </v>
     <v>       0.00000000       0.00000000      20.02439000 </v>
    </varray>
    <i name="volume">    293.04423766 </i>
    <varray name="rec_basis" >
     <v>       0.30954127       0.00000000       0.00000000 </v>
     <v>       0.00000000       0.22075348       0.00000000 </v>
     <v>       0.00000000       0.00000058       0.04993910 </v>
    </varray>
   </crystal>
   <varray name="positions" >
    <v>       0.50000000       0.91077300       0.55252100 </v>
    <v>       0.50000000       0.08922700       0.44747900 </v>
    <v>       0.00000000       0.41076900       0.44747900 </v>
    <v>       0.00000000       0.58923100       0.55252100 </v>
   </varray>
  </structure>
  <varray name="forces" >
   <v>       0.00000002       0.43385193       0.07747975 </v>
   <v>      -0.00000002      -0.43385193      -0.07747975 </v>
   <v>       0.00000002       0.43381239      -0.07748575 </v>
   <v>      -0.00000002      -0.43381239       0.07748575 </v>
  </varray>
  <varray name="stress" >
   <v>      16.31152668      -0.00000448       0.00000108 </v>
   <v>      -0.00000450      11.65360873       0.00033423 </v>
   <v>       0.00000099       0.00033425       1.71348908 </v>
  </varray>
  <energy>
   <i name="e_fr_energy">    -21.40539127 </i>
   <i name="e_wo_entrp">    -21.40539127 </i>
   <i name="e_0_energy">     -0.00000000 </i>
  </energy>
  <time name="totalsc">   27.27   27.33</time>
 </calculation>
 <calculation>
  <scstep>
   <time name="dav">    1.37    1.37</time>
   <time name="total">    1.45    1.46</time>
   <energy>
    <i name="alphaZ">      5.47412586 </i>
    <i name="ewald">   1957.52567979 </i>
    <i name="hartreedc">  -2568.55579266 </i>
    <i name="XCdc">     14.46901443 </i>
    <i name="pawpsdc">   2292.22340548 </i>
    <i name="pawaedc">  -2259.98287565 </i>
    <i name="eentropy">     -0.00000000 </i>
    <i name="bandstr">   -166.73946867 </i>
    <i name="atom">    704.16778566 </i>
    <i name="e_fr_energy">    -21.41812575 </i>
    <i name="e_wo_entrp">    -21.41812575 </i>
    <i name="e_0_energy">    -21.41812575 </i>
   </energy>
  </scstep>
  <scstep>
   <time name="dav">    1.66    1.66</time>
   <time name="total">    1.74    1.75</time>
   <energy>
    <i name="e_fr_energy">    -21.42031462 </i>
    <i name="e_wo_entrp">    -21.42031462 </i>
    <i name="e_0_energy">    -21.42031462 </i>
   </energy>
  </scstep>
  <scstep>
   <time name="dav">    1.72    1.72</time>
   <time name="total">    1.80    1.80</time>
   <energy>
    <i name="e_fr_energy">    -21.42026443 </i>
    <i name="e_wo_entrp">    -21.42026443 </i>
    <i name="e_0_energy">    -21.42026443 </i>
   </energy>
  </scstep>
  <scstep>
   <time name="dav">    1.49    1.50</time>
   <time name="total">    1.58    1.58</time>
   <energy>
    <i name="e_fr_energy">    -21.42025087 </i>
    <i name="e_wo_entrp">    -21.42025087 </i>
    <i name="e_0_energy">    -21.42025087 </i>
   </energy>
  </scstep>
  <scstep>
   <time name="dav">    1.49    1.49</time>
   <time name="total">    1.58    1.58</time>
   <energy>
    <i name="e_fr_energy">    -21.42024740 </i>
    <i name="e_wo_entrp">    -21.42024740 </i>
    <i name="e_0_energy">    -21.42024740 </i>
   </energy>
  </scstep>
  <scstep>
   <time name="dav">    1.13    1.13</time>
   <time name="total">    1.14    1.14</time>
   <energy>
    <i name="alphaZ">      5.47412586 </i>
    <i name="ewald">   1957.52567979 </i>
    <i name="hartreedc">  -2568.51421512 </i>
    <i name="XCdc">     14.45861887 </i>
    <i name="pawpsdc">   2236.84088382 </i>
    <i name="pawaedc">  -2204.57991706 </i>
    <i name="eentropy">     -0.00000000 </i>
    <i name="bandstr">   -166.79320902 </i>
    <i name="atom">    704.16778566 </i>
    <i name="e_fr_energy">    -21.42024719 </i>
    <i name="e_wo_entrp">    -21.42024719 </i>
    <i name="e_0_energy">    -21.42024719 </i>
   </energy>
  </scstep>
  <structure>
   <crystal>
    <varray name="basis" >
     <v>       3.23058700       0.00000000       0.00000000 </v>
     <v>       0.00000000       4.52994000      -0.00005300 </v>
     <v>       0.00000000       0.00000000      20.02439000 </v>
    </varray>
    <i name="volume">    293.04423766 </i>
    <varray name="rec_basis" >
     <v>       0.30954127       0.00000000       0.00000000 </v>
     <v>       0.00000000       0.22075348       0.00000000 </v>
     <v>       0.00000000       0.00000058       0.04993910 </v>
    </varray>
   </crystal>
   <varray name="positions" >
    <v>       0.50000000       0.91354524       0.55263301 </v>
    <v>       0.50000000       0.08645476       0.44736699 </v>
    <v>       0.00000000       0.41354099       0.44736700 </v>
    <v>      -0.00000000       0.58645901       0.55263300 </v>
   </varray>
  </structure>
  <varray name="forces" >
   <v>      -0.00000013       0.13115998       0.08261623 </v>
   <v>       0.00000013      -0.13115998      -0.08261623 </v>
   <v>      -0.00000009       0.13112621      -0.08261902 </v>
   <v>       0.00000009      -0.13112621       0.08261902 </v>
  </varray>
  <varray name="stress" >
   <v>      14.45967208      -0.00000013      -0.00000206 </v>
   <v>      -0.00000014       7.24351097       0.00030876 </v>
   <v>      -0.00000209       0.00030880       1.89331482 </v>
  </varray>
  <energy>
   <i name="e_fr_energy">    -21.42024719 </i>
   <i name="e_wo_entrp">    -21.42024719 </i>
   <i name="e_0_energy">     -0.00000000 </i>
  </energy>
  <time name="totalsc">   10.04   10.06</time>
 </calculation>
 <calculation>
  <scstep>
   <time name="dav">    1.36    1.36</time>
   <time name="total">    1.44    1.44</time>
   <energy>
    <i name="alphaZ">      5.47412586 </i>
    <i name="ewald">   1955.46792719 </i>
    <i name="hartreedc">  -2566.87094932 </i>
    <i name="XCdc">     14.42180378 </i>
    <i name="pawpsdc">   2236.36186621 </i>
    <i name="pawaedc">  -2204.10097653 </i>
    <i name="eentropy">     -0.00000000 </i>
    <i name="bandstr">   -166.34314784 </i>
    <i name="atom">    704.16778566 </i>
    <i name="e_fr_energy">    -21.42156499 </i>
    <i name="e_wo_entrp">    -21.42156499 </i>
    <i name="e_0_energy">    -21.42156499 </i>
   </energy>
  </scstep>
  <scstep>
   <time name="dav">    1.65    1.65</time>
   <time name="total">    1.73    1.74</time>
   <energy>
    <i name="e_fr_energy">    -21.42210868 </i>
    <i name="e_wo_entrp">    -21.42210868 </i>
    <i name="e_0_energy">    -21.42210868 </i>
   </energy>
  </scstep>
  <scstep>
   <time name="dav">    1.69    1.69</time>
   <time name="total">    1.78    1.78</time>
   <energy>
    <i name="e_fr_energy">    -21.42209426 </i>
    <i name="e_wo_entrp">    -21.42209426 </i>
    <i name="e_0_energy">    -21.42209426 </i>
   </energy>
  </scstep>
  <scstep>
   <time name="dav">    1.42    1.43</time>
   <time name="total">    1.51    1.51</time>
   <energy>
    <i name="e_fr_energy">    -21.42208863 </i>
    <i name="e_wo_entrp">    -21.42208863 </i>
    <i name="e_0_energy">    -21.42208863 </i>
   </energy>
  </scstep>
  <scstep>
   <time name="dav">    1.12    1.12</time>
   <time name="total">    1.20    1.20</time>
   <energy>
    <i name="e_fr_energy">    -21.42208816 </i>
    <i name="e_wo_entrp">    -21.42208816 </i>
    <i name="e_0_energy">    -21.42208816 </i>
   </energy>
  </scstep>
  <scstep>
   <time name="dav">    1.02    1.02</time>
   <time name="total">    1.04    1.04</time>
   <energy>
    <i name="alphaZ">      5.47412586 </i>
    <i name="ewald">   1955.46792719 </i>
    <i name="hartreedc">  -2566.87744092 </i>
    <i name="XCdc">     14.41700937 </i>
    <i name="pawpsdc">   2209.30187915 </i>
    <i name="pawaedc">  -2177.03119400 </i>
    <i name="eentropy">     -0.00000000 </i>
    <i name="bandstr">   -166.34218044 </i>
    <i name="atom">    704.16778566 </i>
    <i name="e_fr_energy">    -21.42208815 </i>
    <i name="e_wo_entrp">    -21.42208815 </i>
    <i name="e_0_energy">    -21.42208815 </i>
   </energy>
  </scstep>
  <structure>
   <crystal>
    <varray name="basis" >
     <v>       3.23058700       0.00000000       0.00000000 </v>
     <v>       0.00000000       4.52994000      -0.00005300 </v>
     <v>       0.00000000       0.00000000      20.02439000 </v>
    </varray>
    <i name="volume">    293.04423766 </i>
    <varray name="rec_basis" >
     <v>       0.30954127       0.00000000       0.00000000 </v>
     <v>       0.00000000       0.22075348       0.00000000 </v>
     <v>       0.00000000       0.00000058       0.04993910 </v>
    </varray>
   </crystal>
   <varray name="positions" >
    <v>       0.50000000       0.91492789       0.55268887 </v>
    <v>       0.50000000       0.08507211       0.44731113 </v>
    <v>       0.00000000       0.41492351       0.44731114 </v>
    <v>      -0.00000000       0.58507649       0.55268886 </v>
   </varray>
  </structure>
  <varray name="forces" >
   <v>      -0.00000009      -0.01343055       0.08413842 </v>
   <v>       0.00000009       0.01343055      -0.08413842 </v>
   <v>       0.00000000      -0.01346093      -0.08413948 </v>
   <v>      -0.00000000       0.01346093       0.08413948 </v>
  </varray>
  <varray name="stress" >
   <v>      13.67783936       0.00000085      -0.00000085 </v>
   <v>       0.00000079       5.05946146       0.00029340 </v>
   <v>      -0.00000081       0.00029340       1.90563008 </v>
  </varray>
  <energy>
   <i name="e_fr_energy">    -21.42208815 </i>
   <i name="e_wo_entrp">    -21.42208815 </i>
   <i name="e_0_energy">     -0.00000000 </i>
  </energy>
  <time name="totalsc">    9.45    9.46</time>
 </calculation>
 <calculation>
  <scstep>
   <time name="dav">    1.25    1.25</time>
   <time name="total">    1.33    1.33</time>
   <energy>
    <i name="alphaZ">      5.47412586 </i>
    <i name="ewald">   1952.80039762 </i>
    <i name="hartreedc">  -2564.36462973 </i>
    <i name="XCdc">     14.39949249 </i>
    <i name="pawpsdc">   2209.10359687 </i>
    <i name="pawaedc">  -2176.83293868 </i>
    <i name="eentropy">     -0.00000000 </i>
    <i name="bandstr">   -166.17048295 </i>
    <i name="atom">    704.16778566 </i>
    <i name="e_fr_energy">    -21.42265286 </i>
    <i name="e_wo_entrp">    -21.42265286 </i>
    <i name="e_0_energy">    -21.42265286 </i>
   </energy>
  </scstep>
  <scstep>
   <time name="dav">    1.58    1.58</time>
   <time name="total">    1.67    1.67</time>
   <energy>
    <i name="e_fr_energy">    -21.42278592 </i>
    <i name="e_wo_entrp">    -21.42278592 </i>
    <i name="e_0_energy">    -21.42278592 </i>
   </energy>
  </scstep>
  <scstep>
   <time name="dav">    1.50    1.50</time>
   <time name="total">    1.58    1.58</time>
   <energy>
    <i name="e_fr_energy">    -21.42278048 </i>
    <i name="e_wo_entrp">    -21.42278048 </i>
    <i name="e_0_energy">    -21.42278048 </i>
   </energy>
  </scstep>
  <scstep>
   <time name="dav">    1.12    1.12</time>
   <time name="total">    1.20    1.21</time>
   <energy>
    <i name="e_fr_energy">    -21.42277932 </i>
    <i name="e_wo_entrp">    -21.42277932 </i>
    <i name="e_0_energy">    -21.42277932 </i>
   </energy>
  </scstep>
  <scstep>
   <time name="dav">    1.08    1.09</time>
   <time name="total">    1.17    1.17</time>
   <energy>
    <i name="e_fr_energy">    -21.42277945 </i>
    <i name="e_wo_entrp">    -21.42277945 </i>
    <i name="e_0_energy">    -21.42277945 </i>
   </energy>
  </scstep>
  <scstep>
   <time name="dav">    1.06    1.07</time>
   <time name="total">    1.08    1.08</time>
   <energy>
    <i name="alphaZ">      5.47412586 </i>
    <i name="ewald">   1952.80039762 </i>
    <i name="hartreedc">  -2564.37679078 </i>
    <i name="XCdc">     14.39845461 </i>
    <i name="pawpsdc">   2199.90094010 </i>
    <i name="pawaedc">  -2167.62729275 </i>
    <i name="eentropy">     -0.00000000 </i>
    <i name="bandstr">   -166.16039991 </i>
    <i name="atom">    704.16778566 </i>
    <i name="e_fr_energy">    -21.42277960 </i>
    <i name="e_wo_entrp">    -21.42277960 </i>
    <i name="e_0_energy">    -21.42277960 </i>
   </energy>
  </scstep>
  <structure>
   <crystal>
    <varray name="basis" >
     <v>       3.23058700       0.00000000       0.00000000 </v>
     <v>       0.00000000       4.52994000      -0.00005300 </v>
     <v>       0.00000000       0.00000000      20.02439000 </v>
    </varray>
    <i name="volume">    293.04423766 </i>
    <varray name="rec_basis" >
     <v>       0.30954127       0.00000000       0.00000000 </v>
     <v>       0.00000000       0.22075348       0.00000000 </v>
     <v>       0.00000000       0.00000058       0.04993910 </v>
    </varray>
   </crystal>
   <varray name="positions" >
    <v>       0.50000000       0.91493671       0.55282679 </v>
    <v>       0.50000000       0.08506329       0.44717321 </v>
    <v>       0.00000000       0.41493210       0.44717321 </v>
    <v>      -0.00000000       0.58506790       0.55282679 </v>
   </varray>
  </structure>
  <varray name="forces" >
   <v>      -0.00000002      -0.00591484       0.04176147 </v>
   <v>       0.00000002       0.00591484      -0.04176147 </v>
   <v>       0.00000003      -0.00593863      -0.04176163 </v>
   <v>      -0.00000003       0.00593863       0.04176163 </v>
  </varray>
  <varray name="stress" >
   <v>      13.60824969      -0.00000002      -0.00000016 </v>
   <v>       0.00000004       4.88448860       0.00021629 </v>
   <v>      -0.00000010       0.00021637       0.90870010 </v>
  </varray>
  <energy>
   <i name="e_fr_energy">    -21.42277960 </i>
   <i name="e_wo_entrp">    -21.42277960 </i>
   <i name="e_0_energy">     -0.00000000 </i>
  </energy>
  <time name="totalsc">    8.78    8.79</time>
 </calculation>
 <calculation>
  <scstep>
   <time name="dav">    1.25    1.25</time>
   <time name="total">    1.33    1.33</time>
   <energy>
    <i name="alphaZ">      5.47412586 </i>
    <i name="ewald">   1950.17214406 </i>
    <i name="hartreedc">  -2561.89885128 </i>
    <i name="XCdc">     14.38128576 </i>
    <i name="pawpsdc">   2199.93282580 </i>
    <i name="pawaedc">  -2167.65924462 </i>
    <i name="eentropy">     -0.00000000 </i>
    <i name="bandstr">   -165.99295894 </i>
    <i name="atom">    704.16778566 </i>
    <i name="e_fr_energy">    -21.42288770 </i>
    <i name="e_wo_entrp">    -21.42288770 </i>
    <i name="e_0_energy">    -21.42288770 </i>
   </energy>
  </scstep>
  <scstep>
   <time name="dav">    1.59    1.59</time>
   <time name="total">    1.67    1.67</time>
   <energy>
    <i name="e_fr_energy">    -21.42301757 </i>
    <i name="e_wo_entrp">    -21.42301757 </i>
    <i name="e_0_energy">    -21.42301757 </i>
   </energy>
  </scstep>
  <scstep>
   <time name="dav">    1.49    1.49</time>
   <time name="total">    1.58    1.58</time>
   <energy>
    <i name="e_fr_energy">    -21.42301229 </i>
    <i name="e_wo_entrp">    -21.42301229 </i>
    <i name="e_0_energy">    -21.42301229 </i>
   </energy>
  </scstep>
  <scstep>
   <time name="dav">    1.11    1.11</time>
   <time name="total">    1.20    1.20</time>
   <energy>
    <i name="e_fr_energy">    -21.42301116 </i>
    <i name="e_wo_entrp">    -21.42301116 </i>
    <i name="e_0_energy">    -21.42301116 </i>
   </energy>
  </scstep>
  <scstep>
   <time name="dav">    1.07    1.07</time>
   <time name="total">    1.16    1.16</time>
   <energy>
    <i name="e_fr_energy">    -21.42301123 </i>
    <i name="e_wo_entrp">    -21.42301123 </i>
    <i name="e_0_energy">    -21.42301123 </i>
   </energy>
  </scstep>
  <scstep>
   <time name="dav">    1.05    1.05</time>
   <time name="total">    1.06    1.07</time>
   <energy>
    <i name="alphaZ">      5.47412586 </i>
    <i name="ewald">   1950.17214406 </i>
    <i name="hartreedc">  -2561.90216285 </i>
    <i name="XCdc">     14.38019732 </i>
    <i name="pawpsdc">   2191.11988402 </i>
    <i name="pawaedc">  -2158.84334492 </i>
    <i name="eentropy">     -0.00000000 </i>
    <i name="bandstr">   -165.99164043 </i>
    <i name="atom">    704.16778566 </i>
    <i name="e_fr_energy">    -21.42301128 </i>
    <i name="e_wo_entrp">    -21.42301128 </i>
    <i name="e_0_energy">    -21.42301128 </i>
   </energy>
  </scstep>
  <structure>
   <crystal>
    <varray name="basis" >
     <v>       3.23058700       0.00000000       0.00000000 </v>
     <v>       0.00000000       4.52994000      -0.00005300 </v>
     <v>       0.00000000       0.00000000      20.02439000 </v>
    </varray>
    <i name="volume">    293.04423766 </i>
    <varray name="rec_basis" >
     <v>       0.30954127       0.00000000       0.00000000 </v>
     <v>       0.00000000       0.22075348       0.00000000 </v>
     <v>       0.00000000       0.00000058       0.04993910 </v>
    </varray>
   </crystal>
   <varray name="positions" >
    <v>       0.50000000       0.91494540       0.55296278 </v>
    <v>       0.50000000       0.08505460       0.44703722 </v>
    <v>       0.00000000       0.41494058       0.44703722 </v>
    <v>      -0.00000000       0.58505942       0.55296278 </v>
   </varray>
  </structure>
  <varray name="forces" >
   <v>       0.00000002       0.00056341       0.00117783 </v>
   <v>      -0.00000002      -0.00056341      -0.00117783 </v>
   <v>       0.00000006       0.00054608      -0.00117745 </v>
   <v>      -0.00000006      -0.00054608       0.00117745 </v>
  </varray>
  <varray name="stress" >
   <v>      13.52360242       0.00000052       0.00000007 </v>
   <v>       0.00000056       4.71721986       0.00014313 </v>
   <v>       0.00000005       0.00014310      -0.03349721 </v>
  </varray>
  <energy>
   <i name="e_fr_energy">    -21.42301128 </i>
   <i name="e_wo_entrp">    -21.42301128 </i>
   <i name="e_0_energy">     -0.00000000 </i>
  </energy>
  <time name="totalsc">    8.68    8.70</time>
  <eigenvalues>
   <array>
    <dimension dim="1">band</dimension>
    <dimension dim="2">kpoint</dimension>
    <dimension dim="3">spin</dimension>
    <field>eigene</field>
    <field>occ</field>
    <set>
     <set comment="spin 1">
      <set comment="kpoint 1">
       <r>  -17.2894    1.0000 </r>
       <r>  -14.7945    1.0000 </r>
       <r>  -11.1979    1.0000 </r>
       <r>   -7.9430    1.0000 </r>
       <r>   -6.8245    1.0000 </r>
       <r>   -6.7862    1.0000 </r>
       <r>   -5.2496    1.0000 </r>
       <r>   -4.0111    1.0000 </r>
       <r>   -3.6480    1.0000 </r>
       <r>   -2.1247    1.0000 </r>
       <r>   -1.4251    0.0000 </r>
       <r>   -0.2270    0.0000 </r>
       <r>    0.9406    0.0000 </r>
       <r>    1.5222    0.0000 </r>
       <r>    2.2152    0.0000 </r>
       <r>    2.3481    0.0000 </r>
      </set>
      <set comment="kpoint 2">
       <r>  -17.2634    1.0000 </r>
       <r>  -14.7677    1.0000 </r>
       <r>  -11.2038    1.0000 </r>
       <r>   -7.9226    1.0000 </r>
       <r>   -6.8013    1.0000 </r>
       <r>   -6.7956    1.0000 </r>
       <r>   -5.4297    1.0000 </r>
       <r>   -3.9971    1.0000 </r>
       <r>   -3.8360    1.0000 </r>
       <r>   -2.1196    1.0000 </r>
       <r>   -1.4004    0.0000 </r>
       <r>    0.0126    0.0000 </r>
       <r>    1.1759    0.0000 </r>
       <r>    1.3495    0.0000 </r>
       <r>    2.2425    0.0000 </r>
       <r>    2.3777    0.0000 </r>
      </set>
      <set comment="kpoint 3">
       <r>  -17.1857    1.0000 </r>
       <r>  -14.6871    1.0000 </r>
       <r>  -11.2268    1.0000 </r>
       <r>   -7.8620    1.0000 </r>
       <r>   -6.8392    1.0000 </r>
       <r>   -6.7321    1.0000 </r>
       <r>   -5.8720    1.0000 </r>
       <r>   -4.2830    1.0000 </r>
       <r>   -3.9577    1.0000 </r>
       <r>   -2.1260    1.0000 </r>
       <r>   -1.3263    0.0000 </r>
       <r>    0.6560    0.0000 </r>
       <r>    0.9189    0.0000 </r>
       <r>    1.7566    0.0000 </r>
       <r>    2.3220    0.0000 </r>
       <r>    2.4648    0.0000 </r>
      </set>
      <set comment="kpoint 4">
       <r>  -17.0566    1.0000 </r>
       <r>  -14.5529    1.0000 </r>
       <r>  -11.2819    1.0000 </r>
       <r>   -7.7629    1.0000 </r>
       <r>   -6.9704    1.0000 </r>
       <r>   -6.6177    1.0000 </r>
       <r>   -6.4068    1.0000 </r>
       <r>   -4.7722    1.0000 </r>
       <r>   -3.9005    1.0000 </r>
       <r>   -2.1683    1.0000 </r>
       <r>   -1.2036    0.0000 </r>
       <r>    0.3758    0.0000 </r>
       <r>    1.5587    0.0000 </r>
       <r>    2.3789    0.0000 </r>
       <r>    2.4363    0.0000 </r>
       <r>    2.6082    0.0000 </r>
      </set>
      <set comment="kpoint 5">
       <r>  -16.8765    1.0000 </r>
       <r>  -14.3654    1.0000 </r>
       <r>  -11.3946    1.0000 </r>
       <r>   -7.6290    1.0000 </r>
       <r>   -7.2732    1.0000 </r>
       <r>   -6.9091    1.0000 </r>
       <r>   -6.4602    1.0000 </r>
       <r>   -5.1191    1.0000 </r>
       <r>   -3.8416    1.0000 </r>
       <r>   -2.2584    1.0000 </r>
       <r>   -1.0336    0.0000 </r>
       <r>   -0.1734    0.0000 </r>
       <r>    2.3357    0.0000 </r>
       <r>    2.3370    0.0000 </r>
       <r>    2.5841    0.0000 </r>
       <r>    2.7981    0.0000 </r>
      </set>
      <set comment="kpoint 6">
       <r>  -16.6462    1.0000 </r>
       <r>  -14.1250    1.0000 </r>
       <r>  -11.5939    1.0000 </r>
       <r>   -7.7744    1.0000 </r>
       <r>   -7.4662    1.0000 </r>
       <r>   -7.2993    1.0000 </r>
       <r>   -6.2627    1.0000 </r>
       <r>   -5.2498    1.0000 </r>
       <r>   -3.8083    1.0000 </r>
       <r>   -2.4063    1.0000 </r>
       <r>   -0.8193    0.0000 </r>
       <r>   -0.6494    0.0000 </r>
       <r>    1.7055    0.0000 </r>
       <r>    1.7849    0.0000 </r>
       <r>    2.9348    0.0000 </r>
       <r>    2.9906    0.0000 </r>
      </set>
      <set comment="kpoint 7">
       <r>  -16.3668    1.0000 </r>
       <r>  -13.8320    1.0000 </r>
       <r>  -11.8983    1.0000 </r>
       <r>   -8.4009    1.0000 </r>
       <r>   -7.5349    1.0000 </r>
       <r>   -7.2850    1.0000 </r>
       <r>   -6.0302    1.0000 </r>
       <r>   -5.2194    1.0000 </r>
       <r>   -3.8371    1.0000 </r>
       <r>   -2.6183    1.0000 </r>
       <r>   -0.9815    0.0000 </r>
       <r>   -0.5680    0.0000 </r>
       <r>    1.0195    0.0000 </r>
       <r>    1.1979    0.0000 </r>
       <r>    2.4211    0.0000 </r>
       <r>    3.2964    0.0000 </r>
      </set>
      <set comment="kpoint 8">
       <r>  -16.0399    1.0000 </r>
       <r>  -13.4873    1.0000 </r>
       <r>  -12.3012    1.0000 </r>
       <r>   -9.0742    1.0000 </r>
       <r>   -7.6122    1.0000 </r>
       <r>   -7.1031    1.0000 </r>
       <r>   -5.7706    1.0000 </r>
       <r>   -5.1053    1.0000 </r>
       <r>   -3.9484    1.0000 </r>
       <r>   -2.8907    1.0000 </r>
       <r>   -1.1182    0.0000 </r>
       <r>   -0.3091    0.0000 </r>
       <r>    0.3812    0.0000 </r>
       <r>    0.6754    0.0000 </r>
       <r>    1.8916    0.0000 </r>
       <r>    3.3411    0.0000 </r>
      </set>
      <set comment="kpoint 9">
       <r>  -15.6676    1.0000 </r>
       <r>  -13.0916    1.0000 </r>
       <r>  -12.7745    1.0000 </r>
       <r>   -9.7497    1.0000 </r>
       <r>   -7.5577    1.0000 </r>
       <r>   -6.9500    1.0000 </r>
       <r>   -5.4969    1.0000 </r>
       <r>   -4.9642    1.0000 </r>
       <r>   -4.1083    1.0000 </r>
       <r>   -3.2072    1.0000 </r>
       <r>   -1.0577    0.0000 </r>
       <r>   -0.2255    0.0000 </r>
       <r>   -0.1686    0.0000 </r>
       <r>    0.4282    0.0000 </r>
       <r>    1.3698    0.0000 </r>
       <r>    2.9319    0.0000 </r>
      </set>
      <set comment="kpoint 10">
       <r>  -15.2527    1.0000 </r>
       <r>  -13.2848    1.0000 </r>
       <r>  -12.6460    1.0000 </r>
       <r>  -10.4049    1.0000 </r>
       <r>   -7.4114    1.0000 </r>
       <r>   -6.8679    1.0000 </r>
       <r>   -5.2293    1.0000 </r>
       <r>   -4.8442    1.0000 </r>
       <r>   -4.2322    1.0000 </r>
       <r>   -3.5401    1.0000 </r>
       <r>   -0.8400    0.0000 </r>
       <r>   -0.5920    0.0000 </r>
       <r>   -0.4993    0.0000 </r>
       <r>    0.6650    0.0000 </r>
       <r>    0.8554    0.0000 </r>
       <r>    2.4682    0.0000 </r>
      </set>
      <set comment="kpoint 11">
       <r>  -14.7994    1.0000 </r>
       <r>  -13.8044    1.0000 </r>
       <r>  -12.1520    1.0000 </r>
       <r>  -11.0279    1.0000 </r>
       <r>   -7.2176    1.0000 </r>
       <r>   -6.8941    1.0000 </r>
       <r>   -4.9987    1.0000 </r>
       <r>   -4.7924    1.0000 </r>
       <r>   -4.2390    1.0000 </r>
       <r>   -3.8532    1.0000 </r>
       <r>   -0.8480    0.0000 </r>
       <r>   -0.7745    0.0000 </r>
       <r>   -0.5106    0.0000 </r>
       <r>    0.3589    0.0000 </r>
       <r>    1.0621    0.0000 </r>
       <r>    1.9864    0.0000 </r>
      </set>
      <set comment="kpoint 12">
       <r>  -14.3137    1.0000 </r>
       <r>  -14.3137    1.0000 </r>
       <r>  -11.6117    1.0000 </r>
       <r>  -11.6117    1.0000 </r>
       <r>   -7.0261    1.0000 </r>
       <r>   -7.0261    1.0000 </r>
       <r>   -4.8432    1.0000 </r>
       <r>   -4.8432    1.0000 </r>
       <r>   -4.1025    1.0000 </r>
       <r>   -4.1025    1.0000 </r>
       <r>   -0.9071    0.0000 </r>
       <r>   -0.9071    0.0000 </r>
       <r>   -0.1029    0.0000 </r>
       <r>   -0.1029    0.0000 </r>
       <r>    1.5112    0.0000 </r>
       <r>    1.5112    0.0000 </r>
      </set>
      <set comment="kpoint 13">
       <r>  -17.2666    1.0000 </r>
       <r>  -14.8205    1.0000 </r>
       <r>  -11.2250    1.0000 </r>
       <r>   -8.0792    1.0000 </r>
       <r>   -6.7325    1.0000 </r>
       <r>   -6.7135    1.0000 </r>
       <r>   -5.2322    1.0000 </r>
       <r>   -3.8877    1.0000 </r>
       <r>   -3.6618    1.0000 </r>
       <r>   -2.3636    1.0000 </r>
       <r>   -1.2066    0.0000 </r>
       <r>   -0.2110    0.0000 </r>
       <r>    0.8983    0.0000 </r>
       <r>    1.4984    0.0000 </r>
       <r>    2.2811    0.0000 </r>
       <r>    2.3803    0.0000 </r>
      </set>
      <set comment="kpoint 14">
       <r>  -17.2407    1.0000 </r>
       <r>  -14.7938    1.0000 </r>
       <r>  -11.2295    1.0000 </r>
       <r>   -8.0611    1.0000 </r>
       <r>   -6.7371    1.0000 </r>
       <r>   -6.6972    1.0000 </r>
       <r>   -5.4062    1.0000 </r>
       <r>   -3.9128    1.0000 </r>
       <r>   -3.8165    1.0000 </r>
       <r>   -2.3544    1.0000 </r>
       <r>   -1.1864    0.0000 </r>
       <r>    0.0288    0.0000 </r>
       <r>    1.1209    0.0000 </r>
       <r>    1.3409    0.0000 </r>
       <r>    2.3071    0.0000 </r>
       <r>    2.4097    0.0000 </r>
      </set>
      <set comment="kpoint 15">
       <r>  -17.1631    1.0000 </r>
       <r>  -14.7136    1.0000 </r>
       <r>  -11.2478    1.0000 </r>
       <r>   -8.0089    1.0000 </r>
       <r>   -6.7646    1.0000 </r>
       <r>   -6.6595    1.0000 </r>
       <r>   -5.8203    1.0000 </r>
       <r>   -4.3245    1.0000 </r>
       <r>   -3.8294    1.0000 </r>
       <r>   -2.3434    1.0000 </r>
       <r>   -1.1298    0.0000 </r>
       <r>    0.6718    0.0000 </r>
       <r>    0.8882    0.0000 </r>
       <r>    1.7348    0.0000 </r>
       <r>    2.3827    0.0000 </r>
       <r>    2.4964    0.0000 </r>
      </set>
      <set comment="kpoint 16">
       <r>  -17.0340    1.0000 </r>
       <r>  -14.5802    1.0000 </r>
       <r>  -11.2951    1.0000 </r>
       <r>   -7.9314    1.0000 </r>
       <r>   -6.8611    1.0000 </r>
       <r>   -6.6983    1.0000 </r>
       <r>   -6.2096    1.0000 </r>
       <r>   -4.8243    1.0000 </r>
       <r>   -3.7902    1.0000 </r>
       <r>   -2.3543    1.0000 </r>
       <r>   -1.0369    0.0000 </r>
       <r>    0.3617    0.0000 </r>
       <r>    1.5707    0.0000 </r>
       <r>    2.3784    0.0000 </r>
       <r>    2.4887    0.0000 </r>
       <r>    2.6393    0.0000 </r>
      </set>
      <set comment="kpoint 17">
       <r>  -16.8541    1.0000 </r>
       <r>  -14.3939    1.0000 </r>
       <r>  -11.3966    1.0000 </r>
       <r>   -7.8648    1.0000 </r>
       <r>   -7.0847    1.0000 </r>
       <r>   -7.0305    1.0000 </r>
       <r>   -6.2343    1.0000 </r>
       <r>   -5.1809    1.0000 </r>
       <r>   -3.7570    1.0000 </r>
       <r>   -2.4052    1.0000 </r>
       <r>   -0.9028    0.0000 </r>
       <r>   -0.1623    0.0000 </r>
       <r>    2.1705    0.0000 </r>
       <r>    2.4239    0.0000 </r>
       <r>    2.6403    0.0000 </r>
       <r>    2.7396    0.0000 </r>
      </set>
      <set comment="kpoint 18">
       <r>  -16.6240    1.0000 </r>
       <r>  -14.1557    1.0000 </r>
       <r>  -11.5826    1.0000 </r>
       <r>   -7.9856    1.0000 </r>
       <r>   -7.3919    1.0000 </r>
       <r>   -7.2994    1.0000 </r>
       <r>   -6.0814    1.0000 </r>
       <r>   -5.3123    1.0000 </r>
       <r>   -3.7606    1.0000 </r>
       <r>   -2.5131    1.0000 </r>
       <r>   -0.7244    0.0000 </r>
       <r>   -0.6007    0.0000 </r>
       <r>    1.5837    0.0000 </r>
       <r>    1.8237    0.0000 </r>
       <r>    2.8318    0.0000 </r>
       <r>    3.0903    0.0000 </r>
      </set>
      <set comment="kpoint 19">
       <r>  -16.3450    1.0000 </r>
       <r>  -13.8668    1.0000 </r>
       <r>  -11.8728    1.0000 </r>
       <r>   -8.4774    1.0000 </r>
       <r>   -7.6206    1.0000 </r>
       <r>   -7.2533    1.0000 </r>
       <r>   -5.8742    1.0000 </r>
       <r>   -5.2812    1.0000 </r>
       <r>   -3.8317    1.0000 </r>
       <r>   -2.6889    1.0000 </r>
       <r>   -0.8856    0.0000 </r>
       <r>   -0.5046    0.0000 </r>
       <r>    0.9912    0.0000 </r>
       <r>    1.1435    0.0000 </r>
       <r>    2.5789    0.0000 </r>
       <r>    3.3818    0.0000 </r>
      </set>
      <set comment="kpoint 20">
       <r>  -16.0185    1.0000 </r>
       <r>  -13.5319    1.0000 </r>
       <r>  -12.2586    1.0000 </r>
       <r>   -9.1151    1.0000 </r>
       <r>   -7.6936    1.0000 </r>
       <r>   -7.1044    1.0000 </r>
       <r>   -5.6403    1.0000 </r>
       <r>   -5.1770    1.0000 </r>
       <r>   -3.9700    1.0000 </r>
       <r>   -2.9294    1.0000 </r>
       <r>   -0.9806    0.0000 </r>
       <r>   -0.2741    0.0000 </r>
       <r>    0.4749    0.0000 </r>
       <r>    0.5029    0.0000 </r>
       <r>    2.1211    0.0000 </r>
       <r>    3.2805    0.0000 </r>
      </set>
      <set comment="kpoint 21">
       <r>  -15.6469    1.0000 </r>
       <r>  -13.1846    1.0000 </r>
       <r>  -12.6794    1.0000 </r>
       <r>   -9.7771    1.0000 </r>
       <r>   -7.6328    1.0000 </r>
       <r>   -6.9591    1.0000 </r>
       <r>   -5.4017    1.0000 </r>
       <r>   -5.0719    1.0000 </r>
       <r>   -4.1115    1.0000 </r>
       <r>   -3.2146    1.0000 </r>
       <r>   -0.9044    0.0000 </r>
       <r>   -0.2788    0.0000 </r>
       <r>   -0.0489    0.0000 </r>
       <r>    0.2991    0.0000 </r>
       <r>    1.6383    0.0000 </r>
       <r>    2.8837    0.0000 </r>
      </set>
      <set comment="kpoint 22">
       <r>  -15.2331    1.0000 </r>
       <r>  -13.3098    1.0000 </r>
       <r>  -12.6171    1.0000 </r>
       <r>  -10.4254    1.0000 </r>
       <r>   -7.4768    1.0000 </r>
       <r>   -6.8794    1.0000 </r>
       <r>   -5.1887    1.0000 </r>
       <r>   -5.0165    1.0000 </r>
       <r>   -4.1614    1.0000 </r>
       <r>   -3.5098    1.0000 </r>
       <r>   -0.7677    0.0000 </r>
       <r>   -0.6033    0.0000 </r>
       <r>   -0.4059    0.0000 </r>
       <r>    0.5462    0.0000 </r>
       <r>    1.1812    0.0000 </r>
       <r>    2.4291    0.0000 </r>
      </set>
      <set comment="kpoint 23">
       <r>  -14.7818    1.0000 </r>
       <r>  -13.7985    1.0000 </r>
       <r>  -12.1537    1.0000 </r>
       <r>  -11.0434    1.0000 </r>
       <r>   -7.2693    1.0000 </r>
       <r>   -6.9137    1.0000 </r>
       <r>   -5.0416    1.0000 </r>
       <r>   -4.9955    1.0000 </r>
       <r>   -4.0999    1.0000 </r>
       <r>   -3.7721    1.0000 </r>
       <r>   -0.8898    0.0000 </r>
       <r>   -0.8672    0.0000 </r>
       <r>   -0.2479    0.0000 </r>
       <r>    0.5292    0.0000 </r>
       <r>    1.1091    0.0000 </r>
       <r>    1.9576    0.0000 </r>
      </set>
      <set comment="kpoint 24">
       <r>  -14.2996    1.0000 </r>
       <r>  -14.2996    1.0000 </r>
       <r>  -11.6221    1.0000 </r>
       <r>  -11.6221    1.0000 </r>
       <r>   -7.0612    1.0000 </r>
       <r>   -7.0612    1.0000 </r>
       <r>   -4.9875    1.0000 </r>
       <r>   -4.9875    1.0000 </r>
       <r>   -3.9687    1.0000 </r>
       <r>   -3.9687    1.0000 </r>
       <r>   -0.9708    0.0000 </r>
       <r>   -0.9708    0.0000 </r>
       <r>    0.1282    0.0000 </r>
       <r>    0.1282    0.0000 </r>
       <r>    1.4999    0.0000 </r>
       <r>    1.4999    0.0000 </r>
      </set>
      <set comment="kpoint 25">
       <r>  -14.7818    1.0000 </r>
       <r>  -13.7985    1.0000 </r>
       <r>  -12.1537    1.0000 </r>
       <r>  -11.0434    1.0000 </r>
       <r>   -7.2693    1.0000 </r>
       <r>   -6.9137    1.0000 </r>
       <r>   -5.0416    1.0000 </r>
       <r>   -4.9955    1.0000 </r>
       <r>   -4.0999    1.0000 </r>
       <r>   -3.7721    1.0000 </r>
       <r>   -0.8898    0.0000 </r>
       <r>   -0.8672    0.0000 </r>
       <r>   -0.2479    0.0000 </r>
       <r>    0.5292    0.0000 </r>
       <r>    1.1091    0.0000 </r>
       <r>    1.9576    0.0000 </r>
      </set>
      <set comment="kpoint 26">
       <r>  -15.2331    1.0000 </r>
       <r>  -13.3098    1.0000 </r>
       <r>  -12.6171    1.0000 </r>
       <r>  -10.4254    1.0000 </r>
       <r>   -7.4768    1.0000 </r>
       <r>   -6.8794    1.0000 </r>
       <r>   -5.1887    1.0000 </r>
       <r>   -5.0165    1.0000 </r>
       <r>   -4.1614    1.0000 </r>
       <r>   -3.5098    1.0000 </r>
       <r>   -0.7677    0.0000 </r>
       <r>   -0.6033    0.0000 </r>
       <r>   -0.4059    0.0000 </r>
       <r>    0.5462    0.0000 </r>
       <r>    1.1812    0.0000 </r>
       <r>    2.4291    0.0000 </r>
      </set>
      <set comment="kpoint 27">
       <r>  -15.6469    1.0000 </r>
       <r>  -13.1846    1.0000 </r>
       <r>  -12.6794    1.0000 </r>
       <r>   -9.7771    1.0000 </r>
       <r>   -7.6328    1.0000 </r>
       <r>   -6.9591    1.0000 </r>
       <r>   -5.4017    1.0000 </r>
       <r>   -5.0719    1.0000 </r>
       <r>   -4.1115    1.0000 </r>
       <r>   -3.2146    1.0000 </r>
       <r>   -0.9044    0.0000 </r>
       <r>   -0.2788    0.0000 </r>
       <r>   -0.0489    0.0000 </r>
       <r>    0.2991    0.0000 </r>
       <r>    1.6383    0.0000 </r>
       <r>    2.8837    0.0000 </r>
      </set>
      <set comment="kpoint 28">
       <r>  -16.0185    1.0000 </r>
       <r>  -13.5319    1.0000 </r>
       <r>  -12.2586    1.0000 </r>
       <r>   -9.1151    1.0000 </r>
       <r>   -7.6936    1.0000 </r>
       <r>   -7.1044    1.0000 </r>
       <r>   -5.6403    1.0000 </r>
       <r>   -5.1770    1.0000 </r>
       <r>   -3.9700    1.0000 </r>
       <r>   -2.9294    1.0000 </r>
       <r>   -0.9806    0.0000 </r>
       <r>   -0.2741    0.0000 </r>
       <r>    0.4749    0.0000 </r>
       <r>    0.5029    0.0000 </r>
       <r>    2.1211    0.0000 </r>
       <r>    3.2805    0.0000 </r>
      </set>
      <set comment="kpoint 29">
       <r>  -16.3450    1.0000 </r>
       <r>  -13.8668    1.0000 </r>
       <r>  -11.8728    1.0000 </r>
       <r>   -8.4774    1.0000 </r>
       <r>   -7.6206    1.0000 </r>
       <r>   -7.2533    1.0000 </r>
       <r>   -5.8742    1.0000 </r>
       <r>   -5.2812    1.0000 </r>
       <r>   -3.8317    1.0000 </r>
       <r>   -2.6889    1.0000 </r>
       <r>   -0.8856    0.0000 </r>
       <r>   -0.5046    0.0000 </r>
       <r>    0.9912    0.0000 </r>
       <r>    1.1435    0.0000 </r>
       <r>    2.5789    0.0000 </r>
       <r>    3.3822    0.0000 </r>
      </set>
      <set comment="kpoint 30">
       <r>  -16.6240    1.0000 </r>
       <r>  -14.1557    1.0000 </r>
       <r>  -11.5826    1.0000 </r>
       <r>   -7.9856    1.0000 </r>
       <r>   -7.3919    1.0000 </r>
       <r>   -7.2994    1.0000 </r>
       <r>   -6.0814    1.0000 </r>
       <r>   -5.3123    1.0000 </r>
       <r>   -3.7606    1.0000 </r>
       <r>   -2.5131    1.0000 </r>
       <r>   -0.7244    0.0000 </r>
       <r>   -0.6007    0.0000 </r>
       <r>    1.5837    0.0000 </r>
       <r>    1.8237    0.0000 </r>
       <r>    2.8318    0.0000 </r>
       <r>    3.0903    0.0000 </r>
      </set>
      <set comment="kpoint 31">
       <r>  -16.8541    1.0000 </r>
       <r>  -14.3939    1.0000 </r>
       <r>  -11.3966    1.0000 </r>
       <r>   -7.8648    1.0000 </r>
       <r>   -7.0847    1.0000 </r>
       <r>   -7.0305    1.0000 </r>
       <r>   -6.2343    1.0000 </r>
       <r>   -5.1809    1.0000 </r>
       <r>   -3.7570    1.0000 </r>
       <r>   -2.4052    1.0000 </r>
       <r>   -0.9028    0.0000 </r>
       <r>   -0.1623    0.0000 </r>
       <r>    2.1705    0.0000 </r>
       <r>    2.4239    0.0000 </r>
       <r>    2.6403    0.0000 </r>
       <r>    2.7396    0.0000 </r>
      </set>
      <set comment="kpoint 32">
       <r>  -17.0340    1.0000 </r>
       <r>  -14.5802    1.0000 </r>
       <r>  -11.2951    1.0000 </r>
       <r>   -7.9314    1.0000 </r>
       <r>   -6.8611    1.0000 </r>
       <r>   -6.6983    1.0000 </r>
       <r>   -6.2096    1.0000 </r>
       <r>   -4.8243    1.0000 </r>
       <r>   -3.7902    1.0000 </r>
       <r>   -2.3543    1.0000 </r>
       <r>   -1.0369    0.0000 </r>
       <r>    0.3617    0.0000 </r>
       <r>    1.5707    0.0000 </r>
       <r>    2.3784    0.0000 </r>
       <r>    2.4887    0.0000 </r>
       <r>    2.6393    0.0000 </r>
      </set>
      <set comment="kpoint 33">
       <r>  -17.1631    1.0000 </r>
       <r>  -14.7136    1.0000 </r>
       <r>  -11.2478    1.0000 </r>
       <r>   -8.0089    1.0000 </r>
       <r>   -6.7646    1.0000 </r>
       <r>   -6.6595    1.0000 </r>
       <r>   -5.8203    1.0000 </r>
       <r>   -4.3245    1.0000 </r>
       <r>   -3.8294    1.0000 </r>
       <r>   -2.3434    1.0000 </r>
       <r>   -1.1298    0.0000 </r>
       <r>    0.6718    0.0000 </r>
       <r>    0.8882    0.0000 </r>
       <r>    1.7348    0.0000 </r>
       <r>    2.3827    0.0000 </r>
       <r>    2.4964    0.0000 </r>
      </set>
      <set comment="kpoint 34">
       <r>  -17.2407    1.0000 </r>
       <r>  -14.7938    1.0000 </r>
       <r>  -11.2295    1.0000 </r>
       <r>   -8.0611    1.0000 </r>
       <r>   -6.7371    1.0000 </r>
       <r>   -6.6972    1.0000 </r>
       <r>   -5.4062    1.0000 </r>
       <r>   -3.9128    1.0000 </r>
       <r>   -3.8165    1.0000 </r>
       <r>   -2.3544    1.0000 </r>
       <r>   -1.1864    0.0000 </r>
       <r>    0.0288    0.0000 </r>
       <r>    1.1209    0.0000 </r>
       <r>    1.3409    0.0000 </r>
       <r>    2.3071    0.0000 </r>
       <r>    2.4097    0.0000 </r>
      </set>
      <set comment="kpoint 35">
       <r>  -17.1988    1.0000 </r>
       <r>  -14.9002    1.0000 </r>
       <r>  -11.2856    1.0000 </r>
       <r>   -8.4151    1.0000 </r>
       <r>   -6.6068    1.0000 </r>
       <r>   -6.4016    1.0000 </r>
       <r>   -5.1805    1.0000 </r>
       <r>   -3.7038    1.0000 </r>
       <r>   -3.5631    1.0000 </r>
       <r>   -2.7951    1.0000 </r>
       <r>   -0.8307    0.0000 </r>
       <r>   -0.1598    0.0000 </r>
       <r>    0.7721    0.0000 </r>
       <r>    1.4394    0.0000 </r>
       <r>    2.4670    0.0000 </r>
       <r>    2.4759    0.0000 </r>
      </set>
      <set comment="kpoint 36">
       <r>  -17.1730    1.0000 </r>
       <r>  -14.8737    1.0000 </r>
       <r>  -11.2863    1.0000 </r>
       <r>   -8.3996    1.0000 </r>
       <r>   -6.6035    1.0000 </r>
       <r>   -6.4087    1.0000 </r>
       <r>   -5.3327    1.0000 </r>
       <r>   -3.9177    1.0000 </r>
       <r>   -3.5452    1.0000 </r>
       <r>   -2.7829    1.0000 </r>
       <r>   -0.8153    0.0000 </r>
       <r>    0.0804    0.0000 </r>
       <r>    0.9802    0.0000 </r>
       <r>    1.3082    0.0000 </r>
       <r>    2.4895    0.0000 </r>
       <r>    2.5048    0.0000 </r>
      </set>
      <set comment="kpoint 37">
       <r>  -17.0955    1.0000 </r>
       <r>  -14.7946    1.0000 </r>
       <r>  -11.2932    1.0000 </r>
       <r>   -8.3562    1.0000 </r>
       <r>   -6.6047    1.0000 </r>
       <r>   -6.4763    1.0000 </r>
       <r>   -5.6499    1.0000 </r>
       <r>   -4.4021    1.0000 </r>
       <r>   -3.5320    1.0000 </r>
       <r>   -2.7579    1.0000 </r>
       <r>   -0.7733    0.0000 </r>
       <r>    0.7217    0.0000 </r>
       <r>    0.8273    0.0000 </r>
       <r>    1.6620    0.0000 </r>
       <r>    2.5548    0.0000 </r>
       <r>    2.5906    0.0000 </r>
      </set>
      <set comment="kpoint 38">
       <r>  -16.9667    1.0000 </r>
       <r>  -14.6632    1.0000 </r>
       <r>  -11.3205    1.0000 </r>
       <r>   -8.2970    1.0000 </r>
       <r>   -6.7458    1.0000 </r>
       <r>   -6.6526    1.0000 </r>
       <r>   -5.8283    1.0000 </r>
       <r>   -4.9392    1.0000 </r>
       <r>   -3.5331    1.0000 </r>
       <r>   -2.7373    1.0000 </r>
       <r>   -0.7063    0.0000 </r>
       <r>    0.3566    0.0000 </r>
       <r>    1.6038    0.0000 </r>
       <r>    2.3494    0.0000 </r>
       <r>    2.4885    0.0000 </r>
       <r>    2.6605    0.0000 </r>
      </set>
      <set comment="kpoint 39">
       <r>  -16.7872    1.0000 </r>
       <r>  -14.4803    1.0000 </r>
       <r>  -11.3934    1.0000 </r>
       <r>   -8.2574    1.0000 </r>
       <r>   -7.1681    1.0000 </r>
       <r>   -6.8233    1.0000 </r>
       <r>   -5.7959    1.0000 </r>
       <r>   -5.3229    1.0000 </r>
       <r>   -3.5693    1.0000 </r>
       <r>   -2.7377    1.0000 </r>
       <r>   -0.6130    0.0000 </r>
       <r>   -0.0904    0.0000 </r>
       <r>    1.7839    0.0000 </r>
       <r>    2.6198    0.0000 </r>
       <r>    2.7205    0.0000 </r>
       <r>    2.7818    0.0000 </r>
      </set>
      <set comment="kpoint 40">
       <r>  -16.5578    1.0000 </r>
       <r>  -14.2476    1.0000 </r>
       <r>  -11.5441    1.0000 </r>
       <r>   -8.3377    1.0000 </r>
       <r>   -7.5488    1.0000 </r>
       <r>   -7.0792    1.0000 </r>
       <r>   -5.6695    1.0000 </r>
       <r>   -5.4533    1.0000 </r>
       <r>   -3.6674    1.0000 </r>
       <r>   -2.7784    1.0000 </r>
       <r>   -0.4898    0.0000 </r>
       <r>   -0.4255    0.0000 </r>
       <r>    1.1811    0.0000 </r>
       <r>    2.1348    0.0000 </r>
       <r>    2.8501    0.0000 </r>
       <r>    3.1698    0.0000 </r>
      </set>
      <set comment="kpoint 41">
       <r>  -16.2798    1.0000 </r>
       <r>  -13.9688    1.0000 </r>
       <r>  -11.7965    1.0000 </r>
       <r>   -8.6815    1.0000 </r>
       <r>   -7.7910    1.0000 </r>
       <r>   -7.1872    1.0000 </r>
       <r>   -5.5049    1.0000 </r>
       <r>   -5.4209    1.0000 </r>
       <r>   -3.8343    1.0000 </r>
       <r>   -2.8761    1.0000 </r>
       <r>   -0.5973    0.0000 </r>
       <r>   -0.3329    0.0000 </r>
       <r>    0.6032    0.0000 </r>
[...]
       <r>    3.4693    0.0000 </r>
       <r>    3.5807    0.0000 </r>
      </set>
      <set comment="kpoint 161">
       <r>  -15.3817    1.0000 </r>
       <r>  -15.1206    1.0000 </r>
       <r>  -10.7182    1.0000 </r>
       <r>  -10.3876    1.0000 </r>
       <r>   -7.8248    1.0000 </r>
       <r>   -7.6533    1.0000 </r>
       <r>   -5.1193    1.0000 </r>
       <r>   -4.8596    1.0000 </r>
       <r>   -3.7196    1.0000 </r>
       <r>   -3.6448    1.0000 </r>
       <r>    0.5211    0.0000 </r>
       <r>    0.9378    0.0000 </r>
       <r>    1.3129    0.0000 </r>
       <r>    1.6530    0.0000 </r>
       <r>    3.5129    0.0000 </r>
       <r>    3.5806    0.0000 </r>
      </set>
      <set comment="kpoint 162">
       <r>  -15.6455    1.0000 </r>
       <r>  -15.3807    1.0000 </r>
       <r>  -10.6501    1.0000 </r>
       <r>  -10.3203    1.0000 </r>
       <r>   -7.3922    1.0000 </r>
       <r>   -7.2102    1.0000 </r>
       <r>   -5.0902    1.0000 </r>
       <r>   -4.7787    1.0000 </r>
       <r>   -3.5340    1.0000 </r>
       <r>   -3.4881    1.0000 </r>
       <r>    0.5538    0.0000 </r>
       <r>    0.8754    0.0000 </r>
       <r>    1.3527    0.0000 </r>
       <r>    1.7254    0.0000 </r>
       <r>    3.3861    0.0000 </r>
       <r>    3.5794    0.0000 </r>
      </set>
      <set comment="kpoint 163">
       <r>  -15.8657    1.0000 </r>
       <r>  -15.5989    1.0000 </r>
       <r>  -10.6718    1.0000 </r>
       <r>  -10.3482    1.0000 </r>
       <r>   -6.7957    1.0000 </r>
       <r>   -6.5997    1.0000 </r>
       <r>   -5.1573    1.0000 </r>
       <r>   -4.8173    1.0000 </r>
       <r>   -3.3813    1.0000 </r>
       <r>   -3.2128    1.0000 </r>
       <r>    0.6925    0.0000 </r>
       <r>    0.8924    0.0000 </r>
       <r>    1.3072    0.0000 </r>
       <r>    1.6991    0.0000 </r>
       <r>    2.8420    0.0000 </r>
       <r>    3.0976    0.0000 </r>
      </set>
      <set comment="kpoint 164">
       <r>  -16.0393    1.0000 </r>
       <r>  -15.7713    1.0000 </r>
       <r>  -10.7288    1.0000 </r>
       <r>  -10.4111    1.0000 </r>
       <r>   -6.1118    1.0000 </r>
       <r>   -5.9042    1.0000 </r>
       <r>   -5.2457    1.0000 </r>
       <r>   -4.8926    1.0000 </r>
       <r>   -3.2832    1.0000 </r>
       <r>   -2.9974    1.0000 </r>
       <r>    0.8972    0.0000 </r>
       <r>    0.9689    0.0000 </r>
       <r>    1.2014    0.0000 </r>
       <r>    1.5757    0.0000 </r>
       <r>    2.1824    0.0000 </r>
       <r>    2.3292    0.0000 </r>
      </set>
      <set comment="kpoint 165">
       <r>  -16.1644    1.0000 </r>
       <r>  -15.8957    1.0000 </r>
       <r>  -10.7864    1.0000 </r>
       <r>  -10.4729    1.0000 </r>
       <r>   -5.4141    1.0000 </r>
       <r>   -5.3273    1.0000 </r>
       <r>   -5.1956    1.0000 </r>
       <r>   -4.9620    1.0000 </r>
       <r>   -3.2863    1.0000 </r>
       <r>   -2.8970    1.0000 </r>
       <r>    0.8153    0.0000 </r>
       <r>    0.8639    0.0000 </r>
       <r>    1.2248    0.0000 </r>
       <r>    1.4080    0.0000 </r>
       <r>    1.8122    0.0000 </r>
       <r>    1.8282    0.0000 </r>
      </set>
      <set comment="kpoint 166">
       <r>  -16.2398    1.0000 </r>
       <r>  -15.9708    1.0000 </r>
       <r>  -10.8266    1.0000 </r>
       <r>  -10.5155    1.0000 </r>
       <r>   -5.3737    1.0000 </r>
       <r>   -5.0123    1.0000 </r>
       <r>   -4.7998    1.0000 </r>
       <r>   -4.6006    1.0000 </r>
       <r>   -3.3984    1.0000 </r>
       <r>   -2.9227    1.0000 </r>
       <r>    0.4409    0.0000 </r>
       <r>    0.4507    0.0000 </r>
       <r>    1.2884    0.0000 </r>
       <r>    1.4958    0.0000 </r>
       <r>    1.6890    0.0000 </r>
       <r>    1.7792    0.0000 </r>
      </set>
     </set>
    </set>
   </array>
  </eigenvalues>
  <separator name="orbital magnetization" >
   <v name="MAGDIPOLOUT">      0.00000000      0.00000000      0.00000000</v>
  </separator>
  <dos>
   <i name="efermi">     -2.02721314 </i>
   <total>
    <array>
     <dimension dim="1">gridpoints</dimension>
     <dimension dim="2">spin</dimension>
     <field>energy</field>
     <field>total</field>
     <field>integrated</field>
     <set>
      <set comment="spin 1">
       <r>   -18.3425     0.0000     0.0000 </r>
       <r>   -18.2653     0.0000     0.0000 </r>
       <r>   -18.1881     0.0000     0.0000 </r>
       <r>   -18.1108     0.0000     0.0000 </r>
       <r>   -18.0336     0.0000     0.0000 </r>
       <r>   -17.9564     0.0000     0.0000 </r>
       <r>   -17.8791     0.0000     0.0000 </r>
       <r>   -17.8019     0.0000     0.0000 </r>
       <r>   -17.7247     0.0000     0.0000 </r>
       <r>   -17.6474     0.0000     0.0000 </r>
       <r>   -17.5702     0.0000     0.0000 </r>
       <r>   -17.4930     0.0000     0.0000 </r>
       <r>   -17.4157     0.0000     0.0000 </r>
       <r>   -17.3385     0.0000     0.0000 </r>
       <r>   -17.2613     0.2892     0.0223 </r>
       <r>   -17.1840     0.7265     0.0784 </r>
       <r>   -17.1068     0.7119     0.1334 </r>
       <r>   -17.0296     1.0496     0.2145 </r>
       <r>   -16.9523     0.7170     0.2699 </r>
       <r>   -16.8751     0.6386     0.3192 </r>
       <r>   -16.7979     1.0360     0.3992 </r>
       <r>   -16.7206     0.5510     0.4417 </r>
       <r>   -16.6434     1.0371     0.5218 </r>
       <r>   -16.5662     0.6291     0.5704 </r>
       <r>   -16.4889     1.1729     0.6610 </r>
       <r>   -16.4117     0.6556     0.7116 </r>
       <r>   -16.3345     0.7021     0.7659 </r>
       <r>   -16.2572     1.2721     0.8641 </r>
       <r>   -16.1800     0.4823     0.9014 </r>
       <r>   -16.1028     0.9780     0.9769 </r>
       <r>   -16.0256     0.7905     1.0380 </r>
       <r>   -15.9483     1.1158     1.1241 </r>
       <r>   -15.8711     0.8496     1.1898 </r>
       <r>   -15.7939     0.8561     1.2559 </r>
       <r>   -15.7166     0.4968     1.2942 </r>
       <r>   -15.6394     1.2485     1.3907 </r>
       <r>   -15.5622     1.3609     1.4958 </r>
       <r>   -15.4849     0.7426     1.5531 </r>
       <r>   -15.4077     0.6951     1.6068 </r>
       <r>   -15.3305     1.3598     1.7118 </r>
       <r>   -15.2532     0.6454     1.7617 </r>
       <r>   -15.1760     1.3977     1.8696 </r>
       <r>   -15.0988     1.2475     1.9660 </r>
       <r>   -15.0215     1.1989     2.0586 </r>
       <r>   -14.9443     1.1589     2.1481 </r>
       <r>   -14.8671     0.7870     2.2088 </r>
       <r>   -14.7898     2.5404     2.4050 </r>
       <r>   -14.7126     1.6381     2.5316 </r>
       <r>   -14.6354     0.9650     2.6061 </r>
       <r>   -14.5581     1.8077     2.7457 </r>
       <r>   -14.4809     1.0043     2.8233 </r>
       <r>   -14.4037     0.6725     2.8752 </r>
       <r>   -14.3264     1.2300     2.9702 </r>
       <r>   -14.2492     1.5866     3.0927 </r>
       <r>   -14.1720     1.0921     3.1771 </r>
       <r>   -14.0947     1.2809     3.2760 </r>
       <r>   -14.0175     0.8691     3.3431 </r>
       <r>   -13.9403     1.4417     3.4545 </r>
       <r>   -13.8631     0.6494     3.5046 </r>
       <r>   -13.7858     1.9687     3.6567 </r>
       <r>   -13.7086     1.1497     3.7455 </r>
       <r>   -13.6314     0.4509     3.7803 </r>
       <r>   -13.5541     0.4096     3.8119 </r>
       <r>   -13.4769     0.7675     3.8712 </r>
       <r>   -13.3997     0.1257     3.8809 </r>
       <r>   -13.3224     0.6578     3.9317 </r>
       <r>   -13.2452     0.4130     3.9636 </r>
       <r>   -13.1680     0.2768     3.9850 </r>
       <r>   -13.0907     0.1197     3.9942 </r>
       <r>   -13.0135     0.0747     4.0000 </r>
       <r>   -12.9363     0.0000     4.0000 </r>
       <r>   -12.8590     0.0000     4.0000 </r>
       <r>   -12.7818     0.0474     4.0037 </r>
       <r>   -12.7046     0.1213     4.0130 </r>
       <r>   -12.6273     0.5182     4.0530 </r>
       <r>   -12.5501     0.3049     4.0766 </r>
       <r>   -12.4729     0.5670     4.1204 </r>
       <r>   -12.3956     0.2883     4.1427 </r>
       <r>   -12.3184     0.0594     4.1472 </r>
       <r>   -12.2412     0.9849     4.2233 </r>
       <r>   -12.1639     0.4439     4.2576 </r>
       <r>   -12.0867     1.6879     4.3880 </r>
       <r>   -12.0095     0.9134     4.4585 </r>
       <r>   -11.9322     0.7952     4.5199 </r>
       <r>   -11.8550     1.2431     4.6159 </r>
       <r>   -11.7778     1.1347     4.7036 </r>
       <r>   -11.7005     0.9897     4.7800 </r>
       <r>   -11.6233     1.0775     4.8632 </r>
       <r>   -11.5461     1.4407     4.9745 </r>
       <r>   -11.4689     1.1801     5.0656 </r>
       <r>   -11.3916     1.0653     5.1479 </r>
       <r>   -11.3144     2.7320     5.3589 </r>
       <r>   -11.2372     4.1414     5.6787 </r>
       <r>   -11.1599     2.4081     5.8647 </r>
       <r>   -11.0827     1.0912     5.9490 </r>
       <r>   -11.0055     1.4639     6.0621 </r>
       <r>   -10.9282     1.4697     6.1756 </r>
       <r>   -10.8510     0.5234     6.2160 </r>
       <r>   -10.7738     0.6822     6.2687 </r>
       <r>   -10.6965     1.0561     6.3503 </r>
       <r>   -10.6193     0.9526     6.4238 </r>
       <r>   -10.5421     0.5964     6.4699 </r>
       <r>   -10.4648     0.9525     6.5434 </r>
       <r>   -10.3876     1.3245     6.6457 </r>
       <r>   -10.3104     0.7548     6.7040 </r>
       <r>   -10.2331     0.3795     6.7333 </r>
       <r>   -10.1559     0.4921     6.7714 </r>
       <r>   -10.0787     0.5944     6.8173 </r>
       <r>   -10.0014     0.7767     6.8773 </r>
       <r>    -9.9242     1.1109     6.9631 </r>
       <r>    -9.8470     0.2640     6.9834 </r>
       <r>    -9.7697     0.2977     7.0064 </r>
       <r>    -9.6925     0.8809     7.0745 </r>
       <r>    -9.6153     1.0125     7.1527 </r>
       <r>    -9.5380     0.6541     7.2032 </r>
       <r>    -9.4608     0.0400     7.2063 </r>
       <r>    -9.3836     0.3109     7.2303 </r>
       <r>    -9.3063     0.2345     7.2484 </r>
       <r>    -9.2291     1.0237     7.3275 </r>
       <r>    -9.1519     0.5884     7.3729 </r>
       <r>    -9.0747     0.8976     7.4422 </r>
       <r>    -8.9974     0.0887     7.4491 </r>
       <r>    -8.9202     0.3062     7.4727 </r>
       <r>    -8.8430     0.1335     7.4830 </r>
       <r>    -8.7657     0.6386     7.5323 </r>
       <r>    -8.6885     0.9083     7.6025 </r>
       <r>    -8.6113     0.3601     7.6303 </r>
       <r>    -8.5340     0.0000     7.6303 </r>
       <r>    -8.4568     0.2912     7.6528 </r>
       <r>    -8.3796     0.6306     7.7015 </r>
       <r>    -8.3023     0.7567     7.7599 </r>
       <r>    -8.2251     0.5165     7.7998 </r>
       <r>    -8.1479     0.8382     7.8646 </r>
       <r>    -8.0706     1.2425     7.9605 </r>
       <r>    -7.9934     2.1688     8.1280 </r>
       <r>    -7.9162     2.3842     8.3122 </r>
       <r>    -7.8389     1.4967     8.4278 </r>
       <r>    -7.7617     2.0401     8.5853 </r>
       <r>    -7.6845     0.6342     8.6343 </r>
       <r>    -7.6072     3.7035     8.9203 </r>
       <r>    -7.5300     1.4972     9.0360 </r>
       <r>    -7.4528     1.2931     9.1358 </r>
       <r>    -7.3755     1.7172     9.2685 </r>
       <r>    -7.2983     1.6178     9.3934 </r>
       <r>    -7.2211     2.7234     9.6037 </r>
       <r>    -7.1438     3.3085     9.8593 </r>
       <r>    -7.0666     2.6383    10.0630 </r>
       <r>    -6.9894     2.5488    10.2599 </r>
       <r>    -6.9122     2.1840    10.4285 </r>
       <r>    -6.8349     2.1243    10.5926 </r>
       <r>    -6.7577     1.8961    10.7391 </r>
       <r>    -6.6805     2.0234    10.8953 </r>
       <r>    -6.6032     2.1396    11.0606 </r>
       <r>    -6.5260     1.3355    11.1637 </r>
       <r>    -6.4488     1.1678    11.2539 </r>
       <r>    -6.3715     2.5426    11.4503 </r>
       <r>    -6.2943     0.6637    11.5015 </r>
       <r>    -6.2171     2.2115    11.6723 </r>
       <r>    -6.1398     1.7836    11.8101 </r>
       <r>    -6.0626     1.0216    11.8890 </r>
       <r>    -5.9854     1.0538    11.9704 </r>
       <r>    -5.9081     1.8840    12.1159 </r>
       <r>    -5.8309     1.9901    12.2696 </r>
       <r>    -5.7537     1.8144    12.4097 </r>
       <r>    -5.6764     1.5526    12.5296 </r>
       <r>    -5.5992     3.8640    12.8280 </r>
       <r>    -5.5220     2.2860    13.0046 </r>
       <r>    -5.4447     2.5036    13.1979 </r>
       <r>    -5.3675     3.0394    13.4327 </r>
       <r>    -5.2903     4.7324    13.7982 </r>
       <r>    -5.2130     2.7103    14.0075 </r>
       <r>    -5.1358     3.4414    14.2733 </r>
       <r>    -5.0586     2.7145    14.4829 </r>
       <r>    -4.9813     3.3502    14.7417 </r>
       <r>    -4.9041     1.7901    14.8799 </r>
       <r>    -4.8269     1.5916    15.0029 </r>
       <r>    -4.7496     2.7763    15.2173 </r>
       <r>    -4.6724     1.0184    15.2959 </r>
       <r>    -4.5952     1.3341    15.3990 </r>
       <r>    -4.5180     0.9738    15.4742 </r>
       <r>    -4.4407     1.5128    15.5910 </r>
       <r>    -4.3635     0.9388    15.6635 </r>
       <r>    -4.2863     1.2404    15.7593 </r>
       <r>    -4.2090     0.9903    15.8358 </r>
       <r>    -4.1318     1.1756    15.9266 </r>
       <r>    -4.0546     3.2703    16.1792 </r>
       <r>    -3.9773     2.5001    16.3723 </r>
       <r>    -3.9001     2.7624    16.5856 </r>
       <r>    -3.8229     3.6136    16.8647 </r>
       <r>    -3.7456     3.4573    17.1317 </r>
       <r>    -3.6684     3.5598    17.4066 </r>
       <r>    -3.5912     2.4283    17.5942 </r>
       <r>    -3.5139     4.6568    17.9538 </r>
       <r>    -3.4367     2.2513    18.1277 </r>
       <r>    -3.3595     3.1501    18.3710 </r>
       <r>    -3.2822     1.9633    18.5226 </r>
       <r>    -3.2050     4.6208    18.8795 </r>
       <r>    -3.1278     3.6817    19.1638 </r>
       <r>    -3.0505     0.5791    19.2086 </r>
       <r>    -2.9733     0.9896    19.2850 </r>
       <r>    -2.8961     0.9671    19.3597 </r>
       <r>    -2.8188     1.4715    19.4733 </r>
       <r>    -2.7416     1.7076    19.6052 </r>
       <r>    -2.6644     1.2546    19.7021 </r>
       <r>    -2.5871     0.7946    19.7635 </r>
       <r>    -2.5099     0.6500    19.8137 </r>
       <r>    -2.4327     0.1495    19.8252 </r>
       <r>    -2.3555     0.9264    19.8968 </r>
       <r>    -2.2782     0.6427    19.9464 </r>
       <r>    -2.2010     0.1459    19.9577 </r>
       <r>    -2.1238     0.3449    19.9843 </r>
       <r>    -2.0465     0.2028    20.0000 </r>
       <r>    -1.9693     0.0000    20.0000 </r>
       <r>    -1.8921     0.0000    20.0000 </r>
       <r>    -1.8148     0.0000    20.0000 </r>
       <r>    -1.7376     0.0000    20.0000 </r>
       <r>    -1.6604     0.0000    20.0000 </r>
       <r>    -1.5831     0.0000    20.0000 </r>
       <r>    -1.5059     0.0000    20.0000 </r>
       <r>    -1.4287     0.0351    20.0027 </r>
       <r>    -1.3514     0.2062    20.0186 </r>
       <r>    -1.2742     0.1511    20.0303 </r>
       <r>    -1.1970     0.2962    20.0532 </r>
       <r>    -1.1197     0.6426    20.1028 </r>
       <r>    -1.0425     0.4442    20.1371 </r>
       <r>    -0.9653     1.1660    20.2272 </r>
       <r>    -0.8880     1.6286    20.3530 </r>
       <r>    -0.8108     1.9760    20.5056 </r>
       <r>    -0.7336     1.8154    20.6458 </r>
       <r>    -0.6563     0.9136    20.7163 </r>
       <r>    -0.5791     2.2485    20.8900 </r>
       <r>    -0.5019     1.4963    21.0055 </r>
       <r>    -0.4246     1.9023    21.1525 </r>
       <r>    -0.3474     1.3425    21.2561 </r>
       <r>    -0.2702     2.2908    21.4331 </r>
       <r>    -0.1929     1.9838    21.5863 </r>
       <r>    -0.1157     2.0636    21.7457 </r>
       <r>    -0.0385     2.2470    21.9192 </r>
       <r>     0.0387     2.1252    22.0833 </r>
       <r>     0.1160     2.7474    22.2955 </r>
       <r>     0.1932     3.4018    22.5583 </r>
       <r>     0.2704     2.4670    22.7488 </r>
       <r>     0.3477     3.2256    22.9979 </r>
       <r>     0.4249     3.1015    23.2374 </r>
       <r>     0.5021     4.2580    23.5663 </r>
       <r>     0.5794     4.8671    23.9422 </r>
       <r>     0.6566     2.8019    24.1586 </r>
       <r>     0.7338     2.7380    24.3701 </r>
       <r>     0.8111     2.9350    24.5967 </r>
       <r>     0.8883     4.2384    24.9241 </r>
       <r>     0.9655     5.1451    25.3214 </r>
       <r>     1.0428     2.7076    25.5306 </r>
       <r>     1.1200     2.7121    25.7400 </r>
       <r>     1.1972     3.4539    26.0068 </r>
       <r>     1.2745     2.3717    26.1899 </r>
       <r>     1.3517     4.3325    26.5246 </r>
       <r>     1.4289     2.4611    26.7146 </r>
       <r>     1.5062     2.4006    26.9000 </r>
       <r>     1.5834     2.2476    27.0736 </r>
       <r>     1.6606     2.5226    27.2684 </r>
       <r>     1.7379     2.5948    27.4688 </r>
       <r>     1.8151     2.6810    27.6759 </r>
       <r>     1.8923     2.9353    27.9026 </r>
       <r>     1.9696     2.2443    28.0759 </r>
       <r>     2.0468     2.3152    28.2547 </r>
       <r>     2.1240     1.2658    28.3525 </r>
       <r>     2.2013     2.3917    28.5372 </r>
       <r>     2.2785     1.8263    28.6783 </r>
       <r>     2.3557     3.5420    28.9518 </r>
       <r>     2.4329     3.4499    29.2183 </r>
       <r>     2.5102     2.6578    29.4236 </r>
       <r>     2.5874     2.4408    29.6121 </r>
       <r>     2.6646     3.8278    29.9077 </r>
       <r>     2.7419     2.7981    30.1238 </r>
       <r>     2.8191     3.0750    30.3613 </r>
       <r>     2.8963     2.4601    30.5513 </r>
       <r>     2.9736     3.4206    30.8155 </r>
       <r>     3.0508     1.4370    30.9264 </r>
       <r>     3.1280     2.5509    31.1235 </r>
       <r>     3.2053     2.2301    31.2957 </r>
       <r>     3.2825     0.9303    31.3675 </r>
       <r>     3.3597     2.7981    31.5836 </r>
       <r>     3.4370     1.4712    31.6973 </r>
       <r>     3.5142     0.9549    31.7710 </r>
       <r>     3.5914     1.8175    31.9114 </r>
       <r>     3.6687     0.6017    31.9578 </r>
       <r>     3.7459     0.2393    31.9763 </r>
       <r>     3.8231     0.3064    32.0000 </r>
       <r>     3.9004     0.0001    32.0000 </r>
       <r>     3.9776     0.0000    32.0000 </r>
       <r>     4.0548     0.0000    32.0000 </r>
       <r>     4.1321     0.0000    32.0000 </r>
       <r>     4.2093     0.0000    32.0000 </r>
       <r>     4.2865     0.0000    32.0000 </r>
       <r>     4.3638     0.0000    32.0000 </r>
       <r>     4.4410     0.0000    32.0000 </r>
       <r>     4.5182     0.0000    32.0000 </r>
       <r>     4.5954     0.0000    32.0000 </r>
       <r>     4.6727     0.0000    32.0000 </r>
       <r>     4.7499     0.0000    32.0000 </r>
       <r>     4.8271     0.0000    32.0000 </r>
      </set>
     </set>
    </array>
   </total>
  </dos>
 </calculation>
 <structure name="finalpos" >
  <crystal>
   <varray name="basis" >
    <v>       3.23058700       0.00000000       0.00000000 </v>
    <v>       0.00000000       4.52994000      -0.00005300 </v>
    <v>       0.00000000       0.00000000      20.02439000 </v>
   </varray>
   <i name="volume">    293.04423766 </i>
   <varray name="rec_basis" >
    <v>       0.30954127       0.00000000       0.00000000 </v>
    <v>       0.00000000       0.22075348       0.00000000 </v>
    <v>       0.00000000       0.00000058       0.04993910 </v>
   </varray>
  </crystal>
  <varray name="positions" >
   <v>       0.50000000       0.91494540       0.55296278 </v>
   <v>       0.50000000       0.08505460       0.44703722 </v>
   <v>       0.00000000       0.41494058       0.44703722 </v>
   <v>      -0.00000000       0.58505942       0.55296278 </v>
  </varray>
 </structure>
</modeling>
