<?xml version="1.0" encoding="ISO-8859-1"?>
<modeling>
 <generator>
  <i name="program" type="string">vasp </i>
  <i name="version" type="string">5.4.1  </i>
  <i name="subversion" type="string">24Jun15 (build Nov 20 2020 10:29:34) complex                          parallel </i>
  <i name="platform" type="string">IFC91_ompi </i>
  <i name="date" type="string">2021 09 09 </i>
  <i name="time" type="string">14:48:48 </i>
 </generator>
 <incar>
  <i type="string" name="PREC">a</i>
  <i type="string" name="ALGO"> Normal</i>
  <i type="int" name="ISPIN">     1</i>
  <i type="int" name="ICHARG">     2</i>
  <i type="int" name="NELM">   250</i>
  <i type="int" name="NELMDL">    -5</i>
  <i type="int" name="NELMIN">     6</i>
  <i type="int" name="IBRION">     2</i>
  <i name="EDIFF">      0.00001000</i>
  <i name="EDIFFG">     -0.01000000</i>
  <i type="int" name="NSW">   200</i>
  <i type="int" name="ISIF">     2</i>
  <i name="ENCUT">    520.00000000</i>
  <i name="POTIM">      0.30000000</i>
  <i type="logical" name="LREAL"> F  </i>
  <i type="int" name="ISMEAR">     0</i>
  <i name="SIGMA">      0.02000000</i>
  <i type="logical" name="LWAVE"> F  </i>
  <i type="logical" name="LCHARG"> F  </i>
  <i type="logical" name="LAECHG"> F  </i>
  <v type="int" name="KPOINT_BSE">    -1     0     0     0</v>
  <i type="int" name="NELM">   250</i>
 </incar>
 <kpoints>
  <generation param="Gamma">
   <v type="int" name="divisions">      22       15        1 </v>
   <v name="usershift">      0.00000000       0.00000000       0.00000000 </v>
   <v name="genvec1">      0.04545455       0.00000000       0.00000000 </v>
   <v name="genvec2">      0.00000000       0.06666667       0.00000000 </v>
   <v name="genvec3">      0.00000000       0.00000000       1.00000000 </v>
   <v name="shift">      0.00000000       0.00000000       0.00000000 </v>
  </generation>
  <varray name="kpointlist" >
   <v>       0.00000000       0.00000000       0.00000000 </v>
   <v>       0.04545455       0.00000000       0.00000000 </v>
   <v>       0.09090909       0.00000000       0.00000000 </v>
   <v>       0.13636364       0.00000000       0.00000000 </v>
   <v>       0.18181818       0.00000000       0.00000000 </v>
   <v>       0.22727273       0.00000000       0.00000000 </v>
   <v>       0.27272727       0.00000000       0.00000000 </v>
   <v>       0.31818182       0.00000000       0.00000000 </v>
   <v>       0.36363636       0.00000000       0.00000000 </v>
   <v>       0.40909091       0.00000000       0.00000000 </v>
   <v>       0.45454545       0.00000000       0.00000000 </v>
   <v>       0.50000000       0.00000000       0.00000000 </v>
   <v>       0.00000000       0.06666667       0.00000000 </v>
   <v>       0.04545455       0.06666667       0.00000000 </v>
   <v>       0.09090909       0.06666667       0.00000000 </v>
   <v>       0.13636364       0.06666667       0.00000000 </v>
   <v>       0.18181818       0.06666667       0.00000000 </v>
   <v>       0.22727273       0.06666667       0.00000000 </v>
   <v>       0.27272727       0.06666667       0.00000000 </v>
   <v>       0.31818182       0.06666667       0.00000000 </v>
   <v>       0.36363636       0.06666667       0.00000000 </v>
   <v>       0.40909091       0.06666667       0.00000000 </v>
   <v>       0.45454545       0.06666667       0.00000000 </v>
   <v>       0.50000000       0.06666667       0.00000000 </v>
   <v>      -0.45454545       0.06666667       0.00000000 </v>
   <v>      -0.40909091       0.06666667       0.00000000 </v>
   <v>      -0.36363636       0.06666667       0.00000000 </v>
   <v>      -0.31818182       0.06666667       0.00000000 </v>
   <v>      -0.27272727       0.06666667       0.00000000 </v>
   <v>      -0.22727273       0.06666667       0.00000000 </v>
   <v>      -0.18181818       0.06666667       0.00000000 </v>
   <v>      -0.13636364       0.06666667       0.00000000 </v>
   <v>      -0.09090909       0.06666667       0.00000000 </v>
   <v>      -0.04545455       0.06666667       0.00000000 </v>
   <v>       0.00000000       0.13333333       0.00000000 </v>
   <v>       0.04545455       0.13333333       0.00000000 </v>
   <v>       0.09090909       0.13333333       0.00000000 </v>
   <v>       0.13636364       0.13333333       0.00000000 </v>
   <v>       0.18181818       0.13333333       0.00000000 </v>
   <v>       0.22727273       0.13333333       0.00000000 </v>
   <v>       0.27272727       0.13333333       0.00000000 </v>
   <v>       0.31818182       0.13333333       0.00000000 </v>
   <v>       0.36363636       0.13333333       0.00000000 </v>
   <v>       0.40909091       0.13333333       0.00000000 </v>
   <v>       0.45454545       0.13333333       0.00000000 </v>
   <v>       0.50000000       0.13333333       0.00000000 </v>
   <v>      -0.45454545       0.13333333       0.00000000 </v>
   <v>      -0.40909091       0.13333333       0.00000000 </v>
   <v>      -0.36363636       0.13333333       0.00000000 </v>
   <v>      -0.31818182       0.13333333       0.00000000 </v>
   <v>      -0.27272727       0.13333333       0.00000000 </v>
   <v>      -0.22727273       0.13333333       0.00000000 </v>
   <v>      -0.18181818       0.13333333       0.00000000 </v>
   <v>      -0.13636364       0.13333333       0.00000000 </v>
   <v>      -0.09090909       0.13333333       0.00000000 </v>
   <v>      -0.04545455       0.13333333       0.00000000 </v>
   <v>       0.00000000       0.20000000       0.00000000 </v>
   <v>       0.04545455       0.20000000       0.00000000 </v>
   <v>       0.09090909       0.20000000       0.00000000 </v>
   <v>       0.13636364       0.20000000       0.00000000 </v>
   <v>       0.18181818       0.20000000       0.00000000 </v>
   <v>       0.22727273       0.20000000       0.00000000 </v>
   <v>       0.27272727       0.20000000       0.00000000 </v>
   <v>       0.31818182       0.20000000       0.00000000 </v>
   <v>       0.36363636       0.20000000       0.00000000 </v>
   <v>       0.40909091       0.20000000       0.00000000 </v>
   <v>       0.45454545       0.20000000       0.00000000 </v>
   <v>       0.50000000       0.20000000       0.00000000 </v>
   <v>      -0.45454545       0.20000000       0.00000000 </v>
   <v>      -0.40909091       0.20000000       0.00000000 </v>
   <v>      -0.36363636       0.20000000       0.00000000 </v>
   <v>      -0.31818182       0.20000000       0.00000000 </v>
   <v>      -0.27272727       0.20000000       0.00000000 </v>
   <v>      -0.22727273       0.20000000       0.00000000 </v>
   <v>      -0.18181818       0.20000000       0.00000000 </v>
   <v>      -0.13636364       0.20000000       0.00000000 </v>
   <v>      -0.09090909       0.20000000       0.00000000 </v>
   <v>      -0.04545455       0.20000000       0.00000000 </v>
   <v>       0.00000000       0.26666667       0.00000000 </v>
   <v>       0.04545455       0.26666667       0.00000000 </v>
   <v>       0.09090909       0.26666667       0.00000000 </v>
   <v>       0.13636364       0.26666667       0.00000000 </v>
   <v>       0.18181818       0.26666667       0.00000000 </v>
   <v>       0.22727273       0.26666667       0.00000000 </v>
   <v>       0.27272727       0.26666667       0.00000000 </v>
   <v>       0.31818182       0.26666667       0.00000000 </v>
   <v>       0.36363636       0.26666667       0.00000000 </v>
   <v>       0.40909091       0.26666667       0.00000000 </v>
   <v>       0.45454545       0.26666667       0.00000000 </v>
   <v>       0.50000000       0.26666667       0.00000000 </v>
   <v>      -0.45454545       0.26666667       0.00000000 </v>
   <v>      -0.40909091       0.26666667       0.00000000 </v>
   <v>      -0.36363636       0.26666667       0.00000000 </v>
   <v>      -0.31818182       0.26666667       0.00000000 </v>
   <v>      -0.27272727       0.26666667       0.00000000 </v>
   <v>      -0.22727273       0.26666667       0.00000000 </v>
   <v>      -0.18181818       0.26666667       0.00000000 </v>
   <v>      -0.13636364       0.26666667       0.00000000 </v>
   <v>      -0.09090909       0.26666667       0.00000000 </v>
   <v>      -0.04545455       0.26666667       0.00000000 </v>
   <v>       0.00000000       0.33333333       0.00000000 </v>
   <v>       0.04545455       0.33333333       0.00000000 </v>
   <v>       0.09090909       0.33333333       0.00000000 </v>
   <v>       0.13636364       0.33333333       0.00000000 </v>
   <v>       0.18181818       0.33333333       0.00000000 </v>
   <v>       0.22727273       0.33333333       0.00000000 </v>
   <v>       0.27272727       0.33333333       0.00000000 </v>
   <v>       0.31818182       0.33333333       0.00000000 </v>
   <v>       0.36363636       0.33333333       0.00000000 </v>
   <v>       0.40909091       0.33333333       0.00000000 </v>
   <v>       0.45454545       0.33333333       0.00000000 </v>
   <v>       0.50000000       0.33333333       0.00000000 </v>
   <v>      -0.45454545       0.33333333       0.00000000 </v>
   <v>      -0.40909091       0.33333333       0.00000000 </v>
   <v>      -0.36363636       0.33333333       0.00000000 </v>
   <v>      -0.31818182       0.33333333       0.00000000 </v>
   <v>      -0.27272727       0.33333333       0.00000000 </v>
   <v>      -0.22727273       0.33333333       0.00000000 </v>
   <v>      -0.18181818       0.33333333       0.00000000 </v>
   <v>      -0.13636364       0.33333333       0.00000000 </v>
   <v>      -0.09090909       0.33333333       0.00000000 </v>
   <v>      -0.04545455       0.33333333       0.00000000 </v>
   <v>       0.00000000       0.40000000       0.00000000 </v>
   <v>       0.04545455       0.40000000       0.00000000 </v>
   <v>       0.09090909       0.40000000       0.00000000 </v>
   <v>       0.13636364       0.40000000       0.00000000 </v>
   <v>       0.18181818       0.40000000       0.00000000 </v>
   <v>       0.22727273       0.40000000       0.00000000 </v>
   <v>       0.27272727       0.40000000       0.00000000 </v>
   <v>       0.31818182       0.40000000       0.00000000 </v>
   <v>       0.36363636       0.40000000       0.00000000 </v>
   <v>       0.40909091       0.40000000       0.00000000 </v>
   <v>       0.45454545       0.40000000       0.00000000 </v>
   <v>       0.50000000       0.40000000       0.00000000 </v>
   <v>      -0.45454545       0.40000000       0.00000000 </v>
   <v>      -0.40909091       0.40000000       0.00000000 </v>
   <v>      -0.36363636       0.40000000       0.00000000 </v>
   <v>      -0.31818182       0.40000000       0.00000000 </v>
   <v>      -0.27272727       0.40000000       0.00000000 </v>
   <v>      -0.22727273       0.40000000       0.00000000 </v>
   <v>      -0.18181818       0.40000000       0.00000000 </v>
   <v>      -0.13636364       0.40000000       0.00000000 </v>
   <v>      -0.09090909       0.40000000       0.00000000 </v>
   <v>      -0.04545455       0.40000000       0.00000000 </v>
   <v>       0.00000000       0.46666667       0.00000000 </v>
   <v>       0.04545455       0.46666667       0.00000000 </v>
   <v>       0.09090909       0.46666667       0.00000000 </v>
   <v>       0.13636364       0.46666667       0.00000000 </v>
   <v>       0.18181818       0.46666667       0.00000000 </v>
   <v>       0.22727273       0.46666667       0.00000000 </v>
   <v>       0.27272727       0.46666667       0.00000000 </v>
   <v>       0.31818182       0.46666667       0.00000000 </v>
   <v>       0.36363636       0.46666667       0.00000000 </v>
   <v>       0.40909091       0.46666667       0.00000000 </v>
   <v>       0.45454545       0.46666667       0.00000000 </v>
   <v>       0.50000000       0.46666667       0.00000000 </v>
   <v>      -0.45454545       0.46666667       0.00000000 </v>
   <v>      -0.40909091       0.46666667       0.00000000 </v>
   <v>      -0.36363636       0.46666667       0.00000000 </v>
   <v>      -0.31818182       0.46666667       0.00000000 </v>
   <v>      -0.27272727       0.46666667       0.00000000 </v>
   <v>      -0.22727273       0.46666667       0.00000000 </v>
   <v>      -0.18181818       0.46666667       0.00000000 </v>
   <v>      -0.13636364       0.46666667       0.00000000 </v>
   <v>      -0.09090909       0.46666667       0.00000000 </v>
   <v>      -0.04545455       0.46666667       0.00000000 </v>
  </varray>
  <varray name="weights" >
   <v>       0.00303030 </v>
   <v>       0.00606061 </v>
   <v>       0.00606061 </v>
   <v>       0.00606061 </v>
   <v>       0.00606061 </v>
   <v>       0.00606061 </v>
   <v>       0.00606061 </v>
   <v>       0.00606061 </v>
   <v>       0.00606061 </v>
   <v>       0.00606061 </v>
   <v>       0.00606061 </v>
   <v>       0.00303030 </v>
   <v>       0.00606061 </v>
   <v>       0.00606061 </v>
   <v>       0.00606061 </v>
   <v>       0.00606061 </v>
   <v>       0.00606061 </v>
   <v>       0.00606061 </v>
   <v>       0.00606061 </v>
   <v>       0.00606061 </v>
   <v>       0.00606061 </v>
   <v>       0.00606061 </v>
   <v>       0.00606061 </v>
   <v>       0.00606061 </v>
   <v>       0.00606061 </v>
   <v>       0.00606061 </v>
   <v>       0.00606061 </v>
   <v>       0.00606061 </v>
   <v>       0.00606061 </v>
   <v>       0.00606061 </v>
   <v>       0.00606061 </v>
   <v>       0.00606061 </v>
   <v>       0.00606061 </v>
   <v>       0.00606061 </v>
   <v>       0.00606061 </v>
   <v>       0.00606061 </v>
   <v>       0.00606061 </v>
   <v>       0.00606061 </v>
   <v>       0.00606061 </v>
   <v>       0.00606061 </v>
   <v>       0.00606061 </v>
   <v>       0.00606061 </v>
   <v>       0.00606061 </v>
   <v>       0.00606061 </v>
   <v>       0.00606061 </v>
   <v>       0.00606061 </v>
   <v>       0.00606061 </v>
   <v>       0.00606061 </v>
   <v>       0.00606061 </v>
   <v>       0.00606061 </v>
   <v>       0.00606061 </v>
   <v>       0.00606061 </v>
   <v>       0.00606061 </v>
   <v>       0.00606061 </v>
   <v>       0.00606061 </v>
   <v>       0.00606061 </v>
   <v>       0.00606061 </v>
   <v>       0.00606061 </v>
   <v>       0.00606061 </v>
   <v>       0.00606061 </v>
   <v>       0.00606061 </v>
   <v>       0.00606061 </v>
   <v>       0.00606061 </v>
   <v>       0.00606061 </v>
   <v>       0.00606061 </v>
   <v>       0.00606061 </v>
   <v>       0.00606061 </v>
   <v>       0.00606061 </v>
   <v>       0.00606061 </v>
   <v>       0.00606061 </v>
   <v>       0.00606061 </v>
   <v>       0.00606061 </v>
   <v>       0.00606061 </v>
   <v>       0.00606061 </v>
   <v>       0.00606061 </v>
   <v>       0.00606061 </v>
   <v>       0.00606061 </v>
   <v>       0.00606061 </v>
   <v>       0.00606061 </v>
   <v>       0.00606061 </v>
   <v>       0.00606061 </v>
   <v>       0.00606061 </v>
   <v>       0.00606061 </v>
   <v>       0.00606061 </v>
   <v>       0.00606061 </v>
   <v>       0.00606061 </v>
   <v>       0.00606061 </v>
   <v>       0.00606061 </v>
   <v>       0.00606061 </v>
   <v>       0.00606061 </v>
   <v>       0.00606061 </v>
   <v>       0.00606061 </v>
   <v>       0.00606061 </v>
   <v>       0.00606061 </v>
   <v>       0.00606061 </v>
   <v>       0.00606061 </v>
   <v>       0.00606061 </v>
   <v>       0.00606061 </v>
   <v>       0.00606061 </v>
   <v>       0.00606061 </v>
   <v>       0.00606061 </v>
   <v>       0.00606061 </v>
   <v>       0.00606061 </v>
   <v>       0.00606061 </v>
   <v>       0.00606061 </v>
   <v>       0.00606061 </v>
   <v>       0.00606061 </v>
   <v>       0.00606061 </v>
   <v>       0.00606061 </v>
   <v>       0.00606061 </v>
   <v>       0.00606061 </v>
   <v>       0.00606061 </v>
   <v>       0.00606061 </v>
   <v>       0.00606061 </v>
   <v>       0.00606061 </v>
   <v>       0.00606061 </v>
   <v>       0.00606061 </v>
   <v>       0.00606061 </v>
   <v>       0.00606061 </v>
   <v>       0.00606061 </v>
   <v>       0.00606061 </v>
   <v>       0.00606061 </v>
   <v>       0.00606061 </v>
   <v>       0.00606061 </v>
   <v>       0.00606061 </v>
   <v>       0.00606061 </v>
   <v>       0.00606061 </v>
   <v>       0.00606061 </v>
   <v>       0.00606061 </v>
   <v>       0.00606061 </v>
   <v>       0.00606061 </v>
   <v>       0.00606061 </v>
   <v>       0.00606061 </v>
   <v>       0.00606061 </v>
   <v>       0.00606061 </v>
   <v>       0.00606061 </v>
   <v>       0.00606061 </v>
   <v>       0.00606061 </v>
   <v>       0.00606061 </v>
   <v>       0.00606061 </v>
   <v>       0.00606061 </v>
   <v>       0.00606061 </v>
   <v>       0.00606061 </v>
   <v>       0.00606061 </v>
   <v>       0.00606061 </v>
   <v>       0.00606061 </v>
   <v>       0.00606061 </v>
   <v>       0.00606061 </v>
   <v>       0.00606061 </v>
   <v>       0.00606061 </v>
   <v>       0.00606061 </v>
   <v>       0.00606061 </v>
   <v>       0.00606061 </v>
   <v>       0.00606061 </v>
   <v>       0.00606061 </v>
   <v>       0.00606061 </v>
   <v>       0.00606061 </v>
   <v>       0.00606061 </v>
   <v>       0.00606061 </v>
   <v>       0.00606061 </v>
   <v>       0.00606061 </v>
   <v>       0.00606061 </v>
   <v>       0.00606061 </v>
   <v>       0.00606061 </v>
   <v>       0.00606061 </v>
   <v>       0.00606061 </v>
  </varray>
 </kpoints>
 <parameters>
  <separator name="general" >
   <i type="string" name="SYSTEM">unknown system</i>
   <i type="logical" name="LCOMPAT"> F  </i>
  </separator>
  <separator name="electronic" >
   <i type="string" name="PREC">a</i>
   <i name="ENMAX">    520.00000000</i>
   <i name="ENAUG">    342.92400000</i>
   <i name="EDIFF">      0.00001000</i>
   <i type="int" name="IALGO">    38</i>
   <i type="int" name="IWAVPR">    11</i>
   <i type="int" name="NBANDS">    16</i>
   <i name="NELECT">     20.00000000</i>
   <i type="int" name="TURBO">     0</i>
   <i type="int" name="IRESTART">     0</i>
   <i type="int" name="NREBOOT">     0</i>
   <i type="int" name="NMIN">     0</i>
   <i name="EREF">      0.00000000</i>
   <separator name="electronic smearing" >
    <i type="int" name="ISMEAR">     0</i>
    <i name="SIGMA">      0.02000000</i>
    <i name="KSPACING">      0.50000000</i>
    <i type="logical" name="KGAMMA"> T  </i>
   </separator>
   <separator name="electronic projectors" >
    <i type="logical" name="LREAL"> F  </i>
    <v name="ROPT">      0.00000000</v>
    <i type="int" name="LMAXPAW">  -100</i>
    <i type="int" name="LMAXMIX">     2</i>
    <i type="logical" name="NLSPLINE"> F  </i>
   </separator>
   <separator name="electronic startup" >
    <i type="int" name="ISTART">     0</i>
    <i type="int" name="ICHARG">     2</i>
    <i type="int" name="INIWAV">     1</i>
   </separator>
   <separator name="electronic spin" >
    <i type="int" name="ISPIN">     1</i>
    <i type="logical" name="LNONCOLLINEAR"> F  </i>
    <v name="MAGMOM">      1.00000000      1.00000000      1.00000000      1.00000000</v>
    <i name="NUPDOWN">     -1.00000000</i>
    <i type="logical" name="LSORBIT"> F  </i>
    <v name="SAXIS">      0.00000000      0.00000000      1.00000000</v>
    <i type="logical" name="LSPIRAL"> F  </i>
    <v name="QSPIRAL">      0.00000000      0.00000000      0.00000000</v>
    <i type="logical" name="LZEROZ"> F  </i>
   </separator>
   <separator name="electronic exchange-correlation" >
    <i type="logical" name="LASPH"> F  </i>
    <i type="logical" name="LMETAGGA"> F  </i>
   </separator>
   <separator name="electronic convergence" >
    <i type="int" name="NELM">   250</i>
    <i type="int" name="NELMDL">    -5</i>
    <i type="int" name="NELMIN">     6</i>
    <i name="ENINI">    520.00000000</i>
    <separator name="electronic convergence detail" >
     <i type="logical" name="LDIAG"> T  </i>
     <i type="logical" name="LSUBROT"> F  </i>
     <i name="WEIMIN">      0.00100000</i>
     <i name="EBREAK">      0.00000016</i>
     <i name="DEPER">      0.30000000</i>
     <i type="int" name="NRMM">     4</i>
     <i name="TIME">      0.40000000</i>
    </separator>
   </separator>
   <separator name="electronic mixer" >
    <i name="AMIX">      0.40000000</i>
    <i name="BMIX">      1.00000000</i>
    <i name="AMIN">      0.10000000</i>
    <i name="AMIX_MAG">      1.60000000</i>
    <i name="BMIX_MAG">      1.00000000</i>
    <separator name="electronic mixer details" >
     <i type="int" name="IMIX">     4</i>
     <i type="logical" name="MIXFIRST"> F  </i>
     <i type="int" name="MAXMIX">   -45</i>
     <i name="WC">    100.00000000</i>
     <i type="int" name="INIMIX">     1</i>
     <i type="int" name="MIXPRE">     1</i>
     <i type="int" name="MREMOVE">     5</i>
    </separator>
   </separator>
   <separator name="electronic dipolcorrection" >
    <i type="logical" name="LDIPOL"> F  </i>
    <i type="logical" name="LMONO"> F  </i>
    <i type="int" name="IDIPOL">     0</i>
    <i name="EPSILON">      1.00000000</i>
    <v name="DIPOL">   -100.00000000   -100.00000000   -100.00000000</v>
    <i name="EFIELD">      0.00000000</i>
   </separator>
  </separator>
  <separator name="grids" >
   <i type="int" name="NGX">    24</i>
   <i type="int" name="NGY">    36</i>
   <i type="int" name="NGZ">   150</i>
   <i type="int" name="NGXF">    48</i>
   <i type="int" name="NGYF">    72</i>
   <i type="int" name="NGZF">   300</i>
   <i type="logical" name="ADDGRID"> F  </i>
  </separator>
  <separator name="ionic" >
   <i type="int" name="NSW">   200</i>
   <i type="int" name="IBRION">     2</i>
   <i type="int" name="ISIF">     2</i>
   <i name="PSTRESS">      0.00000000</i>
   <i name="EDIFFG">     -0.01000000</i>
   <i type="int" name="NFREE">     1</i>
   <i name="POTIM">      0.30000000</i>
   <i name="SMASS">     -3.00000000</i>
   <i name="SCALEE">      1.00000000</i>
  </separator>
  <separator name="ionic md" >
   <i name="TEBEG">      0.00010000</i>
   <i name="TEEND">      0.00010000</i>
   <i type="int" name="NBLOCK">     1</i>
   <i type="int" name="KBLOCK">   200</i>
   <i type="int" name="NPACO">   256</i>
   <i name="APACO">     16.00000000</i>
  </separator>
  <separator name="symmetry" >
   <i type="int" name="ISYM">     2</i>
   <i name="SYMPREC">      0.00001000</i>
  </separator>
  <separator name="dos" >
   <i type="logical" name="LORBIT"> F  </i>
   <v name="RWIGS">     -1.00000000</v>
   <i type="int" name="NEDOS">   301</i>
   <i name="EMIN">     10.00000000</i>
   <i name="EMAX">    -10.00000000</i>
   <i name="EFERMI">      0.00000000</i>
  </separator>
  <separator name="writing" >
   <i type="int" name="NWRITE">     2</i>
   <i type="logical" name="LWAVE"> F  </i>
   <i type="logical" name="LCHARG"> F  </i>
   <i type="logical" name="LPARD"> F  </i>
   <i type="logical" name="LVTOT"> F  </i>
   <i type="logical" name="LVHAR"> F  </i>
   <i type="logical" name="LELF"> F  </i>
   <i type="logical" name="LOPTICS"> F  </i>
   <v name="STM">      0.00000000      0.00000000      0.00000000      0.00000000      0.00000000      0.00000000      0.00000000</v>
  </separator>
  <separator name="performance" >
   <i type="int" name="NPAR">     4</i>
   <i type="int" name="NSIM">     4</i>
   <i type="int" name="NBLK">    -1</i>
   <i type="logical" name="LPLANE"> T  </i>
   <i type="logical" name="LSCALAPACK"> T  </i>
   <i type="logical" name="LSCAAWARE"> F  </i>
   <i type="logical" name="LSCALU"> F  </i>
   <i type="logical" name="LASYNC"> F  </i>
   <i type="logical" name="LORBITALREAL"> F  </i>
  </separator>
  <separator name="miscellaneous" >
   <i type="int" name="IDIOT">     3</i>
   <i type="logical" name="LMUSIC"> F  </i>
   <v name="POMASS">     30.97400000</v>
   <v name="DARWINR">      0.00000000</v>
   <v name="DARWINV">      1.00000000</v>
   <i type="logical" name="LCORR"> T  </i>
  </separator>
  <i type="logical" name="GGA_COMPAT"> T  </i>
  <i type="logical" name="LBERRY"> F  </i>
  <i type="int" name="ICORELEVEL">     0</i>
  <i type="logical" name="LDAU"> F  </i>
  <i type="int" name="I_CONSTRAINED_M">     0</i>
  <separator name="electronic exchange-correlation" >
   <i type="string" name="GGA">--</i>
   <i type="int" name="VOSKOWN">     0</i>
   <i type="logical" name="LHFCALC"> F  </i>
   <i type="string" name="PRECFOCK"></i>
   <i type="logical" name="LSYMGRAD"> F  </i>
   <i type="logical" name="LHFONE"> F  </i>
   <i type="logical" name="LRHFCALC"> F  </i>
   <i type="logical" name="LTHOMAS"> F  </i>
   <i type="logical" name="LMODELHF"> F  </i>
   <i name="ENCUT4O">     -1.00000000</i>
   <i type="int" name="EXXOEP">     0</i>
   <i type="int" name="FOURORBIT">     0</i>
   <i name="AEXX">      0.00000000</i>
   <i name="HFALPHA">      0.00000000</i>
   <i name="MCALPHA">      0.00000000</i>
   <i name="ALDAX">      1.00000000</i>
   <i name="AGGAX">      1.00000000</i>
   <i name="ALDAC">      1.00000000</i>
   <i name="AGGAC">      1.00000000</i>
   <i type="int" name="NKREDX">     1</i>
   <i type="int" name="NKREDY">     1</i>
   <i type="int" name="NKREDZ">     1</i>
   <i type="logical" name="SHIFTRED"> F  </i>
   <i type="logical" name="ODDONLY"> F  </i>
   <i type="logical" name="EVENONLY"> F  </i>
   <i type="int" name="LMAXFOCK">     0</i>
   <i type="int" name="NMAXFOCKAE">     0</i>
   <i type="logical" name="LFOCKAEDFT"> F  </i>
   <i name="HFSCREEN">      0.00000000</i>
   <i name="HFSCREENC">      0.00000000</i>
   <i type="int" name="NBANDSGWLOW">     0</i>
  </separator>
  <separator name="vdW DFT" >
   <i type="logical" name="LUSE_VDW"> F  </i>
   <i name="Zab_VDW">     -0.84910000</i>
   <i name="PARAM1">      0.12340000</i>
   <i name="PARAM2">      1.00000000</i>
   <i name="PARAM3">      0.00000000</i>
  </separator>
  <separator name="model GW" >
   <i type="int" name="MODEL_GW">     0</i>
   <i name="MODEL_EPS0">     45.33028775</i>
   <i name="MODEL_ALPHA">      1.00000000</i>
  </separator>
  <separator name="linear response parameters" >
   <i type="logical" name="LEPSILON"> F  </i>
   <i type="logical" name="LRPA"> F  </i>
   <i type="logical" name="LNABLA"> F  </i>
   <i type="logical" name="LVEL"> F  </i>
   <i type="int" name="KINTER">     0</i>
   <i name="CSHIFT">      0.10000000</i>
   <i name="OMEGAMAX">     -1.00000000</i>
   <i name="DEG_THRESHOLD">      0.00200000</i>
  </separator>
  <separator name="orbital magnetization" >
   <i type="logical" name="NUCIND"> F  </i>
   <v name="MAGPOS">      0.00000000      0.00000000      0.00000000</v>
   <i type="logical" name="LNICSALL"> T  </i>
   <i type="logical" name="ORBITALMAG"> F  </i>
   <i type="logical" name="LMAGBLOCH"> F  </i>
   <i type="logical" name="LCHIMAG"> F  </i>
   <i type="logical" name="LGAUGE"> T  </i>
   <i type="int" name="MAGATOM">     0</i>
   <v name="MAGDIPOL">      0.00000000      0.00000000      0.00000000</v>
   <v name="AVECCONST">      0.00000000      0.00000000      0.00000000</v>
  </separator>
  <separator name="response functions" >
   <i type="logical" name="LADDER"> F  </i>
   <i type="logical" name="LFXC"> F  </i>
   <i type="logical" name="LHARTREE"> T  </i>
   <i type="int" name="IBSE">     0</i>
   <v type="int" name="KPOINT">    -1     0     0     0</v>
   <i type="logical" name="LTCTE"> F  </i>
   <i type="logical" name="LTETE"> F  </i>
   <i type="logical" name="LTRIPLET"> F  </i>
   <i type="logical" name="LFXCEPS"> F  </i>
   <i type="logical" name="LFXHEG"> F  </i>
   <i type="int" name="NATURALO">     0</i>
   <i type="logical" name="L2ORDER"> F  </i>
   <i type="logical" name="LUSEW"> F  </i>
   <i name="ENCUTGW">     -2.00000000</i>
   <i name="ENCUTGWSOFT">     -2.00000000</i>
   <i name="ENCUTLF">     -1.00000000</i>
   <i type="int" name="LMAXMP2">    -1</i>
   <i name="SCISSOR">      0.00000000</i>
   <i type="int" name="NOMEGA">     0</i>
   <i type="int" name="NOMEGAR">     0</i>
   <i type="int" name="NBANDSGW">    -1</i>
   <i type="int" name="NBANDSO">    -1</i>
   <i type="int" name="NBANDSV">    -1</i>
   <i type="int" name="NELM">   250</i>
   <i type="int" name="NELMHF">     1</i>
   <i type="int" name="DIM">     3</i>
   <i type="int" name="ANTIRES">     0</i>
   <i name="OMEGAMAX">    -30.00000000</i>
   <i name="OMEGAMIN">    -30.00000000</i>
   <i name="OMEGATL">   -200.00000000</i>
   <i type="int" name="OMEGAGRID">     0</i>
   <i name="CSHIFT">     -0.10000000</i>
   <i type="logical" name="SELFENERGY"> F  </i>
   <i type="logical" name="LSPECTRAL"> F  </i>
   <i type="logical" name="LSPECTRALGW"> F  </i>
   <i type="logical" name="LSINGLES"> F  </i>
   <i type="logical" name="LFERMIGW"> F  </i>
   <i type="logical" name="ODDONLYGW"> F  </i>
   <i type="logical" name="EVENONLYGW"> F  </i>
   <i type="int" name="NKREDLFX">     1</i>
   <i type="int" name="NKREDLFY">     1</i>
   <i type="int" name="NKREDLFZ">     1</i>
   <i type="int" name="MAXMEM">  1800</i>
   <i type="int" name="TELESCOPE">     0</i>
   <i type="int" name="TAUPAR">     1</i>
   <i type="int" name="OMEGAPAR">    -1</i>
   <i name="LAMBDA">      1.00000000</i>
  </separator>
  <separator name="External order field" >
   <i name="OFIELD_KAPPA">      0.00000000</i>
   <v name="OFIELD_K">      0.00000000      0.00000000      0.00000000</v>
   <i name="OFIELD_Q6_NEAR">      0.00000000</i>
   <i name="OFIELD_Q6_FAR">      0.00000000</i>
   <i name="OFIELD_A">      0.00000000</i>
  </separator>
 </parameters>
 <atominfo>
  <atoms>       4 </atoms>
  <types>       1 </types>
  <array name="atoms" >
   <dimension dim="1">ion</dimension>
   <field type="string">element</field>
   <field type="int">atomtype</field>
   <set>
    <rc><c>P </c><c>   1</c></rc>
    <rc><c>P </c><c>   1</c></rc>
    <rc><c>P </c><c>   1</c></rc>
    <rc><c>P </c><c>   1</c></rc>
   </set>
  </array>
  <array name="atomtypes" >
   <dimension dim="1">type</dimension>
   <field type="int">atomspertype</field>
   <field type="string">element</field>
   <field>mass</field>
   <field>valence</field>
   <field type="string">pseudopotential</field>
   <set>
    <rc><c>   4</c><c>P </c><c>     30.97400000</c><c>      5.00000000</c><c>  PAW_PBE P 06Sep2000                   </c></rc>
   </set>
  </array>
 </atominfo>
 <structure name="initialpos" >
  <crystal>
   <varray name="basis" >
    <v>       3.28067700       0.00000000       0.00000000 </v>
    <v>       0.00000000       4.60017600      -0.00005300 </v>
    <v>       0.00000000       0.00000000      20.02439000 </v>
   </varray>
   <i name="volume">    302.20191834 </i>
   <varray name="rec_basis" >
    <v>       0.30481513       0.00000000       0.00000000 </v>
    <v>       0.00000000       0.21738299       0.00000000 </v>
    <v>       0.00000000       0.00000058       0.04993910 </v>
   </varray>
  </crystal>
  <varray name="positions" >
   <v>       0.50000000       0.91077300       0.55252100 </v>
   <v>       0.50000000       0.08922700       0.44747900 </v>
   <v>       0.00000000       0.41076900       0.44747900 </v>
   <v>       0.00000000       0.58923100       0.55252100 </v>
  </varray>
 </structure>
 <calculation>
  <scstep>
   <time name="dav">    1.30    1.31</time>
   <time name="total">    1.32    1.33</time>
   <energy>
    <i name="alphaZ">      5.30824241 </i>
    <i name="ewald">   1886.93527660 </i>
    <i name="hartreedc">  -2480.49936629 </i>
    <i name="XCdc">     13.12220923 </i>
    <i name="pawpsdc">    559.04011960 </i>
    <i name="pawaedc">   -526.39432044 </i>
    <i name="eentropy">     -0.00033317 </i>
    <i name="bandstr">    -28.31100939 </i>
    <i name="atom">    704.16778566 </i>
    <i name="e_fr_energy">    133.36860421 </i>
    <i name="e_wo_entrp">    133.36893739 </i>
    <i name="e_0_energy">    133.36877080 </i>
   </energy>
  </scstep>
  <scstep>
   <time name="dav">    1.75    1.75</time>
   <time name="total">    1.75    1.76</time>
   <energy>
    <i name="e_fr_energy">     -6.46662723 </i>
    <i name="e_wo_entrp">     -6.46662723 </i>
    <i name="e_0_energy">     -6.46662723 </i>
   </energy>
  </scstep>
  <scstep>
   <time name="dav">    1.61    1.61</time>
   <time name="total">    1.61    1.61</time>
   <energy>
    <i name="e_fr_energy">    -21.36275687 </i>
    <i name="e_wo_entrp">    -21.36275687 </i>
    <i name="e_0_energy">    -21.36275687 </i>
   </energy>
  </scstep>
  <scstep>
   <time name="dav">    1.63    1.63</time>
   <time name="total">    1.63    1.63</time>
   <energy>
    <i name="e_fr_energy">    -21.66651402 </i>
    <i name="e_wo_entrp">    -21.66651402 </i>
    <i name="e_0_energy">    -21.66651402 </i>
   </energy>
  </scstep>
  <scstep>
   <time name="dav">    1.74    1.75</time>
   <time name="total">    1.82    1.82</time>
   <energy>
    <i name="e_fr_energy">    -21.67571516 </i>
    <i name="e_wo_entrp">    -21.67571516 </i>
    <i name="e_0_energy">    -21.67571516 </i>
   </energy>
  </scstep>
  <scstep>
   <time name="dav">    1.54    1.54</time>
   <time name="total">    1.63    1.63</time>
   <energy>
    <i name="e_fr_energy">    -21.52486848 </i>
    <i name="e_wo_entrp">    -21.52486848 </i>
    <i name="e_0_energy">    -21.52486848 </i>
   </energy>
  </scstep>
  <scstep>
   <time name="dav">    1.52    1.52</time>
   <time name="total">    1.61    1.61</time>
   <energy>
    <i name="e_fr_energy">    -21.45460489 </i>
    <i name="e_wo_entrp">    -21.45460489 </i>
    <i name="e_0_energy">    -21.45460489 </i>
   </energy>
  </scstep>
  <scstep>
   <time name="dav">    1.59    1.59</time>
   <time name="total">    1.67    1.68</time>
   <energy>
    <i name="e_fr_energy">    -21.45377855 </i>
    <i name="e_wo_entrp">    -21.45377855 </i>
    <i name="e_0_energy">    -21.45377855 </i>
   </energy>
  </scstep>
  <scstep>
   <time name="dav">    1.83    1.83</time>
   <time name="total">    1.92    1.92</time>
   <energy>
    <i name="e_fr_energy">    -21.45362235 </i>
    <i name="e_wo_entrp">    -21.45362235 </i>
    <i name="e_0_energy">    -21.45362235 </i>
   </energy>
  </scstep>
  <scstep>
   <time name="dav">    1.56    1.56</time>
   <time name="total">    1.64    1.64</time>
   <energy>
    <i name="e_fr_energy">    -21.45341930 </i>
    <i name="e_wo_entrp">    -21.45341930 </i>
    <i name="e_0_energy">    -21.45341930 </i>
   </energy>
  </scstep>
  <scstep>
   <time name="dav">    1.59    1.59</time>
   <time name="total">    1.67    1.67</time>
   <energy>
    <i name="e_fr_energy">    -21.45331018 </i>
    <i name="e_wo_entrp">    -21.45331018 </i>
    <i name="e_0_energy">    -21.45331018 </i>
   </energy>
  </scstep>
  <scstep>
   <time name="dav">    1.42    1.42</time>
   <time name="total">    1.51    1.51</time>
   <energy>
    <i name="e_fr_energy">    -21.45371401 </i>
    <i name="e_wo_entrp">    -21.45371401 </i>
    <i name="e_0_energy">    -21.45371401 </i>
   </energy>
  </scstep>
  <scstep>
   <time name="dav">    1.41    1.41</time>
   <time name="total">    1.50    1.50</time>
   <energy>
    <i name="e_fr_energy">    -21.45380486 </i>
    <i name="e_wo_entrp">    -21.45380486 </i>
    <i name="e_0_energy">    -21.45380486 </i>
   </energy>
  </scstep>
  <scstep>
   <time name="dav">    1.30    1.30</time>
   <time name="total">    1.38    1.38</time>
   <energy>
    <i name="e_fr_energy">    -21.45394573 </i>
    <i name="e_wo_entrp">    -21.45394573 </i>
    <i name="e_0_energy">    -21.45394573 </i>
   </energy>
  </scstep>
  <scstep>
   <time name="dav">    1.34    1.34</time>
   <time name="total">    1.43    1.43</time>
   <energy>
    <i name="e_fr_energy">    -21.45398930 </i>
    <i name="e_wo_entrp">    -21.45398930 </i>
    <i name="e_0_energy">    -21.45398930 </i>
   </energy>
  </scstep>
  <scstep>
   <time name="dav">    1.28    1.28</time>
   <time name="total">    1.37    1.37</time>
   <energy>
    <i name="e_fr_energy">    -21.45402224 </i>
    <i name="e_wo_entrp">    -21.45402224 </i>
    <i name="e_0_energy">    -21.45402224 </i>
   </energy>
  </scstep>
  <scstep>
   <time name="dav">    1.29    1.29</time>
   <time name="total">    1.31    1.31</time>
   <energy>
    <i name="alphaZ">      5.30824241 </i>
    <i name="ewald">   1886.93527660 </i>
    <i name="hartreedc">  -2496.32329862 </i>
    <i name="XCdc">     14.20496801 </i>
    <i name="pawpsdc">   2147.07978337 </i>
    <i name="pawaedc">  -2114.78843123 </i>
    <i name="eentropy">     -0.00000000 </i>
    <i name="bandstr">   -168.03835071 </i>
    <i name="atom">    704.16778566 </i>
    <i name="e_fr_energy">    -21.45402449 </i>
    <i name="e_wo_entrp">    -21.45402449 </i>
    <i name="e_0_energy">    -21.45402449 </i>
   </energy>
  </scstep>
  <structure>
   <crystal>
    <varray name="basis" >
     <v>       3.28067700       0.00000000       0.00000000 </v>
     <v>       0.00000000       4.60017600      -0.00005300 </v>
     <v>       0.00000000       0.00000000      20.02439000 </v>
    </varray>
    <i name="volume">    302.20191834 </i>
    <varray name="rec_basis" >
     <v>       0.30481513       0.00000000       0.00000000 </v>
     <v>       0.00000000       0.21738299       0.00000000 </v>
     <v>       0.00000000       0.00000058       0.04993910 </v>
    </varray>
   </crystal>
   <varray name="positions" >
    <v>       0.50000000       0.91077300       0.55252100 </v>
    <v>       0.50000000       0.08922700       0.44747900 </v>
    <v>       0.00000000       0.41076900       0.44747900 </v>
    <v>       0.00000000       0.58923100       0.55252100 </v>
   </varray>
  </structure>
  <varray name="forces" >
   <v>       0.00000009       0.10240736       0.01624679 </v>
   <v>      -0.00000009      -0.10240736      -0.01624679 </v>
   <v>       0.00000000       0.10237368      -0.01624537 </v>
   <v>      -0.00000000      -0.10237368       0.01624537 </v>
  </varray>
  <varray name="stress" >
   <v>       3.78834816      -0.00000325       0.00000042 </v>
   <v>      -0.00000326       2.69280535       0.00033647 </v>
   <v>       0.00000041       0.00033645       0.29772743 </v>
  </varray>
  <energy>
   <i name="e_fr_energy">    -21.45402449 </i>
   <i name="e_wo_entrp">    -21.45402449 </i>
   <i name="e_0_energy">     -0.00000000 </i>
  </energy>
  <time name="totalsc">   27.53   27.57</time>
 </calculation>
 <calculation>
  <scstep>
   <time name="dav">    1.39    1.39</time>
   <time name="total">    1.47    1.48</time>
   <energy>
    <i name="alphaZ">      5.30824241 </i>
    <i name="ewald">   1886.04346556 </i>
    <i name="hartreedc">  -2495.62236806 </i>
    <i name="XCdc">     14.18814751 </i>
    <i name="pawpsdc">   2146.69404893 </i>
    <i name="pawaedc">  -2114.40274928 </i>
    <i name="eentropy">     -0.00000000 </i>
    <i name="bandstr">   -167.83134741 </i>
    <i name="atom">    704.16778566 </i>
    <i name="e_fr_energy">    -21.45477469 </i>
    <i name="e_wo_entrp">    -21.45477469 </i>
    <i name="e_0_energy">    -21.45477469 </i>
   </energy>
  </scstep>
  <scstep>
   <time name="dav">    1.67    1.67</time>
   <time name="total">    1.75    1.76</time>
   <energy>
    <i name="e_fr_energy">    -21.45489392 </i>
    <i name="e_wo_entrp">    -21.45489392 </i>
    <i name="e_0_energy">    -21.45489392 </i>
   </energy>
  </scstep>
  <scstep>
   <time name="dav">    1.55    1.55</time>
   <time name="total">    1.63    1.64</time>
   <energy>
    <i name="e_fr_energy">    -21.45489235 </i>
    <i name="e_wo_entrp">    -21.45489235 </i>
    <i name="e_0_energy">    -21.45489235 </i>
   </energy>
  </scstep>
  <scstep>
   <time name="dav">    1.24    1.24</time>
   <time name="total">    1.33    1.33</time>
   <energy>
    <i name="e_fr_energy">    -21.45489352 </i>
    <i name="e_wo_entrp">    -21.45489352 </i>
    <i name="e_0_energy">    -21.45489352 </i>
   </energy>
  </scstep>
  <scstep>
   <time name="dav">    1.14    1.14</time>
   <time name="total">    1.22    1.23</time>
   <energy>
    <i name="e_fr_energy">    -21.45489397 </i>
    <i name="e_wo_entrp">    -21.45489397 </i>
    <i name="e_0_energy">    -21.45489397 </i>
   </energy>
  </scstep>
  <scstep>
   <time name="dav">    1.11    1.11</time>
   <time name="total">    1.12    1.12</time>
   <energy>
    <i name="alphaZ">      5.30824241 </i>
    <i name="ewald">   1886.04346556 </i>
    <i name="hartreedc">  -2495.62082381 </i>
    <i name="XCdc">     14.18601682 </i>
    <i name="pawpsdc">   2135.26469059 </i>
    <i name="pawaedc">  -2102.96908346 </i>
    <i name="eentropy">     -0.00000000 </i>
    <i name="bandstr">   -167.83518829 </i>
    <i name="atom">    704.16778566 </i>
    <i name="e_fr_energy">    -21.45489451 </i>
    <i name="e_wo_entrp">    -21.45489451 </i>
    <i name="e_0_energy">    -21.45489451 </i>
   </energy>
  </scstep>
  <structure>
   <crystal>
    <varray name="basis" >
     <v>       3.28067700       0.00000000       0.00000000 </v>
     <v>       0.00000000       4.60017600      -0.00005300 </v>
     <v>       0.00000000       0.00000000      20.02439000 </v>
    </varray>
    <i name="volume">    302.20191834 </i>
    <varray name="rec_basis" >
     <v>       0.30481513       0.00000000       0.00000000 </v>
     <v>       0.00000000       0.21738299       0.00000000 </v>
     <v>       0.00000000       0.00000058       0.04993910 </v>
    </varray>
   </crystal>
   <varray name="positions" >
    <v>       0.50000000       0.91141738       0.55254449 </v>
    <v>       0.50000000       0.08858262       0.44745551 </v>
    <v>       0.00000000       0.41141316       0.44745552 </v>
    <v>      -0.00000000       0.58858684       0.55254448 </v>
   </varray>
  </structure>
  <varray name="forces" >
   <v>       0.00000010       0.03659824       0.01872172 </v>
   <v>      -0.00000010      -0.03659824      -0.01872172 </v>
   <v>       0.00000006       0.03657001      -0.01872204 </v>
   <v>      -0.00000006      -0.03657001       0.01872204 </v>
  </varray>
  <varray name="stress" >
   <v>       3.46440618      -0.00000087       0.00000014 </v>
   <v>      -0.00000094       1.74136438       0.00028614 </v>
   <v>       0.00000009       0.00028621       0.35977897 </v>
  </varray>
  <energy>
   <i name="e_fr_energy">    -21.45489451 </i>
   <i name="e_wo_entrp">    -21.45489451 </i>
   <i name="e_0_energy">     -0.00000000 </i>
  </energy>
  <time name="totalsc">    9.30    9.32</time>
 </calculation>
 <calculation>
  <scstep>
   <time name="dav">    1.38    1.38</time>
   <time name="total">    1.46    1.47</time>
   <energy>
    <i name="alphaZ">      5.30824241 </i>
    <i name="ewald">   1885.50555301 </i>
    <i name="hartreedc">  -2495.19286621 </i>
    <i name="XCdc">     14.17586960 </i>
    <i name="pawpsdc">   2135.13436422 </i>
    <i name="pawaedc">  -2102.83876858 </i>
    <i name="eentropy">     -0.00000000 </i>
    <i name="bandstr">   -167.71517591 </i>
    <i name="atom">    704.16778566 </i>
    <i name="e_fr_energy">    -21.45499579 </i>
    <i name="e_wo_entrp">    -21.45499579 </i>
    <i name="e_0_energy">    -21.45499579 </i>
   </energy>
  </scstep>
  <scstep>
   <time name="dav">    1.65    1.65</time>
   <time name="total">    1.74    1.74</time>
   <energy>
    <i name="e_fr_energy">    -21.45503865 </i>
    <i name="e_wo_entrp">    -21.45503865 </i>
    <i name="e_0_energy">    -21.45503865 </i>
   </energy>
  </scstep>
  <scstep>
   <time name="dav">    1.28    1.28</time>
   <time name="total">    1.36    1.36</time>
   <energy>
    <i name="e_fr_energy">    -21.45503733 </i>
    <i name="e_wo_entrp">    -21.45503733 </i>
    <i name="e_0_energy">    -21.45503733 </i>
   </energy>
  </scstep>
  <scstep>
   <time name="dav">    1.09    1.09</time>
   <time name="total">    1.17    1.18</time>
   <energy>
    <i name="e_fr_energy">    -21.45503669 </i>
    <i name="e_wo_entrp">    -21.45503669 </i>
    <i name="e_0_energy">    -21.45503669 </i>
   </energy>
  </scstep>
  <scstep>
   <time name="dav">    1.01    1.01</time>
   <time name="total">    1.10    1.10</time>
   <energy>
    <i name="e_fr_energy">    -21.45503686 </i>
    <i name="e_wo_entrp">    -21.45503686 </i>
    <i name="e_0_energy">    -21.45503686 </i>
   </energy>
  </scstep>
  <scstep>
   <time name="dav">    0.99    0.99</time>
   <time name="total">    1.01    1.01</time>
   <energy>
    <i name="alphaZ">      5.30824241 </i>
    <i name="ewald">   1885.50555301 </i>
    <i name="hartreedc">  -2495.19619308 </i>
    <i name="XCdc">     14.17467399 </i>
    <i name="pawpsdc">   2128.27257557 </i>
    <i name="pawaedc">  -2095.97443592 </i>
    <i name="eentropy">     -0.00000000 </i>
    <i name="bandstr">   -167.71323854 </i>
    <i name="atom">    704.16778566 </i>
    <i name="e_fr_energy">    -21.45503690 </i>
    <i name="e_wo_entrp">    -21.45503690 </i>
    <i name="e_0_energy">    -21.45503690 </i>
   </energy>
  </scstep>
  <structure>
   <crystal>
    <varray name="basis" >
     <v>       3.28067700       0.00000000       0.00000000 </v>
     <v>       0.00000000       4.60017600      -0.00005300 </v>
     <v>       0.00000000       0.00000000      20.02439000 </v>
    </varray>
    <i name="volume">    302.20191834 </i>
    <varray name="rec_basis" >
     <v>       0.30481513       0.00000000       0.00000000 </v>
     <v>       0.00000000       0.21738299       0.00000000 </v>
     <v>       0.00000000       0.00000058       0.04993910 </v>
    </varray>
   </crystal>
   <varray name="positions" >
    <v>       0.50000000       0.91180702       0.55255869 </v>
    <v>       0.50000000       0.08819298       0.44744131 </v>
    <v>       0.00000000       0.41180268       0.44744132 </v>
    <v>      -0.00000000       0.58819732       0.55255868 </v>
   </varray>
  </structure>
  <varray name="forces" >
   <v>      -0.00000003      -0.00276056       0.02008521 </v>
   <v>       0.00000003       0.00276056      -0.02008521 </v>
   <v>      -0.00000006      -0.00278537      -0.02008608 </v>
   <v>       0.00000006       0.00278537       0.02008608 </v>
  </varray>
  <varray name="stress" >
   <v>       3.27932129       0.00000093      -0.00000020 </v>
   <v>       0.00000096       1.16651093       0.00025568 </v>
   <v>      -0.00000025       0.00025567       0.38584765 </v>
  </varray>
  <energy>
   <i name="e_fr_energy">    -21.45503690 </i>
   <i name="e_wo_entrp">    -21.45503690 </i>
   <i name="e_0_energy">     -0.00000000 </i>
  </energy>
  <time name="totalsc">    8.61    8.62</time>
 </calculation>
 <calculation>
  <scstep>
   <time name="dav">    1.27    1.27</time>
   <time name="total">    1.36    1.36</time>
   <energy>
    <i name="alphaZ">      5.30824241 </i>
    <i name="ewald">   1884.87757803 </i>
    <i name="hartreedc">  -2494.60547571 </i>
    <i name="XCdc">     14.17040686 </i>
    <i name="pawpsdc">   2128.15930960 </i>
    <i name="pawaedc">  -2095.86116986 </i>
    <i name="eentropy">     -0.00000000 </i>
    <i name="bandstr">   -167.67174687 </i>
    <i name="atom">    704.16778566 </i>
    <i name="e_fr_energy">    -21.45506988 </i>
    <i name="e_wo_entrp">    -21.45506988 </i>
    <i name="e_0_energy">    -21.45506988 </i>
   </energy>
  </scstep>
  <scstep>
   <time name="dav">    1.54    1.54</time>
   <time name="total">    1.62    1.63</time>
   <energy>
    <i name="e_fr_energy">    -21.45507724 </i>
    <i name="e_wo_entrp">    -21.45507724 </i>
    <i name="e_0_energy">    -21.45507724 </i>
   </energy>
  </scstep>
  <scstep>
   <time name="dav">    1.02    1.02</time>
   <time name="total">    1.10    1.11</time>
   <energy>
    <i name="e_fr_energy">    -21.45507678 </i>
    <i name="e_wo_entrp">    -21.45507678 </i>
    <i name="e_0_energy">    -21.45507678 </i>
   </energy>
  </scstep>
  <scstep>
   <time name="dav">    0.99    0.99</time>
   <time name="total">    1.08    1.08</time>
   <energy>
    <i name="e_fr_energy">    -21.45507666 </i>
    <i name="e_wo_entrp">    -21.45507666 </i>
    <i name="e_0_energy">    -21.45507666 </i>
   </energy>
  </scstep>
  <scstep>
   <time name="dav">    0.99    0.99</time>
   <time name="total">    1.07    1.07</time>
   <energy>
    <i name="e_fr_energy">    -21.45507672 </i>
    <i name="e_wo_entrp">    -21.45507672 </i>
    <i name="e_0_energy">    -21.45507672 </i>
   </energy>
  </scstep>
  <scstep>
   <time name="dav">    0.99    0.99</time>
   <time name="total">    1.00    1.00</time>
   <energy>
    <i name="alphaZ">      5.30824241 </i>
    <i name="ewald">   1884.87757803 </i>
    <i name="hartreedc">  -2494.60956575 </i>
    <i name="XCdc">     14.17013413 </i>
    <i name="pawpsdc">   2125.88209442 </i>
    <i name="pawaedc">  -2093.58323189 </i>
    <i name="eentropy">     -0.00000000 </i>
    <i name="bandstr">   -167.66811374 </i>
    <i name="atom">    704.16778566 </i>
    <i name="e_fr_energy">    -21.45507673 </i>
    <i name="e_wo_entrp">    -21.45507673 </i>
    <i name="e_0_energy">    -21.45507673 </i>
   </energy>
  </scstep>
  <structure>
   <crystal>
    <varray name="basis" >
     <v>       3.28067700       0.00000000       0.00000000 </v>
     <v>       0.00000000       4.60017600      -0.00005300 </v>
     <v>       0.00000000       0.00000000      20.02439000 </v>
    </varray>
    <i name="volume">    302.20191834 </i>
    <varray name="rec_basis" >
     <v>       0.30481513       0.00000000       0.00000000 </v>
     <v>       0.00000000       0.21738299       0.00000000 </v>
     <v>       0.00000000       0.00000058       0.04993910 </v>
    </varray>
   </crystal>
   <varray name="positions" >
    <v>       0.50000000       0.91181233       0.55259214 </v>
    <v>       0.50000000       0.08818767       0.44740786 </v>
    <v>      -0.00000000       0.41180781       0.44740787 </v>
    <v>       0.00000000       0.58819219       0.55259213 </v>
   </varray>
  </structure>
  <varray name="forces" >
   <v>      -0.00000000      -0.00110399       0.01017299 </v>
   <v>       0.00000000       0.00110399      -0.01017299 </v>
   <v>      -0.00000001      -0.00112372      -0.01017361 </v>
   <v>       0.00000001       0.00112372       0.01017361 </v>
  </varray>
  <varray name="stress" >
   <v>       3.26148088      -0.00000004      -0.00000011 </v>
   <v>      -0.00000004       1.12329318       0.00020047 </v>
   <v>      -0.00000011       0.00020043       0.16067816 </v>
  </varray>
  <energy>
   <i name="e_fr_energy">    -21.45507673 </i>
   <i name="e_wo_entrp">    -21.45507673 </i>
   <i name="e_0_energy">     -0.00000000 </i>
  </energy>
  <time name="totalsc">    8.01    8.02</time>
 </calculation>
 <calculation>
  <scstep>
   <time name="dav">    1.27    1.27</time>
   <time name="total">    1.36    1.36</time>
   <energy>
    <i name="alphaZ">      5.30824241 </i>
    <i name="ewald">   1884.23182888 </i>
    <i name="hartreedc">  -2494.00204329 </i>
    <i name="XCdc">     14.16578068 </i>
    <i name="pawpsdc">   2125.84015333 </i>
    <i name="pawaedc">  -2093.54130184 </i>
    <i name="eentropy">     -0.00000000 </i>
    <i name="bandstr">   -167.62552897 </i>
    <i name="atom">    704.16778566 </i>
    <i name="e_fr_energy">    -21.45508313 </i>
    <i name="e_wo_entrp">    -21.45508313 </i>
    <i name="e_0_energy">    -21.45508313 </i>
   </energy>
  </scstep>
  <scstep>
   <time name="dav">    1.57    1.57</time>
   <time name="total">    1.65    1.65</time>
   <energy>
    <i name="e_fr_energy">    -21.45509096 </i>
    <i name="e_wo_entrp">    -21.45509096 </i>
    <i name="e_0_energy">    -21.45509096 </i>
   </energy>
  </scstep>
  <scstep>
   <time name="dav">    1.03    1.03</time>
   <time name="total">    1.11    1.11</time>
   <energy>
    <i name="e_fr_energy">    -21.45509049 </i>
    <i name="e_wo_entrp">    -21.45509049 </i>
    <i name="e_0_energy">    -21.45509049 </i>
   </energy>
  </scstep>
  <scstep>
   <time name="dav">    0.98    0.98</time>
   <time name="total">    1.06    1.06</time>
   <energy>
    <i name="e_fr_energy">    -21.45509034 </i>
    <i name="e_wo_entrp">    -21.45509034 </i>
    <i name="e_0_energy">    -21.45509034 </i>
   </energy>
  </scstep>
  <scstep>
   <time name="dav">    1.00    1.00</time>
   <time name="total">    1.08    1.08</time>
   <energy>
    <i name="e_fr_energy">    -21.45509037 </i>
    <i name="e_wo_entrp">    -21.45509037 </i>
    <i name="e_0_energy">    -21.45509037 </i>
   </energy>
  </scstep>
  <scstep>
   <time name="dav">    1.00    1.00</time>
   <time name="total">    1.01    1.01</time>
   <energy>
    <i name="alphaZ">      5.30824241 </i>
    <i name="ewald">   1884.23182888 </i>
    <i name="hartreedc">  -2494.00331082 </i>
    <i name="XCdc">     14.16548965 </i>
    <i name="pawpsdc">   2123.67916970 </i>
    <i name="pawaedc">  -2091.37957070 </i>
    <i name="eentropy">     -0.00000000 </i>
    <i name="bandstr">   -167.62472515 </i>
    <i name="atom">    704.16778566 </i>
    <i name="e_fr_energy">    -21.45509037 </i>
    <i name="e_wo_entrp">    -21.45509037 </i>
    <i name="e_0_energy">    -21.45509037 </i>
   </energy>
  </scstep>
  <structure>
   <crystal>
    <varray name="basis" >
     <v>       3.28067700       0.00000000       0.00000000 </v>
     <v>       0.00000000       4.60017600      -0.00005300 </v>
     <v>       0.00000000       0.00000000      20.02439000 </v>
    </varray>
    <i name="volume">    302.20191834 </i>
    <varray name="rec_basis" >
     <v>       0.30481513       0.00000000       0.00000000 </v>
     <v>       0.00000000       0.21738299       0.00000000 </v>
     <v>       0.00000000       0.00000058       0.04993910 </v>
    </varray>
   </crystal>
   <varray name="positions" >
    <v>       0.50000000       0.91181779       0.55262654 </v>
    <v>       0.50000000       0.08818221       0.44737346 </v>
    <v>      -0.00000000       0.41181308       0.44737347 </v>
    <v>       0.00000000       0.58818692       0.55262653 </v>
   </varray>
  </structure>
  <varray name="forces" >
   <v>       0.00000003       0.00044467       0.00014649 </v>
   <v>      -0.00000003      -0.00044467      -0.00014649 </v>
   <v>       0.00000004       0.00043007      -0.00014687 </v>
   <v>      -0.00000004      -0.00043007       0.00014687 </v>
  </varray>
  <varray name="stress" >
   <v>       3.23986814      -0.00000007      -0.00000017 </v>
   <v>      -0.00000011       1.07842843       0.00014365 </v>
   <v>      -0.00000017       0.00014369      -0.06417453 </v>
  </varray>
  <energy>
   <i name="e_fr_energy">    -21.45509037 </i>
   <i name="e_wo_entrp">    -21.45509037 </i>
   <i name="e_0_energy">     -0.00000000 </i>
  </energy>
  <time name="totalsc">    7.97    7.99</time>
  <eigenvalues>
   <array>
    <dimension dim="1">band</dimension>
    <dimension dim="2">kpoint</dimension>
    <dimension dim="3">spin</dimension>
    <field>eigene</field>
    <field>occ</field>
    <set>
     <set comment="spin 1">
      <set comment="kpoint 1">
       <r>  -17.2462    1.0000 </r>
       <r>  -14.7792    1.0000 </r>
       <r>  -11.3873    1.0000 </r>
       <r>   -7.9395    1.0000 </r>
       <r>   -6.9343    1.0000 </r>
       <r>   -6.7821    1.0000 </r>
       <r>   -5.5069    1.0000 </r>
       <r>   -3.9489    1.0000 </r>
       <r>   -3.9246    1.0000 </r>
       <r>   -2.2438    1.0000 </r>
       <r>   -1.3880    0.0000 </r>
       <r>   -0.5265    0.0000 </r>
       <r>    0.5416    0.0000 </r>
       <r>    1.1564    0.0000 </r>
       <r>    2.1527    0.0000 </r>
       <r>    2.3114    0.0000 </r>
      </set>
      <set comment="kpoint 2">
       <r>  -17.2212    1.0000 </r>
       <r>  -14.7532    1.0000 </r>
       <r>  -11.3950    1.0000 </r>
       <r>   -7.9204    1.0000 </r>
       <r>   -6.9488    1.0000 </r>
       <r>   -6.7600    1.0000 </r>
       <r>   -5.6723    1.0000 </r>
       <r>   -4.0982    1.0000 </r>
       <r>   -3.9378    1.0000 </r>
       <r>   -2.2422    1.0000 </r>
       <r>   -1.3645    0.0000 </r>
       <r>   -0.2998    0.0000 </r>
       <r>    0.7663    0.0000 </r>
       <r>    0.9989    0.0000 </r>
       <r>    2.1787    0.0000 </r>
       <r>    2.3393    0.0000 </r>
      </set>
      <set comment="kpoint 3">
       <r>  -17.1465    1.0000 </r>
       <r>  -14.6753    1.0000 </r>
       <r>  -11.4225    1.0000 </r>
       <r>   -7.8635    1.0000 </r>
       <r>   -7.0083    1.0000 </r>
       <r>   -6.6940    1.0000 </r>
       <r>   -6.0811    1.0000 </r>
       <r>   -4.5080    1.0000 </r>
       <r>   -3.9072    1.0000 </r>
       <r>   -2.2557    1.0000 </r>
       <r>   -1.2942    0.0000 </r>
       <r>    0.3118    0.0000 </r>
       <r>    0.6037    0.0000 </r>
       <r>    1.3243    0.0000 </r>
       <r>    2.2538    0.0000 </r>
       <r>    2.4227    0.0000 </r>
      </set>
      <set comment="kpoint 4">
       <r>  -17.0222    1.0000 </r>
       <r>  -14.5455    1.0000 </r>
       <r>  -11.4839    1.0000 </r>
       <r>   -7.7708    1.0000 </r>
       <r>   -7.1653    1.0000 </r>
       <r>   -6.5853    1.0000 </r>
       <r>   -6.5783    1.0000 </r>
       <r>   -4.9472    1.0000 </r>
       <r>   -3.8662    1.0000 </r>
       <r>   -2.3048    1.0000 </r>
       <r>   -1.1781    0.0000 </r>
       <r>    0.1057    0.0000 </r>
       <r>    1.1738    0.0000 </r>
       <r>    1.9425    0.0000 </r>
       <r>    2.3493    0.0000 </r>
       <r>    2.5609    0.0000 </r>
      </set>
      <set comment="kpoint 5">
       <r>  -16.8490    1.0000 </r>
       <r>  -14.3641    1.0000 </r>
       <r>  -11.6016    1.0000 </r>
       <r>   -7.6462    1.0000 </r>
       <r>   -7.4901    1.0000 </r>
       <r>   -7.0469    1.0000 </r>
       <r>   -6.4358    1.0000 </r>
       <r>   -5.2491    1.0000 </r>
       <r>   -3.8328    1.0000 </r>
       <r>   -2.4003    1.0000 </r>
       <r>   -1.0182    0.0000 </r>
       <r>   -0.3898    0.0000 </r>
       <r>    2.0315    0.0000 </r>
       <r>    2.1266    0.0000 </r>
       <r>    2.1585    0.0000 </r>
       <r>    2.6875    0.0000 </r>
      </set>
      <set comment="kpoint 6">
       <r>  -16.6276    1.0000 </r>
       <r>  -14.1316    1.0000 </r>
       <r>  -11.8004    1.0000 </r>
       <r>   -7.9917    1.0000 </r>
       <r>   -7.4960    1.0000 </r>
       <r>   -7.4125    1.0000 </r>
       <r>   -6.2487    1.0000 </r>
       <r>   -5.3589    1.0000 </r>
       <r>   -3.8357    1.0000 </r>
       <r>   -2.5507    1.0000 </r>
       <r>   -0.8190    0.0000 </r>
       <r>   -0.8030    0.0000 </r>
       <r>    1.4957    0.0000 </r>
       <r>    1.5771    0.0000 </r>
       <r>    2.7210    0.0000 </r>
       <r>    2.9009    0.0000 </r>
      </set>
      <set comment="kpoint 7">
       <r>  -16.3592    1.0000 </r>
       <r>  -13.8483    1.0000 </r>
       <r>  -12.0950    1.0000 </r>
       <r>   -8.6016    1.0000 </r>
       <r>   -7.6366    1.0000 </r>
       <r>   -7.3311    1.0000 </r>
       <r>   -6.0295    1.0000 </r>
       <r>   -5.3269    1.0000 </r>
       <r>   -3.9061    1.0000 </r>
       <r>   -2.7607    1.0000 </r>
       <r>   -1.0675    0.0000 </r>
       <r>   -0.5931    0.0000 </r>
       <r>    0.8582    0.0000 </r>
       <r>    1.0269    0.0000 </r>
       <r>    2.3051    0.0000 </r>
       <r>    3.2002    0.0000 </r>
      </set>
      <set comment="kpoint 8">
       <r>  -16.0453    1.0000 </r>
       <r>  -13.5149    1.0000 </r>
       <r>  -12.4791    1.0000 </r>
       <r>   -9.2521    1.0000 </r>
       <r>   -7.7147    1.0000 </r>
       <r>   -7.1701    1.0000 </r>
       <r>   -5.7862    1.0000 </r>
       <r>   -5.2191    1.0000 </r>
       <r>   -4.0492    1.0000 </r>
       <r>   -3.0259    1.0000 </r>
       <r>   -1.1469    0.0000 </r>
       <r>   -0.3892    0.0000 </r>
       <r>    0.2538    0.0000 </r>
       <r>    0.5729    0.0000 </r>
       <r>    1.8112    0.0000 </r>
       <r>    3.1934    0.0000 </r>
      </set>
      <set comment="kpoint 9">
       <r>  -15.6880    1.0000 </r>
       <r>  -13.1322    1.0000 </r>
       <r>  -12.9281    1.0000 </r>
       <r>   -9.9039    1.0000 </r>
       <r>   -7.6693    1.0000 </r>
       <r>   -7.0421    1.0000 </r>
       <r>   -5.5320    1.0000 </r>
       <r>   -5.0853    1.0000 </r>
       <r>   -4.2185    1.0000 </r>
       <r>   -3.3308    1.0000 </r>
       <r>   -1.0519    0.0000 </r>
       <r>   -0.4005    0.0000 </r>
       <r>   -0.2713    0.0000 </r>
       <r>    0.4341    0.0000 </r>
       <r>    1.3168    0.0000 </r>
       <r>    2.8127    0.0000 </r>
      </set>
      <set comment="kpoint 10">
       <r>  -15.2903    1.0000 </r>
       <r>  -13.4125    1.0000 </r>
       <r>  -12.7014    1.0000 </r>
       <r>  -10.5363    1.0000 </r>
       <r>   -7.5356    1.0000 </r>
       <r>   -6.9859    1.0000 </r>
       <r>   -5.2873    1.0000 </r>
       <r>   -4.9691    1.0000 </r>
       <r>   -4.3339    1.0000 </r>
       <r>   -3.6498    1.0000 </r>
       <r>   -0.8214    0.0000 </r>
       <r>   -0.6801    0.0000 </r>
       <r>   -0.6621    0.0000 </r>
       <r>    0.6711    0.0000 </r>
       <r>    0.8261    0.0000 </r>
       <r>    2.3753    0.0000 </r>
      </set>
      <set comment="kpoint 11">
       <r>  -14.8564    1.0000 </r>
       <r>  -13.9067    1.0000 </r>
       <r>  -12.2239    1.0000 </r>
       <r>  -11.1378    1.0000 </r>
       <r>   -7.3536    1.0000 </r>
       <r>   -7.0310    1.0000 </r>
       <r>   -5.0814    1.0000 </r>
       <r>   -4.9128    1.0000 </r>
       <r>   -4.3297    1.0000 </r>
       <r>   -3.9499    1.0000 </r>
       <r>   -0.9349    0.0000 </r>
       <r>   -0.9028    0.0000 </r>
       <r>   -0.4934    0.0000 </r>
       <r>    0.3499    0.0000 </r>
       <r>    1.0433    0.0000 </r>
       <r>    1.9187    0.0000 </r>
      </set>
      <set comment="kpoint 12">
       <r>  -14.3923    1.0000 </r>
       <r>  -14.3923    1.0000 </r>
       <r>  -11.7018    1.0000 </r>
       <r>  -11.7018    1.0000 </r>
       <r>   -7.1682    1.0000 </r>
       <r>   -7.1682    1.0000 </r>
       <r>   -4.9486    1.0000 </r>
       <r>   -4.9486    1.0000 </r>
       <r>   -4.1913    1.0000 </r>
       <r>   -4.1913    1.0000 </r>
       <r>   -1.0082    0.0000 </r>
       <r>   -1.0082    0.0000 </r>
       <r>   -0.0960    0.0000 </r>
       <r>   -0.0960    0.0000 </r>
       <r>    1.4679    0.0000 </r>
       <r>    1.4679    0.0000 </r>
      </set>
      <set comment="kpoint 13">
       <r>  -17.2245    1.0000 </r>
       <r>  -14.8084    1.0000 </r>
       <r>  -11.3996    1.0000 </r>
       <r>   -8.0910    1.0000 </r>
       <r>   -6.8478    1.0000 </r>
       <r>   -6.6855    1.0000 </r>
       <r>   -5.4903    1.0000 </r>
       <r>   -3.9395    1.0000 </r>
       <r>   -3.8476    1.0000 </r>
       <r>   -2.4532    1.0000 </r>
       <r>   -1.1944    0.0000 </r>
       <r>   -0.5099    0.0000 </r>
       <r>    0.4964    0.0000 </r>
       <r>    1.1403    0.0000 </r>
       <r>    2.2127    0.0000 </r>
       <r>    2.3421    0.0000 </r>
      </set>
      <set comment="kpoint 14">
       <r>  -17.1995    1.0000 </r>
       <r>  -14.7826    1.0000 </r>
       <r>  -11.4059    1.0000 </r>
       <r>   -8.0750    1.0000 </r>
       <r>   -6.8570    1.0000 </r>
       <r>   -6.6709    1.0000 </r>
       <r>   -5.6486    1.0000 </r>
       <r>   -4.1220    1.0000 </r>
       <r>   -3.8332    1.0000 </r>
       <r>   -2.4479    1.0000 </r>
       <r>   -1.1748    0.0000 </r>
       <r>   -0.2835    0.0000 </r>
       <r>    0.7128    0.0000 </r>
       <r>    0.9950    0.0000 </r>
       <r>    2.2376    0.0000 </r>
       <r>    2.3700    0.0000 </r>
      </set>
      <set comment="kpoint 15">
       <r>  -17.1248    1.0000 </r>
       <r>  -14.7051    1.0000 </r>
       <r>  -11.4295    1.0000 </r>
       <r>   -8.0299    1.0000 </r>
       <r>   -6.8984    1.0000 </r>
       <r>   -6.6440    1.0000 </r>
       <r>   -6.0211    1.0000 </r>
       <r>   -4.5416    1.0000 </r>
       <r>   -3.8088    1.0000 </r>
       <r>   -2.4464    1.0000 </r>
       <r>   -1.1197    0.0000 </r>
       <r>    0.3274    0.0000 </r>
       <r>    0.5828    0.0000 </r>
       <r>    1.3011    0.0000 </r>
       <r>    2.3092    0.0000 </r>
       <r>    2.4530    0.0000 </r>
      </set>
      <set comment="kpoint 16">
       <r>  -17.0007    1.0000 </r>
       <r>  -14.5762    1.0000 </r>
       <r>  -11.4842    1.0000 </r>
       <r>   -7.9687    1.0000 </r>
       <r>   -7.0147    1.0000 </r>
       <r>   -6.7561    1.0000 </r>
       <r>   -6.3037    1.0000 </r>
       <r>   -4.9913    1.0000 </r>
       <r>   -3.7822    1.0000 </r>
       <r>   -2.4690    1.0000 </r>
       <r>   -1.0288    0.0000 </r>
       <r>    0.1043    0.0000 </r>
       <r>    1.1855    0.0000 </r>
       <r>    1.9355    0.0000 </r>
       <r>    2.3888    0.0000 </r>
       <r>    2.5908    0.0000 </r>
      </set>
      <set comment="kpoint 17">
       <r>  -16.8276    1.0000 </r>
       <r>  -14.3963    1.0000 </r>
       <r>  -11.5927    1.0000 </r>
       <r>   -7.9456    1.0000 </r>
       <r>   -7.2320    1.0000 </r>
       <r>   -7.1348    1.0000 </r>
       <r>   -6.2540    1.0000 </r>
       <r>   -5.2991    1.0000 </r>
       <r>   -3.7721    1.0000 </r>
       <r>   -2.5315    1.0000 </r>
       <r>   -0.8995    0.0000 </r>
       <r>   -0.3653    0.0000 </r>
       <r>    1.9219    0.0000 </r>
       <r>    2.0960    0.0000 </r>
       <r>    2.2544    0.0000 </r>
       <r>    2.6459    0.0000 </r>
      </set>
      <set comment="kpoint 18">
       <r>  -16.6065    1.0000 </r>
       <r>  -14.1664    1.0000 </r>
       <r>  -11.7803    1.0000 </r>
       <r>   -8.1581    1.0000 </r>
       <r>   -7.4845    1.0000 </r>
       <r>   -7.3713    1.0000 </r>
       <r>   -6.0961    1.0000 </r>
       <r>   -5.4083    1.0000 </r>
       <r>   -3.8068    1.0000 </r>
       <r>   -2.6479    1.0000 </r>
       <r>   -0.7430    0.0000 </r>
       <r>   -0.7312    0.0000 </r>
       <r>    1.3910    0.0000 </r>
       <r>    1.5960    0.0000 </r>
       <r>    2.7111    0.0000 </r>
       <r>    3.0285    0.0000 </r>
      </set>
      <set comment="kpoint 19">
       <r>  -16.3384    1.0000 </r>
       <r>  -13.8881    1.0000 </r>
       <r>  -12.0623    1.0000 </r>
       <r>   -8.6719    1.0000 </r>
       <r>   -7.7043    1.0000 </r>
       <r>   -7.3037    1.0000 </r>
       <r>   -5.8968    1.0000 </r>
       <r>   -5.3777    1.0000 </r>
       <r>   -3.9092    1.0000 </r>
       <r>   -2.8263    1.0000 </r>
       <r>   -0.9680    0.0000 </r>
       <r>   -0.5331    0.0000 </r>
       <r>    0.8400    0.0000 </r>
       <r>    0.9660    0.0000 </r>
       <r>    2.4584    0.0000 </r>
       <r>    3.2726    0.0000 </r>
      </set>
      <set comment="kpoint 20">
       <r>  -16.0249    1.0000 </r>
       <r>  -13.5672    1.0000 </r>
       <r>  -12.4284    1.0000 </r>
       <r>   -9.2928    1.0000 </r>
       <r>   -7.7791    1.0000 </r>
       <r>   -7.1696    1.0000 </r>
       <r>   -5.6759    1.0000 </r>
       <r>   -5.2838    1.0000 </r>
       <r>   -4.0653    1.0000 </r>
       <r>   -3.0628    1.0000 </r>
       <r>   -1.0170    0.0000 </r>
       <r>   -0.3599    0.0000 </r>
       <r>    0.3610    0.0000 </r>
       <r>    0.3967    0.0000 </r>
       <r>    2.0249    0.0000 </r>
       <r>    3.1356    0.0000 </r>
      </set>
      <set comment="kpoint 21">
       <r>  -15.6684    1.0000 </r>
       <r>  -13.2532    1.0000 </r>
       <r>  -12.8059    1.0000 </r>
       <r>   -9.9323    1.0000 </r>
       <r>   -7.7285    1.0000 </r>
       <r>   -7.0479    1.0000 </r>
       <r>   -5.4536    1.0000 </r>
       <r>   -5.1887    1.0000 </r>
       <r>   -4.2071    1.0000 </r>
       <r>   -3.3384    1.0000 </r>
       <r>   -0.9162    0.0000 </r>
       <r>   -0.4444    0.0000 </r>
       <r>   -0.1626    0.0000 </r>
       <r>    0.3116    0.0000 </r>
       <r>    1.5682    0.0000 </r>
       <r>    2.7653    0.0000 </r>
      </set>
      <set comment="kpoint 22">
       <r>  -15.2718    1.0000 </r>
       <r>  -13.4362    1.0000 </r>
       <r>  -12.6753    1.0000 </r>
       <r>  -10.5580    1.0000 </r>
       <r>   -7.5868    1.0000 </r>
       <r>   -6.9936    1.0000 </r>
       <r>   -5.2584    1.0000 </r>
       <r>   -5.1318    1.0000 </r>
       <r>   -4.2540    1.0000 </r>
       <r>   -3.6215    1.0000 </r>
       <r>   -0.7956    0.0000 </r>
       <r>   -0.7386    0.0000 </r>
       <r>   -0.4762    0.0000 </r>
       <r>    0.5280    0.0000 </r>
       <r>    1.1444    0.0000 </r>
       <r>    2.3366    0.0000 </r>
      </set>
      <set comment="kpoint 23">
       <r>  -14.8399    1.0000 </r>
       <r>  -13.9021    1.0000 </r>
       <r>  -12.2262    1.0000 </r>
       <r>  -11.1545    1.0000 </r>
       <r>   -7.3937    1.0000 </r>
       <r>   -7.0453    1.0000 </r>
       <r>   -5.1270    1.0000 </r>
       <r>   -5.0997    1.0000 </r>
       <r>   -4.1947    1.0000 </r>
       <r>   -3.8737    1.0000 </r>
       <r>   -0.9706    0.0000 </r>
       <r>   -0.9597    0.0000 </r>
       <r>   -0.2718    0.0000 </r>
       <r>    0.4803    0.0000 </r>
       <r>    1.0965    0.0000 </r>
       <r>    1.8908    0.0000 </r>
      </set>
      <set comment="kpoint 24">
       <r>  -14.3795    1.0000 </r>
       <r>  -14.3795    1.0000 </r>
       <r>  -11.7130    1.0000 </r>
       <r>  -11.7130    1.0000 </r>
       <r>   -7.1950    1.0000 </r>
       <r>   -7.1950    1.0000 </r>
       <r>   -5.0830    1.0000 </r>
       <r>   -5.0830    1.0000 </r>
       <r>   -4.0657    1.0000 </r>
       <r>   -4.0657    1.0000 </r>
       <r>   -1.0526    0.0000 </r>
       <r>   -1.0526    0.0000 </r>
       <r>    0.0977    0.0000 </r>
       <r>    0.0977    0.0000 </r>
       <r>    1.4591    0.0000 </r>
       <r>    1.4591    0.0000 </r>
      </set>
      <set comment="kpoint 25">
       <r>  -14.8399    1.0000 </r>
       <r>  -13.9021    1.0000 </r>
       <r>  -12.2262    1.0000 </r>
       <r>  -11.1545    1.0000 </r>
       <r>   -7.3937    1.0000 </r>
       <r>   -7.0453    1.0000 </r>
       <r>   -5.1270    1.0000 </r>
       <r>   -5.0997    1.0000 </r>
       <r>   -4.1947    1.0000 </r>
       <r>   -3.8737    1.0000 </r>
       <r>   -0.9706    0.0000 </r>
       <r>   -0.9597    0.0000 </r>
       <r>   -0.2718    0.0000 </r>
       <r>    0.4803    0.0000 </r>
       <r>    1.0965    0.0000 </r>
       <r>    1.8908    0.0000 </r>
      </set>
      <set comment="kpoint 26">
       <r>  -15.2718    1.0000 </r>
       <r>  -13.4362    1.0000 </r>
       <r>  -12.6753    1.0000 </r>
       <r>  -10.5580    1.0000 </r>
       <r>   -7.5868    1.0000 </r>
       <r>   -6.9936    1.0000 </r>
       <r>   -5.2584    1.0000 </r>
       <r>   -5.1318    1.0000 </r>
       <r>   -4.2540    1.0000 </r>
       <r>   -3.6215    1.0000 </r>
       <r>   -0.7956    0.0000 </r>
       <r>   -0.7386    0.0000 </r>
       <r>   -0.4762    0.0000 </r>
       <r>    0.5280    0.0000 </r>
       <r>    1.1444    0.0000 </r>
       <r>    2.3366    0.0000 </r>
      </set>
      <set comment="kpoint 27">
       <r>  -15.6684    1.0000 </r>
       <r>  -13.2532    1.0000 </r>
       <r>  -12.8059    1.0000 </r>
       <r>   -9.9323    1.0000 </r>
       <r>   -7.7285    1.0000 </r>
       <r>   -7.0479    1.0000 </r>
       <r>   -5.4536    1.0000 </r>
       <r>   -5.1887    1.0000 </r>
       <r>   -4.2071    1.0000 </r>
       <r>   -3.3384    1.0000 </r>
       <r>   -0.9162    0.0000 </r>
       <r>   -0.4444    0.0000 </r>
       <r>   -0.1626    0.0000 </r>
       <r>    0.3116    0.0000 </r>
       <r>    1.5682    0.0000 </r>
       <r>    2.7653    0.0000 </r>
      </set>
      <set comment="kpoint 28">
       <r>  -16.0249    1.0000 </r>
       <r>  -13.5672    1.0000 </r>
       <r>  -12.4284    1.0000 </r>
       <r>   -9.2928    1.0000 </r>
       <r>   -7.7791    1.0000 </r>
       <r>   -7.1696    1.0000 </r>
       <r>   -5.6759    1.0000 </r>
       <r>   -5.2838    1.0000 </r>
       <r>   -4.0653    1.0000 </r>
       <r>   -3.0628    1.0000 </r>
       <r>   -1.0170    0.0000 </r>
       <r>   -0.3599    0.0000 </r>
       <r>    0.3610    0.0000 </r>
       <r>    0.3967    0.0000 </r>
       <r>    2.0249    0.0000 </r>
       <r>    3.1356    0.0000 </r>
      </set>
      <set comment="kpoint 29">
       <r>  -16.3384    1.0000 </r>
       <r>  -13.8881    1.0000 </r>
       <r>  -12.0623    1.0000 </r>
       <r>   -8.6719    1.0000 </r>
       <r>   -7.7043    1.0000 </r>
       <r>   -7.3037    1.0000 </r>
       <r>   -5.8968    1.0000 </r>
       <r>   -5.3777    1.0000 </r>
       <r>   -3.9092    1.0000 </r>
       <r>   -2.8263    1.0000 </r>
       <r>   -0.9680    0.0000 </r>
       <r>   -0.5331    0.0000 </r>
       <r>    0.8400    0.0000 </r>
       <r>    0.9660    0.0000 </r>
       <r>    2.4584    0.0000 </r>
       <r>    3.2724    0.0000 </r>
      </set>
      <set comment="kpoint 30">
       <r>  -16.6065    1.0000 </r>
       <r>  -14.1664    1.0000 </r>
       <r>  -11.7803    1.0000 </r>
       <r>   -8.1581    1.0000 </r>
       <r>   -7.4845    1.0000 </r>
       <r>   -7.3713    1.0000 </r>
       <r>   -6.0961    1.0000 </r>
       <r>   -5.4083    1.0000 </r>
       <r>   -3.8068    1.0000 </r>
       <r>   -2.6479    1.0000 </r>
       <r>   -0.7430    0.0000 </r>
       <r>   -0.7312    0.0000 </r>
       <r>    1.3910    0.0000 </r>
       <r>    1.5960    0.0000 </r>
       <r>    2.7111    0.0000 </r>
       <r>    3.0301    0.0000 </r>
      </set>
      <set comment="kpoint 31">
       <r>  -16.8276    1.0000 </r>
       <r>  -14.3963    1.0000 </r>
       <r>  -11.5927    1.0000 </r>
       <r>   -7.9456    1.0000 </r>
       <r>   -7.2320    1.0000 </r>
       <r>   -7.1348    1.0000 </r>
       <r>   -6.2540    1.0000 </r>
       <r>   -5.2991    1.0000 </r>
       <r>   -3.7721    1.0000 </r>
       <r>   -2.5315    1.0000 </r>
       <r>   -0.8995    0.0000 </r>
       <r>   -0.3653    0.0000 </r>
       <r>    1.9219    0.0000 </r>
       <r>    2.0960    0.0000 </r>
       <r>    2.2544    0.0000 </r>
       <r>    2.6459    0.0000 </r>
      </set>
      <set comment="kpoint 32">
       <r>  -17.0007    1.0000 </r>
       <r>  -14.5762    1.0000 </r>
       <r>  -11.4842    1.0000 </r>
       <r>   -7.9687    1.0000 </r>
       <r>   -7.0147    1.0000 </r>
       <r>   -6.7561    1.0000 </r>
       <r>   -6.3037    1.0000 </r>
       <r>   -4.9913    1.0000 </r>
       <r>   -3.7822    1.0000 </r>
       <r>   -2.4690    1.0000 </r>
       <r>   -1.0288    0.0000 </r>
       <r>    0.1043    0.0000 </r>
       <r>    1.1855    0.0000 </r>
       <r>    1.9355    0.0000 </r>
       <r>    2.3888    0.0000 </r>
       <r>    2.5908    0.0000 </r>
      </set>
      <set comment="kpoint 33">
       <r>  -17.1248    1.0000 </r>
       <r>  -14.7051    1.0000 </r>
       <r>  -11.4295    1.0000 </r>
       <r>   -8.0299    1.0000 </r>
       <r>   -6.8984    1.0000 </r>
       <r>   -6.6440    1.0000 </r>
       <r>   -6.0211    1.0000 </r>
       <r>   -4.5416    1.0000 </r>
       <r>   -3.8088    1.0000 </r>
       <r>   -2.4464    1.0000 </r>
       <r>   -1.1197    0.0000 </r>
       <r>    0.3274    0.0000 </r>
       <r>    0.5828    0.0000 </r>
       <r>    1.3011    0.0000 </r>
       <r>    2.3092    0.0000 </r>
       <r>    2.4530    0.0000 </r>
      </set>
      <set comment="kpoint 34">
       <r>  -17.1995    1.0000 </r>
       <r>  -14.7826    1.0000 </r>
       <r>  -11.4059    1.0000 </r>
       <r>   -8.0750    1.0000 </r>
       <r>   -6.8570    1.0000 </r>
       <r>   -6.6709    1.0000 </r>
       <r>   -5.6486    1.0000 </r>
       <r>   -4.1220    1.0000 </r>
       <r>   -3.8332    1.0000 </r>
       <r>   -2.4479    1.0000 </r>
       <r>   -1.1748    0.0000 </r>
       <r>   -0.2835    0.0000 </r>
       <r>    0.7128    0.0000 </r>
       <r>    0.9950    0.0000 </r>
       <r>    2.2376    0.0000 </r>
       <r>    2.3700    0.0000 </r>
      </set>
      <set comment="kpoint 35">
       <r>  -17.1596    1.0000 </r>
       <r>  -14.8963    1.0000 </r>
       <r>  -11.4225    1.0000 </r>
       <r>   -8.4403    1.0000 </r>
       <r>   -6.6685    1.0000 </r>
       <r>   -6.4108    1.0000 </r>
       <r>   -5.4407    1.0000 </r>
       <r>   -3.9847    1.0000 </r>
       <r>   -3.5766    1.0000 </r>
       <r>   -2.8590    1.0000 </r>
       <r>   -0.8313    0.0000 </r>
       <r>   -0.4594    0.0000 </r>
       <r>    0.3640    0.0000 </r>
       <r>    1.1018    0.0000 </r>
       <r>    2.3844    0.0000 </r>
       <r>    2.4336    0.0000 </r>
      </set>
      <set comment="kpoint 36">
       <r>  -17.1347    1.0000 </r>
       <r>  -14.8709    1.0000 </r>
       <r>  -11.4255    1.0000 </r>
       <r>   -8.4274    1.0000 </r>
       <r>   -6.6698    1.0000 </r>
       <r>   -6.4233    1.0000 </r>
       <r>   -5.5734    1.0000 </r>
       <r>   -4.1760    1.0000 </r>
       <r>   -3.5693    1.0000 </r>
       <r>   -2.8503    1.0000 </r>
       <r>   -0.8169    0.0000 </r>
       <r>   -0.2328    0.0000 </r>
       <r>    0.5727    0.0000 </r>
       <r>    0.9785    0.0000 </r>
       <r>    2.4060    0.0000 </r>
       <r>    2.4611    0.0000 </r>
      </set>
      <set comment="kpoint 37">
       <r>  -17.0602    1.0000 </r>
       <r>  -14.7946    1.0000 </r>
       <r>  -11.4390    1.0000 </r>
       <r>   -8.3924    1.0000 </r>
       <r>   -6.6859    1.0000 </r>
       <r>   -6.5207    1.0000 </r>
       <r>   -5.8285    1.0000 </r>
       <r>   -4.6207    1.0000 </r>
       <r>   -3.5645    1.0000 </r>
       <r>   -2.8338    1.0000 </r>
       <r>   -0.7774    0.0000 </r>
       <r>    0.3755    0.0000 </r>
       <r>    0.5448    0.0000 </r>
       <r>    1.2263    0.0000 </r>
       <r>    2.4681    0.0000 </r>
       <r>    2.5434    0.0000 </r>
      </set>
      <set comment="kpoint 38">
       <r>  -16.9364    1.0000 </r>
       <r>  -14.6680    1.0000 </r>
       <r>  -11.4765    1.0000 </r>
       <r>   -8.3506    1.0000 </r>
       <r>   -6.8346    1.0000 </r>
       <r>   -6.7605    1.0000 </r>
       <r>   -5.9262    1.0000 </r>
       <r>   -5.0988    1.0000 </r>
       <r>   -3.5791    1.0000 </r>
       <r>   -2.8252    1.0000 </r>
       <r>   -0.7137    0.0000 </r>
       <r>    0.1287    0.0000 </r>
       <r>    1.2168    0.0000 </r>
       <r>    1.8942    0.0000 </r>
       <r>    2.2672    0.0000 </r>
       <r>    2.5722    0.0000 </r>
      </set>
      <set comment="kpoint 39">
       <r>  -16.7638    1.0000 </r>
       <r>  -14.4921    1.0000 </r>
       <r>  -11.5606    1.0000 </r>
       <r>   -8.3450    1.0000 </r>
       <r>   -7.2550    1.0000 </r>
       <r>   -6.9494    1.0000 </r>
       <r>   -5.8629    1.0000 </r>
       <r>   -5.4203    1.0000 </r>
       <r>   -3.6336    1.0000 </r>
       <r>   -2.8397    1.0000 </r>
       <r>   -0.6247    0.0000 </r>
       <r>   -0.2645    0.0000 </r>
       <r>    1.5638    0.0000 </r>
       <r>    2.2348    0.0000 </r>
       <r>    2.3281    0.0000 </r>
       <r>    2.6843    0.0000 </r>
      </set>
      <set comment="kpoint 40">
       <r>  -16.5433    1.0000 </r>
       <r>  -14.2685    1.0000 </r>
       <r>  -11.7185    1.0000 </r>
       <r>   -8.4814    1.0000 </r>
       <r>   -7.6164    1.0000 </r>
       <r>   -7.1740    1.0000 </r>
       <r>   -5.7321    1.0000 </r>
       <r>   -5.5231    1.0000 </r>
       <r>   -3.7493    1.0000 </r>
       <r>   -2.8941    1.0000 </r>
       <r>   -0.5480    0.0000 </r>
       <r>   -0.5087    0.0000 </r>
       <r>    1.0140    0.0000 </r>
       <r>    1.8601    0.0000 </r>
       <r>    2.7541    0.0000 </r>
       <r>    3.0945    0.0000 </r>
      </set>
      <set comment="kpoint 41">
       <r>  -16.2762    1.0000 </r>
       <r>  -14.0019    1.0000 </r>
       <r>  -11.9678    1.0000 </r>
       <r>   -8.8622    1.0000 </r>
       <r>   -7.8451    1.0000 </r>
       <r>   -7.2462    1.0000 </r>
       <r>   -5.5724    1.0000 </r>
       <r>   -5.4957    1.0000 </r>
       <r>   -3.9231    1.0000 </r>
       <r>   -3.0016    1.0000 </r>
       <r>   -0.6790    0.0000 </r>
       <r>   -0.3694    0.0000 </r>
       <r>    0.4793    0.0000 </r>
[...]
       <r>    3.4028    0.0000 </r>
       <r>    3.4258    0.0000 </r>
      </set>
      <set comment="kpoint 161">
       <r>  -15.4167    1.0000 </r>
       <r>  -15.1646    1.0000 </r>
       <r>  -10.8225    1.0000 </r>
       <r>  -10.4963    1.0000 </r>
       <r>   -7.8612    1.0000 </r>
       <r>   -7.7000    1.0000 </r>
       <r>   -5.1907    1.0000 </r>
       <r>   -4.9484    1.0000 </r>
       <r>   -3.8018    1.0000 </r>
       <r>   -3.7377    1.0000 </r>
       <r>    0.3385    0.0000 </r>
       <r>    0.7236    0.0000 </r>
       <r>    1.1893    0.0000 </r>
       <r>    1.5069    0.0000 </r>
       <r>    3.3687    0.0000 </r>
       <r>    3.4035    0.0000 </r>
      </set>
      <set comment="kpoint 162">
       <r>  -15.6692    1.0000 </r>
       <r>  -15.4132    1.0000 </r>
       <r>  -10.7189    1.0000 </r>
       <r>  -10.3899    1.0000 </r>
       <r>   -7.4822    1.0000 </r>
       <r>   -7.3136    1.0000 </r>
       <r>   -5.1274    1.0000 </r>
       <r>   -4.8327    1.0000 </r>
       <r>   -3.6817    1.0000 </r>
       <r>   -3.6267    1.0000 </r>
       <r>    0.3718    0.0000 </r>
       <r>    0.6632    0.0000 </r>
       <r>    1.2554    0.0000 </r>
       <r>    1.6079    0.0000 </r>
       <r>    3.0574    0.0000 </r>
       <r>    3.3171    0.0000 </r>
      </set>
      <set comment="kpoint 163">
       <r>  -15.8802    1.0000 </r>
       <r>  -15.6221    1.0000 </r>
       <r>  -10.7084    1.0000 </r>
       <r>  -10.3840    1.0000 </r>
       <r>   -6.9388    1.0000 </r>
       <r>   -6.7578    1.0000 </r>
       <r>   -5.1688    1.0000 </r>
       <r>   -4.8420    1.0000 </r>
       <r>   -3.5738    1.0000 </r>
       <r>   -3.3979    1.0000 </r>
       <r>    0.4960    0.0000 </r>
       <r>    0.6708    0.0000 </r>
       <r>    1.2343    0.0000 </r>
       <r>    1.6083    0.0000 </r>
       <r>    2.4543    0.0000 </r>
       <r>    2.6898    0.0000 </r>
      </set>
      <set comment="kpoint 164">
       <r>  -16.0468    1.0000 </r>
       <r>  -15.7874    1.0000 </r>
       <r>  -10.7421    1.0000 </r>
       <r>  -10.4231    1.0000 </r>
       <r>   -6.3016    1.0000 </r>
       <r>   -6.1097    1.0000 </r>
       <r>   -5.2409    1.0000 </r>
       <r>   -4.9002    1.0000 </r>
       <r>   -3.5032    1.0000 </r>
       <r>   -3.2156    1.0000 </r>
       <r>    0.6490    0.0000 </r>
       <r>    0.7049    0.0000 </r>
       <r>    1.1437    0.0000 </r>
       <r>    1.4708    0.0000 </r>
       <r>    1.8568    0.0000 </r>
       <r>    1.9713    0.0000 </r>
      </set>
      <set comment="kpoint 165">
       <r>  -16.1669    1.0000 </r>
       <r>  -15.9068    1.0000 </r>
       <r>  -10.7846    1.0000 </r>
       <r>  -10.4699    1.0000 </r>
       <r>   -5.6436    1.0000 </r>
       <r>   -5.4579    1.0000 </r>
       <r>   -5.2962    1.0000 </r>
       <r>   -4.9604    1.0000 </r>
       <r>   -3.5217    1.0000 </r>
       <r>   -3.1374    1.0000 </r>
       <r>    0.5069    0.0000 </r>
       <r>    0.5075    0.0000 </r>
       <r>    1.1354    0.0000 </r>
       <r>    1.2534    0.0000 </r>
       <r>    1.5847    0.0000 </r>
       <r>    1.6496    0.0000 </r>
      </set>
      <set comment="kpoint 166">
       <r>  -16.2393    1.0000 </r>
       <r>  -15.9788    1.0000 </r>
       <r>  -10.8164    1.0000 </r>
       <r>  -10.5042    1.0000 </r>
       <r>   -5.3600    1.0000 </r>
       <r>   -5.0665    1.0000 </r>
       <r>   -5.0021    1.0000 </r>
       <r>   -4.8724    1.0000 </r>
       <r>   -3.6390    1.0000 </r>
       <r>   -3.1751    1.0000 </r>
       <r>    0.0955    0.0000 </r>
       <r>    0.1211    0.0000 </r>
       <r>    1.2045    0.0000 </r>
       <r>    1.3094    0.0000 </r>
       <r>    1.5572    0.0000 </r>
       <r>    1.5764    0.0000 </r>
      </set>
     </set>
    </set>
   </array>
  </eigenvalues>
  <separator name="orbital magnetization" >
   <v name="MAGDIPOLOUT">      0.00000000      0.00000000      0.00000000</v>
  </separator>
  <dos>
   <i name="efermi">     -2.10432108 </i>
   <total>
    <array>
     <dimension dim="1">gridpoints</dimension>
     <dimension dim="2">spin</dimension>
     <field>energy</field>
     <field>total</field>
     <field>integrated</field>
     <set>
      <set comment="spin 1">
       <r>   -18.2865     0.0000     0.0000 </r>
       <r>   -18.2102     0.0000     0.0000 </r>
       <r>   -18.1339     0.0000     0.0000 </r>
       <r>   -18.0576     0.0000     0.0000 </r>
       <r>   -17.9813     0.0000     0.0000 </r>
       <r>   -17.9050     0.0000     0.0000 </r>
       <r>   -17.8287     0.0000     0.0000 </r>
       <r>   -17.7525     0.0000     0.0000 </r>
       <r>   -17.6762     0.0000     0.0000 </r>
       <r>   -17.5999     0.0000     0.0000 </r>
       <r>   -17.5236     0.0000     0.0000 </r>
       <r>   -17.4473     0.0000     0.0000 </r>
       <r>   -17.3710     0.0000     0.0000 </r>
       <r>   -17.2947     0.0000     0.0000 </r>
       <r>   -17.2185     0.3037     0.0232 </r>
       <r>   -17.1422     0.7818     0.0828 </r>
       <r>   -17.0659     0.7219     0.1379 </r>
       <r>   -16.9896     1.0624     0.2189 </r>
       <r>   -16.9133     0.7403     0.2754 </r>
       <r>   -16.8370     0.7570     0.3331 </r>
       <r>   -16.7607     0.9832     0.4082 </r>
       <r>   -16.6845     0.7256     0.4635 </r>
       <r>   -16.6082     1.0851     0.5463 </r>
       <r>   -16.5319     0.5230     0.5862 </r>
       <r>   -16.4556     1.1637     0.6749 </r>
       <r>   -16.3793     0.6137     0.7218 </r>
       <r>   -16.3030     0.9351     0.7931 </r>
       <r>   -16.2267     1.2220     0.8863 </r>
       <r>   -16.1505     0.6489     0.9358 </r>
       <r>   -16.0742     0.6942     0.9888 </r>
       <r>   -15.9979     1.2223     1.0820 </r>
       <r>   -15.9216     0.7642     1.1403 </r>
       <r>   -15.8453     1.4035     1.2474 </r>
       <r>   -15.7690     0.3827     1.2766 </r>
       <r>   -15.6927     0.8791     1.3436 </r>
       <r>   -15.6164     1.6656     1.4707 </r>
       <r>   -15.5402     0.6565     1.5208 </r>
       <r>   -15.4639     0.8267     1.5839 </r>
       <r>   -15.3876     1.1171     1.6691 </r>
       <r>   -15.3113     1.0918     1.7524 </r>
       <r>   -15.2350     0.9612     1.8257 </r>
       <r>   -15.1587     1.2596     1.9218 </r>
       <r>   -15.0824     1.5157     2.0374 </r>
       <r>   -15.0062     1.1848     2.1278 </r>
       <r>   -14.9299     0.5782     2.1719 </r>
       <r>   -14.8536     1.9062     2.3173 </r>
       <r>   -14.7773     2.2818     2.4914 </r>
       <r>   -14.7010     0.8734     2.5580 </r>
       <r>   -14.6247     2.0385     2.7135 </r>
       <r>   -14.5484     1.1900     2.8043 </r>
       <r>   -14.4722     0.9300     2.8752 </r>
       <r>   -14.3959     0.8728     2.9418 </r>
       <r>   -14.3196     2.0873     3.1011 </r>
       <r>   -14.2433     0.9737     3.1753 </r>
       <r>   -14.1670     1.0376     3.2545 </r>
       <r>   -14.0907     1.6481     3.3802 </r>
       <r>   -14.0144     1.0239     3.4583 </r>
       <r>   -13.9382     0.6144     3.5052 </r>
       <r>   -13.8619     2.8837     3.7252 </r>
       <r>   -13.7856     0.2670     3.7455 </r>
       <r>   -13.7093     0.4402     3.7791 </r>
       <r>   -13.6330     0.5002     3.8173 </r>
       <r>   -13.5567     0.5747     3.8611 </r>
       <r>   -13.4804     0.5349     3.9019 </r>
       <r>   -13.4042     0.7601     3.9599 </r>
       <r>   -13.3279     0.0487     3.9636 </r>
       <r>   -13.2516     0.1732     3.9768 </r>
       <r>   -13.1753     0.1448     3.9879 </r>
       <r>   -13.0990     0.1572     3.9999 </r>
       <r>   -13.0227     0.0015     4.0000 </r>
       <r>   -12.9464     0.0155     4.0012 </r>
       <r>   -12.8702     0.1434     4.0121 </r>
       <r>   -12.7939     0.2552     4.0316 </r>
       <r>   -12.7176     0.0831     4.0379 </r>
       <r>   -12.6413     0.4596     4.0730 </r>
       <r>   -12.5650     0.6302     4.1211 </r>
       <r>   -12.4887     0.1749     4.1344 </r>
       <r>   -12.4124     0.6258     4.1821 </r>
       <r>   -12.3362     0.4796     4.2187 </r>
       <r>   -12.2599     0.4904     4.2561 </r>
       <r>   -12.1836     1.6557     4.3824 </r>
       <r>   -12.1073     1.1237     4.4682 </r>
       <r>   -12.0310     1.0858     4.5510 </r>
       <r>   -11.9547     1.1386     4.6378 </r>
       <r>   -11.8784     1.0488     4.7179 </r>
       <r>   -11.8022     1.1304     4.8041 </r>
       <r>   -11.7259     1.3240     4.9051 </r>
       <r>   -11.6496     1.2676     5.0018 </r>
       <r>   -11.5733     1.5271     5.1183 </r>
       <r>   -11.4970     1.0913     5.2015 </r>
       <r>   -11.4207     3.0335     5.4330 </r>
       <r>   -11.3444     3.7900     5.7221 </r>
       <r>   -11.2682     0.9866     5.7973 </r>
       <r>   -11.1919     1.8292     5.9369 </r>
       <r>   -11.1156     0.8883     6.0047 </r>
       <r>   -11.0393     1.5745     6.1248 </r>
       <r>   -10.9630     1.1262     6.2107 </r>
       <r>   -10.8867     0.1550     6.2225 </r>
       <r>   -10.8104     1.1017     6.3065 </r>
       <r>   -10.7342     1.1762     6.3963 </r>
       <r>   -10.6579     0.9251     6.4668 </r>
       <r>   -10.5816     0.4384     6.5003 </r>
       <r>   -10.5053     1.0283     6.5787 </r>
       <r>   -10.4290     1.0371     6.6578 </r>
       <r>   -10.3527     1.0868     6.7407 </r>
       <r>   -10.2764     0.2206     6.7576 </r>
       <r>   -10.2002     0.0005     6.7576 </r>
       <r>   -10.1239     1.2658     6.8542 </r>
       <r>   -10.0476     0.7650     6.9125 </r>
       <r>    -9.9713     0.9882     6.9879 </r>
       <r>    -9.8950     0.4328     7.0209 </r>
       <r>    -9.8187     0.3785     7.0498 </r>
       <r>    -9.7424     0.4978     7.0878 </r>
       <r>    -9.6662     0.6795     7.1396 </r>
       <r>    -9.5899     1.1080     7.2241 </r>
       <r>    -9.5136     0.0807     7.2303 </r>
       <r>    -9.4373     0.2945     7.2528 </r>
       <r>    -9.3610     0.3411     7.2788 </r>
       <r>    -9.2847     0.6946     7.3318 </r>
       <r>    -9.2084     1.2503     7.4272 </r>
       <r>    -9.1322     0.4546     7.4618 </r>
       <r>    -9.0559     0.1427     7.4727 </r>
       <r>    -8.9796     0.0000     7.4727 </r>
       <r>    -8.9033     0.0016     7.4728 </r>
       <r>    -8.8270     1.2083     7.5650 </r>
       <r>    -8.7507     0.8203     7.6276 </r>
       <r>    -8.6744     0.1713     7.6407 </r>
       <r>    -8.5982     0.2764     7.6618 </r>
       <r>    -8.5219     0.0650     7.6667 </r>
       <r>    -8.4456     0.4032     7.6975 </r>
       <r>    -8.3693     0.7355     7.7536 </r>
       <r>    -8.2930     0.6084     7.8000 </r>
       <r>    -8.2167     0.0034     7.8003 </r>
       <r>    -8.1404     1.2057     7.8922 </r>
       <r>    -8.0642     1.6342     8.0169 </r>
       <r>    -7.9879     2.1830     8.1834 </r>
       <r>    -7.9116     2.5823     8.3804 </r>
       <r>    -7.8353     1.8130     8.5187 </r>
       <r>    -7.7590     1.3273     8.6200 </r>
       <r>    -7.6827     2.6605     8.8229 </r>
       <r>    -7.6064     2.4623     9.0108 </r>
       <r>    -7.5302     1.0910     9.0940 </r>
       <r>    -7.4539     2.1260     9.2562 </r>
       <r>    -7.3776     1.4716     9.3684 </r>
       <r>    -7.3013     3.2129     9.6135 </r>
       <r>    -7.2250     2.5596     9.8088 </r>
       <r>    -7.1487     3.7997    10.0987 </r>
       <r>    -7.0724     2.7355    10.3073 </r>
       <r>    -6.9962     3.0857    10.5427 </r>
       <r>    -6.9199     1.6711    10.6702 </r>
       <r>    -6.8436     0.8621    10.7360 </r>
       <r>    -6.7673     1.4093    10.8435 </r>
       <r>    -6.6910     1.6515    10.9695 </r>
       <r>    -6.6147     2.3727    11.1505 </r>
       <r>    -6.5384     1.0789    11.2328 </r>
       <r>    -6.4621     2.2108    11.4014 </r>
       <r>    -6.3859     1.3665    11.5057 </r>
       <r>    -6.3096     1.1168    11.5909 </r>
       <r>    -6.2333     1.8468    11.7318 </r>
       <r>    -6.1570     1.7873    11.8681 </r>
       <r>    -6.0807     1.0757    11.9502 </r>
       <r>    -6.0044     1.7941    12.0870 </r>
       <r>    -5.9281     2.4796    12.2762 </r>
       <r>    -5.8519     1.3634    12.3802 </r>
       <r>    -5.7756     1.9335    12.5277 </r>
       <r>    -5.6993     1.5171    12.6434 </r>
       <r>    -5.6230     4.2116    12.9647 </r>
       <r>    -5.5467     3.2877    13.2155 </r>
       <r>    -5.4704     2.6274    13.4160 </r>
       <r>    -5.3941     5.3157    13.8215 </r>
       <r>    -5.3179     2.5920    14.0192 </r>
       <r>    -5.2416     3.4589    14.2831 </r>
       <r>    -5.1653     3.0480    14.5156 </r>
       <r>    -5.0890     3.2383    14.7626 </r>
       <r>    -5.0127     1.9727    14.9131 </r>
       <r>    -4.9364     2.1842    15.0797 </r>
       <r>    -4.8601     2.1607    15.2446 </r>
       <r>    -4.7839     1.5239    15.3608 </r>
       <r>    -4.7076     0.7983    15.4217 </r>
       <r>    -4.6313     1.0414    15.5012 </r>
       <r>    -4.5550     1.3245    15.6022 </r>
       <r>    -4.4787     2.1123    15.7634 </r>
       <r>    -4.4024     0.8044    15.8247 </r>
       <r>    -4.3261     0.5520    15.8668 </r>
       <r>    -4.2499     0.8314    15.9303 </r>
       <r>    -4.1736     2.2223    16.0998 </r>
       <r>    -4.0973     2.9271    16.3231 </r>
       <r>    -4.0210     2.3665    16.5036 </r>
       <r>    -3.9447     2.4561    16.6910 </r>
       <r>    -3.8684     3.2844    16.9415 </r>
       <r>    -3.7921     3.9248    17.2409 </r>
       <r>    -3.7159     3.2239    17.4869 </r>
       <r>    -3.6396     3.7507    17.7730 </r>
       <r>    -3.5633     3.7879    18.0620 </r>
       <r>    -3.4870     2.9368    18.2860 </r>
       <r>    -3.4107     2.2399    18.4569 </r>
       <r>    -3.3344     4.0057    18.7625 </r>
       <r>    -3.2581     3.9267    19.0620 </r>
       <r>    -3.1819     2.4943    19.2523 </r>
       <r>    -3.1056     1.1404    19.3393 </r>
       <r>    -3.0293     1.0276    19.4177 </r>
       <r>    -2.9530     0.7248    19.4730 </r>
       <r>    -2.8767     1.2011    19.5646 </r>
       <r>    -2.8004     2.4260    19.7497 </r>
       <r>    -2.7241     0.6402    19.7985 </r>
       <r>    -2.6479     0.1789    19.8121 </r>
       <r>    -2.5716     0.1704    19.8251 </r>
       <r>    -2.4953     0.4738    19.8613 </r>
       <r>    -2.4190     1.1018    19.9453 </r>
       <r>    -2.3427     0.1610    19.9576 </r>
       <r>    -2.2664     0.2045    19.9732 </r>
       <r>    -2.1901     0.3510    20.0000 </r>
       <r>    -2.1139     0.0000    20.0000 </r>
       <r>    -2.0376     0.0000    20.0000 </r>
       <r>    -1.9613     0.0000    20.0000 </r>
       <r>    -1.8850     0.0000    20.0000 </r>
       <r>    -1.8087     0.0000    20.0000 </r>
       <r>    -1.7324     0.0000    20.0000 </r>
       <r>    -1.6561     0.0000    20.0000 </r>
       <r>    -1.5799     0.0000    20.0000 </r>
       <r>    -1.5036     0.0000    20.0000 </r>
       <r>    -1.4273     0.0002    20.0000 </r>
       <r>    -1.3510     0.2107    20.0161 </r>
       <r>    -1.2747     0.1729    20.0293 </r>
       <r>    -1.1984     0.1022    20.0371 </r>
       <r>    -1.1221     0.8363    20.1009 </r>
       <r>    -1.0459     0.9223    20.1712 </r>
       <r>    -0.9696     1.9707    20.3216 </r>
       <r>    -0.8933     1.8304    20.4612 </r>
       <r>    -0.8170     1.6652    20.5882 </r>
       <r>    -0.7407     1.7533    20.7220 </r>
       <r>    -0.6644     2.1485    20.8859 </r>
       <r>    -0.5881     1.2024    20.9776 </r>
       <r>    -0.5119     2.1390    21.1408 </r>
       <r>    -0.4356     2.0381    21.2963 </r>
       <r>    -0.3593     2.5433    21.4903 </r>
       <r>    -0.2830     2.6068    21.6891 </r>
       <r>    -0.2067     2.0806    21.8479 </r>
       <r>    -0.1304     2.5933    22.0457 </r>
       <r>    -0.0541     2.3410    22.2243 </r>
       <r>     0.0221     3.3740    22.4817 </r>
       <r>     0.0984     2.5068    22.6729 </r>
       <r>     0.1747     4.4756    23.0143 </r>
       <r>     0.2510     2.4056    23.1978 </r>
       <r>     0.3273     3.1364    23.4371 </r>
       <r>     0.4036     4.4369    23.7756 </r>
       <r>     0.4799     4.5506    24.1227 </r>
       <r>     0.5561     4.1441    24.4389 </r>
       <r>     0.6324     3.4540    24.7023 </r>
       <r>     0.7087     4.9458    25.0796 </r>
       <r>     0.7850     2.8428    25.2965 </r>
       <r>     0.8613     3.9182    25.5954 </r>
       <r>     0.9376     2.4654    25.7835 </r>
       <r>     1.0139     3.5123    26.0514 </r>
       <r>     1.0901     3.0033    26.2805 </r>
       <r>     1.1664     3.7946    26.5700 </r>
       <r>     1.2427     3.2372    26.8170 </r>
       <r>     1.3190     2.5612    27.0123 </r>
       <r>     1.3953     1.6957    27.1417 </r>
       <r>     1.4716     1.9578    27.2910 </r>
       <r>     1.5479     2.5733    27.4874 </r>
       <r>     1.6241     3.8027    27.7774 </r>
       <r>     1.7004     1.7780    27.9131 </r>
       <r>     1.7767     1.3413    28.0154 </r>
       <r>     1.8530     1.9155    28.1615 </r>
       <r>     1.9293     3.6613    28.4408 </r>
       <r>     2.0056     1.9563    28.5901 </r>
       <r>     2.0819     1.9434    28.7383 </r>
       <r>     2.1582     1.6525    28.8644 </r>
       <r>     2.2344     2.6773    29.0686 </r>
       <r>     2.3107     3.1250    29.3070 </r>
       <r>     2.3870     3.1129    29.5445 </r>
       <r>     2.4633     3.8707    29.8398 </r>
       <r>     2.5396     1.8208    29.9787 </r>
       <r>     2.6159     2.6325    30.1795 </r>
       <r>     2.6922     3.1244    30.4178 </r>
       <r>     2.7684     3.4855    30.6837 </r>
       <r>     2.8447     2.8443    30.9007 </r>
       <r>     2.9210     1.6788    31.0288 </r>
       <r>     2.9973     1.4274    31.1377 </r>
       <r>     3.0736     1.8356    31.2777 </r>
       <r>     3.1499     2.4718    31.4663 </r>
       <r>     3.2262     1.5898    31.5875 </r>
       <r>     3.3024     1.2581    31.6835 </r>
       <r>     3.3787     1.4398    31.7934 </r>
       <r>     3.4550     1.4426    31.9034 </r>
       <r>     3.5313     0.4451    31.9374 </r>
       <r>     3.6076     0.8209    32.0000 </r>
       <r>     3.6839     0.0002    32.0000 </r>
       <r>     3.7602     0.0000    32.0000 </r>
       <r>     3.8364     0.0000    32.0000 </r>
       <r>     3.9127     0.0000    32.0000 </r>
       <r>     3.9890     0.0000    32.0000 </r>
       <r>     4.0653     0.0000    32.0000 </r>
       <r>     4.1416     0.0000    32.0000 </r>
       <r>     4.2179     0.0000    32.0000 </r>
       <r>     4.2942     0.0000    32.0000 </r>
       <r>     4.3704     0.0000    32.0000 </r>
       <r>     4.4467     0.0000    32.0000 </r>
       <r>     4.5230     0.0000    32.0000 </r>
       <r>     4.5993     0.0000    32.0000 </r>
      </set>
     </set>
    </array>
   </total>
  </dos>
 </calculation>
 <structure name="finalpos" >
  <crystal>
   <varray name="basis" >
    <v>       3.28067700       0.00000000       0.00000000 </v>
    <v>       0.00000000       4.60017600      -0.00005300 </v>
    <v>       0.00000000       0.00000000      20.02439000 </v>
   </varray>
   <i name="volume">    302.20191834 </i>
   <varray name="rec_basis" >
    <v>       0.30481513       0.00000000       0.00000000 </v>
    <v>       0.00000000       0.21738299       0.00000000 </v>
    <v>       0.00000000       0.00000058       0.04993910 </v>
   </varray>
  </crystal>
  <varray name="positions" >
   <v>       0.50000000       0.91181779       0.55262654 </v>
   <v>       0.50000000       0.08818221       0.44737346 </v>
   <v>      -0.00000000       0.41181308       0.44737347 </v>
   <v>       0.00000000       0.58818692       0.55262653 </v>
  </varray>
 </structure>
</modeling>
