<?xml version="1.0" encoding="ISO-8859-1"?>
<modeling>
 <generator>
  <i name="program" type="string">vasp </i>
  <i name="version" type="string">5.4.1  </i>
  <i name="subversion" type="string">24Jun15 (build Nov 20 2020 10:29:34) complex                          parallel </i>
  <i name="platform" type="string">IFC91_ompi </i>
  <i name="date" type="string">2021 09 09 </i>
  <i name="time" type="string">13:44:57 </i>
 </generator>
 <incar>
  <i type="string" name="PREC">a</i>
  <i type="string" name="ALGO"> Normal</i>
  <i type="int" name="ISPIN">     1</i>
  <i type="int" name="ICHARG">     2</i>
  <i type="int" name="NELM">   250</i>
  <i type="int" name="NELMDL">    -5</i>
  <i type="int" name="NELMIN">     6</i>
  <i type="int" name="IBRION">     2</i>
  <i name="EDIFF">      0.00001000</i>
  <i name="EDIFFG">     -0.01000000</i>
  <i type="int" name="NSW">   200</i>
  <i type="int" name="ISIF">     2</i>
  <i name="ENCUT">    520.00000000</i>
  <i name="POTIM">      0.30000000</i>
  <i type="logical" name="LREAL"> F  </i>
  <i type="int" name="ISMEAR">     0</i>
  <i name="SIGMA">      0.02000000</i>
  <i type="logical" name="LWAVE"> F  </i>
  <i type="logical" name="LCHARG"> F  </i>
  <i type="logical" name="LAECHG"> F  </i>
  <v type="int" name="KPOINT_BSE">    -1     0     0     0</v>
  <i type="int" name="NELM">   250</i>
 </incar>
 <kpoints>
  <generation param="Gamma">
   <v type="int" name="divisions">      21       15        1 </v>
   <v name="usershift">      0.00000000       0.00000000       0.00000000 </v>
   <v name="genvec1">      0.04761905       0.00000000       0.00000000 </v>
   <v name="genvec2">      0.00000000       0.06666667       0.00000000 </v>
   <v name="genvec3">     -0.00000000       0.00000000       1.00000000 </v>
   <v name="shift">      0.00000000       0.00000000       0.00000000 </v>
  </generation>
  <varray name="kpointlist" >
   <v>       0.00000000       0.00000000       0.00000000 </v>
   <v>       0.04761905       0.00000000       0.00000000 </v>
   <v>       0.09523810       0.00000000       0.00000000 </v>
   <v>       0.14285714       0.00000000       0.00000000 </v>
   <v>       0.19047619       0.00000000       0.00000000 </v>
   <v>       0.23809524       0.00000000       0.00000000 </v>
   <v>       0.28571429       0.00000000       0.00000000 </v>
   <v>       0.33333333       0.00000000       0.00000000 </v>
   <v>       0.38095238       0.00000000       0.00000000 </v>
   <v>       0.42857143       0.00000000       0.00000000 </v>
   <v>       0.47619048       0.00000000       0.00000000 </v>
   <v>       0.00000000       0.06666667       0.00000000 </v>
   <v>       0.04761905       0.06666667       0.00000000 </v>
   <v>       0.09523810       0.06666667       0.00000000 </v>
   <v>       0.14285714       0.06666667       0.00000000 </v>
   <v>       0.19047619       0.06666667       0.00000000 </v>
   <v>       0.23809524       0.06666667       0.00000000 </v>
   <v>       0.28571429       0.06666667       0.00000000 </v>
   <v>       0.33333333       0.06666667       0.00000000 </v>
   <v>       0.38095238       0.06666667       0.00000000 </v>
   <v>       0.42857143       0.06666667       0.00000000 </v>
   <v>       0.47619048       0.06666667       0.00000000 </v>
   <v>      -0.47619048       0.06666667       0.00000000 </v>
   <v>      -0.42857143       0.06666667       0.00000000 </v>
   <v>      -0.38095238       0.06666667       0.00000000 </v>
   <v>      -0.33333333       0.06666667       0.00000000 </v>
   <v>      -0.28571429       0.06666667       0.00000000 </v>
   <v>      -0.23809524       0.06666667       0.00000000 </v>
   <v>      -0.19047619       0.06666667       0.00000000 </v>
   <v>      -0.14285714       0.06666667       0.00000000 </v>
   <v>      -0.09523810       0.06666667       0.00000000 </v>
   <v>      -0.04761905       0.06666667       0.00000000 </v>
   <v>       0.00000000       0.13333333       0.00000000 </v>
   <v>       0.04761905       0.13333333       0.00000000 </v>
   <v>       0.09523810       0.13333333       0.00000000 </v>
   <v>       0.14285714       0.13333333       0.00000000 </v>
   <v>       0.19047619       0.13333333       0.00000000 </v>
   <v>       0.23809524       0.13333333       0.00000000 </v>
   <v>       0.28571429       0.13333333       0.00000000 </v>
   <v>       0.33333333       0.13333333       0.00000000 </v>
   <v>       0.38095238       0.13333333       0.00000000 </v>
   <v>       0.42857143       0.13333333       0.00000000 </v>
   <v>       0.47619048       0.13333333       0.00000000 </v>
   <v>      -0.47619048       0.13333333       0.00000000 </v>
   <v>      -0.42857143       0.13333333       0.00000000 </v>
   <v>      -0.38095238       0.13333333       0.00000000 </v>
   <v>      -0.33333333       0.13333333       0.00000000 </v>
   <v>      -0.28571429       0.13333333       0.00000000 </v>
   <v>      -0.23809524       0.13333333       0.00000000 </v>
   <v>      -0.19047619       0.13333333       0.00000000 </v>
   <v>      -0.14285714       0.13333333       0.00000000 </v>
   <v>      -0.09523810       0.13333333       0.00000000 </v>
   <v>      -0.04761905       0.13333333       0.00000000 </v>
   <v>       0.00000000       0.20000000       0.00000000 </v>
   <v>       0.04761905       0.20000000       0.00000000 </v>
   <v>       0.09523810       0.20000000       0.00000000 </v>
   <v>       0.14285714       0.20000000       0.00000000 </v>
   <v>       0.19047619       0.20000000       0.00000000 </v>
   <v>       0.23809524       0.20000000       0.00000000 </v>
   <v>       0.28571429       0.20000000       0.00000000 </v>
   <v>       0.33333333       0.20000000       0.00000000 </v>
   <v>       0.38095238       0.20000000       0.00000000 </v>
   <v>       0.42857143       0.20000000       0.00000000 </v>
   <v>       0.47619048       0.20000000       0.00000000 </v>
   <v>      -0.47619048       0.20000000       0.00000000 </v>
   <v>      -0.42857143       0.20000000       0.00000000 </v>
   <v>      -0.38095238       0.20000000       0.00000000 </v>
   <v>      -0.33333333       0.20000000       0.00000000 </v>
   <v>      -0.28571429       0.20000000       0.00000000 </v>
   <v>      -0.23809524       0.20000000       0.00000000 </v>
   <v>      -0.19047619       0.20000000       0.00000000 </v>
   <v>      -0.14285714       0.20000000       0.00000000 </v>
   <v>      -0.09523810       0.20000000       0.00000000 </v>
   <v>      -0.04761905       0.20000000       0.00000000 </v>
   <v>       0.00000000       0.26666667       0.00000000 </v>
   <v>       0.04761905       0.26666667       0.00000000 </v>
   <v>       0.09523810       0.26666667       0.00000000 </v>
   <v>       0.14285714       0.26666667       0.00000000 </v>
   <v>       0.19047619       0.26666667       0.00000000 </v>
   <v>       0.23809524       0.26666667       0.00000000 </v>
   <v>       0.28571429       0.26666667       0.00000000 </v>
   <v>       0.33333333       0.26666667       0.00000000 </v>
   <v>       0.38095238       0.26666667       0.00000000 </v>
   <v>       0.42857143       0.26666667       0.00000000 </v>
   <v>       0.47619048       0.26666667       0.00000000 </v>
   <v>      -0.47619048       0.26666667       0.00000000 </v>
   <v>      -0.42857143       0.26666667       0.00000000 </v>
   <v>      -0.38095238       0.26666667       0.00000000 </v>
   <v>      -0.33333333       0.26666667       0.00000000 </v>
   <v>      -0.28571429       0.26666667       0.00000000 </v>
   <v>      -0.23809524       0.26666667       0.00000000 </v>
   <v>      -0.19047619       0.26666667       0.00000000 </v>
   <v>      -0.14285714       0.26666667       0.00000000 </v>
   <v>      -0.09523810       0.26666667       0.00000000 </v>
   <v>      -0.04761905       0.26666667       0.00000000 </v>
   <v>       0.00000000       0.33333333       0.00000000 </v>
   <v>       0.04761905       0.33333333       0.00000000 </v>
   <v>       0.09523810       0.33333333       0.00000000 </v>
   <v>       0.14285714       0.33333333       0.00000000 </v>
   <v>       0.19047619       0.33333333       0.00000000 </v>
   <v>       0.23809524       0.33333333       0.00000000 </v>
   <v>       0.28571429       0.33333333       0.00000000 </v>
   <v>       0.33333333       0.33333333       0.00000000 </v>
   <v>       0.38095238       0.33333333       0.00000000 </v>
   <v>       0.42857143       0.33333333       0.00000000 </v>
   <v>       0.47619048       0.33333333       0.00000000 </v>
   <v>      -0.47619048       0.33333333       0.00000000 </v>
   <v>      -0.42857143       0.33333333       0.00000000 </v>
   <v>      -0.38095238       0.33333333       0.00000000 </v>
   <v>      -0.33333333       0.33333333       0.00000000 </v>
   <v>      -0.28571429       0.33333333       0.00000000 </v>
   <v>      -0.23809524       0.33333333       0.00000000 </v>
   <v>      -0.19047619       0.33333333       0.00000000 </v>
   <v>      -0.14285714       0.33333333       0.00000000 </v>
   <v>      -0.09523810       0.33333333       0.00000000 </v>
   <v>      -0.04761905       0.33333333       0.00000000 </v>
   <v>       0.00000000       0.40000000       0.00000000 </v>
   <v>       0.04761905       0.40000000       0.00000000 </v>
   <v>       0.09523810       0.40000000       0.00000000 </v>
   <v>       0.14285714       0.40000000       0.00000000 </v>
   <v>       0.19047619       0.40000000       0.00000000 </v>
   <v>       0.23809524       0.40000000       0.00000000 </v>
   <v>       0.28571429       0.40000000       0.00000000 </v>
   <v>       0.33333333       0.40000000       0.00000000 </v>
   <v>       0.38095238       0.40000000       0.00000000 </v>
   <v>       0.42857143       0.40000000       0.00000000 </v>
   <v>       0.47619048       0.40000000       0.00000000 </v>
   <v>      -0.47619048       0.40000000       0.00000000 </v>
   <v>      -0.42857143       0.40000000       0.00000000 </v>
   <v>      -0.38095238       0.40000000       0.00000000 </v>
   <v>      -0.33333333       0.40000000       0.00000000 </v>
   <v>      -0.28571429       0.40000000       0.00000000 </v>
   <v>      -0.23809524       0.40000000       0.00000000 </v>
   <v>      -0.19047619       0.40000000       0.00000000 </v>
   <v>      -0.14285714       0.40000000       0.00000000 </v>
   <v>      -0.09523810       0.40000000       0.00000000 </v>
   <v>      -0.04761905       0.40000000       0.00000000 </v>
   <v>       0.00000000       0.46666667       0.00000000 </v>
   <v>       0.04761905       0.46666667       0.00000000 </v>
   <v>       0.09523810       0.46666667       0.00000000 </v>
   <v>       0.14285714       0.46666667       0.00000000 </v>
   <v>       0.19047619       0.46666667       0.00000000 </v>
   <v>       0.23809524       0.46666667       0.00000000 </v>
   <v>       0.28571429       0.46666667       0.00000000 </v>
   <v>       0.33333333       0.46666667       0.00000000 </v>
   <v>       0.38095238       0.46666667       0.00000000 </v>
   <v>       0.42857143       0.46666667       0.00000000 </v>
   <v>       0.47619048       0.46666667       0.00000000 </v>
   <v>      -0.47619048       0.46666667       0.00000000 </v>
   <v>      -0.42857143       0.46666667       0.00000000 </v>
   <v>      -0.38095238       0.46666667       0.00000000 </v>
   <v>      -0.33333333       0.46666667       0.00000000 </v>
   <v>      -0.28571429       0.46666667       0.00000000 </v>
   <v>      -0.23809524       0.46666667       0.00000000 </v>
   <v>      -0.19047619       0.46666667       0.00000000 </v>
   <v>      -0.14285714       0.46666667       0.00000000 </v>
   <v>      -0.09523810       0.46666667       0.00000000 </v>
   <v>      -0.04761905       0.46666667       0.00000000 </v>
  </varray>
  <varray name="weights" >
   <v>       0.00317460 </v>
   <v>       0.00634921 </v>
   <v>       0.00634921 </v>
   <v>       0.00634921 </v>
   <v>       0.00634921 </v>
   <v>       0.00634921 </v>
   <v>       0.00634921 </v>
   <v>       0.00634921 </v>
   <v>       0.00634921 </v>
   <v>       0.00634921 </v>
   <v>       0.00634921 </v>
   <v>       0.00634921 </v>
   <v>       0.00634921 </v>
   <v>       0.00634921 </v>
   <v>       0.00634921 </v>
   <v>       0.00634921 </v>
   <v>       0.00634921 </v>
   <v>       0.00634921 </v>
   <v>       0.00634921 </v>
   <v>       0.00634921 </v>
   <v>       0.00634921 </v>
   <v>       0.00634921 </v>
   <v>       0.00634921 </v>
   <v>       0.00634921 </v>
   <v>       0.00634921 </v>
   <v>       0.00634921 </v>
   <v>       0.00634921 </v>
   <v>       0.00634921 </v>
   <v>       0.00634921 </v>
   <v>       0.00634921 </v>
   <v>       0.00634921 </v>
   <v>       0.00634921 </v>
   <v>       0.00634921 </v>
   <v>       0.00634921 </v>
   <v>       0.00634921 </v>
   <v>       0.00634921 </v>
   <v>       0.00634921 </v>
   <v>       0.00634921 </v>
   <v>       0.00634921 </v>
   <v>       0.00634921 </v>
   <v>       0.00634921 </v>
   <v>       0.00634921 </v>
   <v>       0.00634921 </v>
   <v>       0.00634921 </v>
   <v>       0.00634921 </v>
   <v>       0.00634921 </v>
   <v>       0.00634921 </v>
   <v>       0.00634921 </v>
   <v>       0.00634921 </v>
   <v>       0.00634921 </v>
   <v>       0.00634921 </v>
   <v>       0.00634921 </v>
   <v>       0.00634921 </v>
   <v>       0.00634921 </v>
   <v>       0.00634921 </v>
   <v>       0.00634921 </v>
   <v>       0.00634921 </v>
   <v>       0.00634921 </v>
   <v>       0.00634921 </v>
   <v>       0.00634921 </v>
   <v>       0.00634921 </v>
   <v>       0.00634921 </v>
   <v>       0.00634921 </v>
   <v>       0.00634921 </v>
   <v>       0.00634921 </v>
   <v>       0.00634921 </v>
   <v>       0.00634921 </v>
   <v>       0.00634921 </v>
   <v>       0.00634921 </v>
   <v>       0.00634921 </v>
   <v>       0.00634921 </v>
   <v>       0.00634921 </v>
   <v>       0.00634921 </v>
   <v>       0.00634921 </v>
   <v>       0.00634921 </v>
   <v>       0.00634921 </v>
   <v>       0.00634921 </v>
   <v>       0.00634921 </v>
   <v>       0.00634921 </v>
   <v>       0.00634921 </v>
   <v>       0.00634921 </v>
   <v>       0.00634921 </v>
   <v>       0.00634921 </v>
   <v>       0.00634921 </v>
   <v>       0.00634921 </v>
   <v>       0.00634921 </v>
   <v>       0.00634921 </v>
   <v>       0.00634921 </v>
   <v>       0.00634921 </v>
   <v>       0.00634921 </v>
   <v>       0.00634921 </v>
   <v>       0.00634921 </v>
   <v>       0.00634921 </v>
   <v>       0.00634921 </v>
   <v>       0.00634921 </v>
   <v>       0.00634921 </v>
   <v>       0.00634921 </v>
   <v>       0.00634921 </v>
   <v>       0.00634921 </v>
   <v>       0.00634921 </v>
   <v>       0.00634921 </v>
   <v>       0.00634921 </v>
   <v>       0.00634921 </v>
   <v>       0.00634921 </v>
   <v>       0.00634921 </v>
   <v>       0.00634921 </v>
   <v>       0.00634921 </v>
   <v>       0.00634921 </v>
   <v>       0.00634921 </v>
   <v>       0.00634921 </v>
   <v>       0.00634921 </v>
   <v>       0.00634921 </v>
   <v>       0.00634921 </v>
   <v>       0.00634921 </v>
   <v>       0.00634921 </v>
   <v>       0.00634921 </v>
   <v>       0.00634921 </v>
   <v>       0.00634921 </v>
   <v>       0.00634921 </v>
   <v>       0.00634921 </v>
   <v>       0.00634921 </v>
   <v>       0.00634921 </v>
   <v>       0.00634921 </v>
   <v>       0.00634921 </v>
   <v>       0.00634921 </v>
   <v>       0.00634921 </v>
   <v>       0.00634921 </v>
   <v>       0.00634921 </v>
   <v>       0.00634921 </v>
   <v>       0.00634921 </v>
   <v>       0.00634921 </v>
   <v>       0.00634921 </v>
   <v>       0.00634921 </v>
   <v>       0.00634921 </v>
   <v>       0.00634921 </v>
   <v>       0.00634921 </v>
   <v>       0.00634921 </v>
   <v>       0.00634921 </v>
   <v>       0.00634921 </v>
   <v>       0.00634921 </v>
   <v>       0.00634921 </v>
   <v>       0.00634921 </v>
   <v>       0.00634921 </v>
   <v>       0.00634921 </v>
   <v>       0.00634921 </v>
   <v>       0.00634921 </v>
   <v>       0.00634921 </v>
   <v>       0.00634921 </v>
   <v>       0.00634921 </v>
   <v>       0.00634921 </v>
   <v>       0.00634921 </v>
   <v>       0.00634921 </v>
   <v>       0.00634921 </v>
   <v>       0.00634921 </v>
   <v>       0.00634921 </v>
   <v>       0.00634921 </v>
   <v>       0.00634921 </v>
   <v>       0.00634921 </v>
  </varray>
 </kpoints>
 <parameters>
  <separator name="general" >
   <i type="string" name="SYSTEM">unknown system</i>
   <i type="logical" name="LCOMPAT"> F  </i>
  </separator>
  <separator name="electronic" >
   <i type="string" name="PREC">a</i>
   <i name="ENMAX">    520.00000000</i>
   <i name="ENAUG">    342.92400000</i>
   <i name="EDIFF">      0.00001000</i>
   <i type="int" name="IALGO">    38</i>
   <i type="int" name="IWAVPR">    11</i>
   <i type="int" name="NBANDS">    16</i>
   <i name="NELECT">     20.00000000</i>
   <i type="int" name="TURBO">     0</i>
   <i type="int" name="IRESTART">     0</i>
   <i type="int" name="NREBOOT">     0</i>
   <i type="int" name="NMIN">     0</i>
   <i name="EREF">      0.00000000</i>
   <separator name="electronic smearing" >
    <i type="int" name="ISMEAR">     0</i>
    <i name="SIGMA">      0.02000000</i>
    <i name="KSPACING">      0.50000000</i>
    <i type="logical" name="KGAMMA"> T  </i>
   </separator>
   <separator name="electronic projectors" >
    <i type="logical" name="LREAL"> F  </i>
    <v name="ROPT">      0.00000000</v>
    <i type="int" name="LMAXPAW">  -100</i>
    <i type="int" name="LMAXMIX">     2</i>
    <i type="logical" name="NLSPLINE"> F  </i>
   </separator>
   <separator name="electronic startup" >
    <i type="int" name="ISTART">     0</i>
    <i type="int" name="ICHARG">     2</i>
    <i type="int" name="INIWAV">     1</i>
   </separator>
   <separator name="electronic spin" >
    <i type="int" name="ISPIN">     1</i>
    <i type="logical" name="LNONCOLLINEAR"> F  </i>
    <v name="MAGMOM">      1.00000000      1.00000000      1.00000000      1.00000000</v>
    <i name="NUPDOWN">     -1.00000000</i>
    <i type="logical" name="LSORBIT"> F  </i>
    <v name="SAXIS">      0.00000000      0.00000000      1.00000000</v>
    <i type="logical" name="LSPIRAL"> F  </i>
    <v name="QSPIRAL">      0.00000000      0.00000000      0.00000000</v>
    <i type="logical" name="LZEROZ"> F  </i>
   </separator>
   <separator name="electronic exchange-correlation" >
    <i type="logical" name="LASPH"> F  </i>
    <i type="logical" name="LMETAGGA"> F  </i>
   </separator>
   <separator name="electronic convergence" >
    <i type="int" name="NELM">   250</i>
    <i type="int" name="NELMDL">    -5</i>
    <i type="int" name="NELMIN">     6</i>
    <i name="ENINI">    520.00000000</i>
    <separator name="electronic convergence detail" >
     <i type="logical" name="LDIAG"> T  </i>
     <i type="logical" name="LSUBROT"> F  </i>
     <i name="WEIMIN">      0.00100000</i>
     <i name="EBREAK">      0.00000016</i>
     <i name="DEPER">      0.30000000</i>
     <i type="int" name="NRMM">     4</i>
     <i name="TIME">      0.40000000</i>
    </separator>
   </separator>
   <separator name="electronic mixer" >
    <i name="AMIX">      0.40000000</i>
    <i name="BMIX">      1.00000000</i>
    <i name="AMIN">      0.10000000</i>
    <i name="AMIX_MAG">      1.60000000</i>
    <i name="BMIX_MAG">      1.00000000</i>
    <separator name="electronic mixer details" >
     <i type="int" name="IMIX">     4</i>
     <i type="logical" name="MIXFIRST"> F  </i>
     <i type="int" name="MAXMIX">   -45</i>
     <i name="WC">    100.00000000</i>
     <i type="int" name="INIMIX">     1</i>
     <i type="int" name="MIXPRE">     1</i>
     <i type="int" name="MREMOVE">     5</i>
    </separator>
   </separator>
   <separator name="electronic dipolcorrection" >
    <i type="logical" name="LDIPOL"> F  </i>
    <i type="logical" name="LMONO"> F  </i>
    <i type="int" name="IDIPOL">     0</i>
    <i name="EPSILON">      1.00000000</i>
    <v name="DIPOL">   -100.00000000   -100.00000000   -100.00000000</v>
    <i name="EFIELD">      0.00000000</i>
   </separator>
  </separator>
  <separator name="grids" >
   <i type="int" name="NGX">    28</i>
   <i type="int" name="NGY">    36</i>
   <i type="int" name="NGZ">   150</i>
   <i type="int" name="NGXF">    56</i>
   <i type="int" name="NGYF">    72</i>
   <i type="int" name="NGZF">   300</i>
   <i type="logical" name="ADDGRID"> F  </i>
  </separator>
  <separator name="ionic" >
   <i type="int" name="NSW">   200</i>
   <i type="int" name="IBRION">     2</i>
   <i type="int" name="ISIF">     2</i>
   <i name="PSTRESS">      0.00000000</i>
   <i name="EDIFFG">     -0.01000000</i>
   <i type="int" name="NFREE">     1</i>
   <i name="POTIM">      0.30000000</i>
   <i name="SMASS">     -3.00000000</i>
   <i name="SCALEE">      1.00000000</i>
  </separator>
  <separator name="ionic md" >
   <i name="TEBEG">      0.00010000</i>
   <i name="TEEND">      0.00010000</i>
   <i type="int" name="NBLOCK">     1</i>
   <i type="int" name="KBLOCK">   200</i>
   <i type="int" name="NPACO">   256</i>
   <i name="APACO">     16.00000000</i>
  </separator>
  <separator name="symmetry" >
   <i type="int" name="ISYM">     2</i>
   <i name="SYMPREC">      0.00001000</i>
  </separator>
  <separator name="dos" >
   <i type="logical" name="LORBIT"> F  </i>
   <v name="RWIGS">     -1.00000000</v>
   <i type="int" name="NEDOS">   301</i>
   <i name="EMIN">     10.00000000</i>
   <i name="EMAX">    -10.00000000</i>
   <i name="EFERMI">      0.00000000</i>
  </separator>
  <separator name="writing" >
   <i type="int" name="NWRITE">     2</i>
   <i type="logical" name="LWAVE"> F  </i>
   <i type="logical" name="LCHARG"> F  </i>
   <i type="logical" name="LPARD"> F  </i>
   <i type="logical" name="LVTOT"> F  </i>
   <i type="logical" name="LVHAR"> F  </i>
   <i type="logical" name="LELF"> F  </i>
   <i type="logical" name="LOPTICS"> F  </i>
   <v name="STM">      0.00000000      0.00000000      0.00000000      0.00000000      0.00000000      0.00000000      0.00000000</v>
  </separator>
  <separator name="performance" >
   <i type="int" name="NPAR">     4</i>
   <i type="int" name="NSIM">     4</i>
   <i type="int" name="NBLK">    -1</i>
   <i type="logical" name="LPLANE"> T  </i>
   <i type="logical" name="LSCALAPACK"> T  </i>
   <i type="logical" name="LSCAAWARE"> F  </i>
   <i type="logical" name="LSCALU"> F  </i>
   <i type="logical" name="LASYNC"> F  </i>
   <i type="logical" name="LORBITALREAL"> F  </i>
  </separator>
  <separator name="miscellaneous" >
   <i type="int" name="IDIOT">     3</i>
   <i type="logical" name="LMUSIC"> F  </i>
   <v name="POMASS">     30.97400000</v>
   <v name="DARWINR">      0.00000000</v>
   <v name="DARWINV">      1.00000000</v>
   <i type="logical" name="LCORR"> T  </i>
  </separator>
  <i type="logical" name="GGA_COMPAT"> T  </i>
  <i type="logical" name="LBERRY"> F  </i>
  <i type="int" name="ICORELEVEL">     0</i>
  <i type="logical" name="LDAU"> F  </i>
  <i type="int" name="I_CONSTRAINED_M">     0</i>
  <separator name="electronic exchange-correlation" >
   <i type="string" name="GGA">--</i>
   <i type="int" name="VOSKOWN">     0</i>
   <i type="logical" name="LHFCALC"> F  </i>
   <i type="string" name="PRECFOCK"></i>
   <i type="logical" name="LSYMGRAD"> F  </i>
   <i type="logical" name="LHFONE"> F  </i>
   <i type="logical" name="LRHFCALC"> F  </i>
   <i type="logical" name="LTHOMAS"> F  </i>
   <i type="logical" name="LMODELHF"> F  </i>
   <i name="ENCUT4O">     -1.00000000</i>
   <i type="int" name="EXXOEP">     0</i>
   <i type="int" name="FOURORBIT">     0</i>
   <i name="AEXX">      0.00000000</i>
   <i name="HFALPHA">      0.00000000</i>
   <i name="MCALPHA">      0.00000000</i>
   <i name="ALDAX">      1.00000000</i>
   <i name="AGGAX">      1.00000000</i>
   <i name="ALDAC">      1.00000000</i>
   <i name="AGGAC">      1.00000000</i>
   <i type="int" name="NKREDX">     1</i>
   <i type="int" name="NKREDY">     1</i>
   <i type="int" name="NKREDZ">     1</i>
   <i type="logical" name="SHIFTRED"> F  </i>
   <i type="logical" name="ODDONLY"> F  </i>
   <i type="logical" name="EVENONLY"> F  </i>
   <i type="int" name="LMAXFOCK">     0</i>
   <i type="int" name="NMAXFOCKAE">     0</i>
   <i type="logical" name="LFOCKAEDFT"> F  </i>
   <i name="HFSCREEN">      0.00000000</i>
   <i name="HFSCREENC">      0.00000000</i>
   <i type="int" name="NBANDSGWLOW">     0</i>
  </separator>
  <separator name="vdW DFT" >
   <i type="logical" name="LUSE_VDW"> F  </i>
   <i name="Zab_VDW">     -0.84910000</i>
   <i name="PARAM1">      0.12340000</i>
   <i name="PARAM2">      1.00000000</i>
   <i name="PARAM3">      0.00000000</i>
  </separator>
  <separator name="model GW" >
   <i type="int" name="MODEL_GW">     0</i>
   <i name="MODEL_EPS0">     45.95826493</i>
   <i name="MODEL_ALPHA">      1.00000000</i>
  </separator>
  <separator name="linear response parameters" >
   <i type="logical" name="LEPSILON"> F  </i>
   <i type="logical" name="LRPA"> F  </i>
   <i type="logical" name="LNABLA"> F  </i>
   <i type="logical" name="LVEL"> F  </i>
   <i type="int" name="KINTER">     0</i>
   <i name="CSHIFT">      0.10000000</i>
   <i name="OMEGAMAX">     -1.00000000</i>
   <i name="DEG_THRESHOLD">      0.00200000</i>
  </separator>
  <separator name="orbital magnetization" >
   <i type="logical" name="NUCIND"> F  </i>
   <v name="MAGPOS">      0.00000000      0.00000000      0.00000000</v>
   <i type="logical" name="LNICSALL"> T  </i>
   <i type="logical" name="ORBITALMAG"> F  </i>
   <i type="logical" name="LMAGBLOCH"> F  </i>
   <i type="logical" name="LCHIMAG"> F  </i>
   <i type="logical" name="LGAUGE"> T  </i>
   <i type="int" name="MAGATOM">     0</i>
   <v name="MAGDIPOL">      0.00000000      0.00000000      0.00000000</v>
   <v name="AVECCONST">      0.00000000      0.00000000      0.00000000</v>
  </separator>
  <separator name="response functions" >
   <i type="logical" name="LADDER"> F  </i>
   <i type="logical" name="LFXC"> F  </i>
   <i type="logical" name="LHARTREE"> T  </i>
   <i type="int" name="IBSE">     0</i>
   <v type="int" name="KPOINT">    -1     0     0     0</v>
   <i type="logical" name="LTCTE"> F  </i>
   <i type="logical" name="LTETE"> F  </i>
   <i type="logical" name="LTRIPLET"> F  </i>
   <i type="logical" name="LFXCEPS"> F  </i>
   <i type="logical" name="LFXHEG"> F  </i>
   <i type="int" name="NATURALO">     0</i>
   <i type="logical" name="L2ORDER"> F  </i>
   <i type="logical" name="LUSEW"> F  </i>
   <i name="ENCUTGW">     -2.00000000</i>
   <i name="ENCUTGWSOFT">     -2.00000000</i>
   <i name="ENCUTLF">     -1.00000000</i>
   <i type="int" name="LMAXMP2">    -1</i>
   <i name="SCISSOR">      0.00000000</i>
   <i type="int" name="NOMEGA">     0</i>
   <i type="int" name="NOMEGAR">     0</i>
   <i type="int" name="NBANDSGW">    -1</i>
   <i type="int" name="NBANDSO">    -1</i>
   <i type="int" name="NBANDSV">    -1</i>
   <i type="int" name="NELM">   250</i>
   <i type="int" name="NELMHF">     1</i>
   <i type="int" name="DIM">     3</i>
   <i type="int" name="ANTIRES">     0</i>
   <i name="OMEGAMAX">    -30.00000000</i>
   <i name="OMEGAMIN">    -30.00000000</i>
   <i name="OMEGATL">   -200.00000000</i>
   <i type="int" name="OMEGAGRID">     0</i>
   <i name="CSHIFT">     -0.10000000</i>
   <i type="logical" name="SELFENERGY"> F  </i>
   <i type="logical" name="LSPECTRAL"> F  </i>
   <i type="logical" name="LSPECTRALGW"> F  </i>
   <i type="logical" name="LSINGLES"> F  </i>
   <i type="logical" name="LFERMIGW"> F  </i>
   <i type="logical" name="ODDONLYGW"> F  </i>
   <i type="logical" name="EVENONLYGW"> F  </i>
   <i type="int" name="NKREDLFX">     1</i>
   <i type="int" name="NKREDLFY">     1</i>
   <i type="int" name="NKREDLFZ">     1</i>
   <i type="int" name="MAXMEM">  1800</i>
   <i type="int" name="TELESCOPE">     0</i>
   <i type="int" name="TAUPAR">     1</i>
   <i type="int" name="OMEGAPAR">    -1</i>
   <i name="LAMBDA">      1.00000000</i>
  </separator>
  <separator name="External order field" >
   <i name="OFIELD_KAPPA">      0.00000000</i>
   <v name="OFIELD_K">      0.00000000      0.00000000      0.00000000</v>
   <i name="OFIELD_Q6_NEAR">      0.00000000</i>
   <i name="OFIELD_Q6_FAR">      0.00000000</i>
   <i name="OFIELD_A">      0.00000000</i>
  </separator>
 </parameters>
 <atominfo>
  <atoms>       4 </atoms>
  <types>       1 </types>
  <array name="atoms" >
   <dimension dim="1">ion</dimension>
   <field type="string">element</field>
   <field type="int">atomtype</field>
   <set>
    <rc><c>P </c><c>   1</c></rc>
    <rc><c>P </c><c>   1</c></rc>
    <rc><c>P </c><c>   1</c></rc>
    <rc><c>P </c><c>   1</c></rc>
   </set>
  </array>
  <array name="atomtypes" >
   <dimension dim="1">type</dimension>
   <field type="int">atomspertype</field>
   <field type="string">element</field>
   <field>mass</field>
   <field>valence</field>
   <field type="string">pseudopotential</field>
   <set>
    <rc><c>   4</c><c>P </c><c>     30.97400000</c><c>      5.00000000</c><c>  PAW_PBE P 06Sep2000                   </c></rc>
   </set>
  </array>
 </atominfo>
 <structure name="initialpos" >
  <crystal>
   <varray name="basis" >
    <v>       3.30952200       0.01234200       0.00000000 </v>
    <v>       0.01730500       4.62331900      -0.00005300 </v>
    <v>       0.00000000       0.00000000      20.02439000 </v>
   </varray>
   <i name="volume">    306.38843290 </i>
   <varray name="rec_basis" >
    <v>       0.30216266      -0.00113099       0.00000000 </v>
    <v>      -0.00080663       0.21629785       0.00000000 </v>
    <v>      -0.00000000       0.00000057       0.04993910 </v>
   </varray>
  </crystal>
  <varray name="positions" >
   <v>       0.50000000       0.91077300       0.55252100 </v>
   <v>       0.50000000       0.08922700       0.44747900 </v>
   <v>       0.00000000       0.41076900       0.44747900 </v>
   <v>       0.00000000       0.58923100       0.55252100 </v>
  </varray>
 </structure>
 <calculation>
  <scstep>
   <time name="dav">    1.50    1.50</time>
   <time name="total">    1.52    1.53</time>
   <energy>
    <i name="alphaZ">      5.23571019 </i>
    <i name="ewald">   1854.19586119 </i>
    <i name="hartreedc">  -2448.02664774 </i>
    <i name="XCdc">     12.99331867 </i>
    <i name="pawpsdc">    559.04011960 </i>
    <i name="pawaedc">   -526.39432044 </i>
    <i name="eentropy">     -0.00050039 </i>
    <i name="bandstr">    -27.85291098 </i>
    <i name="atom">    704.16778566 </i>
    <i name="e_fr_energy">    133.35841576 </i>
    <i name="e_wo_entrp">    133.35891614 </i>
    <i name="e_0_energy">    133.35866595 </i>
   </energy>
  </scstep>
  <scstep>
   <time name="dav">    1.99    1.99</time>
   <time name="total">    1.99    1.99</time>
   <energy>
    <i name="e_fr_energy">     -6.14103380 </i>
    <i name="e_wo_entrp">     -6.14103380 </i>
    <i name="e_0_energy">     -6.14103380 </i>
   </energy>
  </scstep>
  <scstep>
   <time name="dav">    1.83    1.83</time>
   <time name="total">    1.83    1.83</time>
   <energy>
    <i name="e_fr_energy">    -21.33905980 </i>
    <i name="e_wo_entrp">    -21.33905980 </i>
    <i name="e_0_energy">    -21.33905980 </i>
   </energy>
  </scstep>
  <scstep>
   <time name="dav">    1.87    1.87</time>
   <time name="total">    1.87    1.87</time>
   <energy>
    <i name="e_fr_energy">    -21.65361024 </i>
    <i name="e_wo_entrp">    -21.65361024 </i>
    <i name="e_0_energy">    -21.65361024 </i>
   </energy>
  </scstep>
  <scstep>
   <time name="dav">    1.99    1.99</time>
   <time name="total">    2.09    2.09</time>
   <energy>
    <i name="e_fr_energy">    -21.66344145 </i>
    <i name="e_wo_entrp">    -21.66344145 </i>
    <i name="e_0_energy">    -21.66344145 </i>
   </energy>
  </scstep>
  <scstep>
   <time name="dav">    1.81    1.81</time>
   <time name="total">    1.93    1.93</time>
   <energy>
    <i name="e_fr_energy">    -21.52276890 </i>
    <i name="e_wo_entrp">    -21.52276890 </i>
    <i name="e_0_energy">    -21.52276890 </i>
   </energy>
  </scstep>
  <scstep>
   <time name="dav">    1.73    1.73</time>
   <time name="total">    1.84    1.84</time>
   <energy>
    <i name="e_fr_energy">    -21.45556732 </i>
    <i name="e_wo_entrp">    -21.45556732 </i>
    <i name="e_0_energy">    -21.45556732 </i>
   </energy>
  </scstep>
  <scstep>
   <time name="dav">    1.82    1.82</time>
   <time name="total">    1.93    1.94</time>
   <energy>
    <i name="e_fr_energy">    -21.45498972 </i>
    <i name="e_wo_entrp">    -21.45498972 </i>
    <i name="e_0_energy">    -21.45498972 </i>
   </energy>
  </scstep>
  <scstep>
   <time name="dav">    2.11    2.11</time>
   <time name="total">    2.22    2.22</time>
   <energy>
    <i name="e_fr_energy">    -21.45484262 </i>
    <i name="e_wo_entrp">    -21.45484262 </i>
    <i name="e_0_energy">    -21.45484262 </i>
   </energy>
  </scstep>
  <scstep>
   <time name="dav">    1.82    1.82</time>
   <time name="total">    1.93    1.94</time>
   <energy>
    <i name="e_fr_energy">    -21.45468731 </i>
    <i name="e_wo_entrp">    -21.45468731 </i>
    <i name="e_0_energy">    -21.45468731 </i>
   </energy>
  </scstep>
  <scstep>
   <time name="dav">    1.81    1.81</time>
   <time name="total">    1.93    1.93</time>
   <energy>
    <i name="e_fr_energy">    -21.45459404 </i>
    <i name="e_wo_entrp">    -21.45459404 </i>
    <i name="e_0_energy">    -21.45459404 </i>
   </energy>
  </scstep>
  <scstep>
   <time name="dav">    1.63    1.63</time>
   <time name="total">    1.74    1.74</time>
   <energy>
    <i name="e_fr_energy">    -21.45498668 </i>
    <i name="e_wo_entrp">    -21.45498668 </i>
    <i name="e_0_energy">    -21.45498668 </i>
   </energy>
  </scstep>
  <scstep>
   <time name="dav">    1.62    1.62</time>
   <time name="total">    1.73    1.73</time>
   <energy>
    <i name="e_fr_energy">    -21.45507788 </i>
    <i name="e_wo_entrp">    -21.45507788 </i>
    <i name="e_0_energy">    -21.45507788 </i>
   </energy>
  </scstep>
  <scstep>
   <time name="dav">    1.49    1.49</time>
   <time name="total">    1.60    1.60</time>
   <energy>
    <i name="e_fr_energy">    -21.45520622 </i>
    <i name="e_wo_entrp">    -21.45520622 </i>
    <i name="e_0_energy">    -21.45520622 </i>
   </energy>
  </scstep>
  <scstep>
   <time name="dav">    1.54    1.54</time>
   <time name="total">    1.66    1.66</time>
   <energy>
    <i name="e_fr_energy">    -21.45524282 </i>
    <i name="e_wo_entrp">    -21.45524282 </i>
    <i name="e_0_energy">    -21.45524282 </i>
   </energy>
  </scstep>
  <scstep>
   <time name="dav">    1.46    1.46</time>
   <time name="total">    1.57    1.57</time>
   <energy>
    <i name="e_fr_energy">    -21.45527335 </i>
    <i name="e_wo_entrp">    -21.45527335 </i>
    <i name="e_0_energy">    -21.45527335 </i>
   </energy>
  </scstep>
  <scstep>
   <time name="dav">    1.47    1.47</time>
   <time name="total">    1.49    1.50</time>
   <energy>
    <i name="alphaZ">      5.23571019 </i>
    <i name="ewald">   1854.19586119 </i>
    <i name="hartreedc">  -2463.21865857 </i>
    <i name="XCdc">     14.05453843 </i>
    <i name="pawpsdc">   2085.96839290 </i>
    <i name="pawaedc">  -2053.65551652 </i>
    <i name="eentropy">     -0.00000000 </i>
    <i name="bandstr">   -168.20338903 </i>
    <i name="atom">    704.16778566 </i>
    <i name="e_fr_energy">    -21.45527576 </i>
    <i name="e_wo_entrp">    -21.45527576 </i>
    <i name="e_0_energy">    -21.45527576 </i>
   </energy>
  </scstep>
  <structure>
   <crystal>
    <varray name="basis" >
     <v>       3.30952200       0.01234200       0.00000000 </v>
     <v>       0.01730500       4.62331900      -0.00005300 </v>
     <v>       0.00000000       0.00000000      20.02439000 </v>
    </varray>
    <i name="volume">    306.38843290 </i>
    <varray name="rec_basis" >
     <v>       0.30216266      -0.00113099       0.00000000 </v>
     <v>      -0.00080663       0.21629785       0.00000000 </v>
     <v>      -0.00000000       0.00000057       0.04993910 </v>
    </varray>
   </crystal>
   <varray name="positions" >
    <v>       0.50000000       0.91077300       0.55252100 </v>
    <v>       0.50000000       0.08922700       0.44747900 </v>
    <v>       0.00000000       0.41076900       0.44747900 </v>
    <v>       0.00000000       0.58923100       0.55252100 </v>
   </varray>
  </structure>
  <varray name="forces" >
   <v>      -0.09448063      -0.00915195      -0.00804879 </v>
   <v>       0.09448063       0.00915195       0.00804879 </v>
   <v>      -0.09448009      -0.00918389       0.00805138 </v>
   <v>       0.09448009       0.00918389      -0.00805138 </v>
  </varray>
  <varray name="stress" >
   <v>      -1.79974201      -2.08932054       0.00001480 </v>
   <v>      -2.08932053      -0.49045908       0.00036112 </v>
   <v>       0.00001477       0.00036119      -0.24168325 </v>
  </varray>
  <energy>
   <i name="e_fr_energy">    -21.45527576 </i>
   <i name="e_wo_entrp">    -21.45527576 </i>
   <i name="e_0_energy">     -0.00000000 </i>
  </energy>
  <time name="totalsc">   31.65   31.70</time>
 </calculation>
 <calculation>
  <scstep>
   <time name="dav">    1.56    1.56</time>
   <time name="total">    1.67    1.67</time>
   <energy>
    <i name="alphaZ">      5.23571019 </i>
    <i name="ewald">   1854.44212394 </i>
    <i name="hartreedc">  -2463.45586498 </i>
    <i name="XCdc">     14.05705602 </i>
    <i name="pawpsdc">   2085.66034833 </i>
    <i name="pawaedc">  -2053.34751894 </i>
    <i name="eentropy">     -0.00000000 </i>
    <i name="bandstr">   -168.21558504 </i>
    <i name="atom">    704.16778566 </i>
    <i name="e_fr_energy">    -21.45594483 </i>
    <i name="e_wo_entrp">    -21.45594483 </i>
    <i name="e_0_energy">    -21.45594483 </i>
   </energy>
  </scstep>
  <scstep>
   <time name="dav">    1.86    1.86</time>
   <time name="total">    1.97    1.98</time>
   <energy>
    <i name="e_fr_energy">    -21.45604221 </i>
    <i name="e_wo_entrp">    -21.45604221 </i>
    <i name="e_0_energy">    -21.45604221 </i>
   </energy>
  </scstep>
  <scstep>
   <time name="dav">    1.79    1.79</time>
   <time name="total">    1.90    1.90</time>
   <energy>
    <i name="e_fr_energy">    -21.45603824 </i>
    <i name="e_wo_entrp">    -21.45603824 </i>
    <i name="e_0_energy">    -21.45603824 </i>
   </energy>
  </scstep>
  <scstep>
   <time name="dav">    1.33    1.33</time>
   <time name="total">    1.44    1.45</time>
   <energy>
    <i name="e_fr_energy">    -21.45603879 </i>
    <i name="e_wo_entrp">    -21.45603879 </i>
    <i name="e_0_energy">    -21.45603879 </i>
   </energy>
  </scstep>
  <scstep>
   <time name="dav">    1.28    1.28</time>
   <time name="total">    1.39    1.39</time>
   <energy>
    <i name="e_fr_energy">    -21.45604019 </i>
    <i name="e_wo_entrp">    -21.45604019 </i>
    <i name="e_0_energy">    -21.45604019 </i>
   </energy>
  </scstep>
  <scstep>
   <time name="dav">    1.23    1.23</time>
   <time name="total">    1.25    1.25</time>
   <energy>
    <i name="alphaZ">      5.23571019 </i>
    <i name="ewald">   1854.44212394 </i>
    <i name="hartreedc">  -2463.46085070 </i>
    <i name="XCdc">     14.05717117 </i>
    <i name="pawpsdc">   2086.91175846 </i>
    <i name="pawaedc">  -2054.59933852 </i>
    <i name="eentropy">     -0.00000000 </i>
    <i name="bandstr">   -168.21040102 </i>
    <i name="atom">    704.16778566 </i>
    <i name="e_fr_energy">    -21.45604083 </i>
    <i name="e_wo_entrp">    -21.45604083 </i>
    <i name="e_0_energy">    -21.45604083 </i>
   </energy>
  </scstep>
  <structure>
   <crystal>
    <varray name="basis" >
     <v>       3.30952200       0.01234200       0.00000000 </v>
     <v>       0.01730500       4.62331900      -0.00005300 </v>
     <v>       0.00000000       0.00000000      20.02439000 </v>
    </varray>
    <i name="volume">    306.38843290 </i>
    <varray name="rec_basis" >
     <v>       0.30216266      -0.00113099       0.00000000 </v>
     <v>      -0.00080663       0.21629785       0.00000000 </v>
     <v>      -0.00000000       0.00000057       0.04993910 </v>
    </varray>
   </crystal>
   <varray name="positions" >
    <v>       0.49917395       0.91071791       0.55250937 </v>
    <v>       0.50082605       0.08928209       0.44749063 </v>
    <v>      -0.00082605       0.41071371       0.44749064 </v>
    <v>       0.00082605       0.58928629       0.55250936 </v>
   </varray>
  </structure>
  <varray name="forces" >
   <v>      -0.03965263      -0.00552954      -0.00552679 </v>
   <v>       0.03965263       0.00552954       0.00552679 </v>
   <v>      -0.03965182      -0.00555611       0.00552792 </v>
   <v>       0.03965182       0.00555611      -0.00552792 </v>
  </varray>
  <varray name="stress" >
   <v>      -1.79294444      -1.36385076       0.00000883 </v>
   <v>      -1.36385078      -0.41925682       0.00029689 </v>
   <v>       0.00000880       0.00029687      -0.19473075 </v>
  </varray>
  <energy>
   <i name="e_fr_energy">    -21.45604083 </i>
   <i name="e_wo_entrp">    -21.45604083 </i>
   <i name="e_0_energy">     -0.00000000 </i>
  </energy>
  <time name="totalsc">   10.41   10.42</time>
 </calculation>
 <calculation>
  <scstep>
   <time name="dav">    1.54    1.54</time>
   <time name="total">    1.65    1.66</time>
   <energy>
    <i name="alphaZ">      5.23571019 </i>
    <i name="ewald">   1854.62461361 </i>
    <i name="hartreedc">  -2463.62705770 </i>
    <i name="XCdc">     14.05902006 </i>
    <i name="pawpsdc">   2086.92606769 </i>
    <i name="pawaedc">  -2054.61364469 </i>
    <i name="eentropy">     -0.00000000 </i>
    <i name="bandstr">   -168.22865024 </i>
    <i name="atom">    704.16778566 </i>
    <i name="e_fr_energy">    -21.45615542 </i>
    <i name="e_wo_entrp">    -21.45615542 </i>
    <i name="e_0_energy">    -21.45615542 </i>
   </energy>
  </scstep>
  <scstep>
   <time name="dav">    1.83    1.83</time>
   <time name="total">    1.94    1.94</time>
   <energy>
    <i name="e_fr_energy">    -21.45620821 </i>
    <i name="e_wo_entrp">    -21.45620821 </i>
    <i name="e_0_energy">    -21.45620821 </i>
   </energy>
  </scstep>
  <scstep>
   <time name="dav">    1.57    1.57</time>
   <time name="total">    1.68    1.68</time>
   <energy>
    <i name="e_fr_energy">    -21.45620547 </i>
    <i name="e_wo_entrp">    -21.45620547 </i>
    <i name="e_0_energy">    -21.45620547 </i>
   </energy>
  </scstep>
  <scstep>
   <time name="dav">    1.22    1.22</time>
   <time name="total">    1.34    1.34</time>
   <energy>
    <i name="e_fr_energy">    -21.45620523 </i>
    <i name="e_wo_entrp">    -21.45620523 </i>
    <i name="e_0_energy">    -21.45620523 </i>
   </energy>
  </scstep>
  <scstep>
   <time name="dav">    1.19    1.19</time>
   <time name="total">    1.30    1.30</time>
   <energy>
    <i name="e_fr_energy">    -21.45620556 </i>
    <i name="e_wo_entrp">    -21.45620556 </i>
    <i name="e_0_energy">    -21.45620556 </i>
   </energy>
  </scstep>
  <scstep>
   <time name="dav">    1.14    1.14</time>
   <time name="total">    1.16    1.17</time>
   <energy>
    <i name="alphaZ">      5.23571019 </i>
    <i name="ewald">   1854.62461361 </i>
    <i name="hartreedc">  -2463.62832378 </i>
    <i name="XCdc">     14.05915294 </i>
    <i name="pawpsdc">   2087.93430530 </i>
    <i name="pawaedc">  -2055.62223731 </i>
    <i name="eentropy">     -0.00000000 </i>
    <i name="bandstr">   -168.22721229 </i>
    <i name="atom">    704.16778566 </i>
    <i name="e_fr_energy">    -21.45620567 </i>
    <i name="e_wo_entrp">    -21.45620567 </i>
    <i name="e_0_energy">    -21.45620567 </i>
   </energy>
  </scstep>
  <structure>
   <crystal>
    <varray name="basis" >
     <v>       3.30952200       0.01234200       0.00000000 </v>
     <v>       0.01730500       4.62331900      -0.00005300 </v>
     <v>       0.00000000       0.00000000      20.02439000 </v>
    </varray>
    <i name="volume">    306.38843290 </i>
    <varray name="rec_basis" >
     <v>       0.30216266      -0.00113099       0.00000000 </v>
     <v>      -0.00080663       0.21629785       0.00000000 </v>
     <v>      -0.00000000       0.00000057       0.04993910 </v>
    </varray>
   </crystal>
   <varray name="positions" >
    <v>       0.49856760       0.91067747       0.55250082 </v>
    <v>       0.50143240       0.08932253       0.44749918 </v>
    <v>      -0.00143239       0.41067312       0.44749918 </v>
    <v>       0.00143239       0.58932688       0.55250082 </v>
   </varray>
  </structure>
  <varray name="forces" >
   <v>       0.00073144      -0.00232690      -0.00374952 </v>
   <v>      -0.00073144       0.00232690       0.00374952 </v>
   <v>       0.00073209      -0.00234966       0.00374939 </v>
   <v>      -0.00073209       0.00234966      -0.00374939 </v>
  </varray>
  <varray name="stress" >
   <v>      -1.78225477      -0.83377526       0.00000391 </v>
   <v>      -0.83377523      -0.35581762       0.00025408 </v>
   <v>       0.00000393       0.00025413      -0.15565092 </v>
  </varray>
  <energy>
   <i name="e_fr_energy">    -21.45620567 </i>
   <i name="e_wo_entrp">    -21.45620567 </i>
   <i name="e_0_energy">     -0.00000000 </i>
  </energy>
  <time name="totalsc">    9.80    9.81</time>
  <eigenvalues>
   <array>
    <dimension dim="1">band</dimension>
    <dimension dim="2">kpoint</dimension>
    <dimension dim="3">spin</dimension>
    <field>eigene</field>
    <field>occ</field>
    <set>
     <set comment="spin 1">
      <set comment="kpoint 1">
       <r>  -17.2163    1.0000 </r>
       <r>  -14.7536    1.0000 </r>
       <r>  -11.4555    1.0000 </r>
       <r>   -7.9270    1.0000 </r>
       <r>   -6.9857    1.0000 </r>
       <r>   -6.7566    1.0000 </r>
       <r>   -5.6369    1.0000 </r>
       <r>   -4.0574    1.0000 </r>
       <r>   -3.9180    1.0000 </r>
       <r>   -2.2889    1.0000 </r>
       <r>   -1.3654    0.0000 </r>
       <r>   -0.6808    0.0000 </r>
       <r>    0.3379    0.0000 </r>
       <r>    0.9922    0.0000 </r>
       <r>    2.1333    0.0000 </r>
       <r>    2.2894    0.0000 </r>
      </set>
      <set comment="kpoint 2">
       <r>  -17.1895    1.0000 </r>
       <r>  -14.7256    1.0000 </r>
       <r>  -11.4653    1.0000 </r>
       <r>   -7.9067    1.0000 </r>
       <r>   -7.0054    1.0000 </r>
       <r>   -6.7329    1.0000 </r>
       <r>   -5.8082    1.0000 </r>
       <r>   -4.2370    1.0000 </r>
       <r>   -3.9074    1.0000 </r>
       <r>   -2.2895    1.0000 </r>
       <r>   -1.3403    0.0000 </r>
       <r>   -0.4408    0.0000 </r>
       <r>    0.5728    0.0000 </r>
       <r>    0.8324    0.0000 </r>
       <r>    2.1611    0.0000 </r>
       <r>    2.3193    0.0000 </r>
      </set>
      <set comment="kpoint 3">
       <r>  -17.1093    1.0000 </r>
       <r>  -14.6416    1.0000 </r>
       <r>  -11.5001    1.0000 </r>
       <r>   -7.8464    1.0000 </r>
       <r>   -7.0850    1.0000 </r>
       <r>   -6.6626    1.0000 </r>
       <r>   -6.2263    1.0000 </r>
       <r>   -4.6497    1.0000 </r>
       <r>   -3.8790    1.0000 </r>
       <r>   -2.3103    1.0000 </r>
       <r>   -1.2655    0.0000 </r>
       <r>    0.2032    0.0000 </r>
       <r>    0.4190    0.0000 </r>
       <r>    1.1652    0.0000 </r>
       <r>    2.2402    0.0000 </r>
       <r>    2.4089    0.0000 </r>
      </set>
      <set comment="kpoint 4">
       <r>  -16.9759    1.0000 </r>
       <r>  -14.5019    1.0000 </r>
       <r>  -11.5760    1.0000 </r>
       <r>   -7.7486    1.0000 </r>
       <r>   -7.2856    1.0000 </r>
       <r>   -6.7250    1.0000 </r>
       <r>   -6.5460    1.0000 </r>
       <r>   -5.0667    1.0000 </r>
       <r>   -3.8448    1.0000 </r>
       <r>   -2.3719    1.0000 </r>
       <r>   -1.1422    0.0000 </r>
       <r>   -0.0804    0.0000 </r>
       <r>    1.1038    0.0000 </r>
       <r>    1.7833    0.0000 </r>
       <r>    2.3115    0.0000 </r>
       <r>    2.5577    0.0000 </r>
      </set>
      <set comment="kpoint 5">
       <r>  -16.7901    1.0000 </r>
       <r>  -14.3067    1.0000 </r>
       <r>  -11.7177    1.0000 </r>
       <r>   -7.6726    1.0000 </r>
       <r>   -7.6180    1.0000 </r>
       <r>   -7.1792    1.0000 </r>
       <r>   -6.3873    1.0000 </r>
       <r>   -5.3224    1.0000 </r>
       <r>   -3.8276    1.0000 </r>
       <r>   -2.4853    1.0000 </r>
       <r>   -0.9734    0.0000 </r>
       <r>   -0.5606    0.0000 </r>
       <r>    1.8031    0.0000 </r>
       <r>    1.9339    0.0000 </r>
       <r>    2.1140    0.0000 </r>
       <r>    2.6811    0.0000 </r>
      </set>
      <set comment="kpoint 6">
       <r>  -16.5527    1.0000 </r>
       <r>  -14.0564    1.0000 </r>
       <r>  -11.9498    1.0000 </r>
       <r>   -8.2287    1.0000 </r>
       <r>   -7.5153    1.0000 </r>
       <r>   -7.4629    1.0000 </r>
       <r>   -6.1895    1.0000 </r>
       <r>   -5.3886    1.0000 </r>
       <r>   -3.8611    1.0000 </r>
       <r>   -2.6588    1.0000 </r>
       <r>   -0.9326    0.0000 </r>
       <r>   -0.7666    0.0000 </r>
       <r>    1.2432    0.0000 </r>
       <r>    1.3610    0.0000 </r>
       <r>    2.5518    0.0000 </r>
       <r>    2.9311    0.0000 </r>
      </set>
      <set comment="kpoint 7">
       <r>  -16.2653    1.0000 </r>
       <r>  -13.7517    1.0000 </r>
       <r>  -12.2821    1.0000 </r>
       <r>   -8.8745    1.0000 </r>
       <r>   -7.6996    1.0000 </r>
       <r>   -7.2975    1.0000 </r>
       <r>   -5.9595    1.0000 </r>
       <r>   -5.3287    1.0000 </r>
       <r>   -3.9729    1.0000 </r>
       <r>   -2.8949    1.0000 </r>
       <r>   -1.1305    0.0000 </r>
       <r>   -0.5444    0.0000 </r>
       <r>    0.6044    0.0000 </r>
       <r>    0.8245    0.0000 </r>
       <r>    2.1140    0.0000 </r>
       <r>    3.2574    0.0000 </r>
      </set>
      <set comment="kpoint 8">
       <r>  -15.9298    1.0000 </r>
       <r>  -13.3933    1.0000 </r>
       <r>  -12.7008    1.0000 </r>
       <r>   -9.5468    1.0000 </r>
       <r>   -7.7362    1.0000 </r>
       <r>   -7.1457    1.0000 </r>
       <r>   -5.7081    1.0000 </r>
       <r>   -5.2071    1.0000 </r>
       <r>   -4.1471    1.0000 </r>
       <r>   -3.1845    1.0000 </r>
       <r>   -1.1334    0.0000 </r>
       <r>   -0.4047    0.0000 </r>
       <r>    0.0120    0.0000 </r>
       <r>    0.4602    0.0000 </r>
       <r>    1.6127    0.0000 </r>
       <r>    3.0038    0.0000 </r>
      </set>
      <set comment="kpoint 9">
       <r>  -15.5488    1.0000 </r>
       <r>  -13.1769    1.0000 </r>
       <r>  -12.9818    1.0000 </r>
       <r>  -10.2109    1.0000 </r>
       <r>   -7.6548    1.0000 </r>
       <r>   -7.0443    1.0000 </r>
       <r>   -5.4525    1.0000 </r>
       <r>   -5.0743    1.0000 </r>
       <r>   -4.3130    1.0000 </r>
       <r>   -3.5065    1.0000 </r>
       <r>   -0.9697    0.0000 </r>
       <r>   -0.5542    0.0000 </r>
       <r>   -0.4841    0.0000 </r>
       <r>    0.5025    0.0000 </r>
       <r>    1.1079    0.0000 </r>
       <r>    2.5933    0.0000 </r>
      </set>
      <set comment="kpoint 10">
       <r>  -15.1263    1.0000 </r>
       <r>  -13.6782    1.0000 </r>
       <r>  -12.5197    1.0000 </r>
       <r>  -10.8486    1.0000 </r>
       <r>   -7.4953    1.0000 </r>
       <r>   -7.0345    1.0000 </r>
       <r>   -5.2190    1.0000 </r>
       <r>   -4.9771    1.0000 </r>
       <r>   -4.3848    1.0000 </r>
       <r>   -3.8294    1.0000 </r>
       <r>   -0.8459    0.0000 </r>
       <r>   -0.8284    0.0000 </r>
       <r>   -0.6787    0.0000 </r>
       <r>    0.6069    0.0000 </r>
       <r>    0.8193    0.0000 </r>
       <r>    2.1372    0.0000 </r>
      </set>
      <set comment="kpoint 11">
       <r>  -14.6677    1.0000 </r>
       <r>  -14.1810    1.0000 </r>
       <r>  -12.0081    1.0000 </r>
       <r>  -11.4497    1.0000 </r>
       <r>   -7.3033    1.0000 </r>
       <r>   -7.1312    1.0000 </r>
       <r>   -5.0431    1.0000 </r>
       <r>   -4.9588    1.0000 </r>
       <r>   -4.3145    1.0000 </r>
       <r>   -4.1143    1.0000 </r>
       <r>   -1.0250    0.0000 </r>
       <r>   -1.0116    0.0000 </r>
       <r>   -0.3057    0.0000 </r>
       <r>    0.1307    0.0000 </r>
       <r>    1.2247    0.0000 </r>
       <r>    1.6725    0.0000 </r>
      </set>
      <set comment="kpoint 12">
       <r>  -17.1949    1.0000 </r>
       <r>  -14.7841    1.0000 </r>
       <r>  -11.4626    1.0000 </r>
       <r>   -8.0855    1.0000 </r>
       <r>   -6.8865    1.0000 </r>
       <r>   -6.6651    1.0000 </r>
       <r>   -5.6204    1.0000 </r>
       <r>   -4.0728    1.0000 </r>
       <r>   -3.8241    1.0000 </r>
       <r>   -2.4864    1.0000 </r>
       <r>   -1.1822    0.0000 </r>
       <r>   -0.6639    0.0000 </r>
       <r>    0.2915    0.0000 </r>
       <r>    0.9783    0.0000 </r>
       <r>    2.1910    0.0000 </r>
       <r>    2.3196    0.0000 </r>
      </set>
      <set comment="kpoint 13">
       <r>  -17.1685    1.0000 </r>
       <r>  -14.7559    1.0000 </r>
       <r>  -11.4700    1.0000 </r>
       <r>   -8.0682    1.0000 </r>
       <r>   -6.8996    1.0000 </r>
       <r>   -6.6554    1.0000 </r>
       <r>   -5.7790    1.0000 </r>
       <r>   -4.2621    1.0000 </r>
       <r>   -3.8149    1.0000 </r>
       <r>   -2.4812    1.0000 </r>
       <r>   -1.1625    0.0000 </r>
       <r>   -0.4265    0.0000 </r>
       <r>    0.5098    0.0000 </r>
       <r>    0.8422    0.0000 </r>
       <r>    2.2169    0.0000 </r>
       <r>    2.3489    0.0000 </r>
      </set>
      <set comment="kpoint 14">
       <r>  -17.0887    1.0000 </r>
       <r>  -14.6721    1.0000 </r>
       <r>  -11.4997    1.0000 </r>
       <r>   -8.0227    1.0000 </r>
       <r>   -6.9566    1.0000 </r>
       <r>   -6.6472    1.0000 </r>
       <r>   -6.1392    1.0000 </r>
       <r>   -4.6867    1.0000 </r>
       <r>   -3.7959    1.0000 </r>
       <r>   -2.4849    1.0000 </r>
       <r>   -1.1040    0.0000 </r>
       <r>    0.2149    0.0000 </r>
       <r>    0.3909    0.0000 </r>
       <r>    1.1591    0.0000 </r>
       <r>    2.2915    0.0000 </r>
       <r>    2.4377    0.0000 </r>
      </set>
      <set comment="kpoint 15">
       <r>  -16.9558    1.0000 </r>
       <r>  -14.5330    1.0000 </r>
       <r>  -11.5679    1.0000 </r>
       <r>   -7.9700    1.0000 </r>
       <r>   -7.1030    1.0000 </r>
       <r>   -6.8539    1.0000 </r>
       <r>   -6.3231    1.0000 </r>
       <r>   -5.1138    1.0000 </r>
       <r>   -3.7799    1.0000 </r>
       <r>   -2.5190    1.0000 </r>
       <r>   -1.0062    0.0000 </r>
       <r>   -0.0816    0.0000 </r>
       <r>    1.1099    0.0000 </r>
       <r>    1.7985    0.0000 </r>
       <r>    2.3004    0.0000 </r>
       <r>    2.5356    0.0000 </r>
      </set>
      <set comment="kpoint 16">
       <r>  -16.7705    1.0000 </r>
       <r>  -14.3392    1.0000 </r>
       <r>  -11.6995    1.0000 </r>
       <r>   -8.0037    1.0000 </r>
       <r>   -7.3224    1.0000 </r>
       <r>   -7.2546    1.0000 </r>
       <r>   -6.2305    1.0000 </r>
       <r>   -5.3724    1.0000 </r>
       <r>   -3.7898    1.0000 </r>
       <r>   -2.5998    1.0000 </r>
       <r>   -0.8670    0.0000 </r>
       <r>   -0.5313    0.0000 </r>
       <r>    1.7124    0.0000 </r>
       <r>    1.8980    0.0000 </r>
       <r>    2.1873    0.0000 </r>
       <r>    2.6434    0.0000 </r>
      </set>
      <set comment="kpoint 17">
       <r>  -16.5338    1.0000 </r>
       <r>  -14.0917    1.0000 </r>
       <r>  -11.9201    1.0000 </r>
       <r>   -8.3487    1.0000 </r>
       <r>   -7.5794    1.0000 </r>
       <r>   -7.3803    1.0000 </r>
       <r>   -6.0596    1.0000 </r>
       <r>   -5.4368    1.0000 </r>
       <r>   -3.8560    1.0000 </r>
       <r>   -2.7409    1.0000 </r>
       <r>   -0.8659    0.0000 </r>
       <r>   -0.6891    0.0000 </r>
       <r>    1.1517    0.0000 </r>
       <r>    1.3674    0.0000 </r>
       <r>    2.6372    0.0000 </r>
       <r>    3.0456    0.0000 </r>
      </set>
      <set comment="kpoint 18">
       <r>  -16.2472    1.0000 </r>
       <r>  -13.7933    1.0000 </r>
       <r>  -12.2391    1.0000 </r>
       <r>   -8.9329    1.0000 </r>
       <r>   -7.7591    1.0000 </r>
       <r>   -7.2767    1.0000 </r>
       <r>   -5.8523    1.0000 </r>
       <r>   -5.3814    1.0000 </r>
       <r>   -3.9923    1.0000 </r>
       <r>   -2.9473    1.0000 </r>
       <r>   -1.0280    0.0000 </r>
       <r>   -0.4945    0.0000 </r>
       <r>    0.6229    0.0000 </r>
       <r>    0.7311    0.0000 </r>
       <r>    2.3173    0.0000 </r>
       <r>    3.2273    0.0000 </r>
      </set>
      <set comment="kpoint 19">
       <r>  -15.9126    1.0000 </r>
       <r>  -13.4556    1.0000 </r>
       <r>  -12.6328    1.0000 </r>
       <r>   -9.5842    1.0000 </r>
       <r>   -7.7909    1.0000 </r>
       <r>   -7.1424    1.0000 </r>
       <r>   -5.6287    1.0000 </r>
       <r>   -5.2822    1.0000 </r>
       <r>   -4.1609    1.0000 </r>
       <r>   -3.2087    1.0000 </r>
       <r>   -1.0103    0.0000 </r>
       <r>   -0.4068    0.0000 </r>
       <r>    0.1336    0.0000 </r>
       <r>    0.2979    0.0000 </r>
       <r>    1.8626    0.0000 </r>
       <r>    2.9453    0.0000 </r>
      </set>
      <set comment="kpoint 20">
       <r>  -15.5330    1.0000 </r>
       <r>  -13.2703    1.0000 </r>
       <r>  -12.8808    1.0000 </r>
       <r>  -10.2385    1.0000 </r>
       <r>   -7.7024    1.0000 </r>
       <r>   -7.0461    1.0000 </r>
       <r>   -5.4132    1.0000 </r>
       <r>   -5.1983    1.0000 </r>
       <r>   -4.2752    1.0000 </r>
       <r>   -3.4991    1.0000 </r>
       <r>   -0.8587    0.0000 </r>
       <r>   -0.6303    0.0000 </r>
       <r>   -0.3589    0.0000 </r>
       <r>    0.3970    0.0000 </r>
       <r>    1.3927    0.0000 </r>
       <r>    2.5441    0.0000 </r>
      </set>
      <set comment="kpoint 21">
       <r>  -15.1125    1.0000 </r>
       <r>  -13.6776    1.0000 </r>
       <r>  -12.5124    1.0000 </r>
       <r>  -10.8700    1.0000 </r>
       <r>   -7.5334    1.0000 </r>
       <r>   -7.0424    1.0000 </r>
       <r>   -5.2409    1.0000 </r>
       <r>   -5.1488    1.0000 </r>
       <r>   -4.2740    1.0000 </r>
       <r>   -3.7802    1.0000 </r>
       <r>   -0.9152    0.0000 </r>
       <r>   -0.8494    0.0000 </r>
       <r>   -0.4684    0.0000 </r>
       <r>    0.6044    0.0000 </r>
       <r>    1.0266    0.0000 </r>
       <r>    2.0987    0.0000 </r>
      </set>
      <set comment="kpoint 22">
       <r>  -14.6572    1.0000 </r>
       <r>  -14.1669    1.0000 </r>
       <r>  -12.0150    1.0000 </r>
       <r>  -11.4655    1.0000 </r>
       <r>   -7.3297    1.0000 </r>
       <r>   -7.1518    1.0000 </r>
       <r>   -5.1485    1.0000 </r>
       <r>   -5.1118    1.0000 </r>
       <r>   -4.1791    1.0000 </r>
       <r>   -4.0125    1.0000 </r>
       <r>   -1.0828    0.0000 </r>
       <r>   -1.0297    0.0000 </r>
       <r>   -0.1406    0.0000 </r>
       <r>    0.3281    0.0000 </r>
       <r>    1.2350    0.0000 </r>
       <r>    1.6507    0.0000 </r>
      </set>
      <set comment="kpoint 23">
       <r>  -14.6488    1.0000 </r>
       <r>  -14.1770    1.0000 </r>
       <r>  -12.0162    1.0000 </r>
       <r>  -11.4629    1.0000 </r>
       <r>   -7.3387    1.0000 </r>
       <r>   -7.1462    1.0000 </r>
       <r>   -5.1376    1.0000 </r>
       <r>   -5.1129    1.0000 </r>
       <r>   -4.1771    1.0000 </r>
       <r>   -4.0168    1.0000 </r>
       <r>   -1.0742    0.0000 </r>
       <r>   -1.0429    0.0000 </r>
       <r>   -0.0790    0.0000 </r>
       <r>    0.2549    0.0000 </r>
       <r>    1.2412    0.0000 </r>
       <r>    1.6552    0.0000 </r>
      </set>
      <set comment="kpoint 24">
       <r>  -15.1053    1.0000 </r>
       <r>  -13.6909    1.0000 </r>
       <r>  -12.5108    1.0000 </r>
       <r>  -10.8667    1.0000 </r>
       <r>   -7.5432    1.0000 </r>
       <r>   -7.0429    1.0000 </r>
       <r>   -5.2028    1.0000 </r>
       <r>   -5.1610    1.0000 </r>
       <r>   -4.2734    1.0000 </r>
       <r>   -3.7847    1.0000 </r>
       <r>   -0.9007    0.0000 </r>
       <r>   -0.8767    0.0000 </r>
       <r>   -0.4136    0.0000 </r>
       <r>    0.5300    0.0000 </r>
       <r>    1.0334    0.0000 </r>
       <r>    2.1081    0.0000 </r>
      </set>
      <set comment="kpoint 25">
       <r>  -15.5269    1.0000 </r>
       <r>  -13.2931    1.0000 </r>
       <r>  -12.8699    1.0000 </r>
       <r>  -10.2347    1.0000 </r>
       <r>   -7.7114    1.0000 </r>
       <r>   -7.0528    1.0000 </r>
       <r>   -5.3776    1.0000 </r>
       <r>   -5.2002    1.0000 </r>
       <r>   -4.2714    1.0000 </r>
       <r>   -3.5030    1.0000 </r>
       <r>   -0.8538    0.0000 </r>
       <r>   -0.5936    0.0000 </r>
       <r>   -0.3732    0.0000 </r>
       <r>    0.3733    0.0000 </r>
       <r>    1.3524    0.0000 </r>
       <r>    2.5558    0.0000 </r>
      </set>
      <set comment="kpoint 26">
       <r>  -15.9073    1.0000 </r>
       <r>  -13.4665    1.0000 </r>
       <r>  -12.6340    1.0000 </r>
       <r>   -9.5803    1.0000 </r>
       <r>   -7.7980    1.0000 </r>
       <r>   -7.1527    1.0000 </r>
       <r>   -5.5979    1.0000 </r>
       <r>   -5.2802    1.0000 </r>
       <r>   -4.1499    1.0000 </r>
       <r>   -3.2128    1.0000 </r>
       <r>   -0.9931    0.0000 </r>
       <r>   -0.3894    0.0000 </r>
       <r>    0.0948    0.0000 </r>
       <r>    0.3125    0.0000 </r>
       <r>    1.8083    0.0000 </r>
       <r>    2.9579    0.0000 </r>
      </set>
      <set comment="kpoint 27">
       <r>  -16.2427    1.0000 </r>
       <r>  -13.7997    1.0000 </r>
       <r>  -12.2446    1.0000 </r>
       <r>   -8.9295    1.0000 </r>
       <r>   -7.7639    1.0000 </r>
       <r>   -7.2878    1.0000 </r>
       <r>   -5.8273    1.0000 </r>
       <r>   -5.3783    1.0000 </r>
       <r>   -3.9748    1.0000 </r>
       <r>   -2.9524    1.0000 </r>
       <r>   -1.0129    0.0000 </r>
       <r>   -0.4938    0.0000 </r>
       <r>    0.6674    0.0000 </r>
       <r>    0.6835    0.0000 </r>
       <r>    2.2596    0.0000 </r>
       <r>    3.2439    0.0000 </r>
      </set>
      <set comment="kpoint 28">
       <r>  -16.5301    1.0000 </r>
       <r>  -14.0963    1.0000 </r>
       <r>  -11.9268    1.0000 </r>
       <r>   -8.3474    1.0000 </r>
       <r>   -7.5812    1.0000 </r>
       <r>   -7.3894    1.0000 </r>
       <r>   -6.0412    1.0000 </r>
       <r>   -5.4325    1.0000 </r>
       <r>   -3.8357    1.0000 </r>
       <r>   -2.7475    1.0000 </r>
       <r>   -0.8531    0.0000 </r>
       <r>   -0.6887    0.0000 </r>
       <r>    1.2054    0.0000 </r>
       <r>    1.3139    0.0000 </r>
       <r>    2.5988    0.0000 </r>
       <r>    3.0456    0.0000 </r>
      </set>
      <set comment="kpoint 29">
       <r>  -16.7676    1.0000 </r>
       <r>  -14.3425    1.0000 </r>
       <r>  -11.7060    1.0000 </r>
       <r>   -8.0076    1.0000 </r>
       <r>   -7.3262    1.0000 </r>
       <r>   -7.2520    1.0000 </r>
       <r>   -6.2207    1.0000 </r>
       <r>   -5.3664    1.0000 </r>
       <r>   -3.7706    1.0000 </r>
       <r>   -2.6075    1.0000 </r>
       <r>   -0.8648    0.0000 </r>
       <r>   -0.5187    0.0000 </r>
       <r>    1.7557    0.0000 </r>
       <r>    1.8430    0.0000 </r>
       <r>    2.2130    0.0000 </r>
       <r>    2.6481    0.0000 </r>
      </set>
      <set comment="kpoint 30">
       <r>  -16.9536    1.0000 </r>
       <r>  -14.5354    1.0000 </r>
       <r>  -11.5734    1.0000 </r>
       <r>   -7.9759    1.0000 </r>
       <r>   -7.1044    1.0000 </r>
       <r>   -6.8403    1.0000 </r>
       <r>   -6.3286    1.0000 </r>
       <r>   -5.1062    1.0000 </r>
       <r>   -3.7644    1.0000 </r>
       <r>   -2.5267    1.0000 </r>
       <r>   -1.0028    0.0000 </r>
       <r>   -0.0666    0.0000 </r>
       <r>    1.1178    0.0000 </r>
       <r>    1.7611    0.0000 </r>
       <r>    2.3313    0.0000 </r>
       <r>    2.5731    0.0000 </r>
      </set>
      <set comment="kpoint 31">
       <r>  -17.0872    1.0000 </r>
       <r>  -14.6736    1.0000 </r>
       <r>  -11.5037    1.0000 </r>
       <r>   -8.0272    1.0000 </r>
       <r>   -6.9576    1.0000 </r>
       <r>   -6.6267    1.0000 </r>
       <r>   -6.1556    1.0000 </r>
       <r>   -4.6791    1.0000 </r>
       <r>   -3.7854    1.0000 </r>
       <r>   -2.4913    1.0000 </r>
       <r>   -1.1005    0.0000 </r>
       <r>    0.2224    0.0000 </r>
       <r>    0.4152    0.0000 </r>
       <r>    1.1246    0.0000 </r>
       <r>    2.2942    0.0000 </r>
       <r>    2.4399    0.0000 </r>
      </set>
      <set comment="kpoint 32">
       <r>  -17.1678    1.0000 </r>
       <r>  -14.7566    1.0000 </r>
       <r>  -11.4721    1.0000 </r>
       <r>   -8.0705    1.0000 </r>
       <r>   -6.9002    1.0000 </r>
       <r>   -6.6465    1.0000 </r>
       <r>   -5.7867    1.0000 </r>
       <r>   -4.2568    1.0000 </r>
       <r>   -3.8100    1.0000 </r>
       <r>   -2.4848    1.0000 </r>
       <r>   -1.1600    0.0000 </r>
       <r>   -0.4222    0.0000 </r>
       <r>    0.5297    0.0000 </r>
       <r>    0.8178    0.0000 </r>
       <r>    2.2183    0.0000 </r>
       <r>    2.3500    0.0000 </r>
      </set>
      <set comment="kpoint 33">
       <r>  -17.1310    1.0000 </r>
       <r>  -14.8752    1.0000 </r>
       <r>  -11.4722    1.0000 </r>
       <r>   -8.4407    1.0000 </r>
       <r>   -6.6881    1.0000 </r>
       <r>   -6.4043    1.0000 </r>
       <r>   -5.5715    1.0000 </r>
       <r>   -4.1190    1.0000 </r>
       <r>   -3.5719    1.0000 </r>
       <r>   -2.8802    1.0000 </r>
       <r>   -0.8266    0.0000 </r>
       <r>   -0.6131    0.0000 </r>
       <r>    0.1568    0.0000 </r>
       <r>    0.9455    0.0000 </r>
       <r>    2.3568    0.0000 </r>
       <r>    2.4097    0.0000 </r>
      </set>
      <set comment="kpoint 34">
       <r>  -17.1050    1.0000 </r>
       <r>  -14.8470    1.0000 </r>
       <r>  -11.4754    1.0000 </r>
       <r>   -8.4264    1.0000 </r>
       <r>   -6.6921    1.0000 </r>
       <r>   -6.4328    1.0000 </r>
       <r>   -5.6937    1.0000 </r>
       <r>   -4.3213    1.0000 </r>
       <r>   -3.5719    1.0000 </r>
       <r>   -2.8704    1.0000 </r>
       <r>   -0.8128    0.0000 </r>
       <r>   -0.3780    0.0000 </r>
       <r>    0.3712    0.0000 </r>
       <r>    0.8344    0.0000 </r>
       <r>    2.3787    0.0000 </r>
       <r>    2.4382    0.0000 </r>
      </set>
      <set comment="kpoint 35">
       <r>  -17.0257    1.0000 </r>
       <r>  -14.7643    1.0000 </r>
       <r>  -11.4938    1.0000 </r>
       <r>   -8.3924    1.0000 </r>
       <r>   -6.7209    1.0000 </r>
       <r>   -6.5806    1.0000 </r>
       <r>   -5.9064    1.0000 </r>
       <r>   -4.7727    1.0000 </r>
       <r>   -3.5780    1.0000 </r>
       <r>   -2.8564    1.0000 </r>
       <r>   -0.7721    0.0000 </r>
       <r>    0.2583    0.0000 </r>
       <r>    0.3600    0.0000 </r>
       <r>    1.0974    0.0000 </r>
       <r>    2.4419    0.0000 </r>
       <r>    2.5258    0.0000 </r>
      </set>
      <set comment="kpoint 36">
       <r>  -16.8935    1.0000 </r>
       <r>  -14.6276    1.0000 </r>
       <r>  -11.5432    1.0000 </r>
       <r>   -8.3607    1.0000 </r>
       <r>   -6.9474    1.0000 </r>
       <r>   -6.8262    1.0000 </r>
       <r>   -5.9502    1.0000 </r>
       <r>   -5.2260    1.0000 </r>
       <r>   -3.6094    1.0000 </r>
       <r>   -2.8551    1.0000 </r>
       <r>   -0.7046    0.0000 </r>
       <r>   -0.0397    0.0000 </r>
       <r>    1.1292    0.0000 </r>
       <r>    1.7780    0.0000 </r>
       <r>    2.0505    0.0000 </r>
       <r>    2.5530    0.0000 </r>
      </set>
      <set comment="kpoint 37">
       <r>  -16.7091    1.0000 </r>
       <r>  -14.4380    1.0000 </r>
       <r>  -11.6491    1.0000 </r>
       <r>   -8.3939    1.0000 </r>
       <r>   -7.3712    1.0000 </r>
       <r>   -7.0435    1.0000 </r>
       <r>   -5.8661    1.0000 </r>
       <r>   -5.4898    1.0000 </r>
       <r>   -3.6893    1.0000 </r>
       <r>   -2.8836    1.0000 </r>
       <r>   -0.6092    0.0000 </r>
       <r>   -0.4058    0.0000 </r>
       <r>    1.3354    0.0000 </r>
       <r>    2.0709    0.0000 </r>
       <r>    2.2754    0.0000 </r>
       <r>    2.6723    0.0000 </r>
      </set>
      <set comment="kpoint 38">
       <r>  -16.4736    1.0000 </r>
       <r>  -14.1983    1.0000 </r>
       <r>  -11.8393    1.0000 </r>
       <r>   -8.6216    1.0000 </r>
       <r>   -7.7064    1.0000 </r>
       <r>   -7.2303    1.0000 </r>
       <r>   -5.7274    1.0000 </r>
       <r>   -5.5471    1.0000 </r>
       <r>   -3.8346    1.0000 </r>
       <r>   -2.9595    1.0000 </r>
       <r>   -0.6452    0.0000 </r>
       <r>   -0.4859    0.0000 </r>
       <r>    0.7794    0.0000 </r>
       <r>    1.6482    0.0000 </r>
       <r>    2.7203    0.0000 </r>
       <r>    3.0865    0.0000 </r>
      </set>
      <set comment="kpoint 39">
       <r>  -16.1886    1.0000 </r>
       <r>  -13.9149    1.0000 </r>
       <r>  -12.1245    1.0000 </r>
       <r>   -9.0933    1.0000 </r>
       <r>   -7.8925    1.0000 </r>
       <r>   -7.2419    1.0000 </r>
       <r>   -5.5671    1.0000 </r>
       <r>   -5.5050    1.0000 </r>
       <r>   -4.0248    1.0000 </r>
       <r>   -3.0928    1.0000 </r>
       <r>   -0.7234    0.0000 </r>
       <r>   -0.3559    0.0000 </r>
       <r>    0.2783    0.0000 </r>
       <r>    1.0345    0.0000 </r>
       <r>    2.5994    0.0000 </r>
       <r>    3.0713    0.0000 </r>
      </set>
      <set comment="kpoint 40">
       <r>  -15.8563    1.0000 </r>
       <r>  -13.6127    1.0000 </r>
       <r>  -12.4710    1.0000 </r>
       <r>   -9.6905    1.0000 </r>
       <r>   -7.9228    1.0000 </r>
       <r>   -7.1490    1.0000 </r>
       <r>   -5.4641    1.0000 </r>
       <r>   -5.4151    1.0000 </r>
       <r>   -4.1818    1.0000 </r>
       <r>   -3.2736    1.0000 </r>
       <r>   -0.6575    0.0000 </r>
       <r>   -0.4326    0.0000 </r>
       <r>    0.0919    0.0000 </r>
       <r>    0.4359    0.0000 </r>
       <r>    2.3023    0.0000 </r>
       <r>    2.7987    0.0000 </r>
      </set>
      <set comment="kpoint 41">
       <r>  -15.4799    1.0000 </r>
       <r>  -13.4369    1.0000 </r>
       <r>  -12.7040    1.0000 </r>
       <r>  -10.3175    1.0000 </r>
       <r>   -7.8239    1.0000 </r>
       <r>   -7.0586    1.0000 </r>
       <r>   -5.4765    1.0000 </r>
       <r>   -5.3099    1.0000 </r>
       <r>   -4.2135    1.0000 </r>
       <r>   -3.4701    1.0000 </r>
       <r>   -0.7618    0.0000 </r>
       <r>   -0.5347    0.0000 </r>
       <r>   -0.0340    0.0000 </r>
       <r>    0.2889    0.0000 </r>
       <r>    1.9124    0.0000 </r>
       <r>    2.4194    0.0000 </r>
      </set>
      <set comment="kpoint 42">
       <r>  -15.0646    1.0000 </r>
       <r>  -13.6925    1.0000 </r>
       <r>  -12.4862    1.0000 </r>
       <r>  -10.9312    1.0000 </r>
       <r>   -7.6355    1.0000 </r>
       <r>   -7.0613    1.0000 </r>
       <r>   -5.4875    1.0000 </r>
       <r>   -5.2909    1.0000 </r>
       <r>   -4.1166    1.0000 </r>
       <r>   -3.6471    1.0000 </r>
       <r>   -1.0215    0.0000 </r>
       <r>   -0.6980    0.0000 </r>
       <r>   -0.0282    0.0000 </r>
       <r>    0.5505    0.0000 </r>
       <r>    1.5170    0.0000 </r>
       <r>    2.0043    0.0000 </r>
      </set>
      <set comment="kpoint 43">
       <r>  -14.6185    1.0000 </r>
       <r>  -14.1365    1.0000 </r>
       <r>  -12.0361    1.0000 </r>
       <r>  -11.5104    1.0000 </r>
       <r>   -7.4040    1.0000 </r>
       <r>   -7.1965    1.0000 </r>
       <r>   -5.4199    1.0000 </r>
       <r>   -5.3613    1.0000 </r>
       <r>   -3.9626    1.0000 </r>
       <r>   -3.8014    1.0000 </r>
       <r>   -1.1191    0.0000 </r>
       <r>   -0.9606    0.0000 </r>
       <r>    0.2676    0.0000 </r>
       <r>    0.6332    0.0000 </r>
       <r>    1.3534    0.0000 </r>
       <r>    1.6121    0.0000 </r>
      </set>
      <set comment="kpoint 44">
       <r>  -14.6017    1.0000 </r>
       <r>  -14.1566    1.0000 </r>
       <r>  -12.0386    1.0000 </r>
       <r>  -11.5051    1.0000 </r>
       <r>   -7.4167    1.0000 </r>
       <r>   -7.1885    1.0000 </r>
       <r>   -5.4633    1.0000 </r>
       <r>   -5.3044    1.0000 </r>
       <r>   -3.9569    1.0000 </r>
       <r>   -3.8072    1.0000 </r>
       <r>   -1.0641    0.0000 </r>
       <r>   -1.0230    0.0000 </r>
       <r>    0.3594    0.0000 </r>
       <r>    0.5283    0.0000 </r>
       <r>    1.3572    0.0000 </r>
       <r>    1.6176    0.0000 </r>
      </set>
      <set comment="kpoint 45">
       <r>  -15.0504    1.0000 </r>
       <r>  -13.7181    1.0000 </r>
       <r>  -12.4837    1.0000 </r>
       <r>  -10.9243    1.0000 </r>
       <r>   -7.6486    1.0000 </r>
       <r>   -7.0642    1.0000 </r>
       <r>   -5.5115    1.0000 </r>
       <r>   -5.2276    1.0000 </r>
       <r>   -4.1089    1.0000 </r>
       <r>   -3.6542    1.0000 </r>
       <r>   -0.9707    0.0000 </r>
       <r>   -0.7642    0.0000 </r>
       <r>    0.0416    0.0000 </r>
       <r>    0.4821    0.0000 </r>
       <r>    1.4837    0.0000 </r>
       <r>    2.0202    0.0000 </r>
      </set>
      <set comment="kpoint 46">
       <r>  -15.4677    1.0000 </r>
       <r>  -13.4667    1.0000 </r>
       <r>  -12.6975    1.0000 </r>
       <r>  -10.3097    1.0000 </r>
       <r>   -7.8351    1.0000 </r>
       <r>   -7.0733    1.0000 </r>
       <r>   -5.4823    1.0000 </r>
       <r>   -5.2482    1.0000 </r>
       <r>   -4.2011    1.0000 </r>
       <r>   -3.4779    1.0000 </r>
       <r>   -0.7113    0.0000 </r>
       <r>   -0.5401    0.0000 </r>
       <r>   -0.0480    0.0000 </r>
       <r>    0.2498    0.0000 </r>
       <r>    1.8540    0.0000 </r>
       <r>    2.4399    0.0000 </r>
      </set>
      <set comment="kpoint 47">
       <r>  -15.8458    1.0000 </r>
       <r>  -13.6317    1.0000 </r>
       <r>  -12.4753    1.0000 </r>
       <r>   -9.6828    1.0000 </r>
       <r>   -7.9310    1.0000 </r>
       <r>   -7.1694    1.0000 </r>
       <r>   -5.4604    1.0000 </r>
       <r>   -5.3606    1.0000 </r>
       <r>   -4.1616    1.0000 </r>
       <r>   -3.2821    1.0000 </r>
       <r>   -0.6275    0.0000 </r>
       <r>   -0.3907    0.0000 </r>
       <r>    0.0820    0.0000 </r>
       <r>    0.3658    0.0000 </r>
       <r>    2.2379    0.0000 </r>
       <r>    2.8197    0.0000 </r>
      </set>
      <set comment="kpoint 48">
       <r>  -16.1797    1.0000 </r>
       <r>  -13.9276    1.0000 </r>
       <r>  -12.1346    1.0000 </r>
       <r>   -9.0876    1.0000 </r>
       <r>   -7.8972    1.0000 </r>
       <r>   -7.2617    1.0000 </r>
       <r>   -5.5226    1.0000 </r>
       <r>   -5.4978    1.0000 </r>
       <r>   -3.9968    1.0000 </r>
       <r>   -3.1028    1.0000 </r>
       <r>   -0.6964    0.0000 </r>
       <r>   -0.3540    0.0000 </r>
       <r>    0.3265    0.0000 </r>
       <r>    0.9485    0.0000 </r>
       <r>    2.5452    0.0000 </r>
       <r>    3.0919    0.0000 </r>
      </set>
      <set comment="kpoint 49">
       <r>  -16.4663    1.0000 </r>
       <r>  -14.2075    1.0000 </r>
       <r>  -11.8511    1.0000 </r>
       <r>   -8.6215    1.0000 </r>
       <r>   -7.7074    1.0000 </r>
       <r>   -7.2441    1.0000 </r>
       <r>   -5.6944    1.0000 </r>
       <r>   -5.5372    1.0000 </r>
       <r>   -3.8024    1.0000 </r>
       <r>   -2.9712    1.0000 </r>
       <r>   -0.6239    0.0000 </r>
       <r>   -0.4867    0.0000 </r>
       <r>    0.8441    0.0000 </r>
       <r>    1.5526    0.0000 </r>
       <r>    2.6947    0.0000 </r>
       <r>    3.1070    0.0000 </r>
      </set>
      <set comment="kpoint 50">
       <r>  -16.7034    1.0000 </r>
       <r>  -14.4449    1.0000 </r>
       <r>  -11.6603    1.0000 </r>
       <r>   -8.4007    1.0000 </r>
       <r>   -7.3676    1.0000 </r>
       <r>   -7.0501    1.0000 </r>
       <r>   -5.8462    1.0000 </r>
       <r>   -5.4767    1.0000 </r>
       <r>   -3.6579    1.0000 </r>
       <r>   -2.8959    1.0000 </r>
       <r>   -0.6075    0.0000 </r>
       <r>   -0.3873    0.0000 </r>
       <r>    1.3982    0.0000 </r>
       <r>    1.9772    0.0000 </r>
       <r>    2.3156    0.0000 </r>
       <r>    2.6699    0.0000 </r>
      </set>
      <set comment="kpoint 51">
       <r>  -16.8892    1.0000 </r>
       <r>  -14.6325    1.0000 </r>
       <r>  -11.5524    1.0000 </r>
       <r>   -8.3693    1.0000 </r>
       <r>   -6.9357    1.0000 </r>
       <r>   -6.8299    1.0000 </r>
       <r>   -5.9469    1.0000 </r>
       <r>   -5.2102    1.0000 </r>
       <r>   -3.5832    1.0000 </r>
       <r>   -2.8664    1.0000 </r>
       <r>   -0.7015    0.0000 </r>
       <r>   -0.0188    0.0000 </r>
       <r>    1.1456    0.0000 </r>
       <r>    1.7155    0.0000 </r>
       <r>    2.1344    0.0000 </r>
       <r>    2.5572    0.0000 </r>
      </set>
      <set comment="kpoint 52">
       <r>  -17.0229    1.0000 </r>
       <r>  -14.7675    1.0000 </r>
       <r>  -11.5002    1.0000 </r>
       <r>   -8.3993    1.0000 </r>
       <r>   -6.7233    1.0000 </r>
       <r>   -6.5575    1.0000 </r>
       <r>   -5.9223    1.0000 </r>
       <r>   -4.7579    1.0000 </r>
       <r>   -3.5596    1.0000 </r>
       <r>   -2.8650    1.0000 </r>
       <r>   -0.7690    0.0000 </r>
       <r>    0.2736    0.0000 </r>
       <r>    0.3964    0.0000 </r>
       <r>    1.0370    0.0000 </r>
       <r>    2.4468    0.0000 </r>
       <r>    2.5301    0.0000 </r>
      </set>
      <set comment="kpoint 53">
       <r>  -17.1036    1.0000 </r>
       <r>  -14.8486    1.0000 </r>
       <r>  -11.4787    1.0000 </r>
       <r>   -8.4300    1.0000 </r>
       <r>   -6.6933    1.0000 </r>
       <r>   -6.4164    1.0000 </r>
       <r>   -5.7079    1.0000 </r>
       <r>   -4.3115    1.0000 </r>
       <r>   -3.5626    1.0000 </r>
       <r>   -2.8752    1.0000 </r>
       <r>   -0.8107    0.0000 </r>
       <r>   -0.3689    0.0000 </r>
       <r>    0.3887    0.0000 </r>
       <r>    0.8044    0.0000 </r>
       <r>    2.3811    0.0000 </r>
       <r>    2.4404    0.0000 </r>
      </set>
      <set comment="kpoint 54">
       <r>  -17.0257    1.0000 </r>
       <r>  -15.0246    1.0000 </r>
       <r>  -11.4576    1.0000 </r>
       <r>   -8.8671    1.0000 </r>
       <r>   -6.4682    1.0000 </r>
       <r>   -6.0076    1.0000 </r>
       <r>   -5.4915    1.0000 </r>
       <r>   -4.1963    1.0000 </r>
       <r>   -3.3216    1.0000 </r>
       <r>   -3.2394    1.0000 </r>
       <r>   -0.5440    0.0000 </r>
       <r>   -0.4213    0.0000 </r>
       <r>   -0.0448    0.0000 </r>
       <r>    0.9159    0.0000 </r>
       <r>    2.5571    0.0000 </r>
       <r>    2.6115    0.0000 </r>
      </set>
      <set comment="kpoint 55">
       <r>  -17.0002    1.0000 </r>
       <r>  -14.9966    1.0000 </r>
       <r>  -11.4564    1.0000 </r>
       <r>   -8.8534    1.0000 </r>
       <r>   -6.4654    1.0000 </r>
       <r>   -6.1251    1.0000 </r>
       <r>   -5.5262    1.0000 </r>
       <r>   -4.4104    1.0000 </r>
       <r>   -3.3091    1.0000 </r>
       <r>   -3.2571    1.0000 </r>
       <r>   -0.4500    0.0000 </r>
       <r>   -0.2748    0.0000 </r>
       <r>    0.1897    0.0000 </r>
       <r>    0.8226    0.0000 </r>
       <r>    2.5846    0.0000 </r>
       <r>    2.6244    0.0000 </r>
      </set>
      <set comment="kpoint 56">
       <r>  -16.9215    1.0000 </r>
[...]
       <r>    3.3108    0.0000 </r>
       <r>    3.4115    0.0000 </r>
      </set>
      <set comment="kpoint 153">
       <r>  -15.3301    1.0000 </r>
       <r>  -15.1093    1.0000 </r>
       <r>  -10.9337    1.0000 </r>
       <r>  -10.6001    1.0000 </r>
       <r>   -7.9331    1.0000 </r>
       <r>   -7.7804    1.0000 </r>
       <r>   -5.2916    1.0000 </r>
       <r>   -5.0379    1.0000 </r>
       <r>   -3.8449    1.0000 </r>
       <r>   -3.7651    1.0000 </r>
       <r>    0.2964    0.0000 </r>
       <r>    0.6453    0.0000 </r>
       <r>    1.0865    0.0000 </r>
       <r>    1.4203    0.0000 </r>
       <r>    3.2830    0.0000 </r>
       <r>    3.3616    0.0000 </r>
      </set>
      <set comment="kpoint 154">
       <r>  -15.6005    1.0000 </r>
       <r>  -15.3697    1.0000 </r>
       <r>  -10.7737    1.0000 </r>
       <r>  -10.4391    1.0000 </r>
       <r>   -7.6236    1.0000 </r>
       <r>   -7.4533    1.0000 </r>
       <r>   -5.1565    1.0000 </r>
       <r>   -4.8687    1.0000 </r>
       <r>   -3.7396    1.0000 </r>
       <r>   -3.7293    1.0000 </r>
       <r>    0.2993    0.0000 </r>
       <r>    0.5664    0.0000 </r>
       <r>    1.1936    0.0000 </r>
       <r>    1.5530    0.0000 </r>
       <r>    2.9997    0.0000 </r>
       <r>    3.2613    0.0000 </r>
      </set>
      <set comment="kpoint 155">
       <r>  -15.8279    1.0000 </r>
       <r>  -15.5897    1.0000 </r>
       <r>  -10.7270    1.0000 </r>
       <r>  -10.4000    1.0000 </r>
       <r>   -7.1192    1.0000 </r>
       <r>   -6.9265    1.0000 </r>
       <r>   -5.1625    1.0000 </r>
       <r>   -4.8481    1.0000 </r>
       <r>   -3.6411    1.0000 </r>
       <r>   -3.5189    1.0000 </r>
       <r>    0.3927    0.0000 </r>
       <r>    0.5469    0.0000 </r>
       <r>    1.2064    0.0000 </r>
       <r>    1.5777    0.0000 </r>
       <r>    2.3883    0.0000 </r>
       <r>    2.6422    0.0000 </r>
      </set>
      <set comment="kpoint 156">
       <r>  -16.0081    1.0000 </r>
       <r>  -15.7640    1.0000 </r>
       <r>  -10.7431    1.0000 </r>
       <r>  -10.4238    1.0000 </r>
       <r>   -6.4926    1.0000 </r>
       <r>   -6.2818    1.0000 </r>
       <r>   -5.2242    1.0000 </r>
       <r>   -4.8962    1.0000 </r>
       <r>   -3.5667    1.0000 </r>
       <r>   -3.3293    1.0000 </r>
       <r>    0.5249    0.0000 </r>
       <r>    0.5502    0.0000 </r>
       <r>    1.1299    0.0000 </r>
       <r>    1.4310    0.0000 </r>
       <r>    1.7905    0.0000 </r>
       <r>    1.8964    0.0000 </r>
      </set>
      <set comment="kpoint 157">
       <r>  -16.1388    1.0000 </r>
       <r>  -15.8895    1.0000 </r>
       <r>  -10.7788    1.0000 </r>
       <r>  -10.4643    1.0000 </r>
       <r>   -5.8255    1.0000 </r>
       <r>   -5.6128    1.0000 </r>
       <r>   -5.2836    1.0000 </r>
       <r>   -4.9540    1.0000 </r>
       <r>   -3.5836    1.0000 </r>
       <r>   -3.2398    1.0000 </r>
       <r>    0.3327    0.0000 </r>
       <r>    0.3847    0.0000 </r>
       <r>    1.0969    0.0000 </r>
       <r>    1.1608    0.0000 </r>
       <r>    1.4917    0.0000 </r>
       <r>    1.6165    0.0000 </r>
      </set>
      <set comment="kpoint 158">
       <r>  -16.2185    1.0000 </r>
       <r>  -15.9647    1.0000 </r>
       <r>  -10.8085    1.0000 </r>
       <r>  -10.4960    1.0000 </r>
       <r>   -5.3509    1.0000 </r>
       <r>   -5.2270    1.0000 </r>
       <r>   -5.0084    1.0000 </r>
       <r>   -4.9949    1.0000 </r>
       <r>   -3.7085    1.0000 </r>
       <r>   -3.2735    1.0000 </r>
       <r>   -0.0846    0.0000 </r>
       <r>   -0.0235    0.0000 </r>
       <r>    1.1810    0.0000 </r>
       <r>    1.1908    0.0000 </r>
       <r>    1.4369    0.0000 </r>
       <r>    1.5519    0.0000 </r>
      </set>
     </set>
    </set>
   </array>
  </eigenvalues>
  <separator name="orbital magnetization" >
   <v name="MAGDIPOLOUT">      0.00000000      0.00000000      0.00000000</v>
  </separator>
  <dos>
   <i name="efermi">     -2.18608521 </i>
   <total>
    <array>
     <dimension dim="1">gridpoints</dimension>
     <dimension dim="2">spin</dimension>
     <field>energy</field>
     <field>total</field>
     <field>integrated</field>
     <set>
      <set comment="spin 1">
       <r>   -18.2594     0.0000     0.0000 </r>
       <r>   -18.1829     0.0000     0.0000 </r>
       <r>   -18.1065     0.0000     0.0000 </r>
       <r>   -18.0300     0.0000     0.0000 </r>
       <r>   -17.9535     0.0000     0.0000 </r>
       <r>   -17.8770     0.0000     0.0000 </r>
       <r>   -17.8005     0.0000     0.0000 </r>
       <r>   -17.7240     0.0000     0.0000 </r>
       <r>   -17.6475     0.0000     0.0000 </r>
       <r>   -17.5710     0.0000     0.0000 </r>
       <r>   -17.4945     0.0000     0.0000 </r>
       <r>   -17.4180     0.0000     0.0000 </r>
       <r>   -17.3415     0.0000     0.0000 </r>
       <r>   -17.2650     0.0000     0.0000 </r>
       <r>   -17.1885     0.3056     0.0234 </r>
       <r>   -17.1120     0.7747     0.0826 </r>
       <r>   -17.0355     0.7762     0.1420 </r>
       <r>   -16.9590     0.9893     0.2177 </r>
       <r>   -16.8825     0.8825     0.2852 </r>
       <r>   -16.8061     0.5647     0.3284 </r>
       <r>   -16.7296     1.1216     0.4142 </r>
       <r>   -16.6531     0.8723     0.4809 </r>
       <r>   -16.5766     0.8945     0.5493 </r>
       <r>   -16.5001     0.5726     0.5931 </r>
       <r>   -16.4236     1.4546     0.7044 </r>
       <r>   -16.3471     0.6377     0.7532 </r>
       <r>   -16.2706     0.4064     0.7843 </r>
       <r>   -16.1941     1.6841     0.9131 </r>
       <r>   -16.1176     0.5881     0.9581 </r>
       <r>   -16.0411     0.9218     1.0286 </r>
       <r>   -15.9646     0.7673     1.0873 </r>
       <r>   -15.8881     1.0985     1.1713 </r>
       <r>   -15.8116     1.1774     1.2614 </r>
       <r>   -15.7351     0.9869     1.3369 </r>
       <r>   -15.6586     0.5398     1.3782 </r>
       <r>   -15.5821     1.2257     1.4719 </r>
       <r>   -15.5056     0.9838     1.5472 </r>
       <r>   -15.4292     1.3088     1.6473 </r>
       <r>   -15.3527     0.9909     1.7231 </r>
       <r>   -15.2762     0.9157     1.7931 </r>
       <r>   -15.1997     1.1867     1.8839 </r>
       <r>   -15.1232     0.5714     1.9276 </r>
       <r>   -15.0467     2.0618     2.0853 </r>
       <r>   -14.9702     1.3617     2.1895 </r>
       <r>   -14.8937     0.8046     2.2511 </r>
       <r>   -14.8172     1.6342     2.3761 </r>
       <r>   -14.7407     1.8819     2.5200 </r>
       <r>   -14.6642     1.1805     2.6103 </r>
       <r>   -14.5877     1.8513     2.7519 </r>
       <r>   -14.5112     1.8219     2.8913 </r>
       <r>   -14.4347     0.8845     2.9590 </r>
       <r>   -14.3582     0.9406     3.0309 </r>
       <r>   -14.2817     1.4891     3.1448 </r>
       <r>   -14.2052     0.9414     3.2168 </r>
       <r>   -14.1288     1.4042     3.3242 </r>
       <r>   -14.0523     2.5462     3.5190 </r>
       <r>   -13.9758     0.9864     3.5945 </r>
       <r>   -13.8993     0.5797     3.6388 </r>
       <r>   -13.8228     0.6920     3.6917 </r>
       <r>   -13.7463     0.9986     3.7681 </r>
       <r>   -13.6698     0.9536     3.8411 </r>
       <r>   -13.5933     0.7311     3.8970 </r>
       <r>   -13.5168     0.0185     3.8984 </r>
       <r>   -13.4403     0.5317     3.9391 </r>
       <r>   -13.3638     0.2952     3.9617 </r>
       <r>   -13.2873     0.1315     3.9717 </r>
       <r>   -13.2108     0.2049     3.9874 </r>
       <r>   -13.1343     0.1644     4.0000 </r>
       <r>   -13.0578     0.0002     4.0000 </r>
       <r>   -12.9813     0.0850     4.0065 </r>
       <r>   -12.9048     0.0895     4.0133 </r>
       <r>   -12.8283     0.3232     4.0381 </r>
       <r>   -12.7519     0.0004     4.0381 </r>
       <r>   -12.6754     0.4791     4.0748 </r>
       <r>   -12.5989     0.3484     4.1014 </r>
       <r>   -12.5224     0.1931     4.1162 </r>
       <r>   -12.4459     1.3591     4.2201 </r>
       <r>   -12.3694     0.3118     4.2440 </r>
       <r>   -12.2929     0.5377     4.2851 </r>
       <r>   -12.2164     1.2088     4.3776 </r>
       <r>   -12.1399     0.3210     4.4021 </r>
       <r>   -12.0634     2.1368     4.5656 </r>
       <r>   -11.9869     1.7283     4.6978 </r>
       <r>   -11.9104     1.1089     4.7826 </r>
       <r>   -11.8339     0.7502     4.8400 </r>
       <r>   -11.7574     1.0420     4.9197 </r>
       <r>   -11.6809     1.5418     5.0376 </r>
       <r>   -11.6044     0.5787     5.0819 </r>
       <r>   -11.5279     2.2308     5.2526 </r>
       <r>   -11.4515     4.4658     5.5942 </r>
       <r>   -11.3750     1.7849     5.7307 </r>
       <r>   -11.2985     1.1243     5.8167 </r>
       <r>   -11.2220     1.7441     5.9501 </r>
       <r>   -11.1455     0.7754     6.0094 </r>
       <r>   -11.0690     0.5650     6.0526 </r>
       <r>   -10.9925     1.9031     6.1982 </r>
       <r>   -10.9160     0.7380     6.2547 </r>
       <r>   -10.8395     0.8514     6.3198 </r>
       <r>   -10.7630     1.3462     6.4228 </r>
       <r>   -10.6865     0.7805     6.4825 </r>
       <r>   -10.6100     0.5572     6.5251 </r>
       <r>   -10.5335     0.4460     6.5592 </r>
       <r>   -10.4570     0.8014     6.6205 </r>
       <r>   -10.3805     1.3200     6.7215 </r>
       <r>   -10.3040     0.6048     6.7677 </r>
       <r>   -10.2275     0.6862     6.8202 </r>
       <r>   -10.1511     0.3176     6.8445 </r>
       <r>   -10.0746     1.1961     6.9360 </r>
       <r>    -9.9981     0.8766     7.0031 </r>
       <r>    -9.9216     0.2952     7.0257 </r>
       <r>    -9.8451     0.2777     7.0469 </r>
       <r>    -9.7686     0.0981     7.0544 </r>
       <r>    -9.6921     1.1269     7.1406 </r>
       <r>    -9.6156     1.2085     7.2330 </r>
       <r>    -9.5391     0.5980     7.2788 </r>
       <r>    -9.4626     0.0491     7.2825 </r>
       <r>    -9.3861     0.0000     7.2825 </r>
       <r>    -9.3096     0.7690     7.3414 </r>
       <r>    -9.2331     1.0216     7.4195 </r>
       <r>    -9.1566     0.3674     7.4476 </r>
       <r>    -9.0801     0.2531     7.4670 </r>
       <r>    -9.0036     0.0795     7.4731 </r>
       <r>    -8.9271     0.5324     7.5138 </r>
       <r>    -8.8506     0.6603     7.5643 </r>
       <r>    -8.7742     1.1019     7.6486 </r>
       <r>    -8.6977     0.0288     7.6508 </r>
       <r>    -8.6212     0.1698     7.6638 </r>
       <r>    -8.5447     0.1622     7.6762 </r>
       <r>    -8.4682     0.0052     7.6766 </r>
       <r>    -8.3917     0.9229     7.7472 </r>
       <r>    -8.3152     0.8945     7.8156 </r>
       <r>    -8.2387     0.0432     7.8189 </r>
       <r>    -8.1622     0.5181     7.8585 </r>
       <r>    -8.0857     1.4149     7.9668 </r>
       <r>    -8.0092     2.9461     8.1921 </r>
       <r>    -7.9327     1.4618     8.3039 </r>
       <r>    -7.8562     1.7147     8.4351 </r>
       <r>    -7.7797     2.7210     8.6433 </r>
       <r>    -7.7032     2.3746     8.8249 </r>
       <r>    -7.6267     1.7533     8.9590 </r>
       <r>    -7.5502     1.5201     9.0753 </r>
       <r>    -7.4738     2.1989     9.2435 </r>
       <r>    -7.3973     2.1963     9.4115 </r>
       <r>    -7.3208     2.1883     9.5789 </r>
       <r>    -7.2443     3.8642     9.8745 </r>
       <r>    -7.1678     3.0382    10.1069 </r>
       <r>    -7.0913     3.4851    10.3735 </r>
       <r>    -7.0148     2.8482    10.5914 </r>
       <r>    -6.9383     1.1983    10.6830 </r>
       <r>    -6.8618     1.2520    10.7788 </r>
       <r>    -6.7853     1.4770    10.8918 </r>
       <r>    -6.7088     1.3616    10.9959 </r>
       <r>    -6.6323     2.6915    11.2018 </r>
       <r>    -6.5558     0.8364    11.2658 </r>
       <r>    -6.4793     1.2745    11.3633 </r>
       <r>    -6.4028     2.3742    11.5449 </r>
       <r>    -6.3263     0.9991    11.6213 </r>
       <r>    -6.2498     1.0412    11.7010 </r>
       <r>    -6.1733     2.3547    11.8811 </r>
       <r>    -6.0969     2.3491    12.0608 </r>
       <r>    -6.0204     1.0534    12.1414 </r>
       <r>    -5.9439     2.0500    12.2982 </r>
       <r>    -5.8674     1.0514    12.3786 </r>
       <r>    -5.7909     2.8645    12.5977 </r>
       <r>    -5.7144     1.7001    12.7278 </r>
       <r>    -5.6379     3.4262    12.9898 </r>
       <r>    -5.5614     4.1182    13.3049 </r>
       <r>    -5.4849     3.6312    13.5826 </r>
       <r>    -5.4084     3.3826    13.8414 </r>
       <r>    -5.3319     4.0170    14.1487 </r>
       <r>    -5.2554     2.4909    14.3392 </r>
       <r>    -5.1789     3.8618    14.6346 </r>
       <r>    -5.1024     2.6622    14.8382 </r>
       <r>    -5.0259     1.9827    14.9899 </r>
       <r>    -4.9494     2.1766    15.1564 </r>
       <r>    -4.8729     1.9123    15.3027 </r>
       <r>    -4.7965     1.5603    15.4220 </r>
       <r>    -4.7200     0.9956    15.4982 </r>
       <r>    -4.6435     0.9066    15.5675 </r>
       <r>    -4.5670     1.6945    15.6972 </r>
       <r>    -4.4905     1.6375    15.8224 </r>
       <r>    -4.4140     0.4955    15.8603 </r>
       <r>    -4.3375     0.6241    15.9081 </r>
       <r>    -4.2610     1.5099    16.0236 </r>
       <r>    -4.1845     1.9112    16.1698 </r>
       <r>    -4.1080     2.8252    16.3859 </r>
       <r>    -4.0315     2.2872    16.5608 </r>
       <r>    -3.9550     3.0514    16.7943 </r>
       <r>    -3.8785     1.8186    16.9334 </r>
       <r>    -3.8020     4.0292    17.2416 </r>
       <r>    -3.7255     5.0165    17.6253 </r>
       <r>    -3.6490     3.0583    17.8593 </r>
       <r>    -3.5725     3.2176    18.1054 </r>
       <r>    -3.4960     3.2034    18.3504 </r>
       <r>    -3.4196     3.6130    18.6268 </r>
       <r>    -3.3431     3.1121    18.8649 </r>
       <r>    -3.2666     3.6931    19.1473 </r>
       <r>    -3.1901     2.5278    19.3407 </r>
       <r>    -3.1136     0.7823    19.4006 </r>
       <r>    -3.0371     0.6036    19.4467 </r>
       <r>    -2.9606     1.0326    19.5257 </r>
       <r>    -2.8841     1.8217    19.6651 </r>
       <r>    -2.8076     1.5709    19.7852 </r>
       <r>    -2.7311     0.3396    19.8112 </r>
       <r>    -2.6546     0.1635    19.8237 </r>
       <r>    -2.5781     0.3819    19.8529 </r>
       <r>    -2.5016     0.4548    19.8877 </r>
       <r>    -2.4251     0.8868    19.9556 </r>
       <r>    -2.3486     0.1583    19.9677 </r>
       <r>    -2.2721     0.3942    19.9978 </r>
       <r>    -2.1956     0.0286    20.0000 </r>
       <r>    -2.1192     0.0000    20.0000 </r>
       <r>    -2.0427     0.0000    20.0000 </r>
       <r>    -1.9662     0.0000    20.0000 </r>
       <r>    -1.8897     0.0000    20.0000 </r>
       <r>    -1.8132     0.0000    20.0000 </r>
       <r>    -1.7367     0.0000    20.0000 </r>
       <r>    -1.6602     0.0000    20.0000 </r>
       <r>    -1.5837     0.0000    20.0000 </r>
       <r>    -1.5072     0.0000    20.0000 </r>
       <r>    -1.4307     0.0000    20.0000 </r>
       <r>    -1.3542     0.0922    20.0071 </r>
       <r>    -1.2777     0.1888    20.0215 </r>
       <r>    -1.2012     0.1496    20.0329 </r>
       <r>    -1.1247     0.9357    20.1045 </r>
       <r>    -1.0482     1.1220    20.1904 </r>
       <r>    -0.9717     2.5112    20.3824 </r>
       <r>    -0.8952     1.1781    20.4726 </r>
       <r>    -0.8188     2.1010    20.6333 </r>
       <r>    -0.7423     1.8886    20.7777 </r>
       <r>    -0.6658     2.1684    20.9436 </r>
       <r>    -0.5893     1.6876    21.0727 </r>
       <r>    -0.5128     1.8937    21.2176 </r>
       <r>    -0.4363     2.5251    21.4107 </r>
       <r>    -0.3598     3.7135    21.6948 </r>
       <r>    -0.2833     1.9289    21.8423 </r>
       <r>    -0.2068     2.8918    22.0635 </r>
       <r>    -0.1303     1.8217    22.2029 </r>
       <r>    -0.0538     3.5442    22.4740 </r>
       <r>     0.0227     3.6130    22.7504 </r>
       <r>     0.0992     2.9023    22.9724 </r>
       <r>     0.1757     2.7650    23.1839 </r>
       <r>     0.2522     3.0586    23.4179 </r>
       <r>     0.3287     3.8859    23.7151 </r>
       <r>     0.4052     5.6369    24.1463 </r>
       <r>     0.4817     5.1691    24.5417 </r>
       <r>     0.5581     3.4646    24.8067 </r>
       <r>     0.6346     3.4459    25.0703 </r>
       <r>     0.7111     2.8467    25.2881 </r>
       <r>     0.7876     3.6291    25.5657 </r>
       <r>     0.8641     4.9412    25.9436 </r>
       <r>     0.9406     2.6642    26.1474 </r>
       <r>     1.0171     3.2233    26.3940 </r>
       <r>     1.0936     2.0848    26.5535 </r>
       <r>     1.1701     3.5140    26.8223 </r>
       <r>     1.2466     3.1515    27.0634 </r>
       <r>     1.3231     1.5604    27.1827 </r>
       <r>     1.3996     2.5694    27.3793 </r>
       <r>     1.4761     2.7213    27.5874 </r>
       <r>     1.5526     2.1919    27.7551 </r>
       <r>     1.6291     2.1028    27.9159 </r>
       <r>     1.7056     2.2690    28.0895 </r>
       <r>     1.7821     2.0428    28.2458 </r>
       <r>     1.8585     3.1715    28.4884 </r>
       <r>     1.9350     2.6281    28.6894 </r>
       <r>     2.0115     1.5442    28.8075 </r>
       <r>     2.0880     1.5169    28.9236 </r>
       <r>     2.1645     2.8507    29.1416 </r>
       <r>     2.2410     2.4186    29.3266 </r>
       <r>     2.3175     3.1642    29.5687 </r>
       <r>     2.3940     2.4433    29.7556 </r>
       <r>     2.4705     2.8783    29.9757 </r>
       <r>     2.5470     2.3193    30.1532 </r>
       <r>     2.6235     3.6220    30.4302 </r>
       <r>     2.7000     3.7777    30.7192 </r>
       <r>     2.7765     2.2975    30.8949 </r>
       <r>     2.8530     1.4381    31.0049 </r>
       <r>     2.9295     2.1060    31.1660 </r>
       <r>     3.0060     1.7391    31.2991 </r>
       <r>     3.0825     2.1663    31.4648 </r>
       <r>     3.1590     1.0242    31.5431 </r>
       <r>     3.2354     1.4818    31.6565 </r>
       <r>     3.3119     2.0560    31.8137 </r>
       <r>     3.3884     1.0461    31.8938 </r>
       <r>     3.4649     0.7257    31.9493 </r>
       <r>     3.5414     0.3283    31.9744 </r>
       <r>     3.6179     0.1698    31.9874 </r>
       <r>     3.6944     0.1650    32.0000 </r>
       <r>     3.7709     0.0000    32.0000 </r>
       <r>     3.8474     0.0000    32.0000 </r>
       <r>     3.9239     0.0000    32.0000 </r>
       <r>     4.0004     0.0000    32.0000 </r>
       <r>     4.0769     0.0000    32.0000 </r>
       <r>     4.1534     0.0000    32.0000 </r>
       <r>     4.2299     0.0000    32.0000 </r>
       <r>     4.3064     0.0000    32.0000 </r>
       <r>     4.3829     0.0000    32.0000 </r>
       <r>     4.4594     0.0000    32.0000 </r>
       <r>     4.5358     0.0000    32.0000 </r>
       <r>     4.6123     0.0000    32.0000 </r>
       <r>     4.6888     0.0000    32.0000 </r>
      </set>
     </set>
    </array>
   </total>
  </dos>
 </calculation>
 <structure name="finalpos" >
  <crystal>
   <varray name="basis" >
    <v>       3.30952200       0.01234200       0.00000000 </v>
    <v>       0.01730500       4.62331900      -0.00005300 </v>
    <v>       0.00000000       0.00000000      20.02439000 </v>
   </varray>
   <i name="volume">    306.38843290 </i>
   <varray name="rec_basis" >
    <v>       0.30216266      -0.00113099       0.00000000 </v>
    <v>      -0.00080663       0.21629785       0.00000000 </v>
    <v>      -0.00000000       0.00000057       0.04993910 </v>
   </varray>
  </crystal>
  <varray name="positions" >
   <v>       0.49856760       0.91067747       0.55250082 </v>
   <v>       0.50143240       0.08932253       0.44749918 </v>
   <v>      -0.00143239       0.41067312       0.44749918 </v>
   <v>       0.00143239       0.58932688       0.55250082 </v>
  </varray>
 </structure>
</modeling>
