<?xml version="1.0" encoding="ISO-8859-1"?>
<modeling>
 <generator>
  <i name="program" type="string">vasp </i>
  <i name="version" type="string">5.4.1  </i>
  <i name="subversion" type="string">24Jun15 (build Nov 20 2020 11:14:58) complex                          parallel </i>
  <i name="platform" type="string">IFC91_ompi </i>
  <i name="date" type="string">2021 09 08 </i>
  <i name="time" type="string">23:38:24 </i>
 </generator>
 <incar>
  <i type="string" name="PREC">a</i>
  <i type="string" name="ALGO"> Normal</i>
  <i type="int" name="ISPIN">     1</i>
  <i type="int" name="ICHARG">     2</i>
  <i type="int" name="NELM">   250</i>
  <i type="int" name="NELMDL">    -5</i>
  <i type="int" name="NELMIN">     6</i>
  <i type="int" name="IBRION">     2</i>
  <i name="EDIFF">      0.00001000</i>
  <i name="EDIFFG">     -0.01000000</i>
  <i type="int" name="NSW">   200</i>
  <i type="int" name="ISIF">     3</i>
  <i name="ENCUT">    520.00000000</i>
  <i name="POTIM">      0.25000000</i>
  <i type="logical" name="LREAL"> F  </i>
  <i type="int" name="ISMEAR">     0</i>
  <i name="SIGMA">      0.02000000</i>
  <i type="logical" name="LWAVE"> F  </i>
  <i type="logical" name="LCHARG"> F  </i>
  <i type="logical" name="LAECHG"> F  </i>
  <v type="int" name="KPOINT_BSE">    -1     0     0     0</v>
  <i type="int" name="NELM">   250</i>
 </incar>
 <kpoints>
  <generation param="Gamma">
   <v type="int" name="divisions">      21       15        1 </v>
   <v name="usershift">      0.00000000       0.00000000       0.00000000 </v>
   <v name="genvec1">      0.04761905       0.00000000       0.00000000 </v>
   <v name="genvec2">      0.00000000       0.06666667       0.00000000 </v>
   <v name="genvec3">      0.00000000       0.00000000       1.00000000 </v>
   <v name="shift">      0.00000000       0.00000000       0.00000000 </v>
  </generation>
  <varray name="kpointlist" >
   <v>       0.00000000       0.00000000       0.00000000 </v>
   <v>       0.04761905       0.00000000       0.00000000 </v>
   <v>       0.09523810       0.00000000       0.00000000 </v>
   <v>       0.14285714       0.00000000       0.00000000 </v>
   <v>       0.19047619       0.00000000       0.00000000 </v>
   <v>       0.23809524       0.00000000       0.00000000 </v>
   <v>       0.28571429       0.00000000       0.00000000 </v>
   <v>       0.33333333       0.00000000       0.00000000 </v>
   <v>       0.38095238       0.00000000       0.00000000 </v>
   <v>       0.42857143       0.00000000       0.00000000 </v>
   <v>       0.47619048       0.00000000       0.00000000 </v>
   <v>       0.00000000       0.06666667       0.00000000 </v>
   <v>       0.04761905       0.06666667       0.00000000 </v>
   <v>       0.09523810       0.06666667       0.00000000 </v>
   <v>       0.14285714       0.06666667       0.00000000 </v>
   <v>       0.19047619       0.06666667       0.00000000 </v>
   <v>       0.23809524       0.06666667       0.00000000 </v>
   <v>       0.28571429       0.06666667       0.00000000 </v>
   <v>       0.33333333       0.06666667       0.00000000 </v>
   <v>       0.38095238       0.06666667       0.00000000 </v>
   <v>       0.42857143       0.06666667       0.00000000 </v>
   <v>       0.47619048       0.06666667       0.00000000 </v>
   <v>      -0.47619048       0.06666667       0.00000000 </v>
   <v>      -0.42857143       0.06666667       0.00000000 </v>
   <v>      -0.38095238       0.06666667       0.00000000 </v>
   <v>      -0.33333333       0.06666667       0.00000000 </v>
   <v>      -0.28571429       0.06666667       0.00000000 </v>
   <v>      -0.23809524       0.06666667       0.00000000 </v>
   <v>      -0.19047619       0.06666667       0.00000000 </v>
   <v>      -0.14285714       0.06666667       0.00000000 </v>
   <v>      -0.09523810       0.06666667       0.00000000 </v>
   <v>      -0.04761905       0.06666667       0.00000000 </v>
   <v>       0.00000000       0.13333333       0.00000000 </v>
   <v>       0.04761905       0.13333333       0.00000000 </v>
   <v>       0.09523810       0.13333333       0.00000000 </v>
   <v>       0.14285714       0.13333333       0.00000000 </v>
   <v>       0.19047619       0.13333333       0.00000000 </v>
   <v>       0.23809524       0.13333333       0.00000000 </v>
   <v>       0.28571429       0.13333333       0.00000000 </v>
   <v>       0.33333333       0.13333333       0.00000000 </v>
   <v>       0.38095238       0.13333333       0.00000000 </v>
   <v>       0.42857143       0.13333333       0.00000000 </v>
   <v>       0.47619048       0.13333333       0.00000000 </v>
   <v>      -0.47619048       0.13333333       0.00000000 </v>
   <v>      -0.42857143       0.13333333       0.00000000 </v>
   <v>      -0.38095238       0.13333333       0.00000000 </v>
   <v>      -0.33333333       0.13333333       0.00000000 </v>
   <v>      -0.28571429       0.13333333       0.00000000 </v>
   <v>      -0.23809524       0.13333333       0.00000000 </v>
   <v>      -0.19047619       0.13333333       0.00000000 </v>
   <v>      -0.14285714       0.13333333       0.00000000 </v>
   <v>      -0.09523810       0.13333333       0.00000000 </v>
   <v>      -0.04761905       0.13333333       0.00000000 </v>
   <v>       0.00000000       0.20000000       0.00000000 </v>
   <v>       0.04761905       0.20000000       0.00000000 </v>
   <v>       0.09523810       0.20000000       0.00000000 </v>
   <v>       0.14285714       0.20000000       0.00000000 </v>
   <v>       0.19047619       0.20000000       0.00000000 </v>
   <v>       0.23809524       0.20000000       0.00000000 </v>
   <v>       0.28571429       0.20000000       0.00000000 </v>
   <v>       0.33333333       0.20000000       0.00000000 </v>
   <v>       0.38095238       0.20000000       0.00000000 </v>
   <v>       0.42857143       0.20000000       0.00000000 </v>
   <v>       0.47619048       0.20000000       0.00000000 </v>
   <v>      -0.47619048       0.20000000       0.00000000 </v>
   <v>      -0.42857143       0.20000000       0.00000000 </v>
   <v>      -0.38095238       0.20000000       0.00000000 </v>
   <v>      -0.33333333       0.20000000       0.00000000 </v>
   <v>      -0.28571429       0.20000000       0.00000000 </v>
   <v>      -0.23809524       0.20000000       0.00000000 </v>
   <v>      -0.19047619       0.20000000       0.00000000 </v>
   <v>      -0.14285714       0.20000000       0.00000000 </v>
   <v>      -0.09523810       0.20000000       0.00000000 </v>
   <v>      -0.04761905       0.20000000       0.00000000 </v>
   <v>       0.00000000       0.26666667       0.00000000 </v>
   <v>       0.04761905       0.26666667       0.00000000 </v>
   <v>       0.09523810       0.26666667       0.00000000 </v>
   <v>       0.14285714       0.26666667       0.00000000 </v>
   <v>       0.19047619       0.26666667       0.00000000 </v>
   <v>       0.23809524       0.26666667       0.00000000 </v>
   <v>       0.28571429       0.26666667       0.00000000 </v>
   <v>       0.33333333       0.26666667       0.00000000 </v>
   <v>       0.38095238       0.26666667       0.00000000 </v>
   <v>       0.42857143       0.26666667       0.00000000 </v>
   <v>       0.47619048       0.26666667       0.00000000 </v>
   <v>      -0.47619048       0.26666667       0.00000000 </v>
   <v>      -0.42857143       0.26666667       0.00000000 </v>
   <v>      -0.38095238       0.26666667       0.00000000 </v>
   <v>      -0.33333333       0.26666667       0.00000000 </v>
   <v>      -0.28571429       0.26666667       0.00000000 </v>
   <v>      -0.23809524       0.26666667       0.00000000 </v>
   <v>      -0.19047619       0.26666667       0.00000000 </v>
   <v>      -0.14285714       0.26666667       0.00000000 </v>
   <v>      -0.09523810       0.26666667       0.00000000 </v>
   <v>      -0.04761905       0.26666667       0.00000000 </v>
   <v>       0.00000000       0.33333333       0.00000000 </v>
   <v>       0.04761905       0.33333333       0.00000000 </v>
   <v>       0.09523810       0.33333333       0.00000000 </v>
   <v>       0.14285714       0.33333333       0.00000000 </v>
   <v>       0.19047619       0.33333333       0.00000000 </v>
   <v>       0.23809524       0.33333333       0.00000000 </v>
   <v>       0.28571429       0.33333333       0.00000000 </v>
   <v>       0.33333333       0.33333333       0.00000000 </v>
   <v>       0.38095238       0.33333333       0.00000000 </v>
   <v>       0.42857143       0.33333333       0.00000000 </v>
   <v>       0.47619048       0.33333333       0.00000000 </v>
   <v>      -0.47619048       0.33333333       0.00000000 </v>
   <v>      -0.42857143       0.33333333       0.00000000 </v>
   <v>      -0.38095238       0.33333333       0.00000000 </v>
   <v>      -0.33333333       0.33333333       0.00000000 </v>
   <v>      -0.28571429       0.33333333       0.00000000 </v>
   <v>      -0.23809524       0.33333333       0.00000000 </v>
   <v>      -0.19047619       0.33333333       0.00000000 </v>
   <v>      -0.14285714       0.33333333       0.00000000 </v>
   <v>      -0.09523810       0.33333333       0.00000000 </v>
   <v>      -0.04761905       0.33333333       0.00000000 </v>
   <v>       0.00000000       0.40000000       0.00000000 </v>
   <v>       0.04761905       0.40000000       0.00000000 </v>
   <v>       0.09523810       0.40000000       0.00000000 </v>
   <v>       0.14285714       0.40000000       0.00000000 </v>
   <v>       0.19047619       0.40000000       0.00000000 </v>
   <v>       0.23809524       0.40000000       0.00000000 </v>
   <v>       0.28571429       0.40000000       0.00000000 </v>
   <v>       0.33333333       0.40000000       0.00000000 </v>
   <v>       0.38095238       0.40000000       0.00000000 </v>
   <v>       0.42857143       0.40000000       0.00000000 </v>
   <v>       0.47619048       0.40000000       0.00000000 </v>
   <v>      -0.47619048       0.40000000       0.00000000 </v>
   <v>      -0.42857143       0.40000000       0.00000000 </v>
   <v>      -0.38095238       0.40000000       0.00000000 </v>
   <v>      -0.33333333       0.40000000       0.00000000 </v>
   <v>      -0.28571429       0.40000000       0.00000000 </v>
   <v>      -0.23809524       0.40000000       0.00000000 </v>
   <v>      -0.19047619       0.40000000       0.00000000 </v>
   <v>      -0.14285714       0.40000000       0.00000000 </v>
   <v>      -0.09523810       0.40000000       0.00000000 </v>
   <v>      -0.04761905       0.40000000       0.00000000 </v>
   <v>       0.00000000       0.46666667       0.00000000 </v>
   <v>       0.04761905       0.46666667       0.00000000 </v>
   <v>       0.09523810       0.46666667       0.00000000 </v>
   <v>       0.14285714       0.46666667       0.00000000 </v>
   <v>       0.19047619       0.46666667       0.00000000 </v>
   <v>       0.23809524       0.46666667       0.00000000 </v>
   <v>       0.28571429       0.46666667       0.00000000 </v>
   <v>       0.33333333       0.46666667       0.00000000 </v>
   <v>       0.38095238       0.46666667       0.00000000 </v>
   <v>       0.42857143       0.46666667       0.00000000 </v>
   <v>       0.47619048       0.46666667       0.00000000 </v>
   <v>      -0.47619048       0.46666667       0.00000000 </v>
   <v>      -0.42857143       0.46666667       0.00000000 </v>
   <v>      -0.38095238       0.46666667       0.00000000 </v>
   <v>      -0.33333333       0.46666667       0.00000000 </v>
   <v>      -0.28571429       0.46666667       0.00000000 </v>
   <v>      -0.23809524       0.46666667       0.00000000 </v>
   <v>      -0.19047619       0.46666667       0.00000000 </v>
   <v>      -0.14285714       0.46666667       0.00000000 </v>
   <v>      -0.09523810       0.46666667       0.00000000 </v>
   <v>      -0.04761905       0.46666667       0.00000000 </v>
  </varray>
  <varray name="weights" >
   <v>       0.00317460 </v>
   <v>       0.00634921 </v>
   <v>       0.00634921 </v>
   <v>       0.00634921 </v>
   <v>       0.00634921 </v>
   <v>       0.00634921 </v>
   <v>       0.00634921 </v>
   <v>       0.00634921 </v>
   <v>       0.00634921 </v>
   <v>       0.00634921 </v>
   <v>       0.00634921 </v>
   <v>       0.00634921 </v>
   <v>       0.00634921 </v>
   <v>       0.00634921 </v>
   <v>       0.00634921 </v>
   <v>       0.00634921 </v>
   <v>       0.00634921 </v>
   <v>       0.00634921 </v>
   <v>       0.00634921 </v>
   <v>       0.00634921 </v>
   <v>       0.00634921 </v>
   <v>       0.00634921 </v>
   <v>       0.00634921 </v>
   <v>       0.00634921 </v>
   <v>       0.00634921 </v>
   <v>       0.00634921 </v>
   <v>       0.00634921 </v>
   <v>       0.00634921 </v>
   <v>       0.00634921 </v>
   <v>       0.00634921 </v>
   <v>       0.00634921 </v>
   <v>       0.00634921 </v>
   <v>       0.00634921 </v>
   <v>       0.00634921 </v>
   <v>       0.00634921 </v>
   <v>       0.00634921 </v>
   <v>       0.00634921 </v>
   <v>       0.00634921 </v>
   <v>       0.00634921 </v>
   <v>       0.00634921 </v>
   <v>       0.00634921 </v>
   <v>       0.00634921 </v>
   <v>       0.00634921 </v>
   <v>       0.00634921 </v>
   <v>       0.00634921 </v>
   <v>       0.00634921 </v>
   <v>       0.00634921 </v>
   <v>       0.00634921 </v>
   <v>       0.00634921 </v>
   <v>       0.00634921 </v>
   <v>       0.00634921 </v>
   <v>       0.00634921 </v>
   <v>       0.00634921 </v>
   <v>       0.00634921 </v>
   <v>       0.00634921 </v>
   <v>       0.00634921 </v>
   <v>       0.00634921 </v>
   <v>       0.00634921 </v>
   <v>       0.00634921 </v>
   <v>       0.00634921 </v>
   <v>       0.00634921 </v>
   <v>       0.00634921 </v>
   <v>       0.00634921 </v>
   <v>       0.00634921 </v>
   <v>       0.00634921 </v>
   <v>       0.00634921 </v>
   <v>       0.00634921 </v>
   <v>       0.00634921 </v>
   <v>       0.00634921 </v>
   <v>       0.00634921 </v>
   <v>       0.00634921 </v>
   <v>       0.00634921 </v>
   <v>       0.00634921 </v>
   <v>       0.00634921 </v>
   <v>       0.00634921 </v>
   <v>       0.00634921 </v>
   <v>       0.00634921 </v>
   <v>       0.00634921 </v>
   <v>       0.00634921 </v>
   <v>       0.00634921 </v>
   <v>       0.00634921 </v>
   <v>       0.00634921 </v>
   <v>       0.00634921 </v>
   <v>       0.00634921 </v>
   <v>       0.00634921 </v>
   <v>       0.00634921 </v>
   <v>       0.00634921 </v>
   <v>       0.00634921 </v>
   <v>       0.00634921 </v>
   <v>       0.00634921 </v>
   <v>       0.00634921 </v>
   <v>       0.00634921 </v>
   <v>       0.00634921 </v>
   <v>       0.00634921 </v>
   <v>       0.00634921 </v>
   <v>       0.00634921 </v>
   <v>       0.00634921 </v>
   <v>       0.00634921 </v>
   <v>       0.00634921 </v>
   <v>       0.00634921 </v>
   <v>       0.00634921 </v>
   <v>       0.00634921 </v>
   <v>       0.00634921 </v>
   <v>       0.00634921 </v>
   <v>       0.00634921 </v>
   <v>       0.00634921 </v>
   <v>       0.00634921 </v>
   <v>       0.00634921 </v>
   <v>       0.00634921 </v>
   <v>       0.00634921 </v>
   <v>       0.00634921 </v>
   <v>       0.00634921 </v>
   <v>       0.00634921 </v>
   <v>       0.00634921 </v>
   <v>       0.00634921 </v>
   <v>       0.00634921 </v>
   <v>       0.00634921 </v>
   <v>       0.00634921 </v>
   <v>       0.00634921 </v>
   <v>       0.00634921 </v>
   <v>       0.00634921 </v>
   <v>       0.00634921 </v>
   <v>       0.00634921 </v>
   <v>       0.00634921 </v>
   <v>       0.00634921 </v>
   <v>       0.00634921 </v>
   <v>       0.00634921 </v>
   <v>       0.00634921 </v>
   <v>       0.00634921 </v>
   <v>       0.00634921 </v>
   <v>       0.00634921 </v>
   <v>       0.00634921 </v>
   <v>       0.00634921 </v>
   <v>       0.00634921 </v>
   <v>       0.00634921 </v>
   <v>       0.00634921 </v>
   <v>       0.00634921 </v>
   <v>       0.00634921 </v>
   <v>       0.00634921 </v>
   <v>       0.00634921 </v>
   <v>       0.00634921 </v>
   <v>       0.00634921 </v>
   <v>       0.00634921 </v>
   <v>       0.00634921 </v>
   <v>       0.00634921 </v>
   <v>       0.00634921 </v>
   <v>       0.00634921 </v>
   <v>       0.00634921 </v>
   <v>       0.00634921 </v>
   <v>       0.00634921 </v>
   <v>       0.00634921 </v>
   <v>       0.00634921 </v>
   <v>       0.00634921 </v>
   <v>       0.00634921 </v>
   <v>       0.00634921 </v>
   <v>       0.00634921 </v>
   <v>       0.00634921 </v>
   <v>       0.00634921 </v>
  </varray>
 </kpoints>
 <parameters>
  <separator name="general" >
   <i type="string" name="SYSTEM">unknown system</i>
   <i type="logical" name="LCOMPAT"> F  </i>
  </separator>
  <separator name="electronic" >
   <i type="string" name="PREC">a</i>
   <i name="ENMAX">    520.00000000</i>
   <i name="ENAUG">    342.92400000</i>
   <i name="EDIFF">      0.00001000</i>
   <i type="int" name="IALGO">    38</i>
   <i type="int" name="IWAVPR">    11</i>
   <i type="int" name="NBANDS">    16</i>
   <i name="NELECT">     20.00000000</i>
   <i type="int" name="TURBO">     0</i>
   <i type="int" name="IRESTART">     0</i>
   <i type="int" name="NREBOOT">     0</i>
   <i type="int" name="NMIN">     0</i>
   <i name="EREF">      0.00000000</i>
   <separator name="electronic smearing" >
    <i type="int" name="ISMEAR">     0</i>
    <i name="SIGMA">      0.02000000</i>
    <i name="KSPACING">      0.50000000</i>
    <i type="logical" name="KGAMMA"> T  </i>
   </separator>
   <separator name="electronic projectors" >
    <i type="logical" name="LREAL"> F  </i>
    <v name="ROPT">      0.00000000</v>
    <i type="int" name="LMAXPAW">  -100</i>
    <i type="int" name="LMAXMIX">     2</i>
    <i type="logical" name="NLSPLINE"> F  </i>
   </separator>
   <separator name="electronic startup" >
    <i type="int" name="ISTART">     0</i>
    <i type="int" name="ICHARG">     2</i>
    <i type="int" name="INIWAV">     1</i>
   </separator>
   <separator name="electronic spin" >
    <i type="int" name="ISPIN">     1</i>
    <i type="logical" name="LNONCOLLINEAR"> F  </i>
    <v name="MAGMOM">      1.00000000      1.00000000      1.00000000      1.00000000</v>
    <i name="NUPDOWN">     -1.00000000</i>
    <i type="logical" name="LSORBIT"> F  </i>
    <v name="SAXIS">      0.00000000      0.00000000      1.00000000</v>
    <i type="logical" name="LSPIRAL"> F  </i>
    <v name="QSPIRAL">      0.00000000      0.00000000      0.00000000</v>
    <i type="logical" name="LZEROZ"> F  </i>
   </separator>
   <separator name="electronic exchange-correlation" >
    <i type="logical" name="LASPH"> F  </i>
    <i type="logical" name="LMETAGGA"> F  </i>
   </separator>
   <separator name="electronic convergence" >
    <i type="int" name="NELM">   250</i>
    <i type="int" name="NELMDL">    -5</i>
    <i type="int" name="NELMIN">     6</i>
    <i name="ENINI">    520.00000000</i>
    <separator name="electronic convergence detail" >
     <i type="logical" name="LDIAG"> T  </i>
     <i type="logical" name="LSUBROT"> F  </i>
     <i name="WEIMIN">      0.00100000</i>
     <i name="EBREAK">      0.00000016</i>
     <i name="DEPER">      0.30000000</i>
     <i type="int" name="NRMM">     4</i>
     <i name="TIME">      0.40000000</i>
    </separator>
   </separator>
   <separator name="electronic mixer" >
    <i name="AMIX">      0.40000000</i>
    <i name="BMIX">      1.00000000</i>
    <i name="AMIN">      0.10000000</i>
    <i name="AMIX_MAG">      1.60000000</i>
    <i name="BMIX_MAG">      1.00000000</i>
    <separator name="electronic mixer details" >
     <i type="int" name="IMIX">     4</i>
     <i type="logical" name="MIXFIRST"> F  </i>
     <i type="int" name="MAXMIX">   -45</i>
     <i name="WC">    100.00000000</i>
     <i type="int" name="INIMIX">     1</i>
     <i type="int" name="MIXPRE">     1</i>
     <i type="int" name="MREMOVE">     5</i>
    </separator>
   </separator>
   <separator name="electronic dipolcorrection" >
    <i type="logical" name="LDIPOL"> F  </i>
    <i type="logical" name="LMONO"> F  </i>
    <i type="int" name="IDIPOL">     0</i>
    <i name="EPSILON">      1.00000000</i>
    <v name="DIPOL">   -100.00000000   -100.00000000   -100.00000000</v>
    <i name="EFIELD">      0.00000000</i>
   </separator>
  </separator>
  <separator name="grids" >
   <i type="int" name="NGX">    28</i>
   <i type="int" name="NGY">    36</i>
   <i type="int" name="NGZ">   150</i>
   <i type="int" name="NGXF">    56</i>
   <i type="int" name="NGYF">    72</i>
   <i type="int" name="NGZF">   300</i>
   <i type="logical" name="ADDGRID"> F  </i>
  </separator>
  <separator name="ionic" >
   <i type="int" name="NSW">   200</i>
   <i type="int" name="IBRION">     2</i>
   <i type="int" name="ISIF">     3</i>
   <i name="PSTRESS">      0.00000000</i>
   <i name="EDIFFG">     -0.01000000</i>
   <i type="int" name="NFREE">     1</i>
   <i name="POTIM">      0.25000000</i>
   <i name="SMASS">     -3.00000000</i>
   <i name="SCALEE">      1.00000000</i>
  </separator>
  <separator name="ionic md" >
   <i name="TEBEG">      0.00010000</i>
   <i name="TEEND">      0.00010000</i>
   <i type="int" name="NBLOCK">     1</i>
   <i type="int" name="KBLOCK">   200</i>
   <i type="int" name="NPACO">   256</i>
   <i name="APACO">     16.00000000</i>
  </separator>
  <separator name="symmetry" >
   <i type="int" name="ISYM">     2</i>
   <i name="SYMPREC">      0.00001000</i>
  </separator>
  <separator name="dos" >
   <i type="logical" name="LORBIT"> F  </i>
   <v name="RWIGS">     -1.00000000</v>
   <i type="int" name="NEDOS">   301</i>
   <i name="EMIN">     10.00000000</i>
   <i name="EMAX">    -10.00000000</i>
   <i name="EFERMI">      0.00000000</i>
  </separator>
  <separator name="writing" >
   <i type="int" name="NWRITE">     2</i>
   <i type="logical" name="LWAVE"> F  </i>
   <i type="logical" name="LCHARG"> F  </i>
   <i type="logical" name="LPARD"> F  </i>
   <i type="logical" name="LVTOT"> F  </i>
   <i type="logical" name="LVHAR"> F  </i>
   <i type="logical" name="LELF"> F  </i>
   <i type="logical" name="LOPTICS"> F  </i>
   <v name="STM">      0.00000000      0.00000000      0.00000000      0.00000000      0.00000000      0.00000000      0.00000000</v>
  </separator>
  <separator name="performance" >
   <i type="int" name="NPAR">     4</i>
   <i type="int" name="NSIM">     4</i>
   <i type="int" name="NBLK">    -1</i>
   <i type="logical" name="LPLANE"> T  </i>
   <i type="logical" name="LSCALAPACK"> T  </i>
   <i type="logical" name="LSCAAWARE"> F  </i>
   <i type="logical" name="LSCALU"> F  </i>
   <i type="logical" name="LASYNC"> F  </i>
   <i type="logical" name="LORBITALREAL"> F  </i>
  </separator>
  <separator name="miscellaneous" >
   <i type="int" name="IDIOT">     3</i>
   <i type="logical" name="LMUSIC"> F  </i>
   <v name="POMASS">     30.97400000</v>
   <v name="DARWINR">      0.00000000</v>
   <v name="DARWINV">      1.00000000</v>
   <i type="logical" name="LCORR"> T  </i>
  </separator>
  <i type="logical" name="GGA_COMPAT"> T  </i>
  <i type="logical" name="LBERRY"> F  </i>
  <i type="int" name="ICORELEVEL">     0</i>
  <i type="logical" name="LDAU"> F  </i>
  <i type="int" name="I_CONSTRAINED_M">     0</i>
  <separator name="electronic exchange-correlation" >
   <i type="string" name="GGA">--</i>
   <i type="int" name="VOSKOWN">     0</i>
   <i type="logical" name="LHFCALC"> F  </i>
   <i type="string" name="PRECFOCK"></i>
   <i type="logical" name="LSYMGRAD"> F  </i>
   <i type="logical" name="LHFONE"> F  </i>
   <i type="logical" name="LRHFCALC"> F  </i>
   <i type="logical" name="LTHOMAS"> F  </i>
   <i type="logical" name="LMODELHF"> F  </i>
   <i name="ENCUT4O">     -1.00000000</i>
   <i type="int" name="EXXOEP">     0</i>
   <i type="int" name="FOURORBIT">     0</i>
   <i name="AEXX">      0.00000000</i>
   <i name="HFALPHA">      0.00000000</i>
   <i name="MCALPHA">      0.00000000</i>
   <i name="ALDAX">      1.00000000</i>
   <i name="AGGAX">      1.00000000</i>
   <i name="ALDAC">      1.00000000</i>
   <i name="AGGAC">      1.00000000</i>
   <i type="int" name="NKREDX">     1</i>
   <i type="int" name="NKREDY">     1</i>
   <i type="int" name="NKREDZ">     1</i>
   <i type="logical" name="SHIFTRED"> F  </i>
   <i type="logical" name="ODDONLY"> F  </i>
   <i type="logical" name="EVENONLY"> F  </i>
   <i type="int" name="LMAXFOCK">     0</i>
   <i type="int" name="NMAXFOCKAE">     0</i>
   <i type="logical" name="LFOCKAEDFT"> F  </i>
   <i name="HFSCREEN">      0.00000000</i>
   <i name="HFSCREENC">      0.00000000</i>
   <i type="int" name="NBANDSGWLOW">     0</i>
  </separator>
  <separator name="vdW DFT" >
   <i type="logical" name="LUSE_VDW"> F  </i>
   <i name="Zab_VDW">     -0.84910000</i>
   <i name="PARAM1">      0.12340000</i>
   <i name="PARAM2">      1.00000000</i>
   <i name="PARAM3">      0.00000000</i>
  </separator>
  <separator name="model GW" >
   <i type="int" name="MODEL_GW">     0</i>
   <i name="MODEL_EPS0">     45.58630294</i>
   <i name="MODEL_ALPHA">      1.00000000</i>
  </separator>
  <separator name="linear response parameters" >
   <i type="logical" name="LEPSILON"> F  </i>
   <i type="logical" name="LRPA"> F  </i>
   <i type="logical" name="LNABLA"> F  </i>
   <i type="logical" name="LVEL"> F  </i>
   <i type="int" name="KINTER">     0</i>
   <i name="CSHIFT">      0.10000000</i>
   <i name="OMEGAMAX">     -1.00000000</i>
   <i name="DEG_THRESHOLD">      0.00200000</i>
  </separator>
  <separator name="orbital magnetization" >
   <i type="logical" name="NUCIND"> F  </i>
   <v name="MAGPOS">      0.00000000      0.00000000      0.00000000</v>
   <i type="logical" name="LNICSALL"> T  </i>
   <i type="logical" name="ORBITALMAG"> F  </i>
   <i type="logical" name="LMAGBLOCH"> F  </i>
   <i type="logical" name="LCHIMAG"> F  </i>
   <i type="logical" name="LGAUGE"> T  </i>
   <i type="int" name="MAGATOM">     0</i>
   <v name="MAGDIPOL">      0.00000000      0.00000000      0.00000000</v>
   <v name="AVECCONST">      0.00000000      0.00000000      0.00000000</v>
  </separator>
  <separator name="response functions" >
   <i type="logical" name="LADDER"> F  </i>
   <i type="logical" name="LFXC"> F  </i>
   <i type="logical" name="LHARTREE"> T  </i>
   <i type="int" name="IBSE">     0</i>
   <v type="int" name="KPOINT">    -1     0     0     0</v>
   <i type="logical" name="LTCTE"> F  </i>
   <i type="logical" name="LTETE"> F  </i>
   <i type="logical" name="LTRIPLET"> F  </i>
   <i type="logical" name="LFXCEPS"> F  </i>
   <i type="logical" name="LFXHEG"> F  </i>
   <i type="int" name="NATURALO">     0</i>
   <i type="logical" name="L2ORDER"> F  </i>
   <i type="logical" name="LUSEW"> F  </i>
   <i name="ENCUTGW">     -2.00000000</i>
   <i name="ENCUTGWSOFT">     -2.00000000</i>
   <i name="ENCUTLF">     -1.00000000</i>
   <i type="int" name="LMAXMP2">    -1</i>
   <i name="SCISSOR">      0.00000000</i>
   <i type="int" name="NOMEGA">     0</i>
   <i type="int" name="NOMEGAR">     0</i>
   <i type="int" name="NBANDSGW">    -1</i>
   <i type="int" name="NBANDSO">    -1</i>
   <i type="int" name="NBANDSV">    -1</i>
   <i type="int" name="NELM">   250</i>
   <i type="int" name="NELMHF">     1</i>
   <i type="int" name="DIM">     3</i>
   <i type="int" name="ANTIRES">     0</i>
   <i name="OMEGAMAX">    -30.00000000</i>
   <i name="OMEGAMIN">    -30.00000000</i>
   <i name="OMEGATL">   -200.00000000</i>
   <i type="int" name="OMEGAGRID">     0</i>
   <i name="CSHIFT">     -0.10000000</i>
   <i type="logical" name="SELFENERGY"> F  </i>
   <i type="logical" name="LSPECTRAL"> F  </i>
   <i type="logical" name="LSPECTRALGW"> F  </i>
   <i type="logical" name="LSINGLES"> F  </i>
   <i type="logical" name="LFERMIGW"> F  </i>
   <i type="logical" name="ODDONLYGW"> F  </i>
   <i type="logical" name="EVENONLYGW"> F  </i>
   <i type="int" name="NKREDLFX">     1</i>
   <i type="int" name="NKREDLFY">     1</i>
   <i type="int" name="NKREDLFZ">     1</i>
   <i type="int" name="MAXMEM">  1800</i>
   <i type="int" name="TELESCOPE">     0</i>
   <i type="int" name="TAUPAR">     1</i>
   <i type="int" name="OMEGAPAR">    -1</i>
   <i name="LAMBDA">      1.00000000</i>
  </separator>
  <separator name="External order field" >
   <i name="OFIELD_KAPPA">      0.00000000</i>
   <v name="OFIELD_K">      0.00000000      0.00000000      0.00000000</v>
   <i name="OFIELD_Q6_NEAR">      0.00000000</i>
   <i name="OFIELD_Q6_FAR">      0.00000000</i>
   <i name="OFIELD_A">      0.00000000</i>
  </separator>
 </parameters>
 <atominfo>
  <atoms>       4 </atoms>
  <types>       1 </types>
  <array name="atoms" >
   <dimension dim="1">ion</dimension>
   <field type="string">element</field>
   <field type="int">atomtype</field>
   <set>
    <rc><c>P </c><c>   1</c></rc>
    <rc><c>P </c><c>   1</c></rc>
    <rc><c>P </c><c>   1</c></rc>
    <rc><c>P </c><c>   1</c></rc>
   </set>
  </array>
  <array name="atomtypes" >
   <dimension dim="1">type</dimension>
   <field type="int">atomspertype</field>
   <field type="string">element</field>
   <field>mass</field>
   <field>valence</field>
   <field type="string">pseudopotential</field>
   <set>
    <rc><c>   4</c><c>P </c><c>     30.97400000</c><c>      5.00000000</c><c>  PAW_PBE P 06Sep2000                   </c></rc>
   </set>
  </array>
 </atominfo>
 <structure name="initialpos" >
  <crystal>
   <varray name="basis" >
    <v>       3.31872900       0.00000000       0.00000000 </v>
    <v>       0.00000000       4.57311400      -0.00005300 </v>
    <v>       0.00000000       0.00000000      20.02439000 </v>
   </varray>
   <i name="volume">    303.90868627 </i>
   <varray name="rec_basis" >
    <v>       0.30132017       0.00000000       0.00000000 </v>
    <v>       0.00000000       0.21866938       0.00000000 </v>
    <v>       0.00000000       0.00000058       0.04993910 </v>
   </varray>
  </crystal>
  <varray name="positions" >
   <v>       0.50000000       0.91343800       0.55319400 </v>
   <v>       0.50000000       0.08656200       0.44680600 </v>
   <v>       0.00000000       0.41342700       0.44680500 </v>
   <v>       0.00000000       0.58657300       0.55319500 </v>
  </varray>
 </structure>
 <calculation>
  <scstep>
   <time name="dav">    1.48    1.48</time>
   <time name="total">    1.51    1.51</time>
   <energy>
    <i name="alphaZ">      5.27843103 </i>
    <i name="ewald">   1858.58475061 </i>
    <i name="hartreedc">  -2453.71763392 </i>
    <i name="XCdc">     12.93961791 </i>
    <i name="pawpsdc">    559.04011960 </i>
    <i name="pawaedc">   -526.39432044 </i>
    <i name="eentropy">     -0.00065704 </i>
    <i name="bandstr">    -27.21765303 </i>
    <i name="atom">    704.16778566 </i>
    <i name="e_fr_energy">    132.68044038 </i>
    <i name="e_wo_entrp">    132.68109742 </i>
    <i name="e_0_energy">    132.68076890 </i>
   </energy>
  </scstep>
  <scstep>
   <time name="dav">    1.99    1.99</time>
   <time name="total">    1.99    1.99</time>
   <energy>
    <i name="e_fr_energy">     -6.43621152 </i>
    <i name="e_wo_entrp">     -6.43621152 </i>
    <i name="e_0_energy">     -6.43621152 </i>
   </energy>
  </scstep>
  <scstep>
   <time name="dav">    1.80    1.80</time>
   <time name="total">    1.80    1.81</time>
   <energy>
    <i name="e_fr_energy">    -21.33444848 </i>
    <i name="e_wo_entrp">    -21.33444848 </i>
    <i name="e_0_energy">    -21.33444848 </i>
   </energy>
  </scstep>
  <scstep>
   <time name="dav">    1.86    1.86</time>
   <time name="total">    1.86    1.86</time>
   <energy>
    <i name="e_fr_energy">    -21.64154090 </i>
    <i name="e_wo_entrp">    -21.64154090 </i>
    <i name="e_0_energy">    -21.64154090 </i>
   </energy>
  </scstep>
  <scstep>
   <time name="dav">    1.95    1.95</time>
   <time name="total">    2.05    2.05</time>
   <energy>
    <i name="e_fr_energy">    -21.65127088 </i>
    <i name="e_wo_entrp">    -21.65127088 </i>
    <i name="e_0_energy">    -21.65127088 </i>
   </energy>
  </scstep>
  <scstep>
   <time name="dav">    1.78    1.79</time>
   <time name="total">    1.90    1.90</time>
   <energy>
    <i name="e_fr_energy">    -21.51703705 </i>
    <i name="e_wo_entrp">    -21.51703705 </i>
    <i name="e_0_energy">    -21.51703705 </i>
   </energy>
  </scstep>
  <scstep>
   <time name="dav">    1.71    1.71</time>
   <time name="total">    1.83    1.83</time>
   <energy>
    <i name="e_fr_energy">    -21.45134880 </i>
    <i name="e_wo_entrp">    -21.45134880 </i>
    <i name="e_0_energy">    -21.45134880 </i>
   </energy>
  </scstep>
  <scstep>
   <time name="dav">    1.81    1.81</time>
   <time name="total">    1.92    1.93</time>
   <energy>
    <i name="e_fr_energy">    -21.45067170 </i>
    <i name="e_wo_entrp">    -21.45067170 </i>
    <i name="e_0_energy">    -21.45067170 </i>
   </energy>
  </scstep>
  <scstep>
   <time name="dav">    2.09    2.09</time>
   <time name="total">    2.20    2.20</time>
   <energy>
    <i name="e_fr_energy">    -21.45049331 </i>
    <i name="e_wo_entrp">    -21.45049331 </i>
    <i name="e_0_energy">    -21.45049331 </i>
   </energy>
  </scstep>
  <scstep>
   <time name="dav">    1.82    1.82</time>
   <time name="total">    1.93    1.94</time>
   <energy>
    <i name="e_fr_energy">    -21.45029968 </i>
    <i name="e_wo_entrp">    -21.45029968 </i>
    <i name="e_0_energy">    -21.45029968 </i>
   </energy>
  </scstep>
  <scstep>
   <time name="dav">    1.78    1.78</time>
   <time name="total">    1.89    1.90</time>
   <energy>
    <i name="e_fr_energy">    -21.45018911 </i>
    <i name="e_wo_entrp">    -21.45018911 </i>
    <i name="e_0_energy">    -21.45018911 </i>
   </energy>
  </scstep>
  <scstep>
   <time name="dav">    1.61    1.61</time>
   <time name="total">    1.72    1.72</time>
   <energy>
    <i name="e_fr_energy">    -21.45060980 </i>
    <i name="e_wo_entrp">    -21.45060980 </i>
    <i name="e_0_energy">    -21.45060980 </i>
   </energy>
  </scstep>
  <scstep>
   <time name="dav">    1.59    1.59</time>
   <time name="total">    1.70    1.70</time>
   <energy>
    <i name="e_fr_energy">    -21.45070418 </i>
    <i name="e_wo_entrp">    -21.45070418 </i>
    <i name="e_0_energy">    -21.45070418 </i>
   </energy>
  </scstep>
  <scstep>
   <time name="dav">    1.49    1.49</time>
   <time name="total">    1.60    1.61</time>
   <energy>
    <i name="e_fr_energy">    -21.45083809 </i>
    <i name="e_wo_entrp">    -21.45083809 </i>
    <i name="e_0_energy">    -21.45083809 </i>
   </energy>
  </scstep>
  <scstep>
   <time name="dav">    1.51    1.51</time>
   <time name="total">    1.62    1.62</time>
   <energy>
    <i name="e_fr_energy">    -21.45087693 </i>
    <i name="e_wo_entrp">    -21.45087693 </i>
    <i name="e_0_energy">    -21.45087693 </i>
   </energy>
  </scstep>
  <scstep>
   <time name="dav">    1.46    1.46</time>
   <time name="total">    1.57    1.57</time>
   <energy>
    <i name="e_fr_energy">    -21.45090696 </i>
    <i name="e_wo_entrp">    -21.45090696 </i>
    <i name="e_0_energy">    -21.45090696 </i>
   </energy>
  </scstep>
  <scstep>
   <time name="dav">    1.46    1.46</time>
   <time name="total">    1.48    1.48</time>
   <energy>
    <i name="alphaZ">      5.27843103 </i>
    <i name="ewald">   1858.58475061 </i>
    <i name="hartreedc">  -2469.12869912 </i>
    <i name="XCdc">     13.97937971 </i>
    <i name="pawpsdc">   2038.00582973 </i>
    <i name="pawaedc">  -2005.67591714 </i>
    <i name="eentropy">     -0.00000000 </i>
    <i name="bandstr">   -166.66247006 </i>
    <i name="atom">    704.16778566 </i>
    <i name="e_fr_energy">    -21.45090958 </i>
    <i name="e_wo_entrp">    -21.45090958 </i>
    <i name="e_0_energy">    -21.45090958 </i>
   </energy>
  </scstep>
  <structure>
   <crystal>
    <varray name="basis" >
     <v>       3.31872900       0.00000000       0.00000000 </v>
     <v>       0.00000000       4.57311400      -0.00005300 </v>
     <v>       0.00000000       0.00000000      20.02439000 </v>
    </varray>
    <i name="volume">    303.90868627 </i>
    <varray name="rec_basis" >
     <v>       0.30132017       0.00000000       0.00000000 </v>
     <v>       0.00000000       0.21866938       0.00000000 </v>
     <v>       0.00000000       0.00000058       0.04993910 </v>
    </varray>
   </crystal>
   <varray name="positions" >
    <v>       0.50000000       0.91343800       0.55319400 </v>
    <v>       0.50000000       0.08656200       0.44680600 </v>
    <v>       0.00000000       0.41342700       0.44680500 </v>
    <v>       0.00000000       0.58657300       0.55319500 </v>
   </varray>
  </structure>
  <varray name="forces" >
   <v>      -0.00000003      -0.09246059      -0.14212856 </v>
   <v>       0.00000003       0.09246059       0.14212856 </v>
   <v>       0.00000002      -0.09233276       0.14250497 </v>
   <v>      -0.00000002       0.09233276      -0.14250497 </v>
  </varray>
  <varray name="stress" >
   <v>      -3.00558894      -0.00000157       0.00000048 </v>
   <v>      -0.00000151      -1.51446268      -0.00140218 </v>
   <v>       0.00000049      -0.00140216      -3.26441732 </v>
  </varray>
  <energy>
   <i name="e_fr_energy">    -21.45090958 </i>
   <i name="e_wo_entrp">    -21.45090958 </i>
   <i name="e_0_energy">     -0.00000000 </i>
  </energy>
  <time name="totalsc">   31.46   31.51</time>
 </calculation>
 <calculation>
  <scstep>
   <time name="dav">    1.61    1.61</time>
   <time name="total">    1.73    1.73</time>
   <energy>
    <i name="alphaZ">      5.30583226 </i>
    <i name="ewald">   1874.41505102 </i>
    <i name="hartreedc">  -2485.02562674 </i>
    <i name="XCdc">     14.07596187 </i>
    <i name="pawpsdc">   2037.71515874 </i>
    <i name="pawaedc">  -2005.38528389 </i>
    <i name="eentropy">     -0.00000000 </i>
    <i name="bandstr">   -166.72359455 </i>
    <i name="atom">    704.16778566 </i>
    <i name="e_fr_energy">    -21.45471562 </i>
    <i name="e_wo_entrp">    -21.45471562 </i>
    <i name="e_0_energy">    -21.45471562 </i>
   </energy>
  </scstep>
  <scstep>
   <time name="dav">    1.77    1.77</time>
   <time name="total">    1.88    1.88</time>
   <energy>
    <i name="e_fr_energy">    -21.45469431 </i>
    <i name="e_wo_entrp">    -21.45469431 </i>
    <i name="e_0_energy">    -21.45469431 </i>
   </energy>
  </scstep>
  <scstep>
   <time name="dav">    1.85    1.85</time>
   <time name="total">    1.96    1.96</time>
   <energy>
    <i name="e_fr_energy">    -21.45446259 </i>
    <i name="e_wo_entrp">    -21.45446259 </i>
    <i name="e_0_energy">    -21.45446259 </i>
   </energy>
  </scstep>
  <scstep>
   <time name="dav">    1.67    1.67</time>
   <time name="total">    1.78    1.78</time>
   <energy>
    <i name="e_fr_energy">    -21.45439811 </i>
    <i name="e_wo_entrp">    -21.45439811 </i>
    <i name="e_0_energy">    -21.45439811 </i>
   </energy>
  </scstep>
  <scstep>
   <time name="dav">    1.47    1.47</time>
   <time name="total">    1.58    1.58</time>
   <energy>
    <i name="e_fr_energy">    -21.45440039 </i>
    <i name="e_wo_entrp">    -21.45440039 </i>
    <i name="e_0_energy">    -21.45440039 </i>
   </energy>
  </scstep>
  <scstep>
   <time name="dav">    1.38    1.38</time>
   <time name="total">    1.40    1.40</time>
   <energy>
    <i name="alphaZ">      5.30583226 </i>
    <i name="ewald">   1874.41505102 </i>
    <i name="hartreedc">  -2484.80598159 </i>
    <i name="XCdc">     14.06961788 </i>
    <i name="pawpsdc">   2077.61998144 </i>
    <i name="pawaedc">  -2045.30398122 </i>
    <i name="eentropy">     -0.00000000 </i>
    <i name="bandstr">   -166.92270812 </i>
    <i name="atom">    704.16778566 </i>
    <i name="e_fr_energy">    -21.45440267 </i>
    <i name="e_wo_entrp">    -21.45440267 </i>
    <i name="e_0_energy">    -21.45440267 </i>
   </energy>
  </scstep>
  <structure>
   <crystal>
    <varray name="basis" >
     <v>       3.30731928      -0.00000001       0.00000000 </v>
     <v>      -0.00000001       4.56519183      -0.00005300 </v>
     <v>       0.00000000       0.00000000      20.02439000 </v>
    </varray>
    <i name="volume">    302.33919217 </i>
    <varray name="rec_basis" >
     <v>       0.30235968       0.00000000       0.00000000 </v>
     <v>       0.00000000       0.21904885       0.00000000 </v>
     <v>       0.00000000       0.00000058       0.04993910 </v>
    </varray>
   </crystal>
   <varray name="positions" >
    <v>       0.50000000       0.91295031       0.55302279 </v>
    <v>       0.50000000       0.08704969       0.44697721 </v>
    <v>       0.00000000       0.41293998       0.44697666 </v>
    <v>      -0.00000000       0.58706002       0.55302334 </v>
   </varray>
  </structure>
  <varray name="forces" >
   <v>      -0.00000001      -0.01597875      -0.09083635 </v>
   <v>       0.00000001       0.01597875       0.09083635 </v>
   <v>       0.00000007      -0.01585869       0.09104034 </v>
   <v>      -0.00000007       0.01585869      -0.09104034 </v>
  </varray>
  <varray name="stress" >
   <v>      -0.64179256       0.00000103       0.00000106 </v>
   <v>       0.00000112       0.46303138      -0.00134898 </v>
   <v>       0.00000111      -0.00134886      -2.10848293 </v>
  </varray>
  <energy>
   <i name="e_fr_energy">    -21.45440267 </i>
   <i name="e_wo_entrp">    -21.45440267 </i>
   <i name="e_0_energy">     -0.00000000 </i>
  </energy>
  <time name="totalsc">   11.21   11.23</time>
 </calculation>
 <calculation>
  <scstep>
   <time name="dav">    1.60    1.60</time>
   <time name="total">    1.72    1.72</time>
   <energy>
    <i name="alphaZ">      5.31728726 </i>
    <i name="ewald">   1881.03881365 </i>
    <i name="hartreedc">  -2491.45459693 </i>
    <i name="XCdc">     14.10994273 </i>
    <i name="pawpsdc">   2077.48901205 </i>
    <i name="pawaedc">  -2045.17308561 </i>
    <i name="eentropy">     -0.00000000 </i>
    <i name="bandstr">   -166.94999536 </i>
    <i name="atom">    704.16778566 </i>
    <i name="e_fr_energy">    -21.45483654 </i>
    <i name="e_wo_entrp">    -21.45483654 </i>
    <i name="e_0_energy">    -21.45483654 </i>
   </energy>
  </scstep>
  <scstep>
   <time name="dav">    1.77    1.77</time>
   <time name="total">    1.88    1.88</time>
   <energy>
    <i name="e_fr_energy">    -21.45483307 </i>
    <i name="e_wo_entrp">    -21.45483307 </i>
    <i name="e_0_energy">    -21.45483307 </i>
   </energy>
  </scstep>
  <scstep>
   <time name="dav">    1.77    1.77</time>
   <time name="total">    1.88    1.88</time>
   <energy>
    <i name="e_fr_energy">    -21.45479357 </i>
    <i name="e_wo_entrp">    -21.45479357 </i>
    <i name="e_0_energy">    -21.45479357 </i>
   </energy>
  </scstep>
  <scstep>
   <time name="dav">    1.52    1.52</time>
   <time name="total">    1.63    1.63</time>
   <energy>
    <i name="e_fr_energy">    -21.45478317 </i>
    <i name="e_wo_entrp">    -21.45478317 </i>
    <i name="e_0_energy">    -21.45478317 </i>
   </energy>
  </scstep>
  <scstep>
   <time name="dav">    1.21    1.21</time>
   <time name="total">    1.32    1.32</time>
   <energy>
    <i name="e_fr_energy">    -21.45478378 </i>
    <i name="e_wo_entrp">    -21.45478378 </i>
    <i name="e_0_energy">    -21.45478378 </i>
   </energy>
  </scstep>
  <scstep>
   <time name="dav">    1.21    1.21</time>
   <time name="total">    1.23    1.23</time>
   <energy>
    <i name="alphaZ">      5.31728726 </i>
    <i name="ewald">   1881.03881365 </i>
    <i name="hartreedc">  -2491.37555031 </i>
    <i name="XCdc">     14.10752131 </i>
    <i name="pawpsdc">   2094.16468890 </i>
    <i name="pawaedc">  -2061.85467976 </i>
    <i name="eentropy">     -0.00000000 </i>
    <i name="bandstr">   -167.02065111 </i>
    <i name="atom">    704.16778566 </i>
    <i name="e_fr_energy">    -21.45478439 </i>
    <i name="e_wo_entrp">    -21.45478439 </i>
    <i name="e_0_energy">    -21.45478439 </i>
   </energy>
  </scstep>
  <structure>
   <crystal>
    <varray name="basis" >
     <v>       3.30257659      -0.00000001       0.00000000 </v>
     <v>      -0.00000001       4.56189881      -0.00005300 </v>
     <v>       0.00000000       0.00000000      20.02439000 </v>
    </varray>
    <i name="volume">    301.68786456 </i>
    <varray name="rec_basis" >
     <v>       0.30279389       0.00000000       0.00000000 </v>
     <v>       0.00000000       0.21920697       0.00000000 </v>
     <v>       0.00000000       0.00000058       0.04993910 </v>
    </varray>
   </crystal>
   <varray name="positions" >
    <v>       0.50000000       0.91274724       0.55295162 </v>
    <v>       0.50000000       0.08725276       0.44704838 </v>
    <v>       0.00000000       0.41273719       0.44704801 </v>
    <v>      -0.00000000       0.58726281       0.55295199 </v>
   </varray>
  </structure>
  <varray name="forces" >
   <v>       0.00000002       0.01662911      -0.06959925 </v>
   <v>      -0.00000002      -0.01662911       0.06959925 </v>
   <v>       0.00000007       0.01674529       0.06973017 </v>
   <v>      -0.00000007      -0.01674529      -0.06973017 </v>
  </varray>
  <varray name="stress" >
   <v>       0.37581606       0.00000099       0.00000035 </v>
   <v>       0.00000102       1.30717673      -0.00131867 </v>
   <v>       0.00000030      -0.00131865      -1.63667815 </v>
  </varray>
  <energy>
   <i name="e_fr_energy">    -21.45478439 </i>
   <i name="e_wo_entrp">    -21.45478439 </i>
   <i name="e_0_energy">     -0.00000000 </i>
  </energy>
  <time name="totalsc">   10.55   10.56</time>
 </calculation>
 <calculation>
  <scstep>
   <time name="dav">    1.51    1.51</time>
   <time name="total">    1.62    1.63</time>
   <energy>
    <i name="alphaZ">      5.31056992 </i>
    <i name="ewald">   1880.26306912 </i>
    <i name="hartreedc">  -2490.37181973 </i>
    <i name="XCdc">     14.10573344 </i>
    <i name="pawpsdc">   2094.10135287 </i>
    <i name="pawaedc">  -2061.79135274 </i>
    <i name="eentropy">     -0.00000000 </i>
    <i name="bandstr">   -167.24090252 </i>
    <i name="atom">    704.16778566 </i>
    <i name="e_fr_energy">    -21.45556399 </i>
    <i name="e_wo_entrp">    -21.45556399 </i>
    <i name="e_0_energy">    -21.45556399 </i>
   </energy>
  </scstep>
  <scstep>
   <time name="dav">    1.78    1.78</time>
   <time name="total">    1.89    1.89</time>
   <energy>
    <i name="e_fr_energy">    -21.45561720 </i>
    <i name="e_wo_entrp">    -21.45561720 </i>
    <i name="e_0_energy">    -21.45561720 </i>
   </energy>
  </scstep>
  <scstep>
   <time name="dav">    1.83    1.83</time>
   <time name="total">    1.94    1.95</time>
   <energy>
    <i name="e_fr_energy">    -21.45559186 </i>
    <i name="e_wo_entrp">    -21.45559186 </i>
    <i name="e_0_energy">    -21.45559186 </i>
   </energy>
  </scstep>
  <scstep>
   <time name="dav">    1.44    1.44</time>
   <time name="total">    1.55    1.55</time>
   <energy>
    <i name="e_fr_energy">    -21.45557868 </i>
    <i name="e_wo_entrp">    -21.45557868 </i>
    <i name="e_0_energy">    -21.45557868 </i>
   </energy>
  </scstep>
  <scstep>
   <time name="dav">    1.29    1.29</time>
   <time name="total">    1.40    1.41</time>
   <energy>
    <i name="e_fr_energy">    -21.45557800 </i>
    <i name="e_wo_entrp">    -21.45557800 </i>
    <i name="e_0_energy">    -21.45557800 </i>
   </energy>
  </scstep>
  <scstep>
   <time name="dav">    1.26    1.26</time>
   <time name="total">    1.28    1.28</time>
   <energy>
    <i name="alphaZ">      5.31056992 </i>
    <i name="ewald">   1880.26306912 </i>
    <i name="hartreedc">  -2490.47957770 </i>
    <i name="XCdc">     14.11020318 </i>
    <i name="pawpsdc">   2094.93226163 </i>
    <i name="pawaedc">  -2062.62277441 </i>
    <i name="eentropy">     -0.00000000 </i>
    <i name="bandstr">   -167.13711500 </i>
    <i name="atom">    704.16778566 </i>
    <i name="e_fr_energy">    -21.45557761 </i>
    <i name="e_wo_entrp">    -21.45557761 </i>
    <i name="e_0_energy">    -21.45557761 </i>
   </energy>
  </scstep>
  <structure>
   <crystal>
    <varray name="basis" >
     <v>       3.30233547      -0.00000001       0.00000000 </v>
     <v>      -0.00000001       4.56800267      -0.00005300 </v>
     <v>       0.00000000       0.00000000      20.02439000 </v>
    </varray>
    <i name="volume">    302.06947003 </i>
    <varray name="rec_basis" >
     <v>       0.30281599       0.00000000       0.00000000 </v>
     <v>       0.00000000       0.21891406       0.00000000 </v>
     <v>       0.00000000       0.00000058       0.04993910 </v>
    </varray>
   </crystal>
   <varray name="positions" >
    <v>       0.50000000       0.91276636       0.55283416 </v>
    <v>       0.50000000       0.08723364       0.44716584 </v>
    <v>       0.00000000       0.41275709       0.44716572 </v>
    <v>      -0.00000000       0.58724291       0.55283428 </v>
   </varray>
  </structure>
  <varray name="forces" >
   <v>       0.00000009      -0.01081209      -0.03867233 </v>
   <v>      -0.00000009       0.01081209       0.03867233 </v>
   <v>      -0.00000001      -0.01071156       0.03871224 </v>
   <v>       0.00000001       0.01071156      -0.03871224 </v>
  </varray>
  <varray name="stress" >
   <v>       0.25029006       0.00000033      -0.00000015 </v>
   <v>       0.00000034       0.93345120      -0.00113407 </v>
   <v>      -0.00000006      -0.00113408      -0.96053908 </v>
  </varray>
  <energy>
   <i name="e_fr_energy">    -21.45557761 </i>
   <i name="e_wo_entrp">    -21.45557761 </i>
   <i name="e_0_energy">     -0.00000000 </i>
  </energy>
  <time name="totalsc">   10.58   10.59</time>
 </calculation>
 <calculation>
  <scstep>
   <time name="dav">    1.51    1.51</time>
   <time name="total">    1.63    1.63</time>
   <energy>
    <i name="alphaZ">      5.30049049 </i>
    <i name="ewald">   1879.10185405 </i>
    <i name="hartreedc">  -2488.96345809 </i>
    <i name="XCdc">     14.10753928 </i>
    <i name="pawpsdc">   2095.30917557 </i>
    <i name="pawaedc">  -2062.99961998 </i>
    <i name="eentropy">     -0.00000000 </i>
    <i name="bandstr">   -167.47975953 </i>
    <i name="atom">    704.16778566 </i>
    <i name="e_fr_energy">    -21.45599254 </i>
    <i name="e_wo_entrp">    -21.45599254 </i>
    <i name="e_0_energy">    -21.45599254 </i>
   </energy>
  </scstep>
  <scstep>
   <time name="dav">    1.77    1.77</time>
   <time name="total">    1.88    1.88</time>
   <energy>
    <i name="e_fr_energy">    -21.45611237 </i>
    <i name="e_wo_entrp">    -21.45611237 </i>
    <i name="e_0_energy">    -21.45611237 </i>
   </energy>
  </scstep>
  <scstep>
   <time name="dav">    1.93    1.93</time>
   <time name="total">    2.04    2.05</time>
   <energy>
    <i name="e_fr_energy">    -21.45605374 </i>
    <i name="e_wo_entrp">    -21.45605374 </i>
    <i name="e_0_energy">    -21.45605374 </i>
   </energy>
  </scstep>
  <scstep>
   <time name="dav">    1.64    1.65</time>
   <time name="total">    1.76    1.76</time>
   <energy>
    <i name="e_fr_energy">    -21.45602380 </i>
    <i name="e_wo_entrp">    -21.45602380 </i>
    <i name="e_0_energy">    -21.45602380 </i>
   </energy>
  </scstep>
  <scstep>
   <time name="dav">    1.32    1.32</time>
   <time name="total">    1.43    1.43</time>
   <energy>
    <i name="e_fr_energy">    -21.45602173 </i>
    <i name="e_wo_entrp">    -21.45602173 </i>
    <i name="e_0_energy">    -21.45602173 </i>
   </energy>
  </scstep>
  <scstep>
   <time name="dav">    1.21    1.21</time>
   <time name="total">    1.23    1.23</time>
   <energy>
    <i name="alphaZ">      5.30049049 </i>
    <i name="ewald">   1879.10185405 </i>
    <i name="hartreedc">  -2489.10736106 </i>
    <i name="XCdc">     14.11420992 </i>
    <i name="pawpsdc">   2097.41569512 </i>
    <i name="pawaedc">  -2065.10695592 </i>
    <i name="eentropy">     -0.00000000 </i>
    <i name="bandstr">   -167.34173950 </i>
    <i name="atom">    704.16778566 </i>
    <i name="e_fr_energy">    -21.45602123 </i>
    <i name="e_wo_entrp">    -21.45602123 </i>
    <i name="e_0_energy">    -21.45602123 </i>
   </energy>
  </scstep>
  <structure>
   <crystal>
    <varray name="basis" >
     <v>       3.30197245      -0.00000000       0.00000000 </v>
     <v>       0.00000000       4.57719236      -0.00005300 </v>
     <v>       0.00000000       0.00000000      20.02439000 </v>
    </varray>
    <i name="volume">    302.64388595 </i>
    <varray name="rec_basis" >
     <v>       0.30284929      -0.00000000       0.00000000 </v>
     <v>       0.00000000       0.21847454       0.00000000 </v>
     <v>       0.00000000       0.00000058       0.04993910 </v>
    </varray>
   </crystal>
   <varray name="positions" >
    <v>       0.50000000       0.91279512       0.55265732 </v>
    <v>       0.50000000       0.08720488       0.44734268 </v>
    <v>       0.00000000       0.41278700       0.44734293 </v>
    <v>      -0.00000000       0.58721300       0.55265707 </v>
   </varray>
  </structure>
  <varray name="forces" >
   <v>       0.00000000      -0.05255251       0.00932019 </v>
   <v>      -0.00000000       0.05255251      -0.00932019 </v>
   <v>      -0.00000009      -0.05247787      -0.00942534 </v>
   <v>       0.00000009       0.05247787       0.00942534 </v>
  </varray>
  <varray name="stress" >
   <v>       0.06522404      -0.00000021       0.00000012 </v>
   <v>      -0.00000019       0.38331214      -0.00083365 </v>
   <v>       0.00000022      -0.00083366       0.10426550 </v>
  </varray>
  <energy>
   <i name="e_fr_energy">    -21.45602123 </i>
   <i name="e_wo_entrp">    -21.45602123 </i>
   <i name="e_0_energy">     -0.00000000 </i>
  </energy>
  <time name="totalsc">   10.85   10.86</time>
 </calculation>
 <calculation>
  <scstep>
   <time name="dav">    1.44    1.44</time>
   <time name="total">    1.55    1.55</time>
   <energy>
    <i name="alphaZ">      5.29333403 </i>
    <i name="ewald">   1876.98725471 </i>
    <i name="hartreedc">  -2486.73184762 </i>
    <i name="XCdc">     14.11034848 </i>
    <i name="pawpsdc">   2098.01616422 </i>
    <i name="pawaedc">  -2065.70729626 </i>
    <i name="eentropy">     -0.00000000 </i>
    <i name="bandstr">   -167.59219428 </i>
    <i name="atom">    704.16778566 </i>
    <i name="e_fr_energy">    -21.45645107 </i>
    <i name="e_wo_entrp">    -21.45645107 </i>
    <i name="e_0_energy">    -21.45645107 </i>
   </energy>
  </scstep>
  <scstep>
   <time name="dav">    1.80    1.80</time>
   <time name="total">    1.91    1.91</time>
   <energy>
    <i name="e_fr_energy">    -21.45643393 </i>
    <i name="e_wo_entrp">    -21.45643393 </i>
    <i name="e_0_energy">    -21.45643393 </i>
   </energy>
  </scstep>
  <scstep>
   <time name="dav">    1.71    1.71</time>
   <time name="total">    1.82    1.82</time>
   <energy>
    <i name="e_fr_energy">    -21.45641016 </i>
    <i name="e_wo_entrp">    -21.45641016 </i>
    <i name="e_0_energy">    -21.45641016 </i>
   </energy>
  </scstep>
  <scstep>
   <time name="dav">    1.22    1.22</time>
   <time name="total">    1.33    1.33</time>
   <energy>
    <i name="e_fr_energy">    -21.45640272 </i>
    <i name="e_wo_entrp">    -21.45640272 </i>
    <i name="e_0_energy">    -21.45640272 </i>
   </energy>
  </scstep>
  <scstep>
   <time name="dav">    1.17    1.17</time>
   <time name="total">    1.28    1.28</time>
   <energy>
    <i name="e_fr_energy">    -21.45640189 </i>
    <i name="e_wo_entrp">    -21.45640189 </i>
    <i name="e_0_energy">    -21.45640189 </i>
   </energy>
  </scstep>
  <scstep>
   <time name="dav">    1.17    1.17</time>
   <time name="total">    1.19    1.19</time>
   <energy>
    <i name="alphaZ">      5.29333403 </i>
    <i name="ewald">   1876.98725471 </i>
    <i name="hartreedc">  -2486.81360739 </i>
    <i name="XCdc">     14.11509252 </i>
    <i name="pawpsdc">   2100.44113523 </i>
    <i name="pawaedc">  -2068.13329188 </i>
    <i name="eentropy">     -0.00000000 </i>
    <i name="bandstr">   -167.51410487 </i>
    <i name="atom">    704.16778566 </i>
    <i name="e_fr_energy">    -21.45640200 </i>
    <i name="e_wo_entrp">    -21.45640200 </i>
    <i name="e_0_energy">    -21.45640200 </i>
   </energy>
  </scstep>
  <structure>
   <crystal>
    <varray name="basis" >
     <v>       3.30219777      -0.00000000       0.00000000 </v>
     <v>       0.00000000       4.58306787      -0.00005300 </v>
     <v>       0.00000000       0.00000000      20.02439000 </v>
    </varray>
    <i name="volume">    303.05305311 </i>
    <varray name="rec_basis" >
     <v>       0.30282862      -0.00000000       0.00000000 </v>
     <v>       0.00000000       0.21819446       0.00000000 </v>
     <v>       0.00000000       0.00000058       0.04993910 </v>
    </varray>
   </crystal>
   <varray name="positions" >
    <v>       0.50000000       0.91241435       0.55261447 </v>
    <v>       0.50000000       0.08758565       0.44738553 </v>
    <v>       0.00000000       0.41240717       0.44738572 </v>
    <v>      -0.00000000       0.58759283       0.55261428 </v>
   </varray>
  </structure>
  <varray name="forces" >
   <v>      -0.00000001      -0.03568712       0.01321466 </v>
   <v>       0.00000001       0.03568712      -0.01321466 </v>
   <v>      -0.00000003      -0.03563704      -0.01329297 </v>
   <v>       0.00000003       0.03563704       0.01329297 </v>
  </varray>
  <varray name="stress" >
   <v>       0.00692747      -0.00000048      -0.00000012 </v>
   <v>      -0.00000050       0.50762999      -0.00056428 </v>
   <v>      -0.00000007      -0.00056428       0.20423450 </v>
  </varray>
  <energy>
   <i name="e_fr_energy">    -21.45640200 </i>
   <i name="e_wo_entrp">    -21.45640200 </i>
   <i name="e_0_energy">     -0.00000000 </i>
  </energy>
  <time name="totalsc">    9.96    9.97</time>
 </calculation>
 <calculation>
  <scstep>
   <time name="dav">    1.43    1.43</time>
   <time name="total">    1.54    1.55</time>
   <energy>
    <i name="alphaZ">      5.27197463 </i>
    <i name="ewald">   1870.68501515 </i>
    <i name="hartreedc">  -2479.75870431 </i>
    <i name="XCdc">     14.10407514 </i>
    <i name="pawpsdc">   2100.41348131 </i>
    <i name="pawaedc">  -2068.10570004 </i>
    <i name="eentropy">     -0.00000000 </i>
    <i name="bandstr">   -168.23528121 </i>
    <i name="atom">    704.16778566 </i>
    <i name="e_fr_energy">    -21.45735367 </i>
    <i name="e_wo_entrp">    -21.45735367 </i>
    <i name="e_0_energy">    -21.45735367 </i>
   </energy>
  </scstep>
  <scstep>
   <time name="dav">    1.80    1.80</time>
   <time name="total">    1.91    1.91</time>
   <energy>
    <i name="e_fr_energy">    -21.45719757 </i>
    <i name="e_wo_entrp">    -21.45719757 </i>
    <i name="e_0_energy">    -21.45719757 </i>
   </energy>
  </scstep>
  <scstep>
   <time name="dav">    1.93    1.93</time>
   <time name="total">    2.04    2.04</time>
   <energy>
    <i name="e_fr_energy">    -21.45698383 </i>
    <i name="e_wo_entrp">    -21.45698383 </i>
    <i name="e_0_energy">    -21.45698383 </i>
   </energy>
  </scstep>
  <scstep>
   <time name="dav">    1.73    1.73</time>
   <time name="total">    1.84    1.84</time>
   <energy>
    <i name="e_fr_energy">    -21.45691752 </i>
    <i name="e_wo_entrp">    -21.45691752 </i>
    <i name="e_0_energy">    -21.45691752 </i>
   </energy>
  </scstep>
  <scstep>
   <time name="dav">    1.42    1.42</time>
   <time name="total">    1.53    1.53</time>
   <energy>
    <i name="e_fr_energy">    -21.45690744 </i>
    <i name="e_wo_entrp">    -21.45690744 </i>
    <i name="e_0_energy">    -21.45690744 </i>
   </energy>
  </scstep>
  <scstep>
   <time name="dav">    1.21    1.21</time>
   <time name="total">    1.23    1.24</time>
   <energy>
    <i name="alphaZ">      5.27197463 </i>
    <i name="ewald">   1870.68501515 </i>
    <i name="hartreedc">  -2480.03946264 </i>
    <i name="XCdc">     14.11887134 </i>
    <i name="pawpsdc">   2108.20795365 </i>
    <i name="pawaedc">  -2075.90328387 </i>
    <i name="eentropy">     -0.00000000 </i>
    <i name="bandstr">   -167.96576112 </i>
    <i name="atom">    704.16778566 </i>
    <i name="e_fr_energy">    -21.45690720 </i>
    <i name="e_wo_entrp">    -21.45690720 </i>
    <i name="e_0_energy">    -21.45690720 </i>
   </energy>
  </scstep>
  <structure>
   <crystal>
    <varray name="basis" >
     <v>       3.30287373       0.00000000       0.00000000 </v>
     <v>       0.00000000       4.60069442      -0.00005300 </v>
     <v>       0.00000000       0.00000000      20.02439000 </v>
    </varray>
    <i name="volume">    304.28087269 </i>
    <varray name="rec_basis" >
     <v>       0.30276665      -0.00000000       0.00000000 </v>
     <v>      -0.00000000       0.21735849       0.00000000 </v>
     <v>      -0.00000000       0.00000058       0.04993910 </v>
    </varray>
   </crystal>
   <varray name="positions" >
    <v>       0.50000000       0.91127349       0.55248592 </v>
    <v>       0.50000000       0.08872651       0.44751408 </v>
    <v>      -0.00000000       0.41126913       0.44751409 </v>
    <v>       0.00000000       0.58873087       0.55248591 </v>
   </varray>
  </structure>
  <varray name="forces" >
   <v>       0.00000003       0.01508929       0.02484536 </v>
   <v>      -0.00000003      -0.01508929      -0.02484536 </v>
   <v>       0.00000000       0.01506517      -0.02484512 </v>
   <v>      -0.00000000      -0.01506517       0.02484512 </v>
  </varray>
  <varray name="stress" >
   <v>      -0.17923287       0.00000019      -0.00000056 </v>
   <v>       0.00000019       0.84421851       0.00025304 </v>
   <v>      -0.00000054       0.00025304       0.43793868 </v>
  </varray>
  <energy>
   <i name="e_fr_energy">    -21.45690720 </i>
   <i name="e_wo_entrp">    -21.45690720 </i>
   <i name="e_0_energy">     -0.00000000 </i>
  </energy>
  <time name="totalsc">   10.97   10.99</time>
 </calculation>
 <calculation>
  <scstep>
   <time name="dav">    1.50    1.51</time>
   <time name="total">    1.61    1.62</time>
   <energy>
    <i name="alphaZ">      5.25646054 </i>
    <i name="ewald">   1863.74463091 </i>
    <i name="hartreedc">  -2472.75181278 </i>
    <i name="XCdc">     14.08487744 </i>
    <i name="pawpsdc">   2109.25983457 </i>
    <i name="pawaedc">  -2076.95492889 </i>
    <i name="eentropy">     -0.00000000 </i>
    <i name="bandstr">   -168.26447528 </i>
    <i name="atom">    704.16778566 </i>
    <i name="e_fr_energy">    -21.45762783 </i>
    <i name="e_wo_entrp">    -21.45762783 </i>
    <i name="e_0_energy">    -21.45762783 </i>
   </energy>
  </scstep>
  <scstep>
   <time name="dav">    1.80    1.80</time>
   <time name="total">    1.91    1.92</time>
   <energy>
    <i name="e_fr_energy">    -21.45734914 </i>
    <i name="e_wo_entrp">    -21.45734914 </i>
    <i name="e_0_energy">    -21.45734914 </i>
   </energy>
  </scstep>
  <scstep>
   <time name="dav">    1.72    1.72</time>
   <time name="total">    1.83    1.83</time>
   <energy>
    <i name="e_fr_energy">    -21.45721882 </i>
    <i name="e_wo_entrp">    -21.45721882 </i>
    <i name="e_0_energy">    -21.45721882 </i>
   </energy>
  </scstep>
  <scstep>
   <time name="dav">    1.73    1.73</time>
   <time name="total">    1.84    1.84</time>
   <energy>
    <i name="e_fr_energy">    -21.45720375 </i>
    <i name="e_wo_entrp">    -21.45720375 </i>
    <i name="e_0_energy">    -21.45720375 </i>
   </energy>
  </scstep>
  <scstep>
   <time name="dav">    1.22    1.22</time>
   <time name="total">    1.33    1.34</time>
   <energy>
    <i name="e_fr_energy">    -21.45720294 </i>
    <i name="e_wo_entrp">    -21.45720294 </i>
    <i name="e_0_energy">    -21.45720294 </i>
   </energy>
  </scstep>
  <scstep>
   <time name="dav">    1.22    1.22</time>
   <time name="total">    1.24    1.24</time>
   <energy>
    <i name="alphaZ">      5.25646054 </i>
    <i name="ewald">   1863.74463091 </i>
    <i name="hartreedc">  -2472.96290727 </i>
    <i name="XCdc">     14.09380798 </i>
    <i name="pawpsdc">   2099.69178118 </i>
    <i name="pawaedc">  -2067.38387841 </i>
    <i name="eentropy">     -0.00000000 </i>
    <i name="bandstr">   -168.06488386 </i>
    <i name="atom">    704.16778566 </i>
    <i name="e_fr_energy">    -21.45720328 </i>
    <i name="e_wo_entrp">    -21.45720328 </i>
    <i name="e_0_energy">    -21.45720328 </i>
   </energy>
  </scstep>
  <structure>
   <crystal>
    <varray name="basis" >
     <v>       3.30175998       0.00000000       0.00000000 </v>
     <v>       0.00000001       4.61582953      -0.00005300 </v>
     <v>       0.00000000       0.00000000      20.02439000 </v>
    </varray>
    <i name="volume">    305.17893709 </i>
    <varray name="rec_basis" >
     <v>       0.30286877      -0.00000000       0.00000000 </v>
     <v>      -0.00000000       0.21664578       0.00000000 </v>
     <v>      -0.00000000       0.00000057       0.04993910 </v>
    </varray>
   </crystal>
   <varray name="positions" >
    <v>       0.50000000       0.91102976       0.55250021 </v>
    <v>       0.50000000       0.08897024       0.44749979 </v>
    <v>      -0.00000000       0.41102613       0.44749974 </v>
    <v>       0.00000000       0.58897387       0.55250026 </v>
   </varray>
  </structure>
  <varray name="forces" >
   <v>      -0.00000003      -0.00495152       0.00905404 </v>
   <v>       0.00000003       0.00495152      -0.00905404 </v>
   <v>       0.00000002      -0.00499435      -0.00902654 </v>
   <v>      -0.00000002       0.00499435       0.00902654 </v>
  </varray>
  <varray name="stress" >
   <v>      -0.42793750      -0.00000019      -0.00000047 </v>
   <v>      -0.00000026       0.06831212       0.00047092 </v>
   <v>      -0.00000044       0.00047088       0.11098743 </v>
  </varray>
  <energy>
   <i name="e_fr_energy">    -21.45720328 </i>
   <i name="e_wo_entrp">    -21.45720328 </i>
   <i name="e_0_energy">     -0.00000000 </i>
  </energy>
  <time name="totalsc">   10.65   10.66</time>
 </calculation>
 <calculation>
  <scstep>
   <time name="dav">    1.49    1.49</time>
   <time name="total">    1.60    1.60</time>
   <energy>
    <i name="alphaZ">      5.25245453 </i>
    <i name="ewald">   1861.95301062 </i>
    <i name="hartreedc">  -2471.08065217 </i>
    <i name="XCdc">     14.08501798 </i>
    <i name="pawpsdc">   2099.87223863 </i>
    <i name="pawaedc">  -2067.56429991 </i>
    <i name="eentropy">     -0.00000000 </i>
    <i name="bandstr">   -168.14280135 </i>
    <i name="atom">    704.16778566 </i>
    <i name="e_fr_energy">    -21.45724602 </i>
    <i name="e_wo_entrp">    -21.45724602 </i>
    <i name="e_0_energy">    -21.45724602 </i>
   </energy>
  </scstep>
  <scstep>
   <time name="dav">    1.82    1.82</time>
   <time name="total">    1.93    1.93</time>
   <energy>
    <i name="e_fr_energy">    -21.45722747 </i>
    <i name="e_wo_entrp">    -21.45722747 </i>
    <i name="e_0_energy">    -21.45722747 </i>
   </energy>
  </scstep>
  <scstep>
   <time name="dav">    1.32    1.32</time>
   <time name="total">    1.43    1.43</time>
   <energy>
    <i name="e_fr_energy">    -21.45721903 </i>
    <i name="e_wo_entrp">    -21.45721903 </i>
    <i name="e_0_energy">    -21.45721903 </i>
   </energy>
  </scstep>
  <scstep>
   <time name="dav">    1.27    1.28</time>
   <time name="total">    1.39    1.39</time>
   <energy>
    <i name="e_fr_energy">    -21.45721830 </i>
    <i name="e_wo_entrp">    -21.45721830 </i>
    <i name="e_0_energy">    -21.45721830 </i>
   </energy>
  </scstep>
  <scstep>
   <time name="dav">    1.16    1.16</time>
   <time name="total">    1.28    1.28</time>
   <energy>
    <i name="e_fr_energy">    -21.45721846 </i>
    <i name="e_wo_entrp">    -21.45721846 </i>
    <i name="e_0_energy">    -21.45721846 </i>
   </energy>
  </scstep>
  <scstep>
   <time name="dav">    1.21    1.21</time>
   <time name="total">    1.23    1.23</time>
   <energy>
    <i name="alphaZ">      5.25245453 </i>
    <i name="ewald">   1861.95301062 </i>
    <i name="hartreedc">  -2471.12634684 </i>
    <i name="XCdc">     14.08725331 </i>
    <i name="pawpsdc">   2097.38375918 </i>
    <i name="pawaedc">  -2065.07505461 </i>
    <i name="eentropy">     -0.00000000 </i>
    <i name="bandstr">   -168.10008064 </i>
    <i name="atom">    704.16778566 </i>
    <i name="e_fr_energy">    -21.45721881 </i>
    <i name="e_wo_entrp">    -21.45721881 </i>
    <i name="e_0_energy">    -21.45721881 </i>
   </energy>
  </scstep>
  <structure>
   <crystal>
    <varray name="basis" >
     <v>       3.30147119       0.00000000       0.00000000 </v>
     <v>       0.00000001       4.61975407      -0.00005300 </v>
     <v>       0.00000000       0.00000000      20.02439000 </v>
    </varray>
    <i name="volume">    305.41169506 </i>
    <varray name="rec_basis" >
     <v>       0.30289527      -0.00000000       0.00000000 </v>
     <v>      -0.00000000       0.21646174       0.00000000 </v>
     <v>      -0.00000000       0.00000057       0.04993910 </v>
    </varray>
   </crystal>
   <varray name="positions" >
    <v>       0.50000000       0.91096676       0.55250391 </v>
    <v>       0.50000000       0.08903324       0.44749609 </v>
    <v>      -0.00000000       0.41096332       0.44749601 </v>
    <v>       0.00000000       0.58903668       0.55250399 </v>
   </varray>
  </structure>
  <varray name="forces" >
   <v>      -0.00000003      -0.01029494       0.00505715 </v>
   <v>       0.00000003       0.01029494      -0.00505715 </v>
   <v>       0.00000001      -0.01034274      -0.00502236 </v>
   <v>      -0.00000001       0.01034274       0.00502236 </v>
  </varray>
  <varray name="stress" >
   <v>      -0.48890986      -0.00000040      -0.00000042 </v>
   <v>      -0.00000035      -0.13411294       0.00052801 </v>
   <v>      -0.00000046       0.00052802       0.03141749 </v>
  </varray>
  <energy>
   <i name="e_fr_energy">    -21.45721881 </i>
   <i name="e_wo_entrp">    -21.45721881 </i>
   <i name="e_0_energy">     -0.00000000 </i>
  </energy>
  <time name="totalsc">    9.73    9.74</time>
 </calculation>
 <calculation>
  <scstep>
   <time name="dav">    1.45    1.45</time>
   <time name="total">    1.56    1.56</time>
   <energy>
    <i name="alphaZ">      5.25515958 </i>
    <i name="ewald">   1863.05538895 </i>
    <i name="hartreedc">  -2472.19276917 </i>
    <i name="XCdc">     14.09575093 </i>
    <i name="pawpsdc">   2097.41186990 </i>
    <i name="pawaedc">  -2065.10316911 </i>
    <i name="eentropy">     -0.00000000 </i>
    <i name="bandstr">   -168.14731166 </i>
    <i name="atom">    704.16778566 </i>
    <i name="e_fr_energy">    -21.45729491 </i>
    <i name="e_wo_entrp">    -21.45729491 </i>
    <i name="e_0_energy">    -21.45729491 </i>
   </energy>
  </scstep>
  <scstep>
   <time name="dav">    1.83    1.83</time>
   <time name="total">    1.94    1.94</time>
   <energy>
    <i name="e_fr_energy">    -21.45729108 </i>
    <i name="e_wo_entrp">    -21.45729108 </i>
    <i name="e_0_energy">    -21.45729108 </i>
   </energy>
  </scstep>
  <scstep>
   <time name="dav">    1.62    1.62</time>
   <time name="total">    1.73    1.73</time>
   <energy>
    <i name="e_fr_energy">    -21.45727178 </i>
    <i name="e_wo_entrp">    -21.45727178 </i>
    <i name="e_0_energy">    -21.45727178 </i>
   </energy>
  </scstep>
  <scstep>
   <time name="dav">    1.43    1.43</time>
   <time name="total">    1.54    1.55</time>
   <energy>
    <i name="e_fr_energy">    -21.45726800 </i>
    <i name="e_wo_entrp">    -21.45726800 </i>
    <i name="e_0_energy">    -21.45726800 </i>
   </energy>
  </scstep>
  <scstep>
   <time name="dav">    1.24    1.24</time>
   <time name="total">    1.35    1.35</time>
   <energy>
    <i name="e_fr_energy">    -21.45726878 </i>
    <i name="e_wo_entrp">    -21.45726878 </i>
    <i name="e_0_energy">    -21.45726878 </i>
   </energy>
  </scstep>
  <scstep>
   <time name="dav">    1.23    1.23</time>
   <time name="total">    1.25    1.25</time>
   <energy>
    <i name="alphaZ">      5.25515958 </i>
    <i name="ewald">   1863.05538895 </i>
    <i name="hartreedc">  -2472.20580249 </i>
    <i name="XCdc">     14.09658365 </i>
    <i name="pawpsdc">   2102.28655074 </i>
    <i name="pawaedc">  -2069.97949720 </i>
    <i name="eentropy">     -0.00000000 </i>
    <i name="bandstr">   -168.13343800 </i>
    <i name="atom">    704.16778566 </i>
    <i name="e_fr_energy">    -21.45726911 </i>
    <i name="e_wo_entrp">    -21.45726911 </i>
    <i name="e_0_energy">    -21.45726911 </i>
   </energy>
  </scstep>
  <structure>
   <crystal>
    <varray name="basis" >
     <v>       3.29720429       0.00000000       0.00000000 </v>
     <v>       0.00000000       4.62335141      -0.00005300 </v>
     <v>       0.00000000       0.00000000      20.02439000 </v>
    </varray>
    <i name="volume">    305.25448651 </i>
    <varray name="rec_basis" >
     <v>       0.30328724      -0.00000000       0.00000000 </v>
     <v>      -0.00000000       0.21629331       0.00000000 </v>
     <v>      -0.00000000       0.00000057       0.04993910 </v>
    </varray>
   </crystal>
   <varray name="positions" >
    <v>       0.50000000       0.91077263       0.55252148 </v>
    <v>       0.50000000       0.08922737       0.44747852 </v>
    <v>      -0.00000000       0.41076891       0.44747851 </v>
    <v>       0.00000000       0.58923109       0.55252149 </v>
   </varray>
  </structure>
  <varray name="forces" >
   <v>      -0.00000000       0.00491306      -0.00328557 </v>
   <v>       0.00000000      -0.00491306       0.00328557 </v>
   <v>       0.00000005       0.00487370       0.00329175 </v>
   <v>      -0.00000005      -0.00487370      -0.00329175 </v>
  </varray>
  <varray name="stress" >
   <v>       0.16196209       0.00000007      -0.00000041 </v>
   <v>       0.00000003       0.05260136       0.00043562 </v>
   <v>      -0.00000039       0.00043562      -0.14295291 </v>
  </varray>
  <energy>
   <i name="e_fr_energy">    -21.45726911 </i>
   <i name="e_wo_entrp">    -21.45726911 </i>
   <i name="e_0_energy">     -0.00000000 </i>
  </energy>
  <time name="totalsc">   10.07   10.09</time>
  <eigenvalues>
   <array>
    <dimension dim="1">band</dimension>
    <dimension dim="2">kpoint</dimension>
    <dimension dim="3">spin</dimension>
    <field>eigene</field>
    <field>occ</field>
    <set>
     <set comment="spin 1">
      <set comment="kpoint 1">
       <r>  -17.2315    1.0000 </r>
       <r>  -14.7756    1.0000 </r>
       <r>  -11.4443    1.0000 </r>
       <r>   -7.9379    1.0000 </r>
       <r>   -6.9811    1.0000 </r>
       <r>   -6.7676    1.0000 </r>
       <r>   -5.5879    1.0000 </r>
       <r>   -4.0133    1.0000 </r>
       <r>   -3.9304    1.0000 </r>
       <r>   -2.2796    1.0000 </r>
       <r>   -1.3776    0.0000 </r>
       <r>   -0.6237    0.0000 </r>
       <r>    0.4118    0.0000 </r>
       <r>    1.0436    0.0000 </r>
       <r>    2.1363    0.0000 </r>
       <r>    2.3080    0.0000 </r>
      </set>
      <set comment="kpoint 2">
       <r>  -17.2044    1.0000 </r>
       <r>  -14.7473    1.0000 </r>
       <r>  -11.4533    1.0000 </r>
       <r>   -7.9173    1.0000 </r>
       <r>   -6.9990    1.0000 </r>
       <r>   -6.7438    1.0000 </r>
       <r>   -5.7635    1.0000 </r>
       <r>   -4.1975    1.0000 </r>
       <r>   -3.9192    1.0000 </r>
       <r>   -2.2793    1.0000 </r>
       <r>   -1.3522    0.0000 </r>
       <r>   -0.3799    0.0000 </r>
       <r>    0.6535    0.0000 </r>
       <r>    0.8769    0.0000 </r>
       <r>    2.1643    0.0000 </r>
       <r>    2.3381    0.0000 </r>
      </set>
      <set comment="kpoint 3">
       <r>  -17.1234    1.0000 </r>
       <r>  -14.6627    1.0000 </r>
       <r>  -11.4857    1.0000 </r>
       <r>   -7.8563    1.0000 </r>
       <r>   -7.0725    1.0000 </r>
       <r>   -6.6726    1.0000 </r>
       <r>   -6.1917    1.0000 </r>
       <r>   -4.6221    1.0000 </r>
       <r>   -3.8894    1.0000 </r>
       <r>   -2.2979    1.0000 </r>
       <r>   -1.2766    0.0000 </r>
       <r>    0.2728    0.0000 </r>
       <r>    0.4635    0.0000 </r>
       <r>    1.2451    0.0000 </r>
       <r>    2.2443    0.0000 </r>
       <r>    2.4283    0.0000 </r>
      </set>
      <set comment="kpoint 4">
       <r>  -16.9888    1.0000 </r>
       <r>  -14.5218    1.0000 </r>
       <r>  -11.5578    1.0000 </r>
       <r>   -7.7573    1.0000 </r>
       <r>   -7.2637    1.0000 </r>
       <r>   -6.7017    1.0000 </r>
       <r>   -6.5554    1.0000 </r>
       <r>   -5.0548    1.0000 </r>
       <r>   -3.8524    1.0000 </r>
       <r>   -2.3570    1.0000 </r>
       <r>   -1.1519    0.0000 </r>
       <r>   -0.0465    0.0000 </r>
       <r>    1.1843    0.0000 </r>
       <r>    1.8676    0.0000 </r>
       <r>    2.3221    0.0000 </r>
       <r>    2.5780    0.0000 </r>
      </set>
      <set comment="kpoint 5">
       <r>  -16.8013    1.0000 </r>
       <r>  -14.3250    1.0000 </r>
       <r>  -11.6951    1.0000 </r>
       <r>   -7.6433    1.0000 </r>
       <r>   -7.6250    1.0000 </r>
       <r>   -7.1679    1.0000 </r>
       <r>   -6.3947    1.0000 </r>
       <r>   -5.3235    1.0000 </r>
       <r>   -3.8313    1.0000 </r>
       <r>   -2.4677    1.0000 </r>
       <r>   -0.9811    0.0000 </r>
       <r>   -0.5371    0.0000 </r>
       <r>    1.8604    0.0000 </r>
       <r>    1.9602    0.0000 </r>
       <r>    2.2040    0.0000 </r>
       <r>    2.6914    0.0000 </r>
      </set>
      <set comment="kpoint 6">
       <r>  -16.5618    1.0000 </r>
       <r>  -14.0727    1.0000 </r>
       <r>  -11.9237    1.0000 </r>
       <r>   -8.1986    1.0000 </r>
       <r>   -7.5138    1.0000 </r>
       <r>   -7.4677    1.0000 </r>
       <r>   -6.1948    1.0000 </r>
       <r>   -5.3951    1.0000 </r>
       <r>   -3.8600    1.0000 </r>
       <r>   -2.6391    1.0000 </r>
       <r>   -0.9196    0.0000 </r>
       <r>   -0.7713    0.0000 </r>
       <r>    1.2801    0.0000 </r>
       <r>    1.3820    0.0000 </r>
       <r>    2.5902    0.0000 </r>
       <r>    2.9412    0.0000 </r>
      </set>
      <set comment="kpoint 7">
       <r>  -16.2717    1.0000 </r>
       <r>  -13.7655    1.0000 </r>
       <r>  -12.2547    1.0000 </r>
       <r>   -8.8480    1.0000 </r>
       <r>   -7.7044    1.0000 </r>
       <r>   -7.2997    1.0000 </r>
       <r>   -5.9622    1.0000 </r>
       <r>   -5.3351    1.0000 </r>
       <r>   -3.9677    1.0000 </r>
       <r>   -2.8742    1.0000 </r>
       <r>   -1.1263    0.0000 </r>
       <r>   -0.5446    0.0000 </r>
       <r>    0.6303    0.0000 </r>
       <r>    0.8374    0.0000 </r>
       <r>    2.1312    0.0000 </r>
       <r>    3.2694    0.0000 </r>
      </set>
      <set comment="kpoint 8">
       <r>  -15.9330    1.0000 </r>
       <r>  -13.4041    1.0000 </r>
       <r>  -12.6748    1.0000 </r>
       <r>   -9.5256    1.0000 </r>
       <r>   -7.7437    1.0000 </r>
       <r>   -7.1453    1.0000 </r>
       <r>   -5.7079    1.0000 </r>
       <r>   -5.2109    1.0000 </r>
       <r>   -4.1402    1.0000 </r>
       <r>   -3.1645    1.0000 </r>
       <r>   -1.1344    0.0000 </r>
       <r>   -0.3973    0.0000 </r>
       <r>    0.0294    0.0000 </r>
       <r>    0.4625    0.0000 </r>
       <r>    1.6244    0.0000 </r>
       <r>    3.0311    0.0000 </r>
      </set>
      <set comment="kpoint 9">
       <r>  -15.5485    1.0000 </r>
       <r>  -13.1538    1.0000 </r>
       <r>  -12.9896    1.0000 </r>
       <r>  -10.1952    1.0000 </r>
       <r>   -7.6619    1.0000 </r>
       <r>   -7.0419    1.0000 </r>
       <r>   -5.4492    1.0000 </r>
       <r>   -5.0743    1.0000 </r>
       <r>   -4.3063    1.0000 </r>
       <r>   -3.4885    1.0000 </r>
       <r>   -0.9720    0.0000 </r>
       <r>   -0.5455    0.0000 </r>
       <r>   -0.4744    0.0000 </r>
       <r>    0.5015    0.0000 </r>
       <r>    1.1159    0.0000 </r>
       <r>    2.6154    0.0000 </r>
      </set>
      <set comment="kpoint 10">
[...]
       <r>    3.3672    0.0000 </r>
       <r>    3.3982    0.0000 </r>
      </set>
      <set comment="kpoint 153">
       <r>  -15.3489    1.0000 </r>
       <r>  -15.1015    1.0000 </r>
       <r>  -10.9118    1.0000 </r>
       <r>  -10.5908    1.0000 </r>
       <r>   -7.9376    1.0000 </r>
       <r>   -7.7796    1.0000 </r>
       <r>   -5.2643    1.0000 </r>
       <r>   -5.0417    1.0000 </r>
       <r>   -3.8478    1.0000 </r>
       <r>   -3.7592    1.0000 </r>
       <r>    0.2858    0.0000 </r>
       <r>    0.6805    0.0000 </r>
       <r>    1.1138    0.0000 </r>
       <r>    1.4130    0.0000 </r>
       <r>    3.3348    0.0000 </r>
       <r>    3.3639    0.0000 </r>
      </set>
      <set comment="kpoint 154">
       <r>  -15.6200    1.0000 </r>
       <r>  -15.3677    1.0000 </r>
       <r>  -10.7593    1.0000 </r>
       <r>  -10.4307    1.0000 </r>
       <r>   -7.6128    1.0000 </r>
       <r>   -7.4506    1.0000 </r>
       <r>   -5.1442    1.0000 </r>
       <r>   -4.8662    1.0000 </r>
       <r>   -3.7444    1.0000 </r>
       <r>   -3.7162    1.0000 </r>
       <r>    0.2981    0.0000 </r>
       <r>    0.6037    0.0000 </r>
       <r>    1.2138    0.0000 </r>
       <r>    1.5525    0.0000 </r>
       <r>    3.0610    0.0000 </r>
       <r>    3.2990    0.0000 </r>
      </set>
      <set comment="kpoint 155">
       <r>  -15.8476    1.0000 </r>
       <r>  -15.5926    1.0000 </r>
       <r>  -10.7205    1.0000 </r>
       <r>  -10.3949    1.0000 </r>
       <r>   -7.0926    1.0000 </r>
       <r>   -6.9187    1.0000 </r>
       <r>   -5.1619    1.0000 </r>
       <r>   -4.8438    1.0000 </r>
       <r>   -3.6511    1.0000 </r>
       <r>   -3.4954    1.0000 </r>
       <r>    0.4047    0.0000 </r>
       <r>    0.5940    0.0000 </r>
       <r>    1.2185    0.0000 </r>
       <r>    1.5846    0.0000 </r>
       <r>    2.4584    0.0000 </r>
       <r>    2.7036    0.0000 </r>
      </set>
      <set comment="kpoint 156">
       <r>  -16.0275    1.0000 </r>
       <r>  -15.7711    1.0000 </r>
       <r>  -10.7425    1.0000 </r>
       <r>  -10.4224    1.0000 </r>
       <r>   -6.4528    1.0000 </r>
       <r>   -6.2672    1.0000 </r>
       <r>   -5.2296    1.0000 </r>
       <r>   -4.8937    1.0000 </r>
       <r>   -3.5759    1.0000 </r>
       <r>   -3.3029    1.0000 </r>
       <r>    0.5554    0.0000 </r>
       <r>    0.6205    0.0000 </r>
       <r>    1.1370    0.0000 </r>
       <r>    1.4662    0.0000 </r>
       <r>    1.8216    0.0000 </r>
       <r>    1.9470    0.0000 </r>
      </set>
      <set comment="kpoint 157">
       <r>  -16.1575    1.0000 </r>
       <r>  -15.9002    1.0000 </r>
       <r>  -10.7817    1.0000 </r>
       <r>  -10.4662    1.0000 </r>
       <r>   -5.7760    1.0000 </r>
       <r>   -5.5899    1.0000 </r>
       <r>   -5.2917    1.0000 </r>
       <r>   -4.9543    1.0000 </r>
       <r>   -3.5880    1.0000 </r>
       <r>   -3.2138    1.0000 </r>
       <r>    0.4296    0.0000 </r>
       <r>    0.4346    0.0000 </r>
       <r>    1.1010    0.0000 </r>
       <r>    1.2000    0.0000 </r>
       <r>    1.5295    0.0000 </r>
       <r>    1.6180    0.0000 </r>
      </set>
      <set comment="kpoint 158">
       <r>  -16.2359    1.0000 </r>
       <r>  -15.9783    1.0000 </r>
       <r>  -10.8131    1.0000 </r>
       <r>  -10.5003    1.0000 </r>
       <r>   -5.3557    1.0000 </r>
       <r>   -5.1729    1.0000 </r>
       <r>   -4.9977    1.0000 </r>
       <r>   -4.9785    1.0000 </r>
       <r>   -3.7060    1.0000 </r>
       <r>   -3.2496    1.0000 </r>
       <r>   -0.0032    0.0000 </r>
       <r>    0.0284    0.0000 </r>
       <r>    1.1796    0.0000 </r>
       <r>    1.2394    0.0000 </r>
       <r>    1.4860    0.0000 </r>
       <r>    1.5514    0.0000 </r>
      </set>
     </set>
    </set>
   </array>
  </eigenvalues>
  <separator name="orbital magnetization" >
   <v name="MAGDIPOLOUT">      0.00000000      0.00000000      0.00000000</v>
  </separator>
  <dos>
   <i name="efermi">     -2.19422138 </i>
   <total>
    <array>
     <dimension dim="1">gridpoints</dimension>
     <dimension dim="2">spin</dimension>
     <field>energy</field>
     <field>total</field>
     <field>integrated</field>
     <set>
      <set comment="spin 1">
       <r>   -18.2744     0.0000     0.0000 </r>
       <r>   -18.1979     0.0000     0.0000 </r>
       <r>   -18.1214     0.0000     0.0000 </r>
       <r>   -18.0450     0.0000     0.0000 </r>
       <r>   -17.9685     0.0000     0.0000 </r>
       <r>   -17.8920     0.0000     0.0000 </r>
       <r>   -17.8155     0.0000     0.0000 </r>
       <r>   -17.7390     0.0000     0.0000 </r>
       <r>   -17.6626     0.0000     0.0000 </r>
       <r>   -17.5861     0.0000     0.0000 </r>
       <r>   -17.5096     0.0000     0.0000 </r>
       <r>   -17.4331     0.0000     0.0000 </r>
       <r>   -17.3566     0.0000     0.0000 </r>
       <r>   -17.2801     0.0000     0.0000 </r>
       <r>   -17.2037     0.3036     0.0232 </r>
       <r>   -17.1272     0.7680     0.0820 </r>
       <r>   -17.0507     0.7779     0.1415 </r>
       <r>   -16.9742     0.9712     0.2157 </r>
       <r>   -16.8977     0.8899     0.2838 </r>
       <r>   -16.8213     0.5628     0.3269 </r>
       <r>   -16.7448     1.1320     0.4134 </r>
       <r>   -16.6683     0.8628     0.4794 </r>
       <r>   -16.5918     0.9001     0.5483 </r>
       <r>   -16.5153     0.5722     0.5920 </r>
       <r>   -16.4389     1.4677     0.7043 </r>
       <r>   -16.3624     0.6171     0.7515 </r>
       <r>   -16.2859     0.3502     0.7783 </r>
       <r>   -16.2094     1.7058     0.9087 </r>
       <r>   -16.1329     0.6407     0.9577 </r>
       <r>   -16.0564     0.8774     1.0248 </r>
       <r>   -15.9800     0.7826     1.0847 </r>
       <r>   -15.9035     1.0614     1.1658 </r>
       <r>   -15.8270     1.2333     1.2602 </r>
       <r>   -15.7505     0.9393     1.3320 </r>
       <r>   -15.6740     0.5986     1.3778 </r>
       <r>   -15.5976     1.1119     1.4628 </r>
       <r>   -15.5211     1.0012     1.5394 </r>
       <r>   -15.4446     1.3864     1.6454 </r>
       <r>   -15.3681     0.8511     1.7105 </r>
       <r>   -15.2916     0.9682     1.7846 </r>
       <r>   -15.2152     1.3282     1.8862 </r>
       <r>   -15.1387     0.3425     1.9123 </r>
       <r>   -15.0622     1.9870     2.0643 </r>
       <r>   -14.9857     1.4941     2.1786 </r>
       <r>   -14.9092     0.8956     2.2471 </r>
       <r>   -14.8327     1.5440     2.3652 </r>
       <r>   -14.7563     1.9593     2.5150 </r>
       <r>   -14.6798     1.1294     2.6014 </r>
       <r>   -14.6033     1.6074     2.7243 </r>
       <r>   -14.5268     1.9946     2.8769 </r>
       <r>   -14.4503     0.9046     2.9461 </r>
       <r>   -14.3739     0.9319     3.0174 </r>
       <r>   -14.2974     1.4641     3.1293 </r>
       <r>   -14.2209     0.9797     3.2043 </r>
       <r>   -14.1444     1.0728     3.2863 </r>
       <r>   -14.0679     2.1009     3.4470 </r>
       <r>   -13.9915     1.9167     3.5936 </r>
       <r>   -13.9150     0.4957     3.6315 </r>
       <r>   -13.8385     0.4054     3.6625 </r>
       <r>   -13.7620     1.1980     3.7541 </r>
       <r>   -13.6855     0.6170     3.8013 </r>
       <r>   -13.6090     1.2165     3.8943 </r>
       <r>   -13.5326     0.0532     3.8984 </r>
       <r>   -13.4561     0.3278     3.9235 </r>
       <r>   -13.3796     0.4954     3.9614 </r>
       <r>   -13.3031     0.0091     3.9621 </r>
       <r>   -13.2266     0.3293     3.9873 </r>
       <r>   -13.1502     0.1007     3.9950 </r>
       <r>   -13.0737     0.0659     4.0000 </r>
       <r>   -12.9972     0.0491     4.0038 </r>
       <r>   -12.9207     0.1171     4.0127 </r>
       <r>   -12.8442     0.3259     4.0376 </r>
       <r>   -12.7678     0.0060     4.0381 </r>
       <r>   -12.6913     0.2243     4.0552 </r>
       <r>   -12.6148     0.3964     4.0856 </r>
       <r>   -12.5383     0.2516     4.1048 </r>
       <r>   -12.4618     1.2093     4.1973 </r>
       <r>   -12.3853     0.5776     4.2415 </r>
       <r>   -12.3089     0.3493     4.2682 </r>
       <r>   -12.2324     0.9743     4.3427 </r>
       <r>   -12.1559     0.5298     4.3832 </r>
       <r>   -12.0794     1.8504     4.5247 </r>
       <r>   -12.0029     2.0261     4.6797 </r>
       <r>   -11.9265     0.6558     4.7298 </r>
       <r>   -11.8500     1.0940     4.8135 </r>
       <r>   -11.7735     1.0001     4.8900 </r>
       <r>   -11.6970     1.2308     4.9841 </r>
       <r>   -11.6205     1.1977     5.0757 </r>
       <r>   -11.5441     1.3961     5.1825 </r>
       <r>   -11.4676     3.7496     5.4693 </r>
       <r>   -11.3911     2.8298     5.6857 </r>
       <r>   -11.3146     1.2297     5.7798 </r>
       <r>   -11.2381     1.4651     5.8918 </r>
       <r>   -11.1616     1.3450     5.9947 </r>
       <r>   -11.0852     0.3375     6.0205 </r>
       <r>   -11.0087     1.9347     6.1685 </r>
       <r>   -10.9322     0.5323     6.2092 </r>
       <r>   -10.8557     1.1265     6.2953 </r>
       <r>   -10.7792     1.3281     6.3969 </r>
       <r>   -10.7028     1.0840     6.4798 </r>
       <r>   -10.6263     0.0605     6.4845 </r>
       <r>   -10.5498     0.9712     6.5587 </r>
       <r>   -10.4733     0.5906     6.6039 </r>
       <r>   -10.3968     1.3623     6.7081 </r>
       <r>   -10.3204     0.3537     6.7351 </r>
       <r>   -10.2439     0.8093     6.7970 </r>
       <r>   -10.1674     0.5595     6.8398 </r>
       <r>   -10.0909     0.7916     6.9004 </r>
       <r>   -10.0144     1.3059     7.0003 </r>
       <r>    -9.9379     0.0822     7.0065 </r>
       <r>    -9.8615     0.2974     7.0293 </r>
       <r>    -9.7850     0.3236     7.0540 </r>
       <r>    -9.7085     0.6856     7.1065 </r>
       <r>    -9.6320     1.3537     7.2100 </r>
       <r>    -9.5555     0.6706     7.2613 </r>
       <r>    -9.4791     0.2778     7.2825 </r>
       <r>    -9.4026     0.0001     7.2825 </r>
       <r>    -9.3261     0.2002     7.2979 </r>
       <r>    -9.2496     1.3262     7.3993 </r>
       <r>    -9.1731     0.6319     7.4476 </r>
       <r>    -9.0967     0.0059     7.4481 </r>
       <r>    -9.0202     0.3261     7.4730 </r>
       <r>    -8.9437     0.1911     7.4876 </r>
       <r>    -8.8672     0.7211     7.5428 </r>
       <r>    -8.7907     1.2299     7.6368 </r>
       <r>    -8.7142     0.1825     7.6508 </r>
       <r>    -8.6378     0.0017     7.6509 </r>
       <r>    -8.5613     0.3296     7.6761 </r>
       <r>    -8.4848     0.0017     7.6763 </r>
       <r>    -8.4083     0.6144     7.7233 </r>
       <r>    -8.3318     0.9595     7.7966 </r>
       <r>    -8.2554     0.2515     7.8159 </r>
       <r>    -8.1789     0.4166     7.8477 </r>
       <r>    -8.1024     1.2149     7.9407 </r>
       <r>    -8.0259     2.8855     8.1613 </r>
       <r>    -7.9494     1.5618     8.2808 </r>
       <r>    -7.8730     1.6582     8.4076 </r>
       <r>    -7.7965     2.7099     8.6149 </r>
       <r>    -7.7200     2.4083     8.7990 </r>
       <r>    -7.6435     1.7794     8.9351 </r>
       <r>    -7.5670     1.4159     9.0434 </r>
       <r>    -7.4905     2.2064     9.2122 </r>
       <r>    -7.4141     2.1977     9.3803 </r>
       <r>    -7.3376     2.0007     9.5333 </r>
       <r>    -7.2611     3.1565     9.7747 </r>
       <r>    -7.1846     3.7237    10.0595 </r>
       <r>    -7.1081     3.0024    10.2891 </r>
       <r>    -7.0317     3.5238    10.5586 </r>
       <r>    -6.9552     0.8097    10.6205 </r>
       <r>    -6.8787     1.8080    10.7588 </r>
       <r>    -6.8022     1.0645    10.8402 </r>
       <r>    -6.7257     1.4947    10.9545 </r>
       <r>    -6.6493     2.4154    11.1393 </r>
       <r>    -6.5728     1.2176    11.2324 </r>
       <r>    -6.4963     1.0275    11.3110 </r>
       <r>    -6.4198     2.7674    11.5226 </r>
       <r>    -6.3433     0.8068    11.5844 </r>
       <r>    -6.2668     1.1302    11.6708 </r>
       <r>    -6.1904     2.1252    11.8333 </r>
       <r>    -6.1139     2.0590    11.9908 </r>
       <r>    -6.0374     1.4635    12.1027 </r>
       <r>    -5.9609     1.9647    12.2530 </r>
       <r>    -5.8844     1.1756    12.3429 </r>
       <r>    -5.8080     1.6337    12.4679 </r>
       <r>    -5.7315     2.8399    12.6850 </r>
       <r>    -5.6550     2.9879    12.9136 </r>
       <r>    -5.5785     3.7325    13.1990 </r>
       <r>    -5.5020     3.6226    13.4761 </r>
       <r>    -5.4256     3.6543    13.7556 </r>
       <r>    -5.3491     4.1702    14.0745 </r>
       <r>    -5.2726     2.6512    14.2773 </r>
       <r>    -5.1961     3.2870    14.5287 </r>
       <r>    -5.1196     3.3938    14.7882 </r>
       <r>    -5.0431     1.7820    14.9245 </r>
       <r>    -4.9667     2.5001    15.1157 </r>
       <r>    -4.8902     1.4752    15.2286 </r>
       <r>    -4.8137     2.0525    15.3855 </r>
       <r>    -4.7372     1.0908    15.4690 </r>
       <r>    -4.6607     0.5050    15.5076 </r>
       <r>    -4.5843     1.9187    15.6543 </r>
       <r>    -4.5078     1.5294    15.7713 </r>
       <r>    -4.4313     0.9152    15.8413 </r>
       <r>    -4.3548     0.7123    15.8958 </r>
       <r>    -4.2783     0.7569    15.9537 </r>
       <r>    -4.2019     1.9430    16.1023 </r>
       <r>    -4.1254     3.1537    16.3435 </r>
       <r>    -4.0489     2.0170    16.4977 </r>
       <r>    -3.9724     2.8849    16.7184 </r>
       <r>    -3.8959     2.4686    16.9072 </r>
       <r>    -3.8194     2.9308    17.1313 </r>
       <r>    -3.7430     5.5035    17.5522 </r>
       <r>    -3.6665     3.1319    17.7918 </r>
       <r>    -3.5900     2.8440    18.0093 </r>
       <r>    -3.5135     3.3980    18.2692 </r>
       <r>    -3.4370     3.4655    18.5342 </r>
       <r>    -3.3606     3.2275    18.7811 </r>
       <r>    -3.2841     3.6843    19.0628 </r>
       <r>    -3.2076     3.1192    19.3014 </r>
       <r>    -3.1311     1.2020    19.3933 </r>
       <r>    -3.0546     0.5919    19.4386 </r>
       <r>    -2.9782     0.4568    19.4735 </r>
       <r>    -2.9017     2.0070    19.6270 </r>
       <r>    -2.8252     1.8722    19.7702 </r>
       <r>    -2.7487     0.2836    19.7919 </r>
       <r>    -2.6722     0.3150    19.8160 </r>
       <r>    -2.5957     0.2653    19.8363 </r>
       <r>    -2.5193     0.3265    19.8613 </r>
       <r>    -2.4428     1.2216    19.9547 </r>
       <r>    -2.3663     0.0537    19.9588 </r>
       <r>    -2.2898     0.3000    19.9817 </r>
       <r>    -2.2133     0.2387    20.0000 </r>
       <r>    -2.1369     0.0000    20.0000 </r>
       <r>    -2.0604     0.0000    20.0000 </r>
       <r>    -1.9839     0.0000    20.0000 </r>
       <r>    -1.9074     0.0000    20.0000 </r>
       <r>    -1.8309     0.0000    20.0000 </r>
       <r>    -1.7545     0.0000    20.0000 </r>
       <r>    -1.6780     0.0000    20.0000 </r>
       <r>    -1.6015     0.0000    20.0000 </r>
       <r>    -1.5250     0.0000    20.0000 </r>
       <r>    -1.4485     0.0000    20.0000 </r>
       <r>    -1.3720     0.0675    20.0052 </r>
       <r>    -1.2956     0.1964    20.0202 </r>
       <r>    -1.2191     0.1550    20.0320 </r>
       <r>    -1.1426     0.6791    20.0840 </r>
       <r>    -1.0661     1.1281    20.1702 </r>
       <r>    -0.9896     2.2271    20.3406 </r>
       <r>    -0.9132     1.4107    20.4485 </r>
       <r>    -0.8367     1.8025    20.5863 </r>
       <r>    -0.7602     1.8129    20.7250 </r>
       <r>    -0.6837     2.3511    20.9048 </r>
       <r>    -0.6072     1.6500    21.0310 </r>
       <r>    -0.5308     1.4575    21.1425 </r>
       <r>    -0.4543     2.4993    21.3336 </r>
       <r>    -0.3778     3.0420    21.5663 </r>
       <r>    -0.3013     2.6256    21.7671 </r>
       <r>    -0.2248     2.4016    21.9508 </r>
       <r>    -0.1483     2.0025    22.1039 </r>
       <r>    -0.0719     2.4770    22.2934 </r>
       <r>     0.0046     3.8093    22.5847 </r>
       <r>     0.0811     4.0176    22.8920 </r>
       <r>     0.1576     2.7353    23.1012 </r>
       <r>     0.2341     2.1749    23.2675 </r>
       <r>     0.3105     4.3071    23.5969 </r>
       <r>     0.3870     2.9244    23.8206 </r>
       <r>     0.4635     7.0130    24.3569 </r>
       <r>     0.5400     3.9622    24.6600 </r>
       <r>     0.6165     3.5590    24.9322 </r>
       <r>     0.6929     3.6259    25.2095 </r>
       <r>     0.7694     3.1771    25.4525 </r>
       <r>     0.8459     3.7476    25.7391 </r>
       <r>     0.9224     3.9093    26.0381 </r>
       <r>     0.9989     2.6886    26.2437 </r>
       <r>     1.0754     2.9034    26.4658 </r>
       <r>     1.1518     2.0134    26.6198 </r>
       <r>     1.2283     4.1350    26.9360 </r>
       <r>     1.3048     2.6577    27.1393 </r>
       <r>     1.3813     1.4404    27.2494 </r>
       <r>     1.4578     3.0672    27.4840 </r>
       <r>     1.5342     2.3405    27.6630 </r>
       <r>     1.6107     1.9557    27.8126 </r>
       <r>     1.6872     2.3743    27.9942 </r>
       <r>     1.7637     1.4688    28.1065 </r>
       <r>     1.8402     3.1159    28.3448 </r>
       <r>     1.9166     2.9672    28.5718 </r>
       <r>     1.9931     2.0961    28.7321 </r>
       <r>     2.0696     1.4419    28.8424 </r>
       <r>     2.1461     2.1226    29.0047 </r>
       <r>     2.2226     2.9830    29.2328 </r>
       <r>     2.2991     2.4922    29.4235 </r>
       <r>     2.3755     3.3462    29.6794 </r>
       <r>     2.4520     2.0585    29.8368 </r>
       <r>     2.5285     2.4153    30.0215 </r>
       <r>     2.6050     3.5931    30.2963 </r>
       <r>     2.6815     3.2337    30.5437 </r>
       <r>     2.7579     3.1702    30.7861 </r>
       <r>     2.8344     2.5358    30.9801 </r>
       <r>     2.9109     1.7578    31.1145 </r>
       <r>     2.9874     1.5287    31.2314 </r>
       <r>     3.0639     1.9696    31.3821 </r>
       <r>     3.1403     1.9025    31.5276 </r>
       <r>     3.2168     0.9356    31.5991 </r>
       <r>     3.2933     2.2485    31.7711 </r>
       <r>     3.3698     1.0973    31.8550 </r>
       <r>     3.4463     0.9716    31.9293 </r>
       <r>     3.5228     0.5891    31.9744 </r>
       <r>     3.5992     0.0112    31.9752 </r>
       <r>     3.6757     0.3238    32.0000 </r>
       <r>     3.7522     0.0001    32.0000 </r>
       <r>     3.8287     0.0000    32.0000 </r>
       <r>     3.9052     0.0000    32.0000 </r>
       <r>     3.9816     0.0000    32.0000 </r>
       <r>     4.0581     0.0000    32.0000 </r>
       <r>     4.1346     0.0000    32.0000 </r>
       <r>     4.2111     0.0000    32.0000 </r>
       <r>     4.2876     0.0000    32.0000 </r>
       <r>     4.3640     0.0000    32.0000 </r>
       <r>     4.4405     0.0000    32.0000 </r>
       <r>     4.5170     0.0000    32.0000 </r>
       <r>     4.5935     0.0000    32.0000 </r>
       <r>     4.6700     0.0000    32.0000 </r>
      </set>
     </set>
    </array>
   </total>
  </dos>
 </calculation>
 <structure name="finalpos" >
  <crystal>
   <varray name="basis" >
    <v>       3.29720429       0.00000000       0.00000000 </v>
    <v>       0.00000000       4.62335141      -0.00005300 </v>
    <v>       0.00000000       0.00000000      20.02439000 </v>
   </varray>
   <i name="volume">    305.25448651 </i>
   <varray name="rec_basis" >
    <v>       0.30328724      -0.00000000       0.00000000 </v>
    <v>      -0.00000000       0.21629331       0.00000000 </v>
    <v>      -0.00000000       0.00000057       0.04993910 </v>
   </varray>
  </crystal>
  <varray name="positions" >
   <v>       0.50000000       0.91077263       0.55252148 </v>
   <v>       0.50000000       0.08922737       0.44747852 </v>
   <v>      -0.00000000       0.41076891       0.44747851 </v>
   <v>       0.00000000       0.58923109       0.55252149 </v>
  </varray>
 </structure>
</modeling>
