 running on   48 total cores
 distrk:  each k-point on   48 cores,    1 groups
 distr:  one band on    8 cores,    6 groups
 using from now: INCAR     
 vasp.5.4.1 24Jun15 (build Nov 20 2020 10:29:34) complex                        
  
 POSCAR found type information on POSCAR  C 
 POSCAR found :  1 types and       2 ions
 scaLAPACK will be used

 ----------------------------------------------------------------------------- 
|                                                                             |
|  ADVICE TO THIS USER RUNNING 'VASP/VAMP'   (HEAR YOUR MASTER'S VOICE ...):  |
|                                                                             |
|      You have a (more or less) 'small supercell' and for smaller cells      |
|      it is recommended  to use the reciprocal-space projection scheme!      |
|      The real space optimization is not  efficient for small cells and it   |
|      is also less accurate ...                                              |
|      Therefore set LREAL=.FALSE. in the  INCAR file                         |
|                                                                             |
 ----------------------------------------------------------------------------- 

 LDA part: xc-table for Pade appr. of Perdew
 POSCAR, INCAR and KPOINTS ok, starting setup
 WARNING: small aliasing (wrap around) errors must be expected
 FFT: planning ...
 WAVECAR not read
 entering main loop
       N       E                     dE             d eps       ncg     rms          rms(c)
DAV:   1     0.353062418951E+02    0.35306E+02   -0.37333E+03  7020   0.495E+02
DAV:   2    -0.179093317389E+02   -0.53216E+02   -0.47647E+02  9216   0.988E+01
DAV:   3    -0.196577550945E+02   -0.17484E+01   -0.17484E+01 10584   0.240E+01
DAV:   4    -0.196650623771E+02   -0.73073E-02   -0.73073E-02  9936   0.151E+00
DAV:   5    -0.196650686167E+02   -0.62396E-05   -0.62396E-05 10320   0.493E-02    0.621E+00
DAV:   6    -0.187879628976E+02    0.87711E+00   -0.85652E-01  9108   0.442E+00    0.365E+00
DAV:   7    -0.184495516136E+02    0.33841E+00   -0.11198E+00  9972   0.495E+00    0.918E-01
DAV:   8    -0.184422437743E+02    0.73078E-02   -0.93189E-03  9816   0.633E-01    0.914E-02
DAV:   9    -0.184403707713E+02    0.18730E-02   -0.12613E-03  9204   0.138E-01    0.711E-02
DAV:  10    -0.184389758042E+02    0.13950E-02   -0.23329E-03  7860   0.158E-01    0.362E-02
DAV:  11    -0.184391657432E+02   -0.18994E-03   -0.16761E-04  7632   0.543E-02    0.481E-02
DAV:  12    -0.184393973526E+02   -0.23161E-03   -0.35301E-05  7848   0.287E-02    0.103E-02
DAV:  13    -0.184401089644E+02   -0.71161E-03   -0.19083E-04  7764   0.371E-02    0.429E-03
DAV:  14    -0.184401650695E+02   -0.56105E-04   -0.88939E-07  9336   0.471E-03    0.314E-03
DAV:  15    -0.184402616458E+02   -0.96576E-04   -0.85242E-06  7596   0.792E-03    0.932E-04
DAV:  16    -0.184402701294E+02   -0.84837E-05   -0.17857E-07  7968   0.206E-03
   1 F= -.18440270E+02 E0= -.18440270E+02  d E =-.712504E-14
