<?xml version="1.0" encoding="ISO-8859-1"?>
<modeling>
 <generator>
  <i name="program" type="string">vasp </i>
  <i name="version" type="string">5.4.1  </i>
  <i name="subversion" type="string">24Jun15 (build Nov 20 2020 10:29:34) complex                          parallel </i>
  <i name="platform" type="string">IFC91_ompi </i>
  <i name="date" type="string">2021 09 13 </i>
  <i name="time" type="string">23:29:12 </i>
 </generator>
 <incar>
  <i type="int" name="ISTART">     1</i>
  <i type="string" name="PREC">a</i>
  <i type="string" name="ALGO"> Normal</i>
  <i type="int" name="ISPIN">     1</i>
  <i type="int" name="ICHARG">     2</i>
  <i type="int" name="NELM">   250</i>
  <i type="int" name="NELMDL">    -5</i>
  <i type="int" name="NELMIN">     6</i>
  <i type="int" name="IBRION">     2</i>
  <i name="EDIFF">      0.00001000</i>
  <i name="EDIFFG">     -0.00500000</i>
  <i type="int" name="NSW">     0</i>
  <i type="int" name="ISIF">     2</i>
  <i name="ENCUT">    520.00000000</i>
  <i name="POTIM">      0.25000000</i>
  <v name="MAGMOM">      0.60000000      0.60000000</v>
  <i type="string" name="LREAL"> Auto</i>
  <i type="int" name="ISMEAR">     0</i>
  <i name="SIGMA">      0.02000000</i>
  <i type="logical" name="LWAVE"> F  </i>
  <i type="logical" name="LCHARG"> F  </i>
  <i type="logical" name="LVHAR"> F  </i>
  <v type="int" name="KPOINT_BSE">    -1     0     0     0</v>
  <i type="int" name="NELM">   250</i>
 </incar>
 <kpoints>
  <generation param="Gamma">
   <v type="int" name="divisions">      24       24        1 </v>
   <v name="usershift">      0.00000000       0.00000000       0.00000000 </v>
   <v name="genvec1">      0.04166667       0.00000000       0.00000000 </v>
   <v name="genvec2">      0.00000000       0.04166667       0.00000000 </v>
   <v name="genvec3">      0.00000000       0.00000000       1.00000000 </v>
   <v name="shift">      0.00000000       0.00000000       0.00000000 </v>
  </generation>
  <varray name="kpointlist" >
   <v>       0.00000000       0.00000000       0.00000000 </v>
   <v>       0.04166667      -0.00000000       0.00000000 </v>
   <v>       0.08333333      -0.00000000       0.00000000 </v>
   <v>       0.12500000       0.00000000       0.00000000 </v>
   <v>       0.16666667       0.00000000       0.00000000 </v>
   <v>       0.20833333      -0.00000000       0.00000000 </v>
   <v>       0.25000000       0.00000000       0.00000000 </v>
   <v>       0.29166667      -0.00000000       0.00000000 </v>
   <v>       0.33333333       0.00000000       0.00000000 </v>
   <v>       0.37500000       0.00000000       0.00000000 </v>
   <v>       0.41666667      -0.00000000       0.00000000 </v>
   <v>       0.45833333      -0.00000000       0.00000000 </v>
   <v>       0.50000000       0.00000000       0.00000000 </v>
   <v>       0.00000000       0.04166667       0.00000000 </v>
   <v>       0.04166667       0.04166667       0.00000000 </v>
   <v>       0.08333333       0.04166667       0.00000000 </v>
   <v>       0.12500000       0.04166667       0.00000000 </v>
   <v>       0.16666667       0.04166667       0.00000000 </v>
   <v>       0.20833333       0.04166667       0.00000000 </v>
   <v>       0.25000000       0.04166667       0.00000000 </v>
   <v>       0.29166667       0.04166667       0.00000000 </v>
   <v>       0.33333333       0.04166667       0.00000000 </v>
   <v>       0.37500000       0.04166667       0.00000000 </v>
   <v>       0.41666667       0.04166667       0.00000000 </v>
   <v>       0.45833333       0.04166667       0.00000000 </v>
   <v>       0.50000000       0.04166667       0.00000000 </v>
   <v>      -0.45833333       0.04166667       0.00000000 </v>
   <v>      -0.41666667       0.04166667       0.00000000 </v>
   <v>      -0.37500000       0.04166667       0.00000000 </v>
   <v>      -0.33333333       0.04166667       0.00000000 </v>
   <v>      -0.29166667       0.04166667       0.00000000 </v>
   <v>      -0.25000000       0.04166667       0.00000000 </v>
   <v>      -0.20833333       0.04166667       0.00000000 </v>
   <v>      -0.16666667       0.04166667       0.00000000 </v>
   <v>      -0.12500000       0.04166667       0.00000000 </v>
   <v>      -0.08333333       0.04166667       0.00000000 </v>
   <v>      -0.04166667       0.04166667       0.00000000 </v>
   <v>      -0.00000000       0.08333333       0.00000000 </v>
   <v>       0.04166667       0.08333333       0.00000000 </v>
   <v>       0.08333333       0.08333333       0.00000000 </v>
   <v>       0.12500000       0.08333333       0.00000000 </v>
   <v>       0.16666667       0.08333333       0.00000000 </v>
   <v>       0.20833333       0.08333333       0.00000000 </v>
   <v>       0.25000000       0.08333333       0.00000000 </v>
   <v>       0.29166667       0.08333333       0.00000000 </v>
   <v>       0.33333333       0.08333333       0.00000000 </v>
   <v>       0.37500000       0.08333333       0.00000000 </v>
   <v>       0.41666667       0.08333333       0.00000000 </v>
   <v>       0.45833333       0.08333333       0.00000000 </v>
   <v>       0.50000000       0.08333333       0.00000000 </v>
   <v>      -0.45833333       0.08333333       0.00000000 </v>
   <v>      -0.41666667       0.08333333       0.00000000 </v>
   <v>      -0.37500000       0.08333333       0.00000000 </v>
   <v>      -0.33333333       0.08333333       0.00000000 </v>
   <v>      -0.29166667       0.08333333       0.00000000 </v>
   <v>      -0.25000000       0.08333333       0.00000000 </v>
   <v>      -0.20833333       0.08333333       0.00000000 </v>
   <v>      -0.16666667       0.08333333       0.00000000 </v>
   <v>      -0.12500000       0.08333333       0.00000000 </v>
   <v>      -0.08333333       0.08333333       0.00000000 </v>
   <v>      -0.04166667       0.08333333       0.00000000 </v>
   <v>      -0.00000000       0.12500000       0.00000000 </v>
   <v>       0.04166667       0.12500000       0.00000000 </v>
   <v>       0.08333333       0.12500000       0.00000000 </v>
   <v>       0.12500000       0.12500000       0.00000000 </v>
   <v>       0.16666667       0.12500000       0.00000000 </v>
   <v>       0.20833333       0.12500000       0.00000000 </v>
   <v>       0.25000000       0.12500000       0.00000000 </v>
   <v>       0.29166667       0.12500000       0.00000000 </v>
   <v>       0.33333333       0.12500000       0.00000000 </v>
   <v>       0.37500000       0.12500000       0.00000000 </v>
   <v>       0.41666667       0.12500000       0.00000000 </v>
   <v>       0.45833333       0.12500000       0.00000000 </v>
   <v>       0.50000000       0.12500000       0.00000000 </v>
   <v>      -0.45833333       0.12500000       0.00000000 </v>
   <v>      -0.41666667       0.12500000       0.00000000 </v>
   <v>      -0.37500000       0.12500000       0.00000000 </v>
   <v>      -0.33333333       0.12500000       0.00000000 </v>
   <v>      -0.29166667       0.12500000       0.00000000 </v>
   <v>      -0.25000000       0.12500000       0.00000000 </v>
   <v>      -0.20833333       0.12500000       0.00000000 </v>
   <v>      -0.16666667       0.12500000       0.00000000 </v>
   <v>      -0.12500000       0.12500000       0.00000000 </v>
   <v>      -0.08333333       0.12500000       0.00000000 </v>
   <v>      -0.04166667       0.12500000       0.00000000 </v>
   <v>       0.00000000       0.16666667       0.00000000 </v>
   <v>       0.04166667       0.16666667       0.00000000 </v>
   <v>       0.08333333       0.16666667       0.00000000 </v>
   <v>       0.12500000       0.16666667       0.00000000 </v>
   <v>       0.16666667       0.16666667       0.00000000 </v>
   <v>       0.20833333       0.16666667       0.00000000 </v>
   <v>       0.25000000       0.16666667       0.00000000 </v>
   <v>       0.29166667       0.16666667       0.00000000 </v>
   <v>       0.33333333       0.16666667       0.00000000 </v>
   <v>       0.37500000       0.16666667       0.00000000 </v>
   <v>       0.41666667       0.16666667       0.00000000 </v>
   <v>       0.45833333       0.16666667       0.00000000 </v>
   <v>       0.50000000       0.16666667       0.00000000 </v>
   <v>      -0.45833333       0.16666667       0.00000000 </v>
   <v>      -0.41666667       0.16666667       0.00000000 </v>
   <v>      -0.37500000       0.16666667       0.00000000 </v>
   <v>      -0.33333333       0.16666667       0.00000000 </v>
   <v>      -0.29166667       0.16666667       0.00000000 </v>
   <v>      -0.25000000       0.16666667       0.00000000 </v>
   <v>      -0.20833333       0.16666667       0.00000000 </v>
   <v>      -0.16666667       0.16666667       0.00000000 </v>
   <v>      -0.12500000       0.16666667       0.00000000 </v>
   <v>      -0.08333333       0.16666667       0.00000000 </v>
   <v>      -0.04166667       0.16666667       0.00000000 </v>
   <v>      -0.00000000       0.20833333       0.00000000 </v>
   <v>       0.04166667       0.20833333       0.00000000 </v>
   <v>       0.08333333       0.20833333       0.00000000 </v>
   <v>       0.12500000       0.20833333       0.00000000 </v>
   <v>       0.16666667       0.20833333       0.00000000 </v>
   <v>       0.20833333       0.20833333       0.00000000 </v>
   <v>       0.25000000       0.20833333       0.00000000 </v>
   <v>       0.29166667       0.20833333       0.00000000 </v>
   <v>       0.33333333       0.20833333       0.00000000 </v>
   <v>       0.37500000       0.20833333       0.00000000 </v>
   <v>       0.41666667       0.20833333       0.00000000 </v>
   <v>       0.45833333       0.20833333       0.00000000 </v>
   <v>       0.50000000       0.20833333       0.00000000 </v>
   <v>      -0.45833333       0.20833333       0.00000000 </v>
   <v>      -0.41666667       0.20833333       0.00000000 </v>
   <v>      -0.37500000       0.20833333       0.00000000 </v>
   <v>      -0.33333333       0.20833333       0.00000000 </v>
   <v>      -0.29166667       0.20833333       0.00000000 </v>
   <v>      -0.25000000       0.20833333       0.00000000 </v>
   <v>      -0.20833333       0.20833333       0.00000000 </v>
   <v>      -0.16666667       0.20833333       0.00000000 </v>
   <v>      -0.12500000       0.20833333       0.00000000 </v>
   <v>      -0.08333333       0.20833333       0.00000000 </v>
   <v>      -0.04166667       0.20833333       0.00000000 </v>
   <v>      -0.00000000       0.25000000       0.00000000 </v>
   <v>       0.04166667       0.25000000       0.00000000 </v>
   <v>       0.08333333       0.25000000       0.00000000 </v>
   <v>       0.12500000       0.25000000       0.00000000 </v>
   <v>       0.16666667       0.25000000       0.00000000 </v>
   <v>       0.20833333       0.25000000       0.00000000 </v>
   <v>       0.25000000       0.25000000       0.00000000 </v>
   <v>       0.29166667       0.25000000       0.00000000 </v>
   <v>       0.33333333       0.25000000       0.00000000 </v>
   <v>       0.37500000       0.25000000       0.00000000 </v>
   <v>       0.41666667       0.25000000       0.00000000 </v>
   <v>       0.45833333       0.25000000       0.00000000 </v>
   <v>       0.50000000       0.25000000       0.00000000 </v>
   <v>      -0.45833333       0.25000000       0.00000000 </v>
   <v>      -0.41666667       0.25000000       0.00000000 </v>
   <v>      -0.37500000       0.25000000       0.00000000 </v>
   <v>      -0.33333333       0.25000000       0.00000000 </v>
   <v>      -0.29166667       0.25000000       0.00000000 </v>
   <v>      -0.25000000       0.25000000       0.00000000 </v>
   <v>      -0.20833333       0.25000000       0.00000000 </v>
   <v>      -0.16666667       0.25000000       0.00000000 </v>
   <v>      -0.12500000       0.25000000       0.00000000 </v>
   <v>      -0.08333333       0.25000000       0.00000000 </v>
   <v>      -0.04166667       0.25000000       0.00000000 </v>
   <v>      -0.00000000       0.29166667       0.00000000 </v>
   <v>       0.04166667       0.29166667       0.00000000 </v>
   <v>       0.08333333       0.29166667       0.00000000 </v>
   <v>       0.12500000       0.29166667       0.00000000 </v>
   <v>       0.16666667       0.29166667       0.00000000 </v>
   <v>       0.20833333       0.29166667       0.00000000 </v>
   <v>       0.25000000       0.29166667       0.00000000 </v>
   <v>       0.29166667       0.29166667       0.00000000 </v>
   <v>       0.33333333       0.29166667       0.00000000 </v>
   <v>       0.37500000       0.29166667       0.00000000 </v>
   <v>       0.41666667       0.29166667       0.00000000 </v>
   <v>       0.45833333       0.29166667       0.00000000 </v>
   <v>       0.50000000       0.29166667       0.00000000 </v>
   <v>      -0.45833333       0.29166667       0.00000000 </v>
   <v>      -0.41666667       0.29166667       0.00000000 </v>
   <v>      -0.37500000       0.29166667       0.00000000 </v>
   <v>      -0.33333333       0.29166667       0.00000000 </v>
   <v>      -0.29166667       0.29166667       0.00000000 </v>
   <v>      -0.25000000       0.29166667       0.00000000 </v>
   <v>      -0.20833333       0.29166667       0.00000000 </v>
   <v>      -0.16666667       0.29166667       0.00000000 </v>
   <v>      -0.12500000       0.29166667       0.00000000 </v>
   <v>      -0.08333333       0.29166667       0.00000000 </v>
   <v>      -0.04166667       0.29166667       0.00000000 </v>
   <v>      -0.00000000       0.33333333       0.00000000 </v>
   <v>       0.04166667       0.33333333       0.00000000 </v>
   <v>       0.08333333       0.33333333       0.00000000 </v>
   <v>       0.12500000       0.33333333       0.00000000 </v>
   <v>       0.16666667       0.33333333       0.00000000 </v>
   <v>       0.20833333       0.33333333       0.00000000 </v>
   <v>       0.25000000       0.33333333       0.00000000 </v>
   <v>       0.29166667       0.33333333       0.00000000 </v>
   <v>       0.33333333       0.33333333       0.00000000 </v>
   <v>       0.37500000       0.33333333       0.00000000 </v>
   <v>       0.41666667       0.33333333       0.00000000 </v>
   <v>       0.45833333       0.33333333       0.00000000 </v>
   <v>       0.50000000       0.33333333       0.00000000 </v>
   <v>      -0.45833333       0.33333333       0.00000000 </v>
   <v>      -0.41666667       0.33333333       0.00000000 </v>
   <v>      -0.37500000       0.33333333       0.00000000 </v>
   <v>      -0.33333333       0.33333333       0.00000000 </v>
   <v>      -0.29166667       0.33333333       0.00000000 </v>
   <v>      -0.25000000       0.33333333       0.00000000 </v>
   <v>      -0.20833333       0.33333333       0.00000000 </v>
   <v>      -0.16666667       0.33333333       0.00000000 </v>
   <v>      -0.12500000       0.33333333       0.00000000 </v>
   <v>      -0.08333333       0.33333333       0.00000000 </v>
   <v>      -0.04166667       0.33333333       0.00000000 </v>
   <v>       0.00000000       0.37500000       0.00000000 </v>
   <v>       0.04166667       0.37500000       0.00000000 </v>
   <v>       0.08333333       0.37500000       0.00000000 </v>
   <v>       0.12500000       0.37500000       0.00000000 </v>
   <v>       0.16666667       0.37500000       0.00000000 </v>
   <v>       0.20833333       0.37500000       0.00000000 </v>
   <v>       0.25000000       0.37500000       0.00000000 </v>
   <v>       0.29166667       0.37500000       0.00000000 </v>
   <v>       0.33333333       0.37500000       0.00000000 </v>
   <v>       0.37500000       0.37500000       0.00000000 </v>
   <v>       0.41666667       0.37500000       0.00000000 </v>
   <v>       0.45833333       0.37500000       0.00000000 </v>
   <v>       0.50000000       0.37500000       0.00000000 </v>
   <v>      -0.45833333       0.37500000       0.00000000 </v>
   <v>      -0.41666667       0.37500000       0.00000000 </v>
   <v>      -0.37500000       0.37500000       0.00000000 </v>
   <v>      -0.33333333       0.37500000       0.00000000 </v>
   <v>      -0.29166667       0.37500000       0.00000000 </v>
   <v>      -0.25000000       0.37500000       0.00000000 </v>
   <v>      -0.20833333       0.37500000       0.00000000 </v>
   <v>      -0.16666667       0.37500000       0.00000000 </v>
   <v>      -0.12500000       0.37500000       0.00000000 </v>
   <v>      -0.08333333       0.37500000       0.00000000 </v>
   <v>      -0.04166667       0.37500000       0.00000000 </v>
   <v>      -0.00000000       0.41666667       0.00000000 </v>
   <v>       0.04166667       0.41666667       0.00000000 </v>
   <v>       0.08333333       0.41666667       0.00000000 </v>
   <v>       0.12500000       0.41666667       0.00000000 </v>
   <v>       0.16666667       0.41666667       0.00000000 </v>
   <v>       0.20833333       0.41666667       0.00000000 </v>
   <v>       0.25000000       0.41666667       0.00000000 </v>
   <v>       0.29166667       0.41666667       0.00000000 </v>
   <v>       0.33333333       0.41666667       0.00000000 </v>
   <v>       0.37500000       0.41666667       0.00000000 </v>
   <v>       0.41666667       0.41666667       0.00000000 </v>
   <v>       0.45833333       0.41666667       0.00000000 </v>
   <v>       0.50000000       0.41666667       0.00000000 </v>
   <v>      -0.45833333       0.41666667       0.00000000 </v>
   <v>      -0.41666667       0.41666667       0.00000000 </v>
   <v>      -0.37500000       0.41666667       0.00000000 </v>
   <v>      -0.33333333       0.41666667       0.00000000 </v>
   <v>      -0.29166667       0.41666667       0.00000000 </v>
   <v>      -0.25000000       0.41666667       0.00000000 </v>
   <v>      -0.20833333       0.41666667       0.00000000 </v>
   <v>      -0.16666667       0.41666667       0.00000000 </v>
   <v>      -0.12500000       0.41666667       0.00000000 </v>
   <v>      -0.08333333       0.41666667       0.00000000 </v>
   <v>      -0.04166667       0.41666667       0.00000000 </v>
   <v>       0.00000000       0.45833333       0.00000000 </v>
   <v>       0.04166667       0.45833333       0.00000000 </v>
   <v>       0.08333333       0.45833333       0.00000000 </v>
   <v>       0.12500000       0.45833333       0.00000000 </v>
   <v>       0.16666667       0.45833333       0.00000000 </v>
   <v>       0.20833333       0.45833333       0.00000000 </v>
   <v>       0.25000000       0.45833333       0.00000000 </v>
   <v>       0.29166667       0.45833333       0.00000000 </v>
   <v>       0.33333333       0.45833333       0.00000000 </v>
   <v>       0.37500000       0.45833333       0.00000000 </v>
   <v>       0.41666667       0.45833333       0.00000000 </v>
   <v>       0.45833333       0.45833333       0.00000000 </v>
   <v>       0.50000000       0.45833333       0.00000000 </v>
   <v>      -0.45833333       0.45833333       0.00000000 </v>
   <v>      -0.41666667       0.45833333       0.00000000 </v>
   <v>      -0.37500000       0.45833333       0.00000000 </v>
   <v>      -0.33333333       0.45833333       0.00000000 </v>
   <v>      -0.29166667       0.45833333       0.00000000 </v>
   <v>      -0.25000000       0.45833333       0.00000000 </v>
   <v>      -0.20833333       0.45833333       0.00000000 </v>
   <v>      -0.16666667       0.45833333       0.00000000 </v>
   <v>      -0.12500000       0.45833333       0.00000000 </v>
   <v>      -0.08333333       0.45833333       0.00000000 </v>
   <v>      -0.04166667       0.45833333       0.00000000 </v>
   <v>      -0.00000000       0.50000000       0.00000000 </v>
   <v>       0.04166667       0.50000000       0.00000000 </v>
   <v>       0.08333333       0.50000000       0.00000000 </v>
   <v>       0.12500000       0.50000000       0.00000000 </v>
   <v>       0.16666667       0.50000000       0.00000000 </v>
   <v>       0.20833333       0.50000000       0.00000000 </v>
   <v>       0.25000000       0.50000000       0.00000000 </v>
   <v>       0.29166667       0.50000000       0.00000000 </v>
   <v>       0.33333333       0.50000000       0.00000000 </v>
   <v>       0.37500000       0.50000000       0.00000000 </v>
   <v>       0.41666667       0.50000000       0.00000000 </v>
   <v>       0.45833333       0.50000000       0.00000000 </v>
   <v>       0.50000000       0.50000000       0.00000000 </v>
  </varray>
  <varray name="weights" >
   <v>       0.00173611 </v>
   <v>       0.00347222 </v>
   <v>       0.00347222 </v>
   <v>       0.00347222 </v>
   <v>       0.00347222 </v>
   <v>       0.00347222 </v>
   <v>       0.00347222 </v>
   <v>       0.00347222 </v>
   <v>       0.00347222 </v>
   <v>       0.00347222 </v>
   <v>       0.00347222 </v>
   <v>       0.00347222 </v>
   <v>       0.00173611 </v>
   <v>       0.00347222 </v>
   <v>       0.00347222 </v>
   <v>       0.00347222 </v>
   <v>       0.00347222 </v>
   <v>       0.00347222 </v>
   <v>       0.00347222 </v>
   <v>       0.00347222 </v>
   <v>       0.00347222 </v>
   <v>       0.00347222 </v>
   <v>       0.00347222 </v>
   <v>       0.00347222 </v>
   <v>       0.00347222 </v>
   <v>       0.00347222 </v>
   <v>       0.00347222 </v>
   <v>       0.00347222 </v>
   <v>       0.00347222 </v>
   <v>       0.00347222 </v>
   <v>       0.00347222 </v>
   <v>       0.00347222 </v>
   <v>       0.00347222 </v>
   <v>       0.00347222 </v>
   <v>       0.00347222 </v>
   <v>       0.00347222 </v>
   <v>       0.00347222 </v>
   <v>       0.00347222 </v>
   <v>       0.00347222 </v>
   <v>       0.00347222 </v>
   <v>       0.00347222 </v>
   <v>       0.00347222 </v>
   <v>       0.00347222 </v>
   <v>       0.00347222 </v>
   <v>       0.00347222 </v>
   <v>       0.00347222 </v>
   <v>       0.00347222 </v>
   <v>       0.00347222 </v>
   <v>       0.00347222 </v>
   <v>       0.00347222 </v>
   <v>       0.00347222 </v>
   <v>       0.00347222 </v>
   <v>       0.00347222 </v>
   <v>       0.00347222 </v>
   <v>       0.00347222 </v>
   <v>       0.00347222 </v>
   <v>       0.00347222 </v>
   <v>       0.00347222 </v>
   <v>       0.00347222 </v>
   <v>       0.00347222 </v>
   <v>       0.00347222 </v>
   <v>       0.00347222 </v>
   <v>       0.00347222 </v>
   <v>       0.00347222 </v>
   <v>       0.00347222 </v>
   <v>       0.00347222 </v>
   <v>       0.00347222 </v>
   <v>       0.00347222 </v>
   <v>       0.00347222 </v>
   <v>       0.00347222 </v>
   <v>       0.00347222 </v>
   <v>       0.00347222 </v>
   <v>       0.00347222 </v>
   <v>       0.00347222 </v>
   <v>       0.00347222 </v>
   <v>       0.00347222 </v>
   <v>       0.00347222 </v>
   <v>       0.00347222 </v>
   <v>       0.00347222 </v>
   <v>       0.00347222 </v>
   <v>       0.00347222 </v>
   <v>       0.00347222 </v>
   <v>       0.00347222 </v>
   <v>       0.00347222 </v>
   <v>       0.00347222 </v>
   <v>       0.00347222 </v>
   <v>       0.00347222 </v>
   <v>       0.00347222 </v>
   <v>       0.00347222 </v>
   <v>       0.00347222 </v>
   <v>       0.00347222 </v>
   <v>       0.00347222 </v>
   <v>       0.00347222 </v>
   <v>       0.00347222 </v>
   <v>       0.00347222 </v>
   <v>       0.00347222 </v>
   <v>       0.00347222 </v>
   <v>       0.00347222 </v>
   <v>       0.00347222 </v>
   <v>       0.00347222 </v>
   <v>       0.00347222 </v>
   <v>       0.00347222 </v>
   <v>       0.00347222 </v>
   <v>       0.00347222 </v>
   <v>       0.00347222 </v>
   <v>       0.00347222 </v>
   <v>       0.00347222 </v>
   <v>       0.00347222 </v>
   <v>       0.00347222 </v>
   <v>       0.00347222 </v>
   <v>       0.00347222 </v>
   <v>       0.00347222 </v>
   <v>       0.00347222 </v>
   <v>       0.00347222 </v>
   <v>       0.00347222 </v>
   <v>       0.00347222 </v>
   <v>       0.00347222 </v>
   <v>       0.00347222 </v>
   <v>       0.00347222 </v>
   <v>       0.00347222 </v>
   <v>       0.00347222 </v>
   <v>       0.00347222 </v>
   <v>       0.00347222 </v>
   <v>       0.00347222 </v>
   <v>       0.00347222 </v>
   <v>       0.00347222 </v>
   <v>       0.00347222 </v>
   <v>       0.00347222 </v>
   <v>       0.00347222 </v>
   <v>       0.00347222 </v>
   <v>       0.00347222 </v>
   <v>       0.00347222 </v>
   <v>       0.00347222 </v>
   <v>       0.00347222 </v>
   <v>       0.00347222 </v>
   <v>       0.00347222 </v>
   <v>       0.00347222 </v>
   <v>       0.00347222 </v>
   <v>       0.00347222 </v>
   <v>       0.00347222 </v>
   <v>       0.00347222 </v>
   <v>       0.00347222 </v>
   <v>       0.00347222 </v>
   <v>       0.00347222 </v>
   <v>       0.00347222 </v>
   <v>       0.00347222 </v>
   <v>       0.00347222 </v>
   <v>       0.00347222 </v>
   <v>       0.00347222 </v>
   <v>       0.00347222 </v>
   <v>       0.00347222 </v>
   <v>       0.00347222 </v>
   <v>       0.00347222 </v>
   <v>       0.00347222 </v>
   <v>       0.00347222 </v>
   <v>       0.00347222 </v>
   <v>       0.00347222 </v>
   <v>       0.00347222 </v>
   <v>       0.00347222 </v>
   <v>       0.00347222 </v>
   <v>       0.00347222 </v>
   <v>       0.00347222 </v>
   <v>       0.00347222 </v>
   <v>       0.00347222 </v>
   <v>       0.00347222 </v>
   <v>       0.00347222 </v>
   <v>       0.00347222 </v>
   <v>       0.00347222 </v>
   <v>       0.00347222 </v>
   <v>       0.00347222 </v>
   <v>       0.00347222 </v>
   <v>       0.00347222 </v>
   <v>       0.00347222 </v>
   <v>       0.00347222 </v>
   <v>       0.00347222 </v>
   <v>       0.00347222 </v>
   <v>       0.00347222 </v>
   <v>       0.00347222 </v>
   <v>       0.00347222 </v>
   <v>       0.00347222 </v>
   <v>       0.00347222 </v>
   <v>       0.00347222 </v>
   <v>       0.00347222 </v>
   <v>       0.00347222 </v>
   <v>       0.00347222 </v>
   <v>       0.00347222 </v>
   <v>       0.00347222 </v>
   <v>       0.00347222 </v>
   <v>       0.00347222 </v>
   <v>       0.00347222 </v>
   <v>       0.00347222 </v>
   <v>       0.00347222 </v>
   <v>       0.00347222 </v>
   <v>       0.00347222 </v>
   <v>       0.00347222 </v>
   <v>       0.00347222 </v>
   <v>       0.00347222 </v>
   <v>       0.00347222 </v>
   <v>       0.00347222 </v>
   <v>       0.00347222 </v>
   <v>       0.00347222 </v>
   <v>       0.00347222 </v>
   <v>       0.00347222 </v>
   <v>       0.00347222 </v>
   <v>       0.00347222 </v>
   <v>       0.00347222 </v>
   <v>       0.00347222 </v>
   <v>       0.00347222 </v>
   <v>       0.00347222 </v>
   <v>       0.00347222 </v>
   <v>       0.00347222 </v>
   <v>       0.00347222 </v>
   <v>       0.00347222 </v>
   <v>       0.00347222 </v>
   <v>       0.00347222 </v>
   <v>       0.00347222 </v>
   <v>       0.00347222 </v>
   <v>       0.00347222 </v>
   <v>       0.00347222 </v>
   <v>       0.00347222 </v>
   <v>       0.00347222 </v>
   <v>       0.00347222 </v>
   <v>       0.00347222 </v>
   <v>       0.00347222 </v>
   <v>       0.00347222 </v>
   <v>       0.00347222 </v>
   <v>       0.00347222 </v>
   <v>       0.00347222 </v>
   <v>       0.00347222 </v>
   <v>       0.00347222 </v>
   <v>       0.00347222 </v>
   <v>       0.00347222 </v>
   <v>       0.00347222 </v>
   <v>       0.00347222 </v>
   <v>       0.00347222 </v>
   <v>       0.00347222 </v>
   <v>       0.00347222 </v>
   <v>       0.00347222 </v>
   <v>       0.00347222 </v>
   <v>       0.00347222 </v>
   <v>       0.00347222 </v>
   <v>       0.00347222 </v>
   <v>       0.00347222 </v>
   <v>       0.00347222 </v>
   <v>       0.00347222 </v>
   <v>       0.00347222 </v>
   <v>       0.00347222 </v>
   <v>       0.00347222 </v>
   <v>       0.00347222 </v>
   <v>       0.00347222 </v>
   <v>       0.00347222 </v>
   <v>       0.00347222 </v>
   <v>       0.00347222 </v>
   <v>       0.00347222 </v>
   <v>       0.00347222 </v>
   <v>       0.00347222 </v>
   <v>       0.00347222 </v>
   <v>       0.00347222 </v>
   <v>       0.00347222 </v>
   <v>       0.00347222 </v>
   <v>       0.00347222 </v>
   <v>       0.00347222 </v>
   <v>       0.00347222 </v>
   <v>       0.00347222 </v>
   <v>       0.00347222 </v>
   <v>       0.00347222 </v>
   <v>       0.00347222 </v>
   <v>       0.00347222 </v>
   <v>       0.00347222 </v>
   <v>       0.00347222 </v>
   <v>       0.00347222 </v>
   <v>       0.00347222 </v>
   <v>       0.00347222 </v>
   <v>       0.00347222 </v>
   <v>       0.00347222 </v>
   <v>       0.00347222 </v>
   <v>       0.00347222 </v>
   <v>       0.00173611 </v>
   <v>       0.00347222 </v>
   <v>       0.00347222 </v>
   <v>       0.00347222 </v>
   <v>       0.00347222 </v>
   <v>       0.00347222 </v>
   <v>       0.00347222 </v>
   <v>       0.00347222 </v>
   <v>       0.00347222 </v>
   <v>       0.00347222 </v>
   <v>       0.00347222 </v>
   <v>       0.00347222 </v>
   <v>       0.00173611 </v>
  </varray>
 </kpoints>
 <parameters>
  <separator name="general" >
   <i type="string" name="SYSTEM">unknown system</i>
   <i type="logical" name="LCOMPAT"> F  </i>
  </separator>
  <separator name="electronic" >
   <i type="string" name="PREC">a</i>
   <i name="ENMAX">    520.00000000</i>
   <i name="ENAUG">    644.87300000</i>
   <i name="EDIFF">      0.00001000</i>
   <i type="int" name="IALGO">    38</i>
   <i type="int" name="IWAVPR">    10</i>
   <i type="int" name="NBANDS">    12</i>
   <i name="NELECT">      8.00000000</i>
   <i type="int" name="TURBO">     0</i>
   <i type="int" name="IRESTART">     0</i>
   <i type="int" name="NREBOOT">     0</i>
   <i type="int" name="NMIN">     0</i>
   <i name="EREF">      0.00000000</i>
   <separator name="electronic smearing" >
    <i type="int" name="ISMEAR">     0</i>
    <i name="SIGMA">      0.02000000</i>
    <i name="KSPACING">      0.50000000</i>
    <i type="logical" name="KGAMMA"> T  </i>
   </separator>
   <separator name="electronic projectors" >
    <i type="logical" name="LREAL"> T  </i>
    <v name="ROPT">     -0.00025000</v>
    <i type="int" name="LMAXPAW">  -100</i>
    <i type="int" name="LMAXMIX">     2</i>
    <i type="logical" name="NLSPLINE"> F  </i>
   </separator>
   <separator name="electronic startup" >
    <i type="int" name="ISTART">     0</i>
    <i type="int" name="ICHARG">     2</i>
    <i type="int" name="INIWAV">     1</i>
   </separator>
   <separator name="electronic spin" >
    <i type="int" name="ISPIN">     1</i>
    <i type="logical" name="LNONCOLLINEAR"> F  </i>
    <v name="MAGMOM">      0.60000000      0.60000000</v>
    <i name="NUPDOWN">     -1.00000000</i>
    <i type="logical" name="LSORBIT"> F  </i>
    <v name="SAXIS">      0.00000000      0.00000000      1.00000000</v>
    <i type="logical" name="LSPIRAL"> F  </i>
    <v name="QSPIRAL">      0.00000000      0.00000000      0.00000000</v>
    <i type="logical" name="LZEROZ"> F  </i>
   </separator>
   <separator name="electronic exchange-correlation" >
    <i type="logical" name="LASPH"> F  </i>
    <i type="logical" name="LMETAGGA"> F  </i>
   </separator>
   <separator name="electronic convergence" >
    <i type="int" name="NELM">   250</i>
    <i type="int" name="NELMDL">    -5</i>
    <i type="int" name="NELMIN">     6</i>
    <i name="ENINI">    520.00000000</i>
    <separator name="electronic convergence detail" >
     <i type="logical" name="LDIAG"> T  </i>
     <i type="logical" name="LSUBROT"> F  </i>
     <i name="WEIMIN">      0.00000000</i>
     <i name="EBREAK">      0.00000021</i>
     <i name="DEPER">      0.30000000</i>
     <i type="int" name="NRMM">     4</i>
     <i name="TIME">      0.40000000</i>
    </separator>
   </separator>
   <separator name="electronic mixer" >
    <i name="AMIX">      0.40000000</i>
    <i name="BMIX">      1.00000000</i>
    <i name="AMIN">      0.10000000</i>
    <i name="AMIX_MAG">      1.60000000</i>
    <i name="BMIX_MAG">      1.00000000</i>
    <separator name="electronic mixer details" >
     <i type="int" name="IMIX">     4</i>
     <i type="logical" name="MIXFIRST"> F  </i>
     <i type="int" name="MAXMIX">   -45</i>
     <i name="WC">    100.00000000</i>
     <i type="int" name="INIMIX">     1</i>
     <i type="int" name="MIXPRE">     1</i>
     <i type="int" name="MREMOVE">     5</i>
    </separator>
   </separator>
   <separator name="electronic dipolcorrection" >
    <i type="logical" name="LDIPOL"> F  </i>
    <i type="logical" name="LMONO"> F  </i>
    <i type="int" name="IDIPOL">     0</i>
    <i name="EPSILON">      1.00000000</i>
    <v name="DIPOL">   -100.00000000   -100.00000000   -100.00000000</v>
    <i name="EFIELD">      0.00000000</i>
   </separator>
  </separator>
  <separator name="grids" >
   <i type="int" name="NGX">    18</i>
   <i type="int" name="NGY">    18</i>
   <i type="int" name="NGZ">   112</i>
   <i type="int" name="NGXF">    36</i>
   <i type="int" name="NGYF">    36</i>
   <i type="int" name="NGZF">   224</i>
   <i type="logical" name="ADDGRID"> F  </i>
  </separator>
  <separator name="ionic" >
   <i type="int" name="NSW">     0</i>
   <i type="int" name="IBRION">    -1</i>
   <i type="int" name="ISIF">     2</i>
   <i name="PSTRESS">      0.00000000</i>
   <i name="EDIFFG">     -0.00500000</i>
   <i type="int" name="NFREE">     1</i>
   <i name="POTIM">      0.25000000</i>
   <i name="SMASS">     -3.00000000</i>
   <i name="SCALEE">      1.00000000</i>
  </separator>
  <separator name="ionic md" >
   <i name="TEBEG">      0.00010000</i>
   <i name="TEEND">      0.00010000</i>
   <i type="int" name="NBLOCK">     1</i>
   <i type="int" name="KBLOCK">     1</i>
   <i type="int" name="NPACO">   256</i>
   <i name="APACO">     16.00000000</i>
  </separator>
  <separator name="symmetry" >
   <i type="int" name="ISYM">     2</i>
   <i name="SYMPREC">      0.00001000</i>
  </separator>
  <separator name="dos" >
   <i type="logical" name="LORBIT"> F  </i>
   <v name="RWIGS">     -1.00000000</v>
   <i type="int" name="NEDOS">   301</i>
   <i name="EMIN">     10.00000000</i>
   <i name="EMAX">    -10.00000000</i>
   <i name="EFERMI">      0.00000000</i>
  </separator>
  <separator name="writing" >
   <i type="int" name="NWRITE">     2</i>
   <i type="logical" name="LWAVE"> F  </i>
   <i type="logical" name="LCHARG"> F  </i>
   <i type="logical" name="LPARD"> F  </i>
   <i type="logical" name="LVTOT"> F  </i>
   <i type="logical" name="LVHAR"> F  </i>
   <i type="logical" name="LELF"> F  </i>
   <i type="logical" name="LOPTICS"> F  </i>
   <v name="STM">      0.00000000      0.00000000      0.00000000      0.00000000      0.00000000      0.00000000      0.00000000</v>
  </separator>
  <separator name="performance" >
   <i type="int" name="NPAR">     6</i>
   <i type="int" name="NSIM">     4</i>
   <i type="int" name="NBLK">    -1</i>
   <i type="logical" name="LPLANE"> T  </i>
   <i type="logical" name="LSCALAPACK"> T  </i>
   <i type="logical" name="LSCAAWARE"> F  </i>
   <i type="logical" name="LSCALU"> F  </i>
   <i type="logical" name="LASYNC"> F  </i>
   <i type="logical" name="LORBITALREAL"> F  </i>
  </separator>
  <separator name="miscellaneous" >
   <i type="int" name="IDIOT">     3</i>
   <i type="logical" name="LMUSIC"> F  </i>
   <v name="POMASS">     12.01100000</v>
   <v name="DARWINR">      0.00000000</v>
   <v name="DARWINV">      1.00000000</v>
   <i type="logical" name="LCORR"> T  </i>
  </separator>
  <i type="logical" name="GGA_COMPAT"> T  </i>
  <i type="logical" name="LBERRY"> F  </i>
  <i type="int" name="ICORELEVEL">     0</i>
  <i type="logical" name="LDAU"> F  </i>
  <i type="int" name="I_CONSTRAINED_M">     0</i>
  <separator name="electronic exchange-correlation" >
   <i type="string" name="GGA">--</i>
   <i type="int" name="VOSKOWN">     0</i>
   <i type="logical" name="LHFCALC"> F  </i>
   <i type="string" name="PRECFOCK"></i>
   <i type="logical" name="LSYMGRAD"> F  </i>
   <i type="logical" name="LHFONE"> F  </i>
   <i type="logical" name="LRHFCALC"> F  </i>
   <i type="logical" name="LTHOMAS"> F  </i>
   <i type="logical" name="LMODELHF"> F  </i>
   <i name="ENCUT4O">     -1.00000000</i>
   <i type="int" name="EXXOEP">     0</i>
   <i type="int" name="FOURORBIT">     0</i>
   <i name="AEXX">      0.00000000</i>
   <i name="HFALPHA">      0.00000000</i>
   <i name="MCALPHA">      0.00000000</i>
   <i name="ALDAX">      1.00000000</i>
   <i name="AGGAX">      1.00000000</i>
   <i name="ALDAC">      1.00000000</i>
   <i name="AGGAC">      1.00000000</i>
   <i type="int" name="NKREDX">     1</i>
   <i type="int" name="NKREDY">     1</i>
   <i type="int" name="NKREDZ">     1</i>
   <i type="logical" name="SHIFTRED"> F  </i>
   <i type="logical" name="ODDONLY"> F  </i>
   <i type="logical" name="EVENONLY"> F  </i>
   <i type="int" name="LMAXFOCK">     0</i>
   <i type="int" name="NMAXFOCKAE">     0</i>
   <i type="logical" name="LFOCKAEDFT"> F  </i>
   <i name="HFSCREEN">      0.00000000</i>
   <i name="HFSCREENC">      0.00000000</i>
   <i type="int" name="NBANDSGWLOW">     0</i>
  </separator>
  <separator name="vdW DFT" >
   <i type="logical" name="LUSE_VDW"> F  </i>
   <i name="Zab_VDW">     -0.84910000</i>
   <i name="PARAM1">      0.12340000</i>
   <i name="PARAM2">      1.00000000</i>
   <i name="PARAM3">      0.00000000</i>
  </separator>
  <separator name="model GW" >
   <i type="int" name="MODEL_GW">     0</i>
   <i name="MODEL_EPS0">     23.91236370</i>
   <i name="MODEL_ALPHA">      1.00000000</i>
  </separator>
  <separator name="linear response parameters" >
   <i type="logical" name="LEPSILON"> F  </i>
   <i type="logical" name="LRPA"> F  </i>
   <i type="logical" name="LNABLA"> F  </i>
   <i type="logical" name="LVEL"> F  </i>
   <i type="int" name="KINTER">     0</i>
   <i name="CSHIFT">      0.10000000</i>
   <i name="OMEGAMAX">     -1.00000000</i>
   <i name="DEG_THRESHOLD">      0.00200000</i>
  </separator>
  <separator name="orbital magnetization" >
   <i type="logical" name="NUCIND"> F  </i>
   <v name="MAGPOS">      0.00000000      0.00000000      0.00000000</v>
   <i type="logical" name="LNICSALL"> T  </i>
   <i type="logical" name="ORBITALMAG"> F  </i>
   <i type="logical" name="LMAGBLOCH"> F  </i>
   <i type="logical" name="LCHIMAG"> F  </i>
   <i type="logical" name="LGAUGE"> T  </i>
   <i type="int" name="MAGATOM">     0</i>
   <v name="MAGDIPOL">      0.00000000      0.00000000      0.00000000</v>
   <v name="AVECCONST">      0.00000000      0.00000000      0.00000000</v>
  </separator>
  <separator name="response functions" >
   <i type="logical" name="LADDER"> F  </i>
   <i type="logical" name="LFXC"> F  </i>
   <i type="logical" name="LHARTREE"> T  </i>
   <i type="int" name="IBSE">     0</i>
   <v type="int" name="KPOINT">    -1     0     0     0</v>
   <i type="logical" name="LTCTE"> F  </i>
   <i type="logical" name="LTETE"> F  </i>
   <i type="logical" name="LTRIPLET"> F  </i>
   <i type="logical" name="LFXCEPS"> F  </i>
   <i type="logical" name="LFXHEG"> F  </i>
   <i type="int" name="NATURALO">     0</i>
   <i type="logical" name="L2ORDER"> F  </i>
   <i type="logical" name="LUSEW"> F  </i>
   <i name="ENCUTGW">     -2.00000000</i>
   <i name="ENCUTGWSOFT">     -2.00000000</i>
   <i name="ENCUTLF">     -1.00000000</i>
   <i type="int" name="LMAXMP2">    -1</i>
   <i name="SCISSOR">      0.00000000</i>
   <i type="int" name="NOMEGA">     0</i>
   <i type="int" name="NOMEGAR">     0</i>
   <i type="int" name="NBANDSGW">    -1</i>
   <i type="int" name="NBANDSO">    -1</i>
   <i type="int" name="NBANDSV">    -1</i>
   <i type="int" name="NELM">   250</i>
   <i type="int" name="NELMHF">     1</i>
   <i type="int" name="DIM">     3</i>
   <i type="int" name="ANTIRES">     0</i>
   <i name="OMEGAMAX">    -30.00000000</i>
   <i name="OMEGAMIN">    -30.00000000</i>
   <i name="OMEGATL">   -200.00000000</i>
   <i type="int" name="OMEGAGRID">     0</i>
   <i name="CSHIFT">     -0.10000000</i>
   <i type="logical" name="SELFENERGY"> F  </i>
   <i type="logical" name="LSPECTRAL"> F  </i>
   <i type="logical" name="LSPECTRALGW"> F  </i>
   <i type="logical" name="LSINGLES"> F  </i>
   <i type="logical" name="LFERMIGW"> F  </i>
   <i type="logical" name="ODDONLYGW"> F  </i>
   <i type="logical" name="EVENONLYGW"> F  </i>
   <i type="int" name="NKREDLFX">     1</i>
   <i type="int" name="NKREDLFY">     1</i>
   <i type="int" name="NKREDLFZ">     1</i>
   <i type="int" name="MAXMEM">  1800</i>
   <i type="int" name="TELESCOPE">     0</i>
   <i type="int" name="TAUPAR">     1</i>
   <i type="int" name="OMEGAPAR">    -1</i>
   <i name="LAMBDA">      1.00000000</i>
  </separator>
  <separator name="External order field" >
   <i name="OFIELD_KAPPA">      0.00000000</i>
   <v name="OFIELD_K">      0.00000000      0.00000000      0.00000000</v>
   <i name="OFIELD_Q6_NEAR">      0.00000000</i>
   <i name="OFIELD_Q6_FAR">      0.00000000</i>
   <i name="OFIELD_A">      0.00000000</i>
  </separator>
 </parameters>
 <atominfo>
  <atoms>       2 </atoms>
  <types>       1 </types>
  <array name="atoms" >
   <dimension dim="1">ion</dimension>
   <field type="string">element</field>
   <field type="int">atomtype</field>
   <set>
    <rc><c>C </c><c>   1</c></rc>
    <rc><c>C </c><c>   1</c></rc>
   </set>
  </array>
  <array name="atomtypes" >
   <dimension dim="1">type</dimension>
   <field type="int">atomspertype</field>
   <field type="string">element</field>
   <field>mass</field>
   <field>valence</field>
   <field type="string">pseudopotential</field>
   <set>
    <rc><c>   2</c><c>C </c><c>     12.01100000</c><c>      4.00000000</c><c>  PAW_PBE C 08Apr2002                   </c></rc>
   </set>
  </array>
 </atominfo>
 <structure name="initialpos" >
  <crystal>
   <varray name="basis" >
    <v>       2.48638500       0.01844200       0.00000000 </v>
    <v>      -1.22722100       2.12808000       0.00000000 </v>
    <v>       0.00000000       0.00000000      15.00000000 </v>
   </varray>
   <i name="volume">     79.70787901 </i>
   <varray name="rec_basis" >
    <v>       0.40047735       0.23094724       0.00000000 </v>
    <v>      -0.00347055       0.46790575       0.00000000 </v>
    <v>       0.00000000       0.00000000       0.06666667 </v>
   </varray>
  </crystal>
  <varray name="positions" >
   <v>       0.99993877       0.99997667       0.50000000 </v>
   <v>       0.33339423       0.66669033       0.50000000 </v>
  </varray>
 </structure>
 <calculation>
  <scstep>
   <time name="dav">    0.83    0.83</time>
   <time name="total">    0.85    0.85</time>
   <energy>
    <i name="alphaZ">      4.12238875 </i>
    <i name="ewald">    826.78943500 </i>
    <i name="hartreedc">  -1046.28872040 </i>
    <i name="XCdc">     26.29971635 </i>
    <i name="pawpsdc">    217.04409276 </i>
    <i name="pawaedc">   -218.18290438 </i>
    <i name="eentropy">     -0.00016690 </i>
    <i name="bandstr">    -68.77538592 </i>
    <i name="atom">    294.29778662 </i>
    <i name="e_fr_energy">     35.30624190 </i>
    <i name="e_wo_entrp">     35.30640879 </i>
    <i name="e_0_energy">     35.30632534 </i>
   </energy>
  </scstep>
  <scstep>
   <time name="dav">    1.07    1.07</time>
   <time name="total">    1.07    1.07</time>
   <energy>
    <i name="e_fr_energy">    -17.90933174 </i>
    <i name="e_wo_entrp">    -17.90933174 </i>
    <i name="e_0_energy">    -17.90933174 </i>
   </energy>
  </scstep>
  <scstep>
   <time name="dav">    1.27    1.27</time>
   <time name="total">    1.27    1.28</time>
   <energy>
    <i name="e_fr_energy">    -19.65775509 </i>
    <i name="e_wo_entrp">    -19.65775509 </i>
    <i name="e_0_energy">    -19.65775509 </i>
   </energy>
  </scstep>
  <scstep>
   <time name="dav">    1.18    1.18</time>
   <time name="total">    1.18    1.18</time>
   <energy>
    <i name="e_fr_energy">    -19.66506238 </i>
    <i name="e_wo_entrp">    -19.66506238 </i>
    <i name="e_0_energy">    -19.66506238 </i>
   </energy>
  </scstep>
  <scstep>
   <time name="dav">    1.23    1.23</time>
   <time name="total">    1.25    1.26</time>
   <energy>
    <i name="e_fr_energy">    -19.66506862 </i>
    <i name="e_wo_entrp">    -19.66506862 </i>
    <i name="e_0_energy">    -19.66506862 </i>
   </energy>
  </scstep>
  <scstep>
   <time name="dav">    1.06    1.06</time>
   <time name="total">    1.10    1.10</time>
   <energy>
    <i name="e_fr_energy">    -18.78796290 </i>
    <i name="e_wo_entrp">    -18.78796290 </i>
    <i name="e_0_energy">    -18.78796290 </i>
   </energy>
  </scstep>
  <scstep>
   <time name="dav">    1.16    1.16</time>
   <time name="total">    1.20    1.20</time>
   <energy>
    <i name="e_fr_energy">    -18.44955161 </i>
    <i name="e_wo_entrp">    -18.44955161 </i>
    <i name="e_0_energy">    -18.44955161 </i>
   </energy>
  </scstep>
  <scstep>
   <time name="dav">    1.15    1.15</time>
   <time name="total">    1.18    1.18</time>
   <energy>
    <i name="e_fr_energy">    -18.44224377 </i>
    <i name="e_wo_entrp">    -18.44224377 </i>
    <i name="e_0_energy">    -18.44224377 </i>
   </energy>
  </scstep>
  <scstep>
   <time name="dav">    1.06    1.06</time>
   <time name="total">    1.09    1.09</time>
   <energy>
    <i name="e_fr_energy">    -18.44037077 </i>
    <i name="e_wo_entrp">    -18.44037077 </i>
    <i name="e_0_energy">    -18.44037077 </i>
   </energy>
  </scstep>
  <scstep>
   <time name="dav">    0.92    0.92</time>
   <time name="total">    0.95    0.95</time>
   <energy>
    <i name="e_fr_energy">    -18.43897580 </i>
    <i name="e_wo_entrp">    -18.43897580 </i>
    <i name="e_0_energy">    -18.43897580 </i>
   </energy>
  </scstep>
  <scstep>
   <time name="dav">    0.88    0.88</time>
   <time name="total">    0.92    0.92</time>
   <energy>
    <i name="e_fr_energy">    -18.43916574 </i>
    <i name="e_wo_entrp">    -18.43916574 </i>
    <i name="e_0_energy">    -18.43916574 </i>
   </energy>
  </scstep>
  <scstep>
   <time name="dav">    0.90    0.90</time>
   <time name="total">    0.94    0.94</time>
   <energy>
    <i name="e_fr_energy">    -18.43939735 </i>
    <i name="e_wo_entrp">    -18.43939735 </i>
    <i name="e_0_energy">    -18.43939735 </i>
   </energy>
  </scstep>
  <scstep>
   <time name="dav">    0.90    0.90</time>
   <time name="total">    0.93    0.93</time>
   <energy>
    <i name="e_fr_energy">    -18.44010896 </i>
    <i name="e_wo_entrp">    -18.44010896 </i>
    <i name="e_0_energy">    -18.44010896 </i>
   </energy>
  </scstep>
  <scstep>
   <time name="dav">    1.09    1.09</time>
   <time name="total">    1.12    1.13</time>
   <energy>
    <i name="e_fr_energy">    -18.44016507 </i>
    <i name="e_wo_entrp">    -18.44016507 </i>
    <i name="e_0_energy">    -18.44016507 </i>
   </energy>
  </scstep>
  <scstep>
   <time name="dav">    0.88    0.88</time>
   <time name="total">    0.91    0.91</time>
   <energy>
    <i name="e_fr_energy">    -18.44026165 </i>
    <i name="e_wo_entrp">    -18.44026165 </i>
    <i name="e_0_energy">    -18.44026165 </i>
   </energy>
  </scstep>
  <scstep>
   <time name="dav">    0.92    0.92</time>
   <time name="total">    0.93    0.93</time>
   <energy>
    <i name="alphaZ">      4.12238875 </i>
    <i name="ewald">    826.78943500 </i>
    <i name="hartreedc">  -1078.71038619 </i>
    <i name="XCdc">     27.46287107 </i>
    <i name="pawpsdc">    819.12428638 </i>
    <i name="pawaedc">   -820.48570025 </i>
    <i name="eentropy">     -0.00000000 </i>
    <i name="bandstr">    -91.04095152 </i>
    <i name="atom">    294.29778662 </i>
    <i name="e_fr_energy">    -18.44027013 </i>
    <i name="e_wo_entrp">    -18.44027013 </i>
    <i name="e_0_energy">    -18.44027013 </i>
   </energy>
  </scstep>
  <structure>
   <crystal>
    <varray name="basis" >
     <v>       2.48638500       0.01844200       0.00000000 </v>
     <v>      -1.22722100       2.12808000       0.00000000 </v>
     <v>       0.00000000       0.00000000      15.00000000 </v>
    </varray>
    <i name="volume">     79.70787901 </i>
    <varray name="rec_basis" >
     <v>       0.40047735       0.23094724       0.00000000 </v>
     <v>      -0.00347055       0.46790575       0.00000000 </v>
     <v>       0.00000000       0.00000000       0.06666667 </v>
    </varray>
   </crystal>
   <varray name="positions" >
    <v>       0.99993877       0.99997667       0.50000000 </v>
    <v>       0.33339423       0.66669033       0.50000000 </v>
   </varray>
  </structure>
  <varray name="forces" >
   <v>      -0.11050924      -0.05503044       0.00000000 </v>
   <v>       0.11050924       0.05503044       0.00000000 </v>
  </varray>
  <varray name="stress" >
   <v>     -16.92806611     -14.22371718       0.00000000 </v>
   <v>     -14.22371712      -2.64400324       0.00000000 </v>
   <v>       0.00000000       0.00000000       0.04752032 </v>
  </varray>
  <energy>
   <i name="e_fr_energy">    -18.44027013 </i>
   <i name="e_wo_entrp">    -18.44027013 </i>
   <i name="e_0_energy">     -0.00000000 </i>
  </energy>
  <time name="totalsc">   17.56   17.60</time>
  <eigenvalues>
   <array>
    <dimension dim="1">band</dimension>
    <dimension dim="2">kpoint</dimension>
    <dimension dim="3">spin</dimension>
    <field>eigene</field>
    <field>occ</field>
    <set>
     <set comment="spin 1">
      <set comment="kpoint 1">
       <r>  -21.7018    1.0000 </r>
       <r>   -9.8213    1.0000 </r>
       <r>   -5.3733    1.0000 </r>
       <r>   -5.2858    1.0000 </r>
       <r>    1.0037    0.0000 </r>
       <r>    1.9161    0.0000 </r>
       <r>    2.3685    0.0000 </r>
       <r>    4.3326    0.0000 </r>
       <r>    5.0752    0.0000 </r>
       <r>    5.7275    0.0000 </r>
       <r>    6.1194    0.0000 </r>
       <r>    8.2079    0.0000 </r>
      </set>
      <set comment="kpoint 2">
       <r>  -21.6618    1.0000 </r>
       <r>   -9.7737    1.0000 </r>
       <r>   -5.5476    1.0000 </r>
       <r>   -5.3687    1.0000 </r>
       <r>    1.0579    0.0000 </r>
       <r>    1.9708    0.0000 </r>
       <r>    2.4238    0.0000 </r>
       <r>    4.3870    0.0000 </r>
       <r>    5.1271    0.0000 </r>
       <r>    5.7865    0.0000 </r>
       <r>    6.2889    0.0000 </r>
       <r>    8.2603    0.0000 </r>
      </set>
      <set comment="kpoint 3">
       <r>  -21.5418    1.0000 </r>
       <r>   -9.6312    1.0000 </r>
       <r>   -6.0414    1.0000 </r>
       <r>   -5.6011    1.0000 </r>
       <r>    1.2206    0.0000 </r>
       <r>    2.1348    0.0000 </r>
       <r>    2.5897    0.0000 </r>
       <r>    4.5501    0.0000 </r>
       <r>    5.2833    0.0000 </r>
       <r>    5.9232    0.0000 </r>
       <r>    6.7799    0.0000 </r>
       <r>    8.3761    0.0000 </r>
      </set>
      <set comment="kpoint 4">
       <r>  -21.3422    1.0000 </r>
       <r>   -9.3949    1.0000 </r>
       <r>   -6.7848    1.0000 </r>
       <r>   -5.9424    1.0000 </r>
       <r>    1.4920    0.0000 </r>
       <r>    2.4079    0.0000 </r>
       <r>    2.8663    0.0000 </r>
       <r>    4.8211    0.0000 </r>
       <r>    5.5408    0.0000 </r>
       <r>    6.0550    0.0000 </r>
       <r>    7.5480    0.0000 </r>
       <r>    7.7408    0.0000 </r>
      </set>
      <set comment="kpoint 5">
       <r>  -21.0636    1.0000 </r>
       <r>   -9.0665    1.0000 </r>
       <r>   -7.6996    1.0000 </r>
       <r>   -6.3452    1.0000 </r>
       <r>    1.8718    0.0000 </r>
       <r>    2.7891    0.0000 </r>
       <r>    3.2535    0.0000 </r>
       <r>    5.1977    0.0000 </r>
       <r>    5.8617    0.0000 </r>
       <r>    6.1563    0.0000 </r>
       <r>    6.8991    0.0000 </r>
       <r>    8.5391    0.0000 </r>
      </set>
      <set comment="kpoint 6">
       <r>  -20.7069    1.0000 </r>
       <r>   -8.7194    1.0000 </r>
       <r>   -8.6488    1.0000 </r>
       <r>   -6.7679    1.0000 </r>
       <r>    2.3598    0.0000 </r>
       <r>    3.2760    0.0000 </r>
       <r>    3.7513    0.0000 </r>
       <r>    5.6307    0.0000 </r>
       <r>    5.9684    0.0000 </r>
       <r>    5.9788    0.0000 </r>
       <r>    6.4848    0.0000 </r>
       <r>    9.5188    0.0000 </r>
      </set>
      <set comment="kpoint 7">
       <r>  -20.2734    1.0000 </r>
       <r>   -9.7940    1.0000 </r>
       <r>   -8.1466    1.0000 </r>
       <r>   -7.1782    1.0000 </r>
       <r>    2.9554    0.0000 </r>
       <r>    3.8492    0.0000 </r>
       <r>    4.3590    0.0000 </r>
       <r>    4.8297    0.0000 </r>
       <r>    5.9027    0.0000 </r>
       <r>    6.3060    0.0000 </r>
       <r>    7.0557    0.0000 </r>
       <r>   10.0848    0.0000 </r>
      </set>
      <set comment="kpoint 8">
       <r>  -19.7649    1.0000 </r>
       <r>  -10.8866    1.0000 </r>
       <r>   -7.5671    1.0000 </r>
       <r>   -7.5531    1.0000 </r>
       <r>    3.6142    0.0000 </r>
       <r>    3.6572    0.0000 </r>
       <r>    4.6433    0.0000 </r>
       <r>    5.0742    0.0000 </r>
       <r>    5.7850    0.0000 </r>
       <r>    7.0016    0.0000 </r>
       <r>    7.7516    0.0000 </r>
       <r>   10.7418    0.0000 </r>
      </set>
      <set comment="kpoint 9">
       <r>  -19.1845    1.0000 </r>
       <r>  -11.9702    1.0000 </r>
       <r>   -7.8765    1.0000 </r>
       <r>   -6.9232    1.0000 </r>
       <r>    2.5022    0.0000 </r>
       <r>    4.4618    0.0000 </r>
       <r>    5.4311    0.0000 </r>
       <r>    5.6328    0.0000 </r>
       <r>    5.9312    0.0000 </r>
       <r>    7.8058    0.0000 </r>
       <r>    8.5579    0.0000 </r>
       <r>   11.4745    0.0000 </r>
      </set>
      <set comment="kpoint 10">
       <r>  -18.5375    1.0000 </r>
       <r>  -13.0228    1.0000 </r>
       <r>   -8.1372    1.0000 </r>
       <r>   -6.2387    1.0000 </r>
       <r>    1.4123    0.0000 </r>
       <r>    5.3159    0.0000 </r>
       <r>    5.5919    0.0000 </r>
       <r>    6.3453    0.0000 </r>
       <r>    6.8557    0.0000 </r>
       <r>    8.7113    0.0000 </r>
       <r>    9.4699    0.0000 </r>
       <r>   12.2271    0.0000 </r>
      </set>
      <set comment="kpoint 11">
       <r>  -17.8362    1.0000 </r>
       <r>  -14.0208    1.0000 </r>
       <r>   -8.3281    1.0000 </r>
       <r>   -5.5630    1.0000 </r>
       <r>    0.4319    0.0000 </r>
       <r>    5.4139    0.0000 </r>
       <r>    6.4219    0.0000 </r>
       <r>    7.3641    0.0000 </r>
       <r>    7.9030    0.0000 </r>
       <r>    9.7095    0.0000 </r>
       <r>   10.4812    0.0000 </r>
       <r>   11.3218    0.0000 </r>
      </set>
      <set comment="kpoint 12">
       <r>  -17.1246    1.0000 </r>
       <r>  -14.9130    1.0000 </r>
       <r>   -8.4443    1.0000 </r>
       <r>   -5.0059    1.0000 </r>
       <r>   -0.3134    0.0000 </r>
       <r>    5.3649    0.0000 </r>
       <r>    7.5281    0.0000 </r>
       <r>    8.4791    0.0000 </r>
       <r>    9.0593    0.0000 </r>
       <r>   10.0155    0.0000 </r>
       <r>   10.7069    0.0000 </r>
       <r>   11.0690    0.0000 </r>
      </set>
      <set comment="kpoint 13">
       <r>  -16.6902    1.0000 </r>
       <r>  -15.4081    1.0000 </r>
       <r>   -8.4833    1.0000 </r>
       <r>   -4.7724    1.0000 </r>
       <r>   -0.6106    0.0000 </r>
       <r>    5.3469    0.0000 </r>
       <r>    8.6449    0.0000 </r>
       <r>    8.8237    0.0000 </r>
       <r>    9.5877    0.0000 </r>
       <r>    9.7797    0.0000 </r>
       <r>   10.3108    0.0000 </r>
       <r>   10.3412    0.0000 </r>
      </set>
      <set comment="kpoint 14">
       <r>  -21.6607    1.0000 </r>
       <r>   -9.7724    1.0000 </r>
       <r>   -5.4968    1.0000 </r>
       <r>   -5.4184    1.0000 </r>
       <r>    1.0594    0.0000 </r>
       <r>    1.9721    0.0000 </r>
       <r>    2.4252    0.0000 </r>
       <r>    4.3884    0.0000 </r>
       <r>    5.1294    0.0000 </r>
       <r>    5.8447    0.0000 </r>
       <r>    6.1911    0.0000 </r>
       <r>    8.2619    0.0000 </r>
      </set>
      <set comment="kpoint 15">
       <r>  -21.5808    1.0000 </r>
       <r>   -9.6775    1.0000 </r>
       <r>   -5.8397    1.0000 </r>
       <r>   -5.5683    1.0000 </r>
       <r>    1.1677    0.0000 </r>
       <r>    2.0814    0.0000 </r>
       <r>    2.5357    0.0000 </r>
       <r>    4.4970    0.0000 </r>
       <r>    5.2332    0.0000 </r>
       <r>    5.9076    0.0000 </r>
       <r>    6.5624    0.0000 </r>
       <r>    8.3660    0.0000 </r>
      </set>
      <set comment="kpoint 16">
       <r>  -21.4211    1.0000 </r>
       <r>   -9.4881    1.0000 </r>
       <r>   -6.4477    1.0000 </r>
       <r>   -5.8672    1.0000 </r>
       <r>    1.3847    0.0000 </r>
       <r>    2.2999    0.0000 </r>
       <r>    2.7568    0.0000 </r>
       <r>    4.7141    0.0000 </r>
       <r>    5.4416    0.0000 </r>
       <r>    6.0638    0.0000 </r>
       <r>    7.1645    0.0000 </r>
       <r>    8.0027    0.0000 </r>
      </set>
      <set comment="kpoint 17">
       <r>  -21.1821    1.0000 </r>
       <r>   -9.2058    1.0000 </r>
       <r>   -7.2628    1.0000 </r>
       <r>   -6.2546    1.0000 </r>
       <r>    1.7102    0.0000 </r>
       <r>    2.6271    0.0000 </r>
       <r>    3.0887    0.0000 </r>
       <r>    5.0384    0.0000 </r>
       <r>    5.7478    0.0000 </r>
       <r>    6.2108    0.0000 </r>
       <r>    7.2594    0.0000 </r>
       <r>    7.9664    0.0000 </r>
      </set>
      <set comment="kpoint 18">
       <r>  -20.8645    1.0000 </r>
       <r>   -8.8326    1.0000 </r>
       <r>   -8.2179    1.0000 </r>
       <r>   -6.6806    1.0000 </r>
       <r>    2.1441    0.0000 </r>
       <r>    3.0617    0.0000 </r>
       <r>    3.5312    0.0000 </r>
       <r>    5.4630    0.0000 </r>
       <r>    6.0704    0.0000 </r>
       <r>    6.3568    0.0000 </r>
       <r>    6.3594    0.0000 </r>
       <r>    8.9461    0.0000 </r>
      </set>
      <set comment="kpoint 19">
       <r>  -20.4695    1.0000 </r>
       <r>   -9.2559    1.0000 </r>
       <r>   -8.3724    1.0000 </r>
       <r>   -7.1068    1.0000 </r>
       <r>    2.6860    0.0000 </r>
       <r>    3.5978    0.0000 </r>
       <r>    4.0840    0.0000 </r>
       <r>    5.3007    0.0000 </r>
       <r>    6.0424    0.0000 </r>
       <r>    6.1149    0.0000 </r>
       <r>    6.7996    0.0000 </r>
       <r>    9.8244    0.0000 </r>
      </set>
      <set comment="kpoint 20">
       <r>  -19.9985    1.0000 </r>
       <r>  -10.3331    1.0000 </r>
       <r>   -7.8308    1.0000 </r>
       <r>   -7.5060    1.0000 </r>
       <r>    3.3349    0.0000 </r>
       <r>    4.0362    0.0000 </r>
       <r>    4.4266    0.0000 </r>
       <r>    4.7465    0.0000 </r>
       <r>    6.0245    0.0000 </r>
       <r>    6.6765    0.0000 </r>
       <r>    7.4322    0.0000 </r>
       <r>   10.4329    0.0000 </r>
      </set>
      <set comment="kpoint 21">
       <r>  -19.4540    1.0000 </r>
       <r>  -11.4170    1.0000 </r>
       <r>   -7.8594    1.0000 </r>
       <r>   -7.2175    1.0000 </r>
       <r>    3.0400    0.0000 </r>
       <r>    4.0892    0.0000 </r>
       <r>    5.0534    0.0000 </r>
       <r>    5.5115    0.0000 </r>
       <r>    5.9119    0.0000 </r>
       <r>    7.4270    0.0000 </r>
       <r>    8.1827    0.0000 </r>
       <r>   11.1226    0.0000 </r>
      </set>
      <set comment="kpoint 22">
       <r>  -18.8399    1.0000 </r>
       <r>  -12.4826    1.0000 </r>
       <r>   -8.1541    1.0000 </r>
       <r>   -6.5494    1.0000 </r>
       <r>    1.9333    0.0000 </r>
       <r>    4.9422    0.0000 </r>
       <r>    5.7757    0.0000 </r>
       <r>    5.9109    0.0000 </r>
       <r>    6.4182    0.0000 </r>
       <r>    8.2805    0.0000 </r>
       <r>    9.0416    0.0000 </r>
       <r>   11.8605    0.0000 </r>
      </set>
      <set comment="kpoint 23">
       <r>  -18.1640    1.0000 </r>
       <r>  -13.5078    1.0000 </r>
       <r>   -8.3814    1.0000 </r>
       <r>   -5.8603    1.0000 </r>
       <r>    0.8924    0.0000 </r>
       <r>    5.6127    0.0000 </r>
       <r>    5.9717    0.0000 </r>
       <r>    6.8770    0.0000 </r>
       <r>    7.4073    0.0000 </r>
       <r>    9.2298    0.0000 </r>
       <r>   10.0037    0.0000 </r>
       <r>   11.9331    0.0000 </r>
      </set>
      <set comment="kpoint 24">
       <r>  -17.4480    1.0000 </r>
       <r>  -14.4615    1.0000 </r>
       <r>   -8.5357    1.0000 </r>
       <r>   -5.2234    1.0000 </r>
       <r>    0.0115    0.0000 </r>
       <r>    5.5744    0.0000 </r>
       <r>    7.0018    0.0000 </r>
       <r>    7.9418    0.0000 </r>
       <r>    8.5093    0.0000 </r>
       <r>   10.2540    0.0000 </r>
       <r>   10.6870    0.0000 </r>
       <r>   11.0774    0.0000 </r>
      </set>
      <set comment="kpoint 25">
       <r>  -16.7986    1.0000 </r>
       <r>  -15.2311    1.0000 </r>
       <r>   -8.6134    1.0000 </r>
       <r>   -4.7968    1.0000 </r>
       <r>   -0.5397    0.0000 </r>
       <r>    5.5397    0.0000 </r>
       <r>    8.1534    0.0000 </r>
       <r>    9.0901    0.0000 </r>
       <r>    9.4054    0.0000 </r>
       <r>    9.7247    0.0000 </r>
       <r>   10.3256    0.0000 </r>
       <r>   11.0394    0.0000 </r>
      </set>
      <set comment="kpoint 26">
       <r>  -16.7977    1.0000 </r>
       <r>  -15.2323    1.0000 </r>
       <r>   -8.6131    1.0000 </r>
       <r>   -4.7964    1.0000 </r>
       <r>   -0.5402    0.0000 </r>
       <r>    5.5395    0.0000 </r>
       <r>    8.1558    0.0000 </r>
       <r>    9.0922    0.0000 </r>
       <r>    9.4027    0.0000 </r>
       <r>    9.7269    0.0000 </r>
       <r>   10.3235    0.0000 </r>
       <r>   11.0368    0.0000 </r>
      </set>
      <set comment="kpoint 27">
       <r>  -17.4465    1.0000 </r>
       <r>  -14.4635    1.0000 </r>
       <r>   -8.5347    1.0000 </r>
       <r>   -5.2223    1.0000 </r>
       <r>    0.0103    0.0000 </r>
       <r>    5.5738    0.0000 </r>
       <r>    7.0038    0.0000 </r>
       <r>    7.9439    0.0000 </r>
       <r>    8.5114    0.0000 </r>
       <r>   10.2560    0.0000 </r>
       <r>   10.6835    0.0000 </r>
       <r>   11.0794    0.0000 </r>
      </set>
      <set comment="kpoint 28">
       <r>  -18.1626    1.0000 </r>
       <r>  -13.5101    1.0000 </r>
       <r>   -8.3799    1.0000 </r>
       <r>   -5.8590    1.0000 </r>
       <r>    0.8908    0.0000 </r>
       <r>    5.6122    0.0000 </r>
       <r>    5.9729    0.0000 </r>
       <r>    6.8789    0.0000 </r>
       <r>    7.4092    0.0000 </r>
       <r>    9.2317    0.0000 </r>
       <r>   10.0056    0.0000 </r>
       <r>   11.9262    0.0000 </r>
      </set>
      <set comment="kpoint 29">
       <r>  -18.8387    1.0000 </r>
       <r>  -12.4851    1.0000 </r>
       <r>   -8.1520    1.0000 </r>
       <r>   -6.5481    1.0000 </r>
       <r>    1.9316    0.0000 </r>
       <r>    4.9440    0.0000 </r>
       <r>    5.7741    0.0000 </r>
       <r>    5.9127    0.0000 </r>
       <r>    6.4198    0.0000 </r>
       <r>    8.2823    0.0000 </r>
       <r>    9.0432    0.0000 </r>
       <r>   11.8626    0.0000 </r>
      </set>
      <set comment="kpoint 30">
       <r>  -19.4529    1.0000 </r>
       <r>  -11.4196    1.0000 </r>
       <r>   -7.8568    1.0000 </r>
       <r>   -7.2162    1.0000 </r>
       <r>    3.0384    0.0000 </r>
       <r>    4.0908    0.0000 </r>
       <r>    5.0549    0.0000 </r>
       <r>    5.5129    0.0000 </r>
       <r>    5.9101    0.0000 </r>
       <r>    7.4286    0.0000 </r>
       <r>    8.1841    0.0000 </r>
       <r>   11.1243    0.0000 </r>
      </set>
      <set comment="kpoint 31">
       <r>  -19.9976    1.0000 </r>
       <r>  -10.3359    1.0000 </r>
       <r>   -7.8297    1.0000 </r>
       <r>   -7.5029    1.0000 </r>
       <r>    3.3362    0.0000 </r>
       <r>    4.0356    0.0000 </r>
       <r>    4.4272    0.0000 </r>
       <r>    4.7478    0.0000 </r>
       <r>    6.0229    0.0000 </r>
       <r>    6.6779    0.0000 </r>
       <r>    7.4333    0.0000 </r>
       <r>   10.4344    0.0000 </r>
      </set>
      <set comment="kpoint 32">
       <r>  -20.4687    1.0000 </r>
       <r>   -9.2588    1.0000 </r>
       <r>   -8.3714    1.0000 </r>
       <r>   -7.1034    1.0000 </r>
       <r>    2.6871    0.0000 </r>
       <r>    3.5988    0.0000 </r>
       <r>    4.0851    0.0000 </r>
       <r>    5.2999    0.0000 </r>
       <r>    6.0436    0.0000 </r>
       <r>    6.1142    0.0000 </r>
       <r>    6.8004    0.0000 </r>
       <r>    9.8257    0.0000 </r>
      </set>
      <set comment="kpoint 33">
       <r>  -20.8639    1.0000 </r>
       <r>   -8.8318    1.0000 </r>
       <r>   -8.2206    1.0000 </r>
       <r>   -6.6773    1.0000 </r>
       <r>    2.1450    0.0000 </r>
       <r>    3.0625    0.0000 </r>
       <r>    3.5321    0.0000 </r>
       <r>    5.4638    0.0000 </r>
       <r>    6.0716    0.0000 </r>
       <r>    6.3569    0.0000 </r>
       <r>    6.3592    0.0000 </r>
       <r>    8.9181    0.0000 </r>
      </set>
      <set comment="kpoint 34">
       <r>  -21.1816    1.0000 </r>
       <r>   -9.2051    1.0000 </r>
       <r>   -7.2650    1.0000 </r>
       <r>   -6.2519    1.0000 </r>
       <r>    1.7109    0.0000 </r>
       <r>    2.6278    0.0000 </r>
       <r>    3.0894    0.0000 </r>
       <r>    5.0391    0.0000 </r>
       <r>    5.7490    0.0000 </r>
       <r>    6.2130    0.0000 </r>
       <r>    7.2595    0.0000 </r>
       <r>    7.9426    0.0000 </r>
      </set>
      <set comment="kpoint 35">
       <r>  -21.4207    1.0000 </r>
       <r>   -9.4877    1.0000 </r>
       <r>   -6.4487    1.0000 </r>
       <r>   -5.8658    1.0000 </r>
       <r>    1.3852    0.0000 </r>
       <r>    2.3004    0.0000 </r>
       <r>    2.7573    0.0000 </r>
       <r>    4.7146    0.0000 </r>
       <r>    5.4424    0.0000 </r>
       <r>    6.0693    0.0000 </r>
       <r>    7.1443    0.0000 </r>
       <r>    8.0030    0.0000 </r>
      </set>
      <set comment="kpoint 36">
       <r>  -21.5806    1.0000 </r>
       <r>   -9.6772    1.0000 </r>
       <r>   -5.8385    1.0000 </r>
       <r>   -5.5693    1.0000 </r>
       <r>    1.1680    0.0000 </r>
       <r>    2.0817    0.0000 </r>
       <r>    2.5360    0.0000 </r>
       <r>    4.4973    0.0000 </r>
       <r>    5.2337    0.0000 </r>
       <r>    5.9156    0.0000 </r>
       <r>    6.5461    0.0000 </r>
       <r>    8.3662    0.0000 </r>
      </set>
      <set comment="kpoint 37">
       <r>  -21.6607    1.0000 </r>
       <r>   -9.7723    1.0000 </r>
       <r>   -5.4933    1.0000 </r>
       <r>   -5.4219    1.0000 </r>
       <r>    1.0595    0.0000 </r>
       <r>    1.9722    0.0000 </r>
       <r>    2.4253    0.0000 </r>
       <r>    4.3885    0.0000 </r>
       <r>    5.1296    0.0000 </r>
       <r>    5.8510    0.0000 </r>
       <r>    6.1821    0.0000 </r>
       <r>    8.2620    0.0000 </r>
      </set>
      <set comment="kpoint 38">
       <r>  -21.5377    1.0000 </r>
       <r>   -9.6260    1.0000 </r>
       <r>   -5.9512    1.0000 </r>
       <r>   -5.6892    1.0000 </r>
       <r>    1.2264    0.0000 </r>
       <r>    2.1403    0.0000 </r>
       <r>    2.5953    0.0000 </r>
       <r>    4.5556    0.0000 </r>
       <r>    5.2915    0.0000 </r>
       <r>    5.9786    0.0000 </r>
       <r>    6.5810    0.0000 </r>
       <r>    8.4236    0.0000 </r>
      </set>
      <set comment="kpoint 39">
       <r>  -21.4181    1.0000 </r>
       <r>   -9.4842    1.0000 </r>
       <r>   -6.3796    1.0000 </r>
       <r>   -5.9361    1.0000 </r>
       <r>    1.3889    0.0000 </r>
       <r>    2.3041    0.0000 </r>
       <r>    2.7610    0.0000 </r>
       <r>    4.7183    0.0000 </r>
       <r>    5.4463    0.0000 </r>
       <r>    6.0392    0.0000 </r>
       <r>    7.1022    0.0000 </r>
       <r>    8.0138    0.0000 </r>
      </set>
      <set comment="kpoint 40">
       <r>  -21.2189    1.0000 </r>
       <r>   -9.2488    1.0000 </r>
       <r>   -7.0184    1.0000 </r>
       <r>   -6.3243    1.0000 </r>
       <r>    1.6601    0.0000 </r>
       <r>    2.5768    0.0000 </r>
       <r>    3.0374    0.0000 </r>
       <r>    4.9891    0.0000 </r>
       <r>    5.7078    0.0000 </r>
       <r>    6.2795    0.0000 </r>
       <r>    7.3957    0.0000 </r>
       <r>    7.6543    0.0000 </r>
      </set>
      <set comment="kpoint 41">
       <r>  -20.9409    1.0000 </r>
       <r>   -8.9215    1.0000 </r>
       <r>   -7.8332    1.0000 </r>
       <r>   -6.7773    1.0000 </r>
       <r>    2.0398    0.0000 </r>
       <r>    2.9578    0.0000 </r>
       <r>    3.4246    0.0000 </r>
       <r>    5.3659    0.0000 </r>
       <r>    6.0692    0.0000 </r>
       <r>    6.5435    0.0000 </r>
       <r>    6.5988    0.0000 </r>
       <r>    8.2702    0.0000 </r>
      </set>
      <set comment="kpoint 42">
       <r>  -20.5850    1.0000 </r>
       <r>   -8.7759    1.0000 </r>
       <r>   -8.5054    1.0000 </r>
       <r>   -7.2388    1.0000 </r>
       <r>    2.5277    0.0000 </r>
       <r>    3.4447    0.0000 </r>
       <r>    3.9224    0.0000 </r>
       <r>    5.6282    0.0000 </r>
       <r>    5.8890    0.0000 </r>
       <r>    6.4558    0.0000 </r>
       <r>    6.7601    0.0000 </r>
       <r>    9.0528    0.0000 </r>
      </set>
      <set comment="kpoint 43">
       <r>  -20.1525    1.0000 </r>
       <r>   -9.7957    1.0000 </r>
       <r>   -8.0047    1.0000 </r>
       <r>   -7.6756    1.0000 </r>
       <r>    3.1233    0.0000 </r>
       <r>    4.0147    0.0000 </r>
       <r>    4.5305    0.0000 </r>
       <r>    4.6503    0.0000 </r>
       <r>    6.4557    0.0000 </r>
       <r>    6.5535    0.0000 </r>
       <r>    7.2387    0.0000 </r>
       <r>   10.2172    0.0000 </r>
      </set>
      <set comment="kpoint 44">
       <r>  -19.6453    1.0000 </r>
       <r>  -10.8505    1.0000 </r>
       <r>   -8.0674    1.0000 </r>
       <r>   -7.4270    1.0000 </r>
       <r>    3.5056    0.0000 </r>
       <r>    3.8254    0.0000 </r>
       <r>    4.7797    0.0000 </r>
       <r>    5.2480    0.0000 </r>
       <r>    6.4814    0.0000 </r>
       <r>    7.1513    0.0000 </r>
       <r>    7.9216    0.0000 </r>
       <r>   10.8492    0.0000 </r>
      </set>
      <set comment="kpoint 45">
       <r>  -19.0666    1.0000 </r>
       <r>  -11.9080    1.0000 </r>
       <r>   -8.4011    1.0000 </r>
       <r>   -6.7845    1.0000 </r>
       <r>    2.4177    0.0000 </r>
       <r>    4.6321    0.0000 </r>
       <r>    5.5794    0.0000 </r>
       <r>    6.0652    0.0000 </r>
       <r>    6.3834    0.0000 </r>
       <r>    7.9491    0.0000 </r>
       <r>    8.7236    0.0000 </r>
       <r>   11.5272    0.0000 </r>
      </set>
      <set comment="kpoint 46">
       <r>  -18.4218    1.0000 </r>
       <r>  -12.9424    1.0000 </r>
       <r>   -8.6679    1.0000 </r>
       <r>   -6.1003    1.0000 </r>
       <r>    1.3557    0.0000 </r>
       <r>    5.5349    0.0000 </r>
       <r>    6.2604    0.0000 </r>
       <r>    6.4896    0.0000 </r>
       <r>    7.0271    0.0000 </r>
       <r>    8.8412    0.0000 </r>
       <r>    9.6322    0.0000 </r>
       <r>   12.1307    0.0000 </r>
      </set>
      <set comment="kpoint 47">
       <r>  -17.7233    1.0000 </r>
       <r>  -13.9277    1.0000 </r>
       <r>   -8.8619    1.0000 </r>
       <r>   -5.4226    1.0000 </r>
       <r>    0.3938    0.0000 </r>
       <r>    6.1271    0.0000 </r>
       <r>    6.5970    0.0000 </r>
       <r>    7.4979    0.0000 </r>
       <r>    8.0717    0.0000 </r>
       <r>    9.8094    0.0000 </r>
       <r>   10.6369    0.0000 </r>
       <r>   11.3755    0.0000 </r>
      </set>
      <set comment="kpoint 48">
       <r>  -17.0154    1.0000 </r>
       <r>  -14.8110    1.0000 </r>
       <r>   -8.9795    1.0000 </r>
       <r>   -4.8600    1.0000 </r>
       <r>   -0.3448    0.0000 </r>
       <r>    6.0911    0.0000 </r>
       <r>    7.6854    0.0000 </r>
       <r>    8.5892    0.0000 </r>
       <r>    9.2263    0.0000 </r>
       <r>   10.1448    0.0000 </r>
       <r>   10.6676    0.0000 </r>
       <r>   11.2253    0.0000 </r>
      </set>
      <set comment="kpoint 49">
       <r>  -16.5831    1.0000 </r>
       <r>  -15.3025    1.0000 </r>
       <r>   -9.0185    1.0000 </r>
       <r>   -4.6218    1.0000 </r>
       <r>   -0.6427    0.0000 </r>
       <r>    6.0735    0.0000 </r>
       <r>    8.7887    0.0000 </r>
       <r>    8.9791    0.0000 </r>
       <r>    9.5797    0.0000 </r>
       <r>    9.9500    0.0000 </r>
       <r>   10.4762    0.0000 </r>
       <r>   10.5097    0.0000 </r>
      </set>
      <set comment="kpoint 50">
       <r>  -17.0127    1.0000 </r>
       <r>  -14.8145    1.0000 </r>
       <r>   -8.9783    1.0000 </r>
       <r>   -4.8584    1.0000 </r>
       <r>   -0.3467    0.0000 </r>
       <r>    6.0903    0.0000 </r>
       <r>    7.6898    0.0000 </r>
       <r>    8.5935    0.0000 </r>
       <r>    9.2306    0.0000 </r>
       <r>   10.1384    0.0000 </r>
       <r>   10.6688    0.0000 </r>
       <r>   11.2241    0.0000 </r>
      </set>
      <set comment="kpoint 51">
       <r>  -17.7205    1.0000 </r>
       <r>  -13.9320    1.0000 </r>
       <r>   -8.8596    1.0000 </r>
       <r>   -5.4201    1.0000 </r>
       <r>    0.3909    0.0000 </r>
       <r>    6.1262    0.0000 </r>
       <r>    6.6002    0.0000 </r>
       <r>    7.5018    0.0000 </r>
       <r>    8.0756    0.0000 </r>
       <r>    9.8134    0.0000 </r>
       <r>   10.6409    0.0000 </r>
       <r>   11.3656    0.0000 </r>
      </set>
      <set comment="kpoint 52">
       <r>  -18.4192    1.0000 </r>
       <r>  -12.9472    1.0000 </r>
       <r>   -8.6644    1.0000 </r>
       <r>   -6.0976    1.0000 </r>
       <r>    1.3526    0.0000 </r>
       <r>    5.5387    0.0000 </r>
       <r>    6.2579    0.0000 </r>
       <r>    6.4933    0.0000 </r>
       <r>    7.0305    0.0000 </r>
       <r>    8.8449    0.0000 </r>
       <r>    9.6358    0.0000 </r>
       <r>   12.1345    0.0000 </r>
      </set>
      <set comment="kpoint 53">
       <r>  -19.0642    1.0000 </r>
       <r>  -11.9132    1.0000 </r>
       <r>   -8.3966    1.0000 </r>
       <r>   -6.7819    1.0000 </r>
       <r>    2.4147    0.0000 </r>
       <r>    4.6354    0.0000 </r>
       <r>    5.5826    0.0000 </r>
       <r>    6.0683    0.0000 </r>
       <r>    6.3805    0.0000 </r>
       <r>    7.9524    0.0000 </r>
       <r>    8.7266    0.0000 </r>
       <r>   11.5310    0.0000 </r>
      </set>
      <set comment="kpoint 54">
       <r>  -19.6433    1.0000 </r>
       <r>  -10.8560    1.0000 </r>
       <r>   -8.0620    1.0000 </r>
       <r>   -7.4246    1.0000 </r>
       <r>    3.5030    0.0000 </r>
       <r>    3.8283    0.0000 </r>
       <r>    4.7826    0.0000 </r>
       <r>    5.2508    0.0000 </r>
       <r>    6.4785    0.0000 </r>
       <r>    7.1542    0.0000 </r>
       <r>    7.9241    0.0000 </r>
       <r>   10.8524    0.0000 </r>
      </set>
      <set comment="kpoint 55">
       <r>  -20.1507    1.0000 </r>
       <r>   -9.8013    1.0000 </r>
       <r>   -8.0027    1.0000 </r>
       <r>   -7.6696    1.0000 </r>
       <r>    3.1257    0.0000 </r>
       <r>    4.0165    0.0000 </r>
       <r>    4.5329    0.0000 </r>
       <r>    4.6491    0.0000 </r>
       <r>    6.4583    0.0000 </r>
       <r>    6.5519    0.0000 </r>
       <r>    7.2403    0.0000 </r>
       <r>   10.2199    0.0000 </r>
      </set>
      <set comment="kpoint 56">
       <r>  -20.5836    1.0000 </r>
       <r>   -8.7812    1.0000 </r>
       <r>   -8.5036    1.0000 </r>
       <r>   -7.2329    1.0000 </r>
       <r>    2.5298    0.0000 </r>
       <r>    3.4466    0.0000 </r>
       <r>    3.9244    0.0000 </r>
       <r>    5.6271    0.0000 </r>
       <r>    5.8914    0.0000 </r>
       <r>    6.4577    0.0000 </r>
       <r>    6.7597    0.0000 </r>
       <r>    9.0087    0.0000 </r>
      </set>
      <set comment="kpoint 57">
       <r>  -20.9398    1.0000 </r>
       <r>   -8.9201    1.0000 </r>
       <r>   -7.8372    1.0000 </r>
       <r>   -6.7726    1.0000 </r>
       <r>    2.0414    0.0000 </r>
       <r>    2.9593    0.0000 </r>
       <r>    3.4262    0.0000 </r>
       <r>    5.3674    0.0000 </r>
       <r>    6.0714    0.0000 </r>
       <r>    6.5446    0.0000 </r>
       <r>    6.5989    0.0000 </r>
       <r>    8.2298    0.0000 </r>
      </set>
      <set comment="kpoint 58">
       <r>  -21.2181    1.0000 </r>
       <r>   -9.2477    1.0000 </r>
       <r>   -7.0194    1.0000 </r>
       <r>   -6.3226    1.0000 </r>
       <r>    1.6613    0.0000 </r>
       <r>    2.5780    0.0000 </r>
       <r>    3.0386    0.0000 </r>
       <r>    4.9902    0.0000 </r>
       <r>    5.7095    0.0000 </r>
       <r>    6.2819    0.0000 </r>
       <r>    7.3963    0.0000 </r>
       <r>    7.6216    0.0000 </r>
      </set>
      <set comment="kpoint 59">
       <r>  -21.4175    1.0000 </r>
       <r>   -9.4835    1.0000 </r>
       <r>   -6.3765    1.0000 </r>
       <r>   -5.9389    1.0000 </r>
       <r>    1.3897    0.0000 </r>
       <r>    2.3048    0.0000 </r>
       <r>    2.7618    0.0000 </r>
       <r>    4.7191    0.0000 </r>
       <r>    5.4475    0.0000 </r>
       <r>    6.0427    0.0000 </r>
       <r>    7.0790    0.0000 </r>
       <r>    8.0147    0.0000 </r>
      </set>
      <set comment="kpoint 60">
       <r>  -21.5374    1.0000 </r>
       <r>   -9.6257    1.0000 </r>
       <r>   -5.9453    1.0000 </r>
       <r>   -5.6950    1.0000 </r>
       <r>    1.2268    0.0000 </r>
       <r>    2.1407    0.0000 </r>
       <r>    2.5957    0.0000 </r>
       <r>    4.5560    0.0000 </r>
       <r>    5.2921    0.0000 </r>
       <r>    5.9847    0.0000 </r>
       <r>    6.5656    0.0000 </r>
       <r>    8.4241    0.0000 </r>
      </set>
      <set comment="kpoint 61">
       <r>  -21.5776    1.0000 </r>
       <r>   -9.6733    1.0000 </r>
       <r>   -5.7812    1.0000 </r>
       <r>   -5.6230    1.0000 </r>
       <r>    1.1724    0.0000 </r>
       <r>    2.0858    0.0000 </r>
       <r>    2.5402    0.0000 </r>
       <r>    4.5015    0.0000 </r>
       <r>    5.2406    0.0000 </r>
       <r>    6.1628    0.0000 </r>
       <r>    6.1784    0.0000 </r>
       <r>    8.3715    0.0000 </r>
      </set>
      <set comment="kpoint 62">
       <r>  -21.3331    1.0000 </r>
       <r>   -9.3832    1.0000 </r>
       <r>   -6.6694    1.0000 </r>
       <r>   -6.0586    1.0000 </r>
       <r>    1.5047    0.0000 </r>
       <r>    2.4203    0.0000 </r>
       <r>    2.8788    0.0000 </r>
       <r>    4.8338    0.0000 </r>
       <r>    5.5538    0.0000 </r>
       <r>    5.9821    0.0000 </r>
       <r>    7.3518    0.0000 </r>
       <r>    7.7668    0.0000 </r>
      </set>
      <set comment="kpoint 63">
       <r>  -21.1740    1.0000 </r>
       <r>   -9.1952    1.0000 </r>
       <r>   -7.1443    1.0000 </r>
       <r>   -6.3799    1.0000 </r>
       <r>    1.7214    0.0000 </r>
       <r>    2.6383    0.0000 </r>
       <r>    3.0997    0.0000 </r>
       <r>    5.0502    0.0000 </r>
       <r>    5.7480    0.0000 </r>
       <r>    6.0845    0.0000 </r>
       <r>    7.2843    0.0000 </r>
       <r>    7.9315    0.0000 </r>
      </set>
      <set comment="kpoint 64">
       <r>  -20.9358    1.0000 </r>
       <r>   -8.9149    1.0000 </r>
       <r>   -7.7531    1.0000 </r>
       <r>   -6.8645    1.0000 </r>
       <r>    2.0467    0.0000 </r>
       <r>    2.9649    0.0000 </r>
       <r>    3.4314    0.0000 </r>
       <r>    5.3743    0.0000 </r>
       <r>    6.0626    0.0000 </r>
       <r>    6.4292    0.0000 </r>
       <r>    6.6132    0.0000 </r>
       <r>    8.3364    0.0000 </r>
      </set>
      <set comment="kpoint 65">
       <r>  -20.6195    1.0000 </r>
       <r>   -8.5444    1.0000 </r>
       <r>   -8.4946    1.0000 </r>
       <r>   -7.4150    1.0000 </r>
       <r>    2.4805    0.0000 </r>
       <r>    3.3992    0.0000 </r>
       <r>    3.8739    0.0000 </r>
       <r>    5.7752    0.0000 </r>
       <r>    5.8255    0.0000 </r>
       <r>    6.4888    0.0000 </r>
       <r>    6.8969    0.0000 </r>
[...]
       <r>   10.0604    0.0000 </r>
       <r>   11.2288    0.0000 </r>
       <r>   11.4144    0.0000 </r>
      </set>
      <set comment="kpoint 283">
       <r>  -17.3384    1.0000 </r>
       <r>  -13.1575    1.0000 </r>
       <r>  -10.8607    1.0000 </r>
       <r>   -4.8952    1.0000 </r>
       <r>    0.3502    0.0000 </r>
       <r>    7.0740    0.0000 </r>
       <r>    7.7945    0.0000 </r>
       <r>    8.5176    0.0000 </r>
       <r>    8.6237    0.0000 </r>
       <r>    9.8136    0.0000 </r>
       <r>   10.7662    0.0000 </r>
       <r>   11.1841    0.0000 </r>
      </set>
      <set comment="kpoint 284">
       <r>  -17.3735    1.0000 </r>
       <r>  -12.8913    1.0000 </r>
       <r>  -11.1381    1.0000 </r>
       <r>   -4.9145    1.0000 </r>
       <r>    0.4253    0.0000 </r>
       <r>    7.0227    0.0000 </r>
       <r>    7.7204    0.0000 </r>
       <r>    8.5398    0.0000 </r>
       <r>    9.6590    0.0000 </r>
       <r>    9.7250    0.0000 </r>
       <r>    9.8027    0.0000 </r>
       <r>   11.1138    0.0000 </r>
      </set>
      <set comment="kpoint 285">
       <r>  -17.3363    1.0000 </r>
       <r>  -13.1500    1.0000 </r>
       <r>  -10.8714    1.0000 </r>
       <r>   -4.8920    1.0000 </r>
       <r>    0.3511    0.0000 </r>
       <r>    7.0761    0.0000 </r>
       <r>    7.7954    0.0000 </r>
       <r>    8.4833    0.0000 </r>
       <r>    8.6177    0.0000 </r>
       <r>    9.8133    0.0000 </r>
       <r>   10.8035    0.0000 </r>
       <r>   11.1888    0.0000 </r>
      </set>
      <set comment="kpoint 286">
       <r>  -17.2276    1.0000 </r>
       <r>  -13.6835    1.0000 </r>
       <r>  -10.3182    1.0000 </r>
       <r>   -4.8316    1.0000 </r>
       <r>    0.1515    0.0000 </r>
       <r>    7.1970    0.0000 </r>
       <r>    7.3702    0.0000 </r>
       <r>    8.0073    0.0000 </r>
       <r>    8.7676    0.0000 </r>
       <r>   10.0605    0.0000 </r>
       <r>   11.2454    0.0000 </r>
       <r>   11.4337    0.0000 </r>
      </set>
      <set comment="kpoint 287">
       <r>  -17.0516    1.0000 </r>
       <r>  -14.2616    1.0000 </r>
       <r>   -9.7319    1.0000 </r>
       <r>   -4.7448    1.0000 </r>
       <r>   -0.1140    0.0000 </r>
       <r>    6.2805    0.0000 </r>
       <r>    7.5150    0.0000 </r>
       <r>    8.3323    0.0000 </r>
       <r>    9.0443    0.0000 </r>
       <r>   10.4166    0.0000 </r>
       <r>   11.0207    0.0000 </r>
       <r>   11.5857    0.0000 </r>
      </set>
      <set comment="kpoint 288">
       <r>  -16.8192    1.0000 </r>
       <r>  -14.8032    1.0000 </r>
       <r>   -9.2269    1.0000 </r>
       <r>   -4.6513    1.0000 </r>
       <r>   -0.3741    0.0000 </r>
       <r>    5.4553    0.0000 </r>
       <r>    7.8857    0.0000 </r>
       <r>    8.7517    0.0000 </r>
       <r>    9.4312    0.0000 </r>
       <r>   10.3278    0.0000 </r>
       <r>   10.7509    0.0000 </r>
       <r>   11.4258    0.0000 </r>
      </set>
      <set comment="kpoint 289">
       <r>  -16.5660    1.0000 </r>
       <r>  -15.2481    1.0000 </r>
       <r>   -8.8834    1.0000 </r>
       <r>   -4.5777    1.0000 </r>
       <r>   -0.5631    0.0000 </r>
       <r>    4.9179    0.0000 </r>
       <r>    8.3595    0.0000 </r>
       <r>    9.2517    0.0000 </r>
       <r>    9.6025    0.0000 </r>
       <r>    9.9311    0.0000 </r>
       <r>   10.4753    0.0000 </r>
       <r>   11.2462    0.0000 </r>
      </set>
      <set comment="kpoint 290">
       <r>  -16.4260    1.0000 </r>
       <r>  -15.4529    1.0000 </r>
       <r>   -8.7610    1.0000 </r>
       <r>   -4.5495    1.0000 </r>
       <r>   -0.6322    0.0000 </r>
       <r>    4.7306    0.0000 </r>
       <r>    8.8688    0.0000 </r>
       <r>    9.0064    0.0000 </r>
       <r>    9.7079    0.0000 </r>
       <r>    9.9914    0.0000 </r>
       <r>   10.5245    0.0000 </r>
       <r>   10.5455    0.0000 </r>
      </set>
     </set>
    </set>
   </array>
  </eigenvalues>
  <separator name="orbital magnetization" >
   <v name="MAGDIPOLOUT">      0.00000000      0.00000000      0.00000000</v>
  </separator>
  <dos>
   <i name="efermi">     -2.30544503 </i>
   <total>
    <array>
     <dimension dim="1">gridpoints</dimension>
     <dimension dim="2">spin</dimension>
     <field>energy</field>
     <field>total</field>
     <field>integrated</field>
     <set>
      <set comment="spin 1">
       <r>   -23.4432     0.0000     0.0000 </r>
       <r>   -23.3155     0.0000     0.0000 </r>
       <r>   -23.1878     0.0000     0.0000 </r>
       <r>   -23.0601     0.0000     0.0000 </r>
       <r>   -22.9324     0.0000     0.0000 </r>
       <r>   -22.8047     0.0000     0.0000 </r>
       <r>   -22.6770     0.0000     0.0000 </r>
       <r>   -22.5492     0.0000     0.0000 </r>
       <r>   -22.4215     0.0000     0.0000 </r>
       <r>   -22.2938     0.0000     0.0000 </r>
       <r>   -22.1661     0.0000     0.0000 </r>
       <r>   -22.0384     0.0000     0.0000 </r>
       <r>   -21.9107     0.0000     0.0000 </r>
       <r>   -21.7830     0.0000     0.0000 </r>
       <r>   -21.6553     0.1343     0.0172 </r>
       <r>   -21.5276     0.3474     0.0615 </r>
       <r>   -21.3999     0.3221     0.1027 </r>
       <r>   -21.2722     0.2022     0.1285 </r>
       <r>   -21.1445     0.4797     0.1897 </r>
       <r>   -21.0168     0.1705     0.2116 </r>
       <r>   -20.8891     0.3304     0.2538 </r>
       <r>   -20.7614     0.3240     0.2951 </r>
       <r>   -20.6337     0.1786     0.3179 </r>
       <r>   -20.5060     0.4743     0.3785 </r>
       <r>   -20.3783     0.3258     0.4201 </r>
       <r>   -20.2506     0.0713     0.4292 </r>
       <r>   -20.1229     0.6071     0.5068 </r>
       <r>   -19.9952     0.2012     0.5325 </r>
       <r>   -19.8675     0.2624     0.5660 </r>
       <r>   -19.7398     0.3309     0.6082 </r>
       <r>   -19.6121     0.4781     0.6693 </r>
       <r>   -19.4844     0.1709     0.6912 </r>
       <r>   -19.3567     0.3222     0.7323 </r>
       <r>   -19.2290     0.2502     0.7643 </r>
       <r>   -19.1013     0.5487     0.8344 </r>
       <r>   -18.9736     0.3127     0.8744 </r>
       <r>   -18.8459     0.0665     0.8829 </r>
       <r>   -18.7182     0.4203     0.9366 </r>
       <r>   -18.5905     0.4472     0.9938 </r>
       <r>   -18.4628     0.3074     1.0330 </r>
       <r>   -18.3351     0.3052     1.0720 </r>
       <r>   -18.2074     0.1158     1.0868 </r>
       <r>   -18.0797     0.3851     1.1360 </r>
       <r>   -17.9520     0.5512     1.2064 </r>
       <r>   -17.8243     0.3114     1.2462 </r>
       <r>   -17.6966     0.3143     1.2863 </r>
       <r>   -17.5689     0.2142     1.3137 </r>
       <r>   -17.4412     0.3641     1.3602 </r>
       <r>   -17.3135     0.4981     1.4238 </r>
       <r>   -17.1858     0.4053     1.4756 </r>
       <r>   -17.0581     0.2086     1.5023 </r>
       <r>   -16.9303     0.2736     1.5373 </r>
       <r>   -16.8026     0.4049     1.5890 </r>
       <r>   -16.6749     0.4922     1.6518 </r>
       <r>   -16.5472     0.6988     1.7411 </r>
       <r>   -16.4195     0.1766     1.7640 </r>
       <r>   -16.2918     0.3259     1.8056 </r>
       <r>   -16.1641     0.0825     1.8161 </r>
       <r>   -16.0364     0.4290     1.8709 </r>
       <r>   -15.9087     0.4125     1.9236 </r>
       <r>   -15.7810     0.0541     1.9306 </r>
       <r>   -15.6533     0.0544     1.9375 </r>
       <r>   -15.5256     0.0479     1.9436 </r>
       <r>   -15.3979     0.3533     1.9887 </r>
       <r>   -15.2702     0.2526     2.0210 </r>
       <r>   -15.1425     0.3513     2.0660 </r>
       <r>   -15.0148     0.3701     2.1132 </r>
       <r>   -14.8871     0.2430     2.1443 </r>
       <r>   -14.7594     0.3954     2.1948 </r>
       <r>   -14.6317     0.5007     2.2587 </r>
       <r>   -14.5040     0.3882     2.3083 </r>
       <r>   -14.3763     0.5283     2.3758 </r>
       <r>   -14.2486     0.4380     2.4317 </r>
       <r>   -14.1209     0.2668     2.4658 </r>
       <r>   -13.9932     0.2786     2.5015 </r>
       <r>   -13.8655     0.4569     2.5598 </r>
       <r>   -13.7378     0.3202     2.6007 </r>
       <r>   -13.6101     0.2175     2.6285 </r>
       <r>   -13.4824     0.3230     2.6697 </r>
       <r>   -13.3547     0.4495     2.7271 </r>
       <r>   -13.2270     0.2126     2.7543 </r>
       <r>   -13.0993     0.2508     2.7863 </r>
       <r>   -12.9716     0.2028     2.8122 </r>
       <r>   -12.8439     0.4063     2.8641 </r>
       <r>   -12.7162     0.4762     2.9250 </r>
       <r>   -12.5885     0.1029     2.9383 </r>
       <r>   -12.4608     0.3949     2.9887 </r>
       <r>   -12.3331     0.3648     3.0354 </r>
       <r>   -12.2054     0.4257     3.0898 </r>
       <r>   -12.0777     0.3029     3.1285 </r>
       <r>   -11.9500     0.1635     3.1493 </r>
       <r>   -11.8223     0.5532     3.2200 </r>
       <r>   -11.6946     0.4897     3.2825 </r>
       <r>   -11.5669     0.4407     3.3388 </r>
       <r>   -11.4392     0.1276     3.3551 </r>
       <r>   -11.3114     0.2717     3.3898 </r>
       <r>   -11.1837     0.6093     3.4676 </r>
       <r>   -11.0560     0.4979     3.5312 </r>
       <r>   -10.9283     0.2161     3.5588 </r>
       <r>   -10.8006     0.5185     3.6251 </r>
       <r>   -10.6729     0.4866     3.6872 </r>
       <r>   -10.5452     0.1442     3.7056 </r>
       <r>   -10.4175     0.5376     3.7743 </r>
       <r>   -10.2898     0.6083     3.8520 </r>
       <r>   -10.1621     0.4273     3.9066 </r>
       <r>   -10.0344     0.3769     3.9548 </r>
       <r>    -9.9067     0.3580     4.0005 </r>
       <r>    -9.7790     0.5828     4.0750 </r>
       <r>    -9.6513     0.7597     4.1721 </r>
       <r>    -9.5236     0.7933     4.2734 </r>
       <r>    -9.3959     0.4655     4.3329 </r>
       <r>    -9.2682     0.8812     4.4454 </r>
       <r>    -9.1405     1.1884     4.5972 </r>
       <r>    -9.0128     0.7456     4.6924 </r>
       <r>    -8.8851     0.7732     4.7912 </r>
       <r>    -8.7574     1.1526     4.9385 </r>
       <r>    -8.6297     0.9216     5.0564 </r>
       <r>    -8.5020     1.2348     5.2141 </r>
       <r>    -8.3743     1.1104     5.3561 </r>
       <r>    -8.2466     0.5607     5.4278 </r>
       <r>    -8.1189     0.5123     5.4932 </r>
       <r>    -7.9912     1.2139     5.6483 </r>
       <r>    -7.8635     0.6197     5.7275 </r>
       <r>    -7.7358     0.9922     5.8542 </r>
       <r>    -7.6081     0.3563     5.8997 </r>
       <r>    -7.4804     0.8336     6.0062 </r>
       <r>    -7.3527     0.7068     6.0965 </r>
       <r>    -7.2250     0.6346     6.1776 </r>
       <r>    -7.0973     0.6694     6.2631 </r>
       <r>    -6.9696     0.4147     6.3162 </r>
       <r>    -6.8419     0.7515     6.4122 </r>
       <r>    -6.7142     0.7751     6.5112 </r>
       <r>    -6.5865     0.3748     6.5591 </r>
       <r>    -6.4588     0.2901     6.5961 </r>
       <r>    -6.3311     1.0712     6.7329 </r>
       <r>    -6.2034     0.6629     6.8177 </r>
       <r>    -6.0757     0.3819     6.8665 </r>
       <r>    -5.9480     0.4739     6.9270 </r>
       <r>    -5.8203     0.5886     7.0022 </r>
       <r>    -5.6925     0.5797     7.0762 </r>
       <r>    -5.5648     0.6713     7.1620 </r>
       <r>    -5.4371     0.5024     7.2262 </r>
       <r>    -5.3094     0.4716     7.2865 </r>
       <r>    -5.1817     0.3396     7.3298 </r>
       <r>    -5.0540     0.1379     7.3475 </r>
       <r>    -4.9263     0.6848     7.4349 </r>
       <r>    -4.7986     0.6777     7.5215 </r>
       <r>    -4.6709     0.3721     7.5691 </r>
       <r>    -4.5432     0.4268     7.6236 </r>
       <r>    -4.4155     0.2409     7.6544 </r>
       <r>    -4.2878     0.6724     7.7403 </r>
       <r>    -4.1601     0.5529     7.8109 </r>
       <r>    -4.0324     0.0112     7.8125 </r>
       <r>    -3.9047     0.1749     7.8348 </r>
       <r>    -3.7770     0.0475     7.8409 </r>
       <r>    -3.6493     0.3725     7.8885 </r>
       <r>    -3.5216     0.2603     7.9217 </r>
       <r>    -3.3939     0.1231     7.9374 </r>
       <r>    -3.2662     0.0152     7.9394 </r>
       <r>    -3.1385     0.0936     7.9514 </r>
       <r>    -3.0108     0.1097     7.9654 </r>
       <r>    -2.8831     0.1246     7.9813 </r>
       <r>    -2.7554     0.0919     7.9931 </r>
       <r>    -2.6277     0.0000     7.9931 </r>
       <r>    -2.5000     0.0000     7.9931 </r>
       <r>    -2.3723     0.0531     7.9998 </r>
       <r>    -2.2446     0.0013     8.0000 </r>
       <r>    -2.1169     0.0544     8.0069 </r>
       <r>    -1.9892     0.0000     8.0069 </r>
       <r>    -1.8615     0.0000     8.0069 </r>
       <r>    -1.7338     0.0335     8.0112 </r>
       <r>    -1.6061     0.1776     8.0339 </r>
       <r>    -1.4784     0.1152     8.0486 </r>
       <r>    -1.3507     0.1086     8.0625 </r>
       <r>    -1.2230     0.0544     8.0694 </r>
       <r>    -1.0953     0.0742     8.0789 </r>
       <r>    -0.9676     0.4836     8.1407 </r>
       <r>    -0.8399     0.3667     8.1875 </r>
       <r>    -0.7122     0.0556     8.1947 </r>
       <r>    -0.5845     0.6358     8.2758 </r>
       <r>    -0.4568     0.6604     8.3602 </r>
       <r>    -0.3291     0.6818     8.4473 </r>
       <r>    -0.2014     0.3846     8.4965 </r>
       <r>    -0.0736     0.1838     8.5200 </r>
       <r>     0.0541     0.4594     8.5787 </r>
       <r>     0.1818     0.1200     8.5941 </r>
       <r>     0.3095     0.2152     8.6216 </r>
       <r>     0.4372     0.5976     8.6979 </r>
       <r>     0.5649     0.3808     8.7465 </r>
       <r>     0.6926     0.0000     8.7465 </r>
       <r>     0.8203     0.2524     8.7788 </r>
       <r>     0.9480     0.3368     8.8218 </r>
       <r>     1.0757     0.3112     8.8615 </r>
       <r>     1.2034     0.4420     8.9180 </r>
       <r>     1.3311     0.4583     8.9766 </r>
       <r>     1.4588     0.7425     9.0714 </r>
       <r>     1.5865     0.2560     9.1042 </r>
       <r>     1.7142     0.2701     9.1387 </r>
       <r>     1.8419     0.5209     9.2052 </r>
       <r>     1.9696     0.4056     9.2570 </r>
       <r>     2.0973     0.9896     9.3834 </r>
       <r>     2.2250     0.7732     9.4822 </r>
       <r>     2.3527     0.3499     9.5269 </r>
       <r>     2.4804     0.7768     9.6261 </r>
       <r>     2.6081     1.1577     9.7740 </r>
       <r>     2.7358     0.6208     9.8534 </r>
       <r>     2.8635     0.8325     9.9597 </r>
       <r>     2.9912     0.5530    10.0303 </r>
       <r>     3.1189     1.8107    10.2617 </r>
       <r>     3.2466     0.4710    10.3220 </r>
       <r>     3.3743     0.4463    10.3790 </r>
       <r>     3.5020     1.0239    10.5098 </r>
       <r>     3.6297     0.8819    10.6225 </r>
       <r>     3.7574     0.8886    10.7360 </r>
       <r>     3.8851     0.7277    10.8290 </r>
       <r>     4.0128     1.2505    10.9887 </r>
       <r>     4.1405     0.9179    11.1060 </r>
       <r>     4.2682     0.3666    11.1528 </r>
       <r>     4.3959     0.4406    11.2090 </r>
       <r>     4.5236     1.4049    11.3885 </r>
       <r>     4.6513     1.2117    11.5433 </r>
       <r>     4.7790     1.3256    11.7126 </r>
       <r>     4.9067     1.2948    11.8781 </r>
       <r>     5.0344     1.1329    12.0229 </r>
       <r>     5.1621     1.8995    12.2655 </r>
       <r>     5.2898     1.3739    12.4413 </r>
       <r>     5.4176     1.9489    12.6903 </r>
       <r>     5.5453     2.0463    12.9517 </r>
       <r>     5.6730     1.7187    13.1714 </r>
       <r>     5.8007     2.0295    13.4307 </r>
       <r>     5.9284     1.7997    13.6608 </r>
       <r>     6.0561     2.5232    13.9831 </r>
       <r>     6.1838     2.6243    14.3183 </r>
       <r>     6.3115     1.9432    14.5666 </r>
       <r>     6.4392     1.7506    14.7903 </r>
       <r>     6.5669     2.3069    15.0849 </r>
       <r>     6.6946     1.5014    15.2768 </r>
       <r>     6.8223     1.5592    15.4759 </r>
       <r>     6.9500     2.0295    15.7352 </r>
       <r>     7.0777     1.8249    15.9683 </r>
       <r>     7.2054     1.5908    16.1715 </r>
       <r>     7.3331     1.7688    16.3975 </r>
       <r>     7.4608     1.4047    16.5769 </r>
       <r>     7.5885     1.7455    16.7999 </r>
       <r>     7.7162     1.7338    17.0214 </r>
       <r>     7.8439     1.7222    17.2414 </r>
       <r>     7.9716     1.8685    17.4801 </r>
       <r>     8.0993     1.6875    17.6956 </r>
       <r>     8.2270     0.9552    17.8177 </r>
       <r>     8.3547     1.8303    18.0515 </r>
       <r>     8.4824     2.7430    18.4018 </r>
       <r>     8.6101     2.4724    18.7177 </r>
       <r>     8.7378     1.8088    18.9487 </r>
       <r>     8.8655     1.2189    19.1044 </r>
       <r>     8.9932     1.4042    19.2838 </r>
       <r>     9.1209     1.1542    19.4313 </r>
       <r>     9.2486     2.2655    19.7207 </r>
       <r>     9.3763     1.5517    19.9190 </r>
       <r>     9.5040     1.3167    20.0871 </r>
       <r>     9.6317     1.4652    20.2743 </r>
       <r>     9.7594     1.7828    20.5020 </r>
       <r>     9.8871     1.5708    20.7029 </r>
       <r>    10.0148     1.5467    20.9005 </r>
       <r>    10.1425     1.2918    21.0655 </r>
       <r>    10.2702     2.1609    21.3415 </r>
       <r>    10.3979     1.5432    21.5388 </r>
       <r>    10.5256     2.3327    21.8367 </r>
       <r>    10.6533     1.5702    22.0375 </r>
       <r>    10.7810     1.8562    22.2746 </r>
       <r>    10.9087     1.5941    22.4783 </r>
       <r>    11.0365     1.1130    22.6206 </r>
       <r>    11.1642     1.3913    22.7983 </r>
       <r>    11.2919     1.6283    23.0062 </r>
       <r>    11.4196     0.8937    23.1204 </r>
       <r>    11.5473     1.2509    23.2802 </r>
       <r>    11.6750     0.9317    23.3992 </r>
       <r>    11.8027     0.8957    23.5136 </r>
       <r>    11.9304     1.1674    23.6628 </r>
       <r>    12.0581     0.6350    23.7439 </r>
       <r>    12.1858     0.6164    23.8227 </r>
       <r>    12.3135     0.4089    23.8750 </r>
       <r>    12.4412     0.0000    23.8750 </r>
       <r>    12.5689     0.1378    23.8926 </r>
       <r>    12.6966     0.1974    23.9178 </r>
       <r>    12.8243     0.3292    23.9598 </r>
       <r>    12.9520     0.2055    23.9861 </r>
       <r>    13.0797     0.0002    23.9861 </r>
       <r>    13.2074     0.1086    24.0000 </r>
       <r>    13.3351     0.0000    24.0000 </r>
       <r>    13.4628     0.0000    24.0000 </r>
       <r>    13.5905     0.0000    24.0000 </r>
       <r>    13.7182     0.0000    24.0000 </r>
       <r>    13.8459     0.0000    24.0000 </r>
       <r>    13.9736     0.0000    24.0000 </r>
       <r>    14.1013     0.0000    24.0000 </r>
       <r>    14.2290     0.0000    24.0000 </r>
       <r>    14.3567     0.0000    24.0000 </r>
       <r>    14.4844     0.0000    24.0000 </r>
       <r>    14.6121     0.0000    24.0000 </r>
       <r>    14.7398     0.0000    24.0000 </r>
       <r>    14.8675     0.0000    24.0000 </r>
      </set>
     </set>
    </array>
   </total>
  </dos>
 </calculation>
 <structure name="finalpos" >
  <crystal>
   <varray name="basis" >
    <v>       2.48638500       0.01844200       0.00000000 </v>
    <v>      -1.22722100       2.12808000       0.00000000 </v>
    <v>       0.00000000       0.00000000      15.00000000 </v>
   </varray>
   <i name="volume">     79.70787901 </i>
   <varray name="rec_basis" >
    <v>       0.40047735       0.23094724       0.00000000 </v>
    <v>      -0.00347055       0.46790575       0.00000000 </v>
    <v>       0.00000000       0.00000000       0.06666667 </v>
   </varray>
  </crystal>
  <varray name="positions" >
   <v>       0.99993877       0.99997667       0.50000000 </v>
   <v>       0.33339423       0.66669033       0.50000000 </v>
  </varray>
 </structure>
</modeling>
