<?xml version="1.0" encoding="ISO-8859-1"?>
<modeling>
 <generator>
  <i name="program" type="string">vasp </i>
  <i name="version" type="string">5.4.1  </i>
  <i name="subversion" type="string">24Jun15 (build Nov 20 2020 10:29:34) complex                          parallel </i>
  <i name="platform" type="string">IFC91_ompi </i>
  <i name="date" type="string">2021 09 09 </i>
  <i name="time" type="string">14:55:12 </i>
 </generator>
 <incar>
  <i type="string" name="PREC">a</i>
  <i type="string" name="ALGO"> Normal</i>
  <i type="int" name="ISPIN">     1</i>
  <i type="int" name="ICHARG">     2</i>
  <i type="int" name="NELM">   250</i>
  <i type="int" name="NELMDL">    -5</i>
  <i type="int" name="NELMIN">     6</i>
  <i type="int" name="IBRION">     2</i>
  <i name="EDIFF">      0.00001000</i>
  <i name="EDIFFG">     -0.01000000</i>
  <i type="int" name="NSW">   200</i>
  <i type="int" name="ISIF">     2</i>
  <i name="ENCUT">    520.00000000</i>
  <i name="POTIM">      0.30000000</i>
  <i type="logical" name="LREAL"> F  </i>
  <i type="int" name="ISMEAR">     0</i>
  <i name="SIGMA">      0.02000000</i>
  <i type="logical" name="LWAVE"> F  </i>
  <i type="logical" name="LCHARG"> F  </i>
  <i type="logical" name="LAECHG"> F  </i>
  <v type="int" name="KPOINT_BSE">    -1     0     0     0</v>
  <i type="int" name="NELM">   250</i>
 </incar>
 <kpoints>
  <generation param="Gamma">
   <v type="int" name="divisions">      15       13        1 </v>
   <v name="usershift">      0.00000000       0.00000000       0.00000000 </v>
   <v name="genvec1">      0.06666667       0.00000000       0.00000000 </v>
   <v name="genvec2">      0.00000000       0.07692308       0.00000000 </v>
   <v name="genvec3">      0.00000000       0.00000000       1.00000000 </v>
   <v name="shift">      0.00000000       0.00000000       0.00000000 </v>
  </generation>
  <varray name="kpointlist" >
   <v>       0.00000000       0.00000000       0.00000000 </v>
   <v>       0.06666667       0.00000000       0.00000000 </v>
   <v>       0.13333333       0.00000000       0.00000000 </v>
   <v>       0.20000000       0.00000000       0.00000000 </v>
   <v>       0.26666667       0.00000000       0.00000000 </v>
   <v>       0.33333333       0.00000000       0.00000000 </v>
   <v>       0.40000000       0.00000000       0.00000000 </v>
   <v>       0.46666667       0.00000000       0.00000000 </v>
   <v>       0.00000000       0.07692308       0.00000000 </v>
   <v>       0.06666667       0.07692308       0.00000000 </v>
   <v>       0.13333333       0.07692308       0.00000000 </v>
   <v>       0.20000000       0.07692308       0.00000000 </v>
   <v>       0.26666667       0.07692308       0.00000000 </v>
   <v>       0.33333333       0.07692308       0.00000000 </v>
   <v>       0.40000000       0.07692308       0.00000000 </v>
   <v>       0.46666667       0.07692308       0.00000000 </v>
   <v>       0.00000000       0.15384615       0.00000000 </v>
   <v>       0.06666667       0.15384615       0.00000000 </v>
   <v>       0.13333333       0.15384615       0.00000000 </v>
   <v>       0.20000000       0.15384615       0.00000000 </v>
   <v>       0.26666667       0.15384615       0.00000000 </v>
   <v>       0.33333333       0.15384615       0.00000000 </v>
   <v>       0.40000000       0.15384615       0.00000000 </v>
   <v>       0.46666667       0.15384615       0.00000000 </v>
   <v>       0.00000000       0.23076923       0.00000000 </v>
   <v>       0.06666667       0.23076923       0.00000000 </v>
   <v>       0.13333333       0.23076923       0.00000000 </v>
   <v>       0.20000000       0.23076923       0.00000000 </v>
   <v>       0.26666667       0.23076923       0.00000000 </v>
   <v>       0.33333333       0.23076923       0.00000000 </v>
   <v>       0.40000000       0.23076923       0.00000000 </v>
   <v>       0.46666667       0.23076923       0.00000000 </v>
   <v>       0.00000000       0.30769231       0.00000000 </v>
   <v>       0.06666667       0.30769231       0.00000000 </v>
   <v>       0.13333333       0.30769231       0.00000000 </v>
   <v>       0.20000000       0.30769231       0.00000000 </v>
   <v>       0.26666667       0.30769231       0.00000000 </v>
   <v>       0.33333333       0.30769231       0.00000000 </v>
   <v>       0.40000000       0.30769231       0.00000000 </v>
   <v>       0.46666667       0.30769231       0.00000000 </v>
   <v>       0.00000000       0.38461538       0.00000000 </v>
   <v>       0.06666667       0.38461538       0.00000000 </v>
   <v>       0.13333333       0.38461538       0.00000000 </v>
   <v>       0.20000000       0.38461538       0.00000000 </v>
   <v>       0.26666667       0.38461538       0.00000000 </v>
   <v>       0.33333333       0.38461538       0.00000000 </v>
   <v>       0.40000000       0.38461538       0.00000000 </v>
   <v>       0.46666667       0.38461538       0.00000000 </v>
   <v>       0.00000000       0.46153846       0.00000000 </v>
   <v>       0.06666667       0.46153846       0.00000000 </v>
   <v>       0.13333333       0.46153846       0.00000000 </v>
   <v>       0.20000000       0.46153846       0.00000000 </v>
   <v>       0.26666667       0.46153846       0.00000000 </v>
   <v>       0.33333333       0.46153846       0.00000000 </v>
   <v>       0.40000000       0.46153846       0.00000000 </v>
   <v>       0.46666667       0.46153846       0.00000000 </v>
  </varray>
  <varray name="weights" >
   <v>       0.00512821 </v>
   <v>       0.01025641 </v>
   <v>       0.01025641 </v>
   <v>       0.01025641 </v>
   <v>       0.01025641 </v>
   <v>       0.01025641 </v>
   <v>       0.01025641 </v>
   <v>       0.01025641 </v>
   <v>       0.01025641 </v>
   <v>       0.02051282 </v>
   <v>       0.02051282 </v>
   <v>       0.02051282 </v>
   <v>       0.02051282 </v>
   <v>       0.02051282 </v>
   <v>       0.02051282 </v>
   <v>       0.02051282 </v>
   <v>       0.01025641 </v>
   <v>       0.02051282 </v>
   <v>       0.02051282 </v>
   <v>       0.02051282 </v>
   <v>       0.02051282 </v>
   <v>       0.02051282 </v>
   <v>       0.02051282 </v>
   <v>       0.02051282 </v>
   <v>       0.01025641 </v>
   <v>       0.02051282 </v>
   <v>       0.02051282 </v>
   <v>       0.02051282 </v>
   <v>       0.02051282 </v>
   <v>       0.02051282 </v>
   <v>       0.02051282 </v>
   <v>       0.02051282 </v>
   <v>       0.01025641 </v>
   <v>       0.02051282 </v>
   <v>       0.02051282 </v>
   <v>       0.02051282 </v>
   <v>       0.02051282 </v>
   <v>       0.02051282 </v>
   <v>       0.02051282 </v>
   <v>       0.02051282 </v>
   <v>       0.01025641 </v>
   <v>       0.02051282 </v>
   <v>       0.02051282 </v>
   <v>       0.02051282 </v>
   <v>       0.02051282 </v>
   <v>       0.02051282 </v>
   <v>       0.02051282 </v>
   <v>       0.02051282 </v>
   <v>       0.01025641 </v>
   <v>       0.02051282 </v>
   <v>       0.02051282 </v>
   <v>       0.02051282 </v>
   <v>       0.02051282 </v>
   <v>       0.02051282 </v>
   <v>       0.02051282 </v>
   <v>       0.02051282 </v>
  </varray>
 </kpoints>
 <parameters>
  <separator name="general" >
   <i type="string" name="SYSTEM">unknown system</i>
   <i type="logical" name="LCOMPAT"> F  </i>
  </separator>
  <separator name="electronic" >
   <i type="string" name="PREC">a</i>
   <i name="ENMAX">    520.00000000</i>
   <i name="ENAUG">    531.35600000</i>
   <i name="EDIFF">      0.00001000</i>
   <i type="int" name="IALGO">    38</i>
   <i type="int" name="IWAVPR">    11</i>
   <i type="int" name="NBANDS">    32</i>
   <i name="NELECT">     52.00000000</i>
   <i type="int" name="TURBO">     0</i>
   <i type="int" name="IRESTART">     0</i>
   <i type="int" name="NREBOOT">     0</i>
   <i type="int" name="NMIN">     0</i>
   <i name="EREF">      0.00000000</i>
   <separator name="electronic smearing" >
    <i type="int" name="ISMEAR">     0</i>
    <i name="SIGMA">      0.02000000</i>
    <i name="KSPACING">      0.50000000</i>
    <i type="logical" name="KGAMMA"> T  </i>
   </separator>
   <separator name="electronic projectors" >
    <i type="logical" name="LREAL"> F  </i>
    <v name="ROPT">      0.00000000      0.00000000</v>
    <i type="int" name="LMAXPAW">  -100</i>
    <i type="int" name="LMAXMIX">     2</i>
    <i type="logical" name="NLSPLINE"> F  </i>
   </separator>
   <separator name="electronic startup" >
    <i type="int" name="ISTART">     0</i>
    <i type="int" name="ICHARG">     2</i>
    <i type="int" name="INIWAV">     1</i>
   </separator>
   <separator name="electronic spin" >
    <i type="int" name="ISPIN">     1</i>
    <i type="logical" name="LNONCOLLINEAR"> F  </i>
    <v name="MAGMOM">      1.00000000      1.00000000      1.00000000      1.00000000      1.00000000      1.00000000</v>
    <i name="NUPDOWN">     -1.00000000</i>
    <i type="logical" name="LSORBIT"> F  </i>
    <v name="SAXIS">      0.00000000      0.00000000      1.00000000</v>
    <i type="logical" name="LSPIRAL"> F  </i>
    <v name="QSPIRAL">      0.00000000      0.00000000      0.00000000</v>
    <i type="logical" name="LZEROZ"> F  </i>
   </separator>
   <separator name="electronic exchange-correlation" >
    <i type="logical" name="LASPH"> F  </i>
    <i type="logical" name="LMETAGGA"> F  </i>
   </separator>
   <separator name="electronic convergence" >
    <i type="int" name="NELM">   250</i>
    <i type="int" name="NELMDL">    -5</i>
    <i type="int" name="NELMIN">     6</i>
    <i name="ENINI">    520.00000000</i>
    <separator name="electronic convergence detail" >
     <i type="logical" name="LDIAG"> T  </i>
     <i type="logical" name="LSUBROT"> F  </i>
     <i name="WEIMIN">      0.00100000</i>
     <i name="EBREAK">      0.00000008</i>
     <i name="DEPER">      0.30000000</i>
     <i type="int" name="NRMM">     4</i>
     <i name="TIME">      0.40000000</i>
    </separator>
   </separator>
   <separator name="electronic mixer" >
    <i name="AMIX">      0.40000000</i>
    <i name="BMIX">      1.00000000</i>
    <i name="AMIN">      0.10000000</i>
    <i name="AMIX_MAG">      1.60000000</i>
    <i name="BMIX_MAG">      1.00000000</i>
    <separator name="electronic mixer details" >
     <i type="int" name="IMIX">     4</i>
     <i type="logical" name="MIXFIRST"> F  </i>
     <i type="int" name="MAXMIX">   -45</i>
     <i name="WC">    100.00000000</i>
     <i type="int" name="INIMIX">     1</i>
     <i type="int" name="MIXPRE">     1</i>
     <i type="int" name="MREMOVE">     5</i>
    </separator>
   </separator>
   <separator name="electronic dipolcorrection" >
    <i type="logical" name="LDIPOL"> F  </i>
    <i type="logical" name="LMONO"> F  </i>
    <i type="int" name="IDIPOL">     0</i>
    <i name="EPSILON">      1.00000000</i>
    <v name="DIPOL">   -100.00000000   -100.00000000   -100.00000000</v>
    <i name="EFIELD">      0.00000000</i>
   </separator>
  </separator>
  <separator name="grids" >
   <i type="int" name="NGX">    36</i>
   <i type="int" name="NGY">    42</i>
   <i type="int" name="NGZ">   140</i>
   <i type="int" name="NGXF">    72</i>
   <i type="int" name="NGYF">    84</i>
   <i type="int" name="NGZF">   280</i>
   <i type="logical" name="ADDGRID"> F  </i>
  </separator>
  <separator name="ionic" >
   <i type="int" name="NSW">   200</i>
   <i type="int" name="IBRION">     2</i>
   <i type="int" name="ISIF">     2</i>
   <i name="PSTRESS">      0.00000000</i>
   <i name="EDIFFG">     -0.01000000</i>
   <i type="int" name="NFREE">     1</i>
   <i name="POTIM">      0.30000000</i>
   <i name="SMASS">     -3.00000000</i>
   <i name="SCALEE">      1.00000000</i>
  </separator>
  <separator name="ionic md" >
   <i name="TEBEG">      0.00010000</i>
   <i name="TEEND">      0.00010000</i>
   <i type="int" name="NBLOCK">     1</i>
   <i type="int" name="KBLOCK">   200</i>
   <i type="int" name="NPACO">   256</i>
   <i name="APACO">     16.00000000</i>
  </separator>
  <separator name="symmetry" >
   <i type="int" name="ISYM">     2</i>
   <i name="SYMPREC">      0.00001000</i>
  </separator>
  <separator name="dos" >
   <i type="logical" name="LORBIT"> F  </i>
   <v name="RWIGS">     -1.00000000     -1.00000000</v>
   <i type="int" name="NEDOS">   301</i>
   <i name="EMIN">     10.00000000</i>
   <i name="EMAX">    -10.00000000</i>
   <i name="EFERMI">      0.00000000</i>
  </separator>
  <separator name="writing" >
   <i type="int" name="NWRITE">     2</i>
   <i type="logical" name="LWAVE"> F  </i>
   <i type="logical" name="LCHARG"> F  </i>
   <i type="logical" name="LPARD"> F  </i>
   <i type="logical" name="LVTOT"> F  </i>
   <i type="logical" name="LVHAR"> F  </i>
   <i type="logical" name="LELF"> F  </i>
   <i type="logical" name="LOPTICS"> F  </i>
   <v name="STM">      0.00000000      0.00000000      0.00000000      0.00000000      0.00000000      0.00000000      0.00000000</v>
  </separator>
  <separator name="performance" >
   <i type="int" name="NPAR">     4</i>
   <i type="int" name="NSIM">     4</i>
   <i type="int" name="NBLK">    -1</i>
   <i type="logical" name="LPLANE"> T  </i>
   <i type="logical" name="LSCALAPACK"> T  </i>
   <i type="logical" name="LSCAAWARE"> F  </i>
   <i type="logical" name="LSCALU"> F  </i>
   <i type="logical" name="LASYNC"> F  </i>
   <i type="logical" name="LORBITALREAL"> F  </i>
  </separator>
  <separator name="miscellaneous" >
   <i type="int" name="IDIOT">     3</i>
   <i type="logical" name="LMUSIC"> F  </i>
   <v name="POMASS">     72.61000000     78.96000000</v>
   <v name="DARWINR">      0.00000000      0.00000000</v>
   <v name="DARWINV">      1.00000000      1.00000000</v>
   <i type="logical" name="LCORR"> T  </i>
  </separator>
  <i type="logical" name="GGA_COMPAT"> T  </i>
  <i type="logical" name="LBERRY"> F  </i>
  <i type="int" name="ICORELEVEL">     0</i>
  <i type="logical" name="LDAU"> F  </i>
  <i type="int" name="I_CONSTRAINED_M">     0</i>
  <separator name="electronic exchange-correlation" >
   <i type="string" name="GGA">--</i>
   <i type="int" name="VOSKOWN">     0</i>
   <i type="logical" name="LHFCALC"> F  </i>
   <i type="string" name="PRECFOCK"></i>
   <i type="logical" name="LSYMGRAD"> F  </i>
   <i type="logical" name="LHFONE"> F  </i>
   <i type="logical" name="LRHFCALC"> F  </i>
   <i type="logical" name="LTHOMAS"> F  </i>
   <i type="logical" name="LMODELHF"> F  </i>
   <i name="ENCUT4O">     -1.00000000</i>
   <i type="int" name="EXXOEP">     0</i>
   <i type="int" name="FOURORBIT">     0</i>
   <i name="AEXX">      0.00000000</i>
   <i name="HFALPHA">      0.00000000</i>
   <i name="MCALPHA">      0.00000000</i>
   <i name="ALDAX">      1.00000000</i>
   <i name="AGGAX">      1.00000000</i>
   <i name="ALDAC">      1.00000000</i>
   <i name="AGGAC">      1.00000000</i>
   <i type="int" name="NKREDX">     1</i>
   <i type="int" name="NKREDY">     1</i>
   <i type="int" name="NKREDZ">     1</i>
   <i type="logical" name="SHIFTRED"> F  </i>
   <i type="logical" name="ODDONLY"> F  </i>
   <i type="logical" name="EVENONLY"> F  </i>
   <i type="int" name="LMAXFOCK">     0</i>
   <i type="int" name="NMAXFOCKAE">     0</i>
   <i type="logical" name="LFOCKAEDFT"> F  </i>
   <i name="HFSCREEN">      0.00000000</i>
   <i name="HFSCREENC">      0.00000000</i>
   <i type="int" name="NBANDSGWLOW">     0</i>
  </separator>
  <separator name="vdW DFT" >
   <i type="logical" name="LUSE_VDW"> F  </i>
   <i name="Zab_VDW">     -0.84910000</i>
   <i name="PARAM1">      0.12340000</i>
   <i name="PARAM2">      1.00000000</i>
   <i name="PARAM3">      0.00000000</i>
  </separator>
  <separator name="model GW" >
   <i type="int" name="MODEL_GW">     0</i>
   <i name="MODEL_EPS0">     48.66879091</i>
   <i name="MODEL_ALPHA">      1.00000000</i>
  </separator>
  <separator name="linear response parameters" >
   <i type="logical" name="LEPSILON"> F  </i>
   <i type="logical" name="LRPA"> F  </i>
   <i type="logical" name="LNABLA"> F  </i>
   <i type="logical" name="LVEL"> F  </i>
   <i type="int" name="KINTER">     0</i>
   <i name="CSHIFT">      0.10000000</i>
   <i name="OMEGAMAX">     -1.00000000</i>
   <i name="DEG_THRESHOLD">      0.00200000</i>
  </separator>
  <separator name="orbital magnetization" >
   <i type="logical" name="NUCIND"> F  </i>
   <v name="MAGPOS">      0.00000000      0.00000000      0.00000000</v>
   <i type="logical" name="LNICSALL"> T  </i>
   <i type="logical" name="ORBITALMAG"> F  </i>
   <i type="logical" name="LMAGBLOCH"> F  </i>
   <i type="logical" name="LCHIMAG"> F  </i>
   <i type="logical" name="LGAUGE"> T  </i>
   <i type="int" name="MAGATOM">     0</i>
   <v name="MAGDIPOL">      0.00000000      0.00000000      0.00000000</v>
   <v name="AVECCONST">      0.00000000      0.00000000      0.00000000</v>
  </separator>
  <separator name="response functions" >
   <i type="logical" name="LADDER"> F  </i>
   <i type="logical" name="LFXC"> F  </i>
   <i type="logical" name="LHARTREE"> T  </i>
   <i type="int" name="IBSE">     0</i>
   <v type="int" name="KPOINT">    -1     0     0     0</v>
   <i type="logical" name="LTCTE"> F  </i>
   <i type="logical" name="LTETE"> F  </i>
   <i type="logical" name="LTRIPLET"> F  </i>
   <i type="logical" name="LFXCEPS"> F  </i>
   <i type="logical" name="LFXHEG"> F  </i>
   <i type="int" name="NATURALO">     0</i>
   <i type="logical" name="L2ORDER"> F  </i>
   <i type="logical" name="LUSEW"> F  </i>
   <i name="ENCUTGW">     -2.00000000</i>
   <i name="ENCUTGWSOFT">     -2.00000000</i>
   <i name="ENCUTLF">     -1.00000000</i>
   <i type="int" name="LMAXMP2">    -1</i>
   <i name="SCISSOR">      0.00000000</i>
   <i type="int" name="NOMEGA">     0</i>
   <i type="int" name="NOMEGAR">     0</i>
   <i type="int" name="NBANDSGW">    -1</i>
   <i type="int" name="NBANDSO">    -1</i>
   <i type="int" name="NBANDSV">    -1</i>
   <i type="int" name="NELM">   250</i>
   <i type="int" name="NELMHF">     1</i>
   <i type="int" name="DIM">     3</i>
   <i type="int" name="ANTIRES">     0</i>
   <i name="OMEGAMAX">    -30.00000000</i>
   <i name="OMEGAMIN">    -30.00000000</i>
   <i name="OMEGATL">   -200.00000000</i>
   <i type="int" name="OMEGAGRID">     0</i>
   <i name="CSHIFT">     -0.10000000</i>
   <i type="logical" name="SELFENERGY"> F  </i>
   <i type="logical" name="LSPECTRAL"> F  </i>
   <i type="logical" name="LSPECTRALGW"> F  </i>
   <i type="logical" name="LSINGLES"> F  </i>
   <i type="logical" name="LFERMIGW"> F  </i>
   <i type="logical" name="ODDONLYGW"> F  </i>
   <i type="logical" name="EVENONLYGW"> F  </i>
   <i type="int" name="NKREDLFX">     1</i>
   <i type="int" name="NKREDLFY">     1</i>
   <i type="int" name="NKREDLFZ">     1</i>
   <i type="int" name="MAXMEM">  1800</i>
   <i type="int" name="TELESCOPE">     0</i>
   <i type="int" name="TAUPAR">     1</i>
   <i type="int" name="OMEGAPAR">    -1</i>
   <i name="LAMBDA">      1.00000000</i>
  </separator>
  <separator name="External order field" >
   <i name="OFIELD_KAPPA">      0.00000000</i>
   <v name="OFIELD_K">      0.00000000      0.00000000      0.00000000</v>
   <i name="OFIELD_Q6_NEAR">      0.00000000</i>
   <i name="OFIELD_Q6_FAR">      0.00000000</i>
   <i name="OFIELD_A">      0.00000000</i>
  </separator>
 </parameters>
 <atominfo>
  <atoms>       6 </atoms>
  <types>       2 </types>
  <array name="atoms" >
   <dimension dim="1">ion</dimension>
   <field type="string">element</field>
   <field type="int">atomtype</field>
   <set>
    <rc><c>Ge</c><c>   1</c></rc>
    <rc><c>Ge</c><c>   1</c></rc>
    <rc><c>Se</c><c>   2</c></rc>
    <rc><c>Se</c><c>   2</c></rc>
    <rc><c>Se</c><c>   2</c></rc>
    <rc><c>Se</c><c>   2</c></rc>
   </set>
  </array>
  <array name="atomtypes" >
   <dimension dim="1">type</dimension>
   <field type="int">atomspertype</field>
   <field type="string">element</field>
   <field>mass</field>
   <field>valence</field>
   <field type="string">pseudopotential</field>
   <set>
    <rc><c>   2</c><c>Ge</c><c>     72.61000000</c><c>     14.00000000</c><c>  PAW_PBE Ge_d 03Jul2007                </c></rc>
    <rc><c>   4</c><c>Se</c><c>     78.96000000</c><c>      6.00000000</c><c>  PAW_PBE Se 06Sep2000                  </c></rc>
   </set>
  </array>
 </atominfo>
 <structure name="initialpos" >
  <crystal>
   <varray name="basis" >
    <v>       4.90607700       0.00000000       0.00000000 </v>
    <v>       0.00000000       5.48699800       0.00000000 </v>
    <v>       0.00000000       0.00000000      18.07929100 </v>
   </varray>
   <i name="volume">    486.68790912 </i>
   <varray name="rec_basis" >
    <v>       0.20382884       0.00000000       0.00000000 </v>
    <v>       0.00000000       0.18224902       0.00000000 </v>
    <v>       0.00000000       0.00000000       0.05531190 </v>
   </varray>
  </crystal>
  <varray name="positions" >
   <v>       0.50000000       0.50000000       0.50000000 </v>
   <v>       0.00000000       0.00000000       0.50000000 </v>
   <v>       0.25000000       0.25000000       0.41502600 </v>
   <v>       0.75000000       0.75000000       0.41502600 </v>
   <v>       0.75000000       0.25000000       0.58497400 </v>
   <v>       0.25000000       0.75000000       0.58497400 </v>
  </varray>
 </structure>
 <calculation>
  <scstep>
   <time name="dav">    1.63    1.63</time>
   <time name="total">    1.66    1.67</time>
   <energy>
    <i name="alphaZ">     47.19870169 </i>
    <i name="ewald">   5094.02987976 </i>
    <i name="hartreedc">  -9882.43718859 </i>
    <i name="XCdc">    142.63316193 </i>
    <i name="pawpsdc">   4514.43351212 </i>
    <i name="pawaedc">  -5329.26418529 </i>
    <i name="eentropy">     -0.00037790 </i>
    <i name="bandstr">   -366.22150553 </i>
    <i name="atom">   6220.98622430 </i>
    <i name="e_fr_energy">    441.35822250 </i>
    <i name="e_wo_entrp">    441.35860040 </i>
    <i name="e_0_energy">    441.35841145 </i>
   </energy>
  </scstep>
  <scstep>
   <time name="dav">    1.73    1.73</time>
   <time name="total">    1.73    1.73</time>
   <energy>
    <i name="e_fr_energy">     45.75891339 </i>
    <i name="e_wo_entrp">     45.75958734 </i>
    <i name="e_0_energy">     45.75925037 </i>
   </energy>
  </scstep>
  <scstep>
   <time name="dav">    1.83    1.83</time>
   <time name="total">    1.83    1.83</time>
   <energy>
    <i name="e_fr_energy">    -21.41773515 </i>
    <i name="e_wo_entrp">    -21.41773515 </i>
    <i name="e_0_energy">    -21.41773515 </i>
   </energy>
  </scstep>
  <scstep>
   <time name="dav">    1.67    1.67</time>
   <time name="total">    1.67    1.67</time>
   <energy>
    <i name="e_fr_energy">    -24.74738120 </i>
    <i name="e_wo_entrp">    -24.74738120 </i>
    <i name="e_0_energy">    -24.74738120 </i>
   </energy>
  </scstep>
  <scstep>
   <time name="dav">    1.96    1.97</time>
   <time name="total">    2.06    2.06</time>
   <energy>
    <i name="e_fr_energy">    -24.85783280 </i>
    <i name="e_wo_entrp">    -24.85783280 </i>
    <i name="e_0_energy">    -24.85783280 </i>
   </energy>
  </scstep>
  <scstep>
   <time name="dav">    1.90    1.90</time>
   <time name="total">    2.02    2.03</time>
   <energy>
    <i name="e_fr_energy">    -24.36020083 </i>
    <i name="e_wo_entrp">    -24.36020083 </i>
    <i name="e_0_energy">    -24.36020083 </i>
   </energy>
  </scstep>
  <scstep>
   <time name="dav">    1.72    1.72</time>
   <time name="total">    1.84    1.84</time>
   <energy>
    <i name="e_fr_energy">    -24.26081320 </i>
    <i name="e_wo_entrp">    -24.26081320 </i>
    <i name="e_0_energy">    -24.26081320 </i>
   </energy>
  </scstep>
  <scstep>
   <time name="dav">    1.82    1.82</time>
   <time name="total">    1.94    1.94</time>
   <energy>
    <i name="e_fr_energy">    -24.25465666 </i>
    <i name="e_wo_entrp">    -24.25465666 </i>
    <i name="e_0_energy">    -24.25465666 </i>
   </energy>
  </scstep>
  <scstep>
   <time name="dav">    1.84    1.84</time>
   <time name="total">    1.96    1.96</time>
   <energy>
    <i name="e_fr_energy">    -24.25401797 </i>
    <i name="e_wo_entrp">    -24.25401797 </i>
    <i name="e_0_energy">    -24.25401797 </i>
   </energy>
  </scstep>
  <scstep>
   <time name="dav">    1.93    1.94</time>
   <time name="total">    2.05    2.06</time>
   <energy>
    <i name="e_fr_energy">    -24.25375608 </i>
    <i name="e_wo_entrp">    -24.25375608 </i>
    <i name="e_0_energy">    -24.25375608 </i>
   </energy>
  </scstep>
  <scstep>
   <time name="dav">    1.56    1.56</time>
   <time name="total">    1.68    1.68</time>
   <energy>
    <i name="e_fr_energy">    -24.25351338 </i>
    <i name="e_wo_entrp">    -24.25351338 </i>
    <i name="e_0_energy">    -24.25351338 </i>
   </energy>
  </scstep>
  <scstep>
   <time name="dav">    1.52    1.53</time>
   <time name="total">    1.64    1.65</time>
   <energy>
    <i name="e_fr_energy">    -24.25364903 </i>
    <i name="e_wo_entrp">    -24.25364903 </i>
    <i name="e_0_energy">    -24.25364903 </i>
   </energy>
  </scstep>
  <scstep>
   <time name="dav">    1.51    1.51</time>
   <time name="total">    1.63    1.63</time>
   <energy>
    <i name="e_fr_energy">    -24.25392252 </i>
    <i name="e_wo_entrp">    -24.25392252 </i>
    <i name="e_0_energy">    -24.25392252 </i>
   </energy>
  </scstep>
  <scstep>
   <time name="dav">    1.43    1.43</time>
   <time name="total">    1.55    1.55</time>
   <energy>
    <i name="e_fr_energy">    -24.25402929 </i>
    <i name="e_wo_entrp">    -24.25402929 </i>
    <i name="e_0_energy">    -24.25402929 </i>
   </energy>
  </scstep>
  <scstep>
   <time name="dav">    1.41    1.41</time>
   <time name="total">    1.53    1.53</time>
   <energy>
    <i name="e_fr_energy">    -24.25408542 </i>
    <i name="e_wo_entrp">    -24.25408542 </i>
    <i name="e_0_energy">    -24.25408542 </i>
   </energy>
  </scstep>
  <scstep>
   <time name="dav">    1.34    1.34</time>
   <time name="total">    1.46    1.47</time>
   <energy>
    <i name="e_fr_energy">    -24.25415338 </i>
    <i name="e_wo_entrp">    -24.25415338 </i>
    <i name="e_0_energy">    -24.25415338 </i>
   </energy>
  </scstep>
  <scstep>
   <time name="dav">    1.26    1.26</time>
   <time name="total">    1.38    1.38</time>
   <energy>
    <i name="e_fr_energy">    -24.25420222 </i>
    <i name="e_wo_entrp">    -24.25420222 </i>
    <i name="e_0_energy">    -24.25420222 </i>
   </energy>
  </scstep>
  <scstep>
   <time name="dav">    1.32    1.32</time>
   <time name="total">    1.44    1.44</time>
   <energy>
    <i name="e_fr_energy">    -24.25423198 </i>
    <i name="e_wo_entrp">    -24.25423198 </i>
    <i name="e_0_energy">    -24.25423198 </i>
   </energy>
  </scstep>
  <scstep>
   <time name="dav">    1.33    1.34</time>
   <time name="total">    1.36    1.37</time>
   <energy>
    <i name="alphaZ">     47.19870169 </i>
    <i name="ewald">   5094.02987976 </i>
    <i name="hartreedc">  -9888.26071314 </i>
    <i name="XCdc">    143.18346940 </i>
    <i name="pawpsdc">   5811.34403003 </i>
    <i name="pawaedc">  -6631.78656626 </i>
    <i name="eentropy">     -0.00000000 </i>
    <i name="bandstr">   -820.94926282 </i>
    <i name="atom">   6220.98622430 </i>
    <i name="e_fr_energy">    -24.25423702 </i>
    <i name="e_wo_entrp">    -24.25423702 </i>
    <i name="e_0_energy">    -24.25423702 </i>
   </energy>
  </scstep>
  <structure>
   <crystal>
    <varray name="basis" >
     <v>       4.90607700       0.00000000       0.00000000 </v>
     <v>       0.00000000       5.48699800       0.00000000 </v>
     <v>       0.00000000       0.00000000      18.07929100 </v>
    </varray>
    <i name="volume">    486.68790912 </i>
    <varray name="rec_basis" >
     <v>       0.20382884       0.00000000       0.00000000 </v>
     <v>       0.00000000       0.18224902       0.00000000 </v>
     <v>       0.00000000       0.00000000       0.05531190 </v>
    </varray>
   </crystal>
   <varray name="positions" >
    <v>       0.50000000       0.50000000       0.50000000 </v>
    <v>       0.00000000       0.00000000       0.50000000 </v>
    <v>       0.25000000       0.25000000       0.41502600 </v>
    <v>       0.75000000       0.75000000       0.41502600 </v>
    <v>       0.75000000       0.25000000       0.58497400 </v>
    <v>       0.25000000       0.75000000       0.58497400 </v>
   </varray>
  </structure>
  <varray name="forces" >
   <v>       0.00000000      -0.00000000       0.00000000 </v>
   <v>      -0.00000000      -0.00000000       0.00000000 </v>
   <v>      -0.00000000      -0.00000000      -0.08500629 </v>
   <v>      -0.00000000       0.00000000      -0.08500629 </v>
   <v>      -0.00000000      -0.00000000       0.08500629 </v>
   <v>      -0.00000000       0.00000000       0.08500629 </v>
  </varray>
  <varray name="stress" >
   <v>       3.14117152       0.00000000       0.00000000 </v>
   <v>       0.00000000       3.95771755       0.00000000 </v>
   <v>       0.00000000       0.00000000       1.67307666 </v>
  </varray>
  <energy>
   <i name="e_fr_energy">    -24.25423702 </i>
   <i name="e_wo_entrp">    -24.25423702 </i>
   <i name="e_0_energy">     -0.00000000 </i>
  </energy>
  <time name="totalsc">   33.60   33.66</time>
 </calculation>
 <calculation>
  <scstep>
   <time name="dav">    1.46    1.46</time>
   <time name="total">    1.58    1.58</time>
   <energy>
    <i name="alphaZ">     47.19870169 </i>
    <i name="ewald">   5088.31726890 </i>
    <i name="hartreedc">  -9882.73503425 </i>
    <i name="XCdc">    143.16043396 </i>
    <i name="pawpsdc">   5811.32755608 </i>
    <i name="pawaedc">  -6631.77023151 </i>
    <i name="eentropy">     -0.00000000 </i>
    <i name="bandstr">   -820.73974572 </i>
    <i name="atom">   6220.98622430 </i>
    <i name="e_fr_energy">    -24.25482655 </i>
    <i name="e_wo_entrp">    -24.25482655 </i>
    <i name="e_0_energy">    -24.25482655 </i>
   </energy>
  </scstep>
  <scstep>
   <time name="dav">    1.67    1.67</time>
   <time name="total">    1.79    1.79</time>
   <energy>
    <i name="e_fr_energy">    -24.25493321 </i>
    <i name="e_wo_entrp">    -24.25493321 </i>
    <i name="e_0_energy">    -24.25493321 </i>
   </energy>
  </scstep>
  <scstep>
   <time name="dav">    1.47    1.47</time>
   <time name="total">    1.59    1.59</time>
   <energy>
    <i name="e_fr_energy">    -24.25492857 </i>
    <i name="e_wo_entrp">    -24.25492857 </i>
    <i name="e_0_energy">    -24.25492857 </i>
   </energy>
  </scstep>
  <scstep>
   <time name="dav">    1.28    1.28</time>
   <time name="total">    1.40    1.40</time>
   <energy>
    <i name="e_fr_energy">    -24.25492642 </i>
    <i name="e_wo_entrp">    -24.25492642 </i>
    <i name="e_0_energy">    -24.25492642 </i>
   </energy>
  </scstep>
  <scstep>
   <time name="dav">    1.19    1.19</time>
   <time name="total">    1.31    1.31</time>
   <energy>
    <i name="e_fr_energy">    -24.25492550 </i>
    <i name="e_wo_entrp">    -24.25492550 </i>
    <i name="e_0_energy">    -24.25492550 </i>
   </energy>
  </scstep>
  <scstep>
   <time name="dav">    1.13    1.13</time>
   <time name="total">    1.16    1.16</time>
   <energy>
    <i name="alphaZ">     47.19870169 </i>
    <i name="ewald">   5088.31726890 </i>
    <i name="hartreedc">  -9882.73523894 </i>
    <i name="XCdc">    143.16337991 </i>
    <i name="pawpsdc">   5805.22155935 </i>
    <i name="pawaedc">  -6625.62395371 </i>
    <i name="eentropy">     -0.00000000 </i>
    <i name="bandstr">   -820.78286692 </i>
    <i name="atom">   6220.98622430 </i>
    <i name="e_fr_energy">    -24.25492541 </i>
    <i name="e_wo_entrp">    -24.25492541 </i>
    <i name="e_0_energy">    -24.25492541 </i>
   </energy>
  </scstep>
  <structure>
   <crystal>
    <varray name="basis" >
     <v>       4.90607700       0.00000000       0.00000000 </v>
     <v>       0.00000000       5.48699800       0.00000000 </v>
     <v>       0.00000000       0.00000000      18.07929100 </v>
    </varray>
    <i name="volume">    486.68790912 </i>
    <varray name="rec_basis" >
     <v>       0.20382884       0.00000000       0.00000000 </v>
     <v>       0.00000000       0.18224902       0.00000000 </v>
     <v>       0.00000000       0.00000000       0.05531190 </v>
    </varray>
   </crystal>
   <varray name="positions" >
    <v>       0.50000000       0.50000000       0.50000000 </v>
    <v>      -0.00000000      -0.00000000       0.50000000 </v>
    <v>       0.25000000       0.25000000       0.41488990 </v>
    <v>       0.75000000       0.75000000       0.41488990 </v>
    <v>       0.75000000       0.25000000       0.58511010 </v>
    <v>       0.25000000       0.75000000       0.58511010 </v>
   </varray>
  </structure>
  <varray name="forces" >
   <v>       0.00000000       0.00000000       0.00000000 </v>
   <v>       0.00000000       0.00000000       0.00000000 </v>
   <v>       0.00000000      -0.00000000      -0.05574924 </v>
   <v>       0.00000000      -0.00000000      -0.05574924 </v>
   <v>       0.00000000      -0.00000000       0.05574924 </v>
   <v>       0.00000000      -0.00000000       0.05574924 </v>
  </varray>
  <varray name="stress" >
   <v>       2.98095754       0.00000000       0.00000000 </v>
   <v>       0.00000000       3.77553472       0.00000000 </v>
   <v>       0.00000000       0.00000000       1.09290045 </v>
  </varray>
  <energy>
   <i name="e_fr_energy">    -24.25492541 </i>
   <i name="e_wo_entrp">    -24.25492541 </i>
   <i name="e_0_energy">     -0.00000000 </i>
  </energy>
  <time name="totalsc">    9.99   10.01</time>
 </calculation>
 <calculation>
  <scstep>
   <time name="dav">    1.45    1.45</time>
   <time name="total">    1.57    1.57</time>
   <energy>
    <i name="alphaZ">     47.19870169 </i>
    <i name="ewald">   5077.43258309 </i>
    <i name="hartreedc">  -9872.21671724 </i>
    <i name="XCdc">    143.11962231 </i>
    <i name="pawpsdc">   5805.17551276 </i>
    <i name="pawaedc">  -6625.57806563 </i>
    <i name="eentropy">     -0.00000000 </i>
    <i name="bandstr">   -820.37292791 </i>
    <i name="atom">   6220.98622430 </i>
    <i name="e_fr_energy">    -24.25506663 </i>
    <i name="e_wo_entrp">    -24.25506663 </i>
    <i name="e_0_energy">    -24.25506663 </i>
   </energy>
  </scstep>
  <scstep>
   <time name="dav">    1.67    1.67</time>
   <time name="total">    1.79    1.79</time>
   <energy>
    <i name="e_fr_energy">    -24.25545714 </i>
    <i name="e_wo_entrp">    -24.25545714 </i>
    <i name="e_0_energy">    -24.25545714 </i>
   </energy>
  </scstep>
  <scstep>
   <time name="dav">    1.49    1.49</time>
   <time name="total">    1.60    1.61</time>
   <energy>
    <i name="e_fr_energy">    -24.25544265 </i>
    <i name="e_wo_entrp">    -24.25544265 </i>
    <i name="e_0_energy">    -24.25544265 </i>
   </energy>
  </scstep>
  <scstep>
   <time name="dav">    1.34    1.34</time>
   <time name="total">    1.46    1.46</time>
   <energy>
    <i name="e_fr_energy">    -24.25543728 </i>
    <i name="e_wo_entrp">    -24.25543728 </i>
    <i name="e_0_energy">    -24.25543728 </i>
   </energy>
  </scstep>
  <scstep>
   <time name="dav">    1.22    1.22</time>
   <time name="total">    1.34    1.34</time>
   <energy>
    <i name="e_fr_energy">    -24.25543539 </i>
    <i name="e_wo_entrp">    -24.25543539 </i>
    <i name="e_0_energy">    -24.25543539 </i>
   </energy>
  </scstep>
  <scstep>
   <time name="dav">    1.10    1.11</time>
   <time name="total">    1.13    1.14</time>
   <energy>
    <i name="alphaZ">     47.19870169 </i>
    <i name="ewald">   5077.43258309 </i>
    <i name="hartreedc">  -9872.22533136 </i>
    <i name="XCdc">    143.12529102 </i>
    <i name="pawpsdc">   5793.62479626 </i>
    <i name="pawaedc">  -6613.95100144 </i>
    <i name="eentropy">     -0.00000000 </i>
    <i name="bandstr">   -820.44669888 </i>
    <i name="atom">   6220.98622430 </i>
    <i name="e_fr_energy">    -24.25543531 </i>
    <i name="e_wo_entrp">    -24.25543531 </i>
    <i name="e_0_energy">    -24.25543531 </i>
   </energy>
  </scstep>
  <structure>
   <crystal>
    <varray name="basis" >
     <v>       4.90607700       0.00000000       0.00000000 </v>
     <v>       0.00000000       5.48699800       0.00000000 </v>
     <v>       0.00000000       0.00000000      18.07929100 </v>
    </varray>
    <i name="volume">    486.68790912 </i>
    <varray name="rec_basis" >
     <v>       0.20382884       0.00000000       0.00000000 </v>
     <v>       0.00000000       0.18224902       0.00000000 </v>
     <v>       0.00000000       0.00000000       0.05531190 </v>
    </varray>
   </crystal>
   <varray name="positions" >
    <v>       0.50000000       0.50000000       0.50000000 </v>
    <v>      -0.00000000      -0.00000000       0.50000000 </v>
    <v>       0.25000000       0.25000000       0.41463057 </v>
    <v>       0.75000000       0.75000000       0.41463057 </v>
    <v>       0.75000000       0.25000000       0.58536943 </v>
    <v>       0.25000000       0.75000000       0.58536943 </v>
   </varray>
  </structure>
  <varray name="forces" >
   <v>       0.00000000       0.00000000       0.00000000 </v>
   <v>       0.00000000       0.00000000       0.00000000 </v>
   <v>       0.00000000       0.00000000      -0.00011054 </v>
   <v>      -0.00000000      -0.00000000      -0.00011054 </v>
   <v>      -0.00000000      -0.00000000       0.00011054 </v>
   <v>       0.00000000      -0.00000000       0.00011054 </v>
  </varray>
  <varray name="stress" >
   <v>       2.68506845       0.00000000       0.00000000 </v>
   <v>       0.00000000       3.44045649       0.00000000 </v>
   <v>       0.00000000       0.00000000      -0.01181250 </v>
  </varray>
  <energy>
   <i name="e_fr_energy">    -24.25543531 </i>
   <i name="e_wo_entrp">    -24.25543531 </i>
   <i name="e_0_energy">     -0.00000000 </i>
  </energy>
  <time name="totalsc">    9.99   10.01</time>
  <eigenvalues>
   <array>
    <dimension dim="1">band</dimension>
    <dimension dim="2">kpoint</dimension>
    <dimension dim="3">spin</dimension>
    <field>eigene</field>
    <field>occ</field>
    <set>
     <set comment="spin 1">
      <set comment="kpoint 1">
       <r>  -27.7339    1.0000 </r>
       <r>  -27.7303    1.0000 </r>
       <r>  -27.7296    1.0000 </r>
       <r>  -27.7208    1.0000 </r>
       <r>  -27.7194    1.0000 </r>
       <r>  -27.7058    1.0000 </r>
       <r>  -27.7011    1.0000 </r>
       <r>  -27.7004    1.0000 </r>
       <r>  -27.6890    1.0000 </r>
       <r>  -27.6828    1.0000 </r>
       <r>  -16.9130    1.0000 </r>
       <r>  -15.3876    1.0000 </r>
       <r>  -14.9014    1.0000 </r>
       <r>  -14.7142    1.0000 </r>
       <r>  -11.7393    1.0000 </r>
       <r>   -9.1983    1.0000 </r>
       <r>   -7.4509    1.0000 </r>
       <r>   -5.8516    1.0000 </r>
       <r>   -5.4981    1.0000 </r>
       <r>   -5.3316    1.0000 </r>
       <r>   -5.1345    1.0000 </r>
       <r>   -5.1238    1.0000 </r>
       <r>   -4.6577    1.0000 </r>
       <r>   -4.1554    1.0000 </r>
       <r>   -2.7563    1.0000 </r>
       <r>   -2.7026    1.0000 </r>
       <r>   -1.6982    0.0000 </r>
       <r>   -1.3413    0.0000 </r>
       <r>   -0.7909    0.0000 </r>
       <r>    0.1873    0.0000 </r>
       <r>    0.6555    0.0000 </r>
       <r>    1.9845    0.0000 </r>
      </set>
      <set comment="kpoint 2">
       <r>  -27.7338    1.0000 </r>
       <r>  -27.7301    1.0000 </r>
       <r>  -27.7295    1.0000 </r>
       <r>  -27.7210    1.0000 </r>
       <r>  -27.7194    1.0000 </r>
       <r>  -27.7057    1.0000 </r>
       <r>  -27.7014    1.0000 </r>
       <r>  -27.7004    1.0000 </r>
       <r>  -27.6890    1.0000 </r>
       <r>  -27.6828    1.0000 </r>
       <r>  -16.8961    1.0000 </r>
       <r>  -15.3808    1.0000 </r>
       <r>  -14.9047    1.0000 </r>
       <r>  -14.7550    1.0000 </r>
       <r>  -11.6952    1.0000 </r>
       <r>   -9.2119    1.0000 </r>
       <r>   -7.4487    1.0000 </r>
       <r>   -5.8459    1.0000 </r>
       <r>   -5.5856    1.0000 </r>
       <r>   -5.4135    1.0000 </r>
       <r>   -5.1980    1.0000 </r>
       <r>   -5.0279    1.0000 </r>
       <r>   -4.6522    1.0000 </r>
       <r>   -4.1388    1.0000 </r>
       <r>   -2.8179    1.0000 </r>
       <r>   -2.7352    1.0000 </r>
       <r>   -1.5969    0.0000 </r>
       <r>   -1.3361    0.0000 </r>
       <r>   -0.6761    0.0000 </r>
       <r>    0.2366    0.0000 </r>
       <r>    0.7015    0.0000 </r>
       <r>    2.0171    0.0000 </r>
      </set>
      <set comment="kpoint 3">
       <r>  -27.7334    1.0000 </r>
       <r>  -27.7295    1.0000 </r>
       <r>  -27.7293    1.0000 </r>
       <r>  -27.7214    1.0000 </r>
       <r>  -27.7194    1.0000 </r>
       <r>  -27.7055    1.0000 </r>
       <r>  -27.7022    1.0000 </r>
       <r>  -27.7005    1.0000 </r>
       <r>  -27.6888    1.0000 </r>
       <r>  -27.6830    1.0000 </r>
       <r>  -16.8456    1.0000 </r>
       <r>  -15.3607    1.0000 </r>
       <r>  -14.9146    1.0000 </r>
       <r>  -14.8696    1.0000 </r>
       <r>  -11.5699    1.0000 </r>
       <r>   -9.2549    1.0000 </r>
       <r>   -7.4409    1.0000 </r>
       <r>   -5.8260    1.0000 </r>
       <r>   -5.7366    1.0000 </r>
       <r>   -5.6222    1.0000 </r>
       <r>   -5.3624    1.0000 </r>
       <r>   -4.8554    1.0000 </r>
       <r>   -4.6552    1.0000 </r>
       <r>   -4.0914    1.0000 </r>
       <r>   -2.9770    1.0000 </r>
       <r>   -2.8238    1.0000 </r>
       <r>   -1.3359    0.0000 </r>
       <r>   -1.3092    0.0000 </r>
       <r>   -0.3542    0.0000 </r>
       <r>    0.3744    0.0000 </r>
       <r>    0.8289    0.0000 </r>
       <r>    2.0740    0.0000 </r>
      </set>
      <set comment="kpoint 4">
       <r>  -27.7327    1.0000 </r>
       <r>  -27.7290    1.0000 </r>
       <r>  -27.7287    1.0000 </r>
       <r>  -27.7221    1.0000 </r>
       <r>  -27.7193    1.0000 </r>
       <r>  -27.7051    1.0000 </r>
       <r>  -27.7036    1.0000 </r>
       <r>  -27.7007    1.0000 </r>
       <r>  -27.6885    1.0000 </r>
       <r>  -27.6833    1.0000 </r>
       <r>  -16.7623    1.0000 </r>
       <r>  -15.3287    1.0000 </r>
       <r>  -15.0401    1.0000 </r>
       <r>  -14.9316    1.0000 </r>
       <r>  -11.3806    1.0000 </r>
       <r>   -9.3324    1.0000 </r>
       <r>   -7.4238    1.0000 </r>
       <r>   -5.8962    1.0000 </r>
       <r>   -5.8777    1.0000 </r>
       <r>   -5.7846    1.0000 </r>
       <r>   -5.5725    1.0000 </r>
       <r>   -4.6898    1.0000 </r>
       <r>   -4.6878    1.0000 </r>
       <r>   -4.0186    1.0000 </r>
       <r>   -3.1917    1.0000 </r>
       <r>   -2.9481    1.0000 </r>
       <r>   -1.2371    0.0000 </r>
       <r>   -0.9950    0.0000 </r>
       <r>    0.1263    0.0000 </r>
       <r>    0.5766    0.0000 </r>
       <r>    1.0053    0.0000 </r>
       <r>    1.8999    0.0000 </r>
      </set>
      <set comment="kpoint 5">
       <r>  -27.7318    1.0000 </r>
       <r>  -27.7287    1.0000 </r>
       <r>  -27.7278    1.0000 </r>
       <r>  -27.7230    1.0000 </r>
       <r>  -27.7189    1.0000 </r>
       <r>  -27.7054    1.0000 </r>
       <r>  -27.7047    1.0000 </r>
       <r>  -27.7010    1.0000 </r>
       <r>  -27.6880    1.0000 </r>
       <r>  -27.6838    1.0000 </r>
       <r>  -16.6477    1.0000 </r>
       <r>  -15.2866    1.0000 </r>
       <r>  -15.2463    1.0000 </r>
       <r>  -14.9564    1.0000 </r>
       <r>  -11.1462    1.0000 </r>
       <r>   -9.4504    1.0000 </r>
       <r>   -7.3912    1.0000 </r>
       <r>   -6.1896    1.0000 </r>
       <r>   -5.9928    1.0000 </r>
       <r>   -5.7783    1.0000 </r>
       <r>   -5.7151    1.0000 </r>
       <r>   -4.7635    1.0000 </r>
       <r>   -4.5459    1.0000 </r>
       <r>   -3.9273    1.0000 </r>
       <r>   -3.4281    1.0000 </r>
       <r>   -3.0872    1.0000 </r>
       <r>   -1.1033    0.0000 </r>
       <r>   -0.6507    0.0000 </r>
       <r>    0.7172    0.0000 </r>
       <r>    0.8136    0.0000 </r>
       <r>    1.1796    0.0000 </r>
       <r>    1.7276    0.0000 </r>
      </set>
      <set comment="kpoint 6">
       <r>  -27.7307    1.0000 </r>
       <r>  -27.7282    1.0000 </r>
       <r>  -27.7272    1.0000 </r>
       <r>  -27.7241    1.0000 </r>
       <r>  -27.7181    1.0000 </r>
       <r>  -27.7075    1.0000 </r>
       <r>  -27.7041    1.0000 </r>
       <r>  -27.7014    1.0000 </r>
       <r>  -27.6875    1.0000 </r>
       <r>  -27.6843    1.0000 </r>
       <r>  -16.5036    1.0000 </r>
       <r>  -15.4712    1.0000 </r>
       <r>  -15.2373    1.0000 </r>
       <r>  -14.9892    1.0000 </r>
       <r>  -10.8833    1.0000 </r>
       <r>   -9.6131    1.0000 </r>
       <r>   -7.3345    1.0000 </r>
       <r>   -6.4729    1.0000 </r>
       <r>   -6.0778    1.0000 </r>
       <r>   -5.9476    1.0000 </r>
       <r>   -5.6150    1.0000 </r>
       <r>   -4.8750    1.0000 </r>
       <r>   -4.4278    1.0000 </r>
       <r>   -3.8237    1.0000 </r>
       <r>   -3.6607    1.0000 </r>
       <r>   -3.2256    1.0000 </r>
       <r>   -0.9104    0.0000 </r>
       <r>   -0.3779    0.0000 </r>
       <r>    1.0511    0.0000 </r>
       <r>    1.3018    0.0000 </r>
       <r>    1.3775    0.0000 </r>
       <r>    1.5849    0.0000 </r>
      </set>
      <set comment="kpoint 7">
       <r>  -27.7294    1.0000 </r>
       <r>  -27.7277    1.0000 </r>
       <r>  -27.7269    1.0000 </r>
       <r>  -27.7254    1.0000 </r>
       <r>  -27.7166    1.0000 </r>
       <r>  -27.7099    1.0000 </r>
       <r>  -27.7036    1.0000 </r>
       <r>  -27.7019    1.0000 </r>
       <r>  -27.6869    1.0000 </r>
       <r>  -27.6849    1.0000 </r>
       <r>  -16.3328    1.0000 </r>
       <r>  -15.7012    1.0000 </r>
       <r>  -15.1838    1.0000 </r>
       <r>  -15.0298    1.0000 </r>
       <r>  -10.6062    1.0000 </r>
       <r>   -9.8191    1.0000 </r>
       <r>   -7.2452    1.0000 </r>
       <r>   -6.7278    1.0000 </r>
       <r>   -6.1314    1.0000 </r>
       <r>   -6.0658    1.0000 </r>
       <r>   -5.4863    1.0000 </r>
       <r>   -5.0164    1.0000 </r>
       <r>   -4.3182    1.0000 </r>
       <r>   -3.8717    1.0000 </r>
       <r>   -3.7129    1.0000 </r>
       <r>   -3.3565    1.0000 </r>
       <r>   -0.6809    0.0000 </r>
       <r>   -0.2472    0.0000 </r>
       <r>    1.2521    0.0000 </r>
       <r>    1.3597    0.0000 </r>
       <r>    1.4742    0.0000 </r>
       <r>    1.5471    0.0000 </r>
      </set>
      <set comment="kpoint 8">
       <r>  -27.7281    1.0000 </r>
       <r>  -27.7273    1.0000 </r>
       <r>  -27.7270    1.0000 </r>
       <r>  -27.7267    1.0000 </r>
       <r>  -27.7146    1.0000 </r>
       <r>  -27.7123    1.0000 </r>
       <r>  -27.7030    1.0000 </r>
       <r>  -27.7024    1.0000 </r>
       <r>  -27.6862    1.0000 </r>
       <r>  -27.6855    1.0000 </r>
       <r>  -16.1388    1.0000 </r>
       <r>  -15.9263    1.0000 </r>
       <r>  -15.1294    1.0000 </r>
       <r>  -15.0772    1.0000 </r>
       <r>  -10.3278    1.0000 </r>
       <r>  -10.0611    1.0000 </r>
       <r>   -7.1163    1.0000 </r>
       <r>   -6.9438    1.0000 </r>
       <r>   -6.1511    1.0000 </r>
       <r>   -6.1317    1.0000 </r>
       <r>   -5.3361    1.0000 </r>
       <r>   -5.1749    1.0000 </r>
       <r>   -4.1977    1.0000 </r>
       <r>   -4.0513    1.0000 </r>
       <r>   -3.5979    1.0000 </r>
       <r>   -3.4797    1.0000 </r>
       <r>   -0.4543    0.0000 </r>
       <r>   -0.2867    0.0000 </r>
       <r>    1.3834    0.0000 </r>
       <r>    1.3891    0.0000 </r>
       <r>    1.4128    0.0000 </r>
       <r>    1.4695    0.0000 </r>
      </set>
      <set comment="kpoint 9">
       <r>  -27.7338    1.0000 </r>
       <r>  -27.7301    1.0000 </r>
       <r>  -27.7294    1.0000 </r>
       <r>  -27.7208    1.0000 </r>
       <r>  -27.7195    1.0000 </r>
       <r>  -27.7057    1.0000 </r>
       <r>  -27.7015    1.0000 </r>
       <r>  -27.7005    1.0000 </r>
       <r>  -27.6889    1.0000 </r>
       <r>  -27.6828    1.0000 </r>
       <r>  -16.8935    1.0000 </r>
       <r>  -15.3782    1.0000 </r>
       <r>  -14.9543    1.0000 </r>
       <r>  -14.7242    1.0000 </r>
       <r>  -11.6747    1.0000 </r>
       <r>   -9.2144    1.0000 </r>
       <r>   -7.4373    1.0000 </r>
       <r>   -5.8783    1.0000 </r>
       <r>   -5.4901    1.0000 </r>
       <r>   -5.3962    1.0000 </r>
       <r>   -5.2250    1.0000 </r>
       <r>   -5.0858    1.0000 </r>
       <r>   -4.6511    1.0000 </r>
       <r>   -4.1236    1.0000 </r>
       <r>   -2.7889    1.0000 </r>
       <r>   -2.7759    1.0000 </r>
       <r>   -1.5781    0.0000 </r>
       <r>   -1.3178    0.0000 </r>
       <r>   -0.6552    0.0000 </r>
       <r>    0.2075    0.0000 </r>
       <r>    0.6931    0.0000 </r>
       <r>    2.0157    0.0000 </r>
      </set>
      <set comment="kpoint 10">
       <r>  -27.7337    1.0000 </r>
       <r>  -27.7299    1.0000 </r>
       <r>  -27.7293    1.0000 </r>
       <r>  -27.7210    1.0000 </r>
       <r>  -27.7195    1.0000 </r>
       <r>  -27.7056    1.0000 </r>
       <r>  -27.7018    1.0000 </r>
       <r>  -27.7005    1.0000 </r>
       <r>  -27.6889    1.0000 </r>
       <r>  -27.6829    1.0000 </r>
       <r>  -16.8768    1.0000 </r>
       <r>  -15.3716    1.0000 </r>
       <r>  -14.9618    1.0000 </r>
       <r>  -14.7575    1.0000 </r>
       <r>  -11.6350    1.0000 </r>
       <r>   -9.2296    1.0000 </r>
       <r>   -7.4318    1.0000 </r>
       <r>   -5.8878    1.0000 </r>
       <r>   -5.5574    1.0000 </r>
       <r>   -5.5477    1.0000 </r>
       <r>   -5.1858    1.0000 </r>
       <r>   -4.9962    1.0000 </r>
       <r>   -4.6551    1.0000 </r>
       <r>   -4.1081    1.0000 </r>
       <r>   -2.9289    1.0000 </r>
       <r>   -2.7117    1.0000 </r>
       <r>   -1.5372    0.0000 </r>
       <r>   -1.3113    0.0000 </r>
       <r>   -0.5172    0.0000 </r>
       <r>    0.2549    0.0000 </r>
       <r>    0.7379    0.0000 </r>
       <r>    2.0059    0.0000 </r>
      </set>
      <set comment="kpoint 11">
       <r>  -27.7333    1.0000 </r>
       <r>  -27.7294    1.0000 </r>
       <r>  -27.7291    1.0000 </r>
       <r>  -27.7214    1.0000 </r>
       <r>  -27.7195    1.0000 </r>
       <r>  -27.7054    1.0000 </r>
       <r>  -27.7027    1.0000 </r>
       <r>  -27.7005    1.0000 </r>
       <r>  -27.6887    1.0000 </r>
       <r>  -27.6831    1.0000 </r>
       <r>  -16.8269    1.0000 </r>
       <r>  -15.3521    1.0000 </r>
       <r>  -14.9947    1.0000 </r>
       <r>  -14.8408    1.0000 </r>
       <r>  -11.5216    1.0000 </r>
       <r>   -9.2772    1.0000 </r>
       <r>   -7.4146    1.0000 </r>
       <r>   -5.9280    1.0000 </r>
       <r>   -5.8094    1.0000 </r>
       <r>   -5.6477    1.0000 </r>
       <r>   -5.2345    1.0000 </r>
       <r>   -4.8290    1.0000 </r>
       <r>   -4.6703    1.0000 </r>
       <r>   -4.0624    1.0000 </r>
       <r>   -3.1239    1.0000 </r>
       <r>   -2.7289    1.0000 </r>
       <r>   -1.3856    0.0000 </r>
       <r>   -1.2816    0.0000 </r>
       <r>   -0.1617    0.0000 </r>
       <r>    0.3868    0.0000 </r>
       <r>    0.8629    0.0000 </r>
       <r>    1.8926    0.0000 </r>
      </set>
      <set comment="kpoint 12">
       <r>  -27.7327    1.0000 </r>
       <r>  -27.7287    1.0000 </r>
       <r>  -27.7287    1.0000 </r>
       <r>  -27.7221    1.0000 </r>
       <r>  -27.7193    1.0000 </r>
       <r>  -27.7050    1.0000 </r>
       <r>  -27.7041    1.0000 </r>
       <r>  -27.7007    1.0000 </r>
       <r>  -27.6884    1.0000 </r>
       <r>  -27.6834    1.0000 </r>
       <r>  -16.7446    1.0000 </r>
       <r>  -15.3210    1.0000 </r>
       <r>  -15.0970    1.0000 </r>
       <r>  -14.9151    1.0000 </r>
       <r>  -11.3489    1.0000 </r>
       <r>   -9.3616    1.0000 </r>
       <r>   -7.3841    1.0000 </r>
       <r>   -6.0849    1.0000 </r>
       <r>   -6.0061    1.0000 </r>
       <r>   -5.6737    1.0000 </r>
       <r>   -5.3878    1.0000 </r>
       <r>   -4.7141    1.0000 </r>
       <r>   -4.6661    1.0000 </r>
       <r>   -3.9888    1.0000 </r>
       <r>   -3.3395    1.0000 </r>
       <r>   -2.8172    1.0000 </r>
       <r>   -1.2079    0.0000 </r>
       <r>   -1.1219    0.0000 </r>
       <r>    0.3211    0.0000 </r>
       <r>    0.5780    0.0000 </r>
       <r>    1.0396    0.0000 </r>
       <r>    1.7267    0.0000 </r>
      </set>
      <set comment="kpoint 13">
       <r>  -27.7320    1.0000 </r>
       <r>  -27.7283    1.0000 </r>
       <r>  -27.7280    1.0000 </r>
       <r>  -27.7228    1.0000 </r>
       <r>  -27.7190    1.0000 </r>
       <r>  -27.7058    1.0000 </r>
       <r>  -27.7046    1.0000 </r>
       <r>  -27.7009    1.0000 </r>
       <r>  -27.6880    1.0000 </r>
       <r>  -27.6838    1.0000 </r>
       <r>  -16.6314    1.0000 </r>
       <r>  -15.2804    1.0000 </r>
       <r>  -15.2747    1.0000 </r>
       <r>  -14.9570    1.0000 </r>
       <r>  -11.1331    1.0000 </r>
       <r>   -9.4878    1.0000 </r>
       <r>   -7.3374    1.0000 </r>
       <r>   -6.3409    1.0000 </r>
       <r>   -6.0879    1.0000 </r>
       <r>   -5.6438    1.0000 </r>
       <r>   -5.5903    1.0000 </r>
       <r>   -4.7990    1.0000 </r>
       <r>   -4.5299    1.0000 </r>
       <r>   -3.8922    1.0000 </r>
       <r>   -3.5521    1.0000 </r>
       <r>   -2.9477    1.0000 </r>
       <r>   -1.0762    0.0000 </r>
       <r>   -0.8060    0.0000 </r>
       <r>    0.7971    0.0000 </r>
       <r>    0.8685    0.0000 </r>
       <r>    1.2214    0.0000 </r>
       <r>    1.5781    0.0000 </r>
      </set>
      <set comment="kpoint 14">
       <r>  -27.7311    1.0000 </r>
       <r>  -27.7277    1.0000 </r>
       <r>  -27.7276    1.0000 </r>
       <r>  -27.7237    1.0000 </r>
       <r>  -27.7182    1.0000 </r>
       <r>  -27.7079    1.0000 </r>
       <r>  -27.7040    1.0000 </r>
       <r>  -27.7013    1.0000 </r>
       <r>  -27.6874    1.0000 </r>
       <r>  -27.6843    1.0000 </r>
       <r>  -16.4894    1.0000 </r>
       <r>  -15.4850    1.0000 </r>
       <r>  -15.2329    1.0000 </r>
       <r>  -14.9934    1.0000 </r>
       <r>  -10.8889    1.0000 </r>
       <r>   -9.6573    1.0000 </r>
       <r>   -7.2706    1.0000 </r>
       <r>   -6.5648    1.0000 </r>
       <r>   -6.1448    1.0000 </r>
       <r>   -5.7928    1.0000 </r>
       <r>   -5.5769    1.0000 </r>
       <r>   -4.9212    1.0000 </r>
       <r>   -4.4175    1.0000 </r>
       <r>   -3.7794    1.0000 </r>
       <r>   -3.7477    1.0000 </r>
       <r>   -3.0958    1.0000 </r>
       <r>   -0.8919    0.0000 </r>
       <r>   -0.5236    0.0000 </r>
       <r>    1.0108    0.0000 </r>
       <r>    1.3589    0.0000 </r>
       <r>    1.3599    0.0000 </r>
       <r>    1.5583    0.0000 </r>
      </set>
      <set comment="kpoint 15">
       <r>  -27.7301    1.0000 </r>
       <r>  -27.7277    1.0000 </r>
       <r>  -27.7270    1.0000 </r>
       <r>  -27.7246    1.0000 </r>
       <r>  -27.7167    1.0000 </r>
       <r>  -27.7102    1.0000 </r>
       <r>  -27.7034    1.0000 </r>
       <r>  -27.7017    1.0000 </r>
       <r>  -27.6868    1.0000 </r>
       <r>  -27.6849    1.0000 </r>
       <r>  -16.3215    1.0000 </r>
       <r>  -15.7055    1.0000 </r>
       <r>  -15.1815    1.0000 </r>
       <r>  -15.0337    1.0000 </r>
       <r>  -10.6287    1.0000 </r>
       <r>   -9.8663    1.0000 </r>
       <r>   -7.1801    1.0000 </r>
       <r>   -6.7571    1.0000 </r>
       <r>   -6.1662    1.0000 </r>
       <r>   -5.9618    1.0000 </r>
       <r>   -5.4804    1.0000 </r>
       <r>   -5.0665    1.0000 </r>
       <r>   -4.3136    1.0000 </r>
       <r>   -3.9214    1.0000 </r>
       <r>   -3.6563    1.0000 </r>
       <r>   -3.2455    1.0000 </r>
       <r>   -0.6802    0.0000 </r>
       <r>   -0.3596    0.0000 </r>
       <r>    1.1894    0.0000 </r>
       <r>    1.4036    0.0000 </r>
       <r>    1.4348    0.0000 </r>
       <r>    1.5994    0.0000 </r>
      </set>
      <set comment="kpoint 16">
       <r>  -27.7291    1.0000 </r>
       <r>  -27.7282    1.0000 </r>
       <r>  -27.7262    1.0000 </r>
       <r>  -27.7254    1.0000 </r>
       <r>  -27.7148    1.0000 </r>
       <r>  -27.7126    1.0000 </r>
       <r>  -27.7028    1.0000 </r>
       <r>  -27.7023    1.0000 </r>
       <r>  -27.6862    1.0000 </r>
       <r>  -27.6855    1.0000 </r>
       <r>  -16.1313    1.0000 </r>
       <r>  -15.9238    1.0000 </r>
       <r>  -15.1293    1.0000 </r>
       <r>  -15.0793    1.0000 </r>
       <r>  -10.3638    1.0000 </r>
       <r>  -10.1057    1.0000 </r>
       <r>   -7.0640    1.0000 </r>
       <r>   -6.9227    1.0000 </r>
       <r>   -6.1469    1.0000 </r>
       <r>   -6.0806    1.0000 </r>
       <r>   -5.3586    1.0000 </r>
       <r>   -5.2173    1.0000 </r>
       <r>   -4.2020    1.0000 </r>
       <r>   -4.0726    1.0000 </r>
       <r>   -3.5261    1.0000 </r>
       <r>   -3.3894    1.0000 </r>
       <r>   -0.4828    0.0000 </r>
       <r>   -0.3556    0.0000 </r>
       <r>    1.3265    0.0000 </r>
       <r>    1.4250    0.0000 </r>
       <r>    1.4541    0.0000 </r>
       <r>    1.4595    0.0000 </r>
      </set>
      <set comment="kpoint 17">
       <r>  -27.7334    1.0000 </r>
       <r>  -27.7295    1.0000 </r>
       <r>  -27.7290    1.0000 </r>
       <r>  -27.7207    1.0000 </r>
       <r>  -27.7200    1.0000 </r>
       <r>  -27.7054    1.0000 </r>
       <r>  -27.7026    1.0000 </r>
       <r>  -27.7006    1.0000 </r>
       <r>  -27.6887    1.0000 </r>
       <r>  -27.6831    1.0000 </r>
       <r>  -16.8356    1.0000 </r>
       <r>  -15.3503    1.0000 </r>
       <r>  -15.0992    1.0000 </r>
       <r>  -14.7536    1.0000 </r>
       <r>  -11.4954    1.0000 </r>
       <r>   -9.2656    1.0000 </r>
       <r>   -7.3953    1.0000 </r>
       <r>   -5.9450    1.0000 </r>
       <r>   -5.5616    1.0000 </r>
       <r>   -5.4640    1.0000 </r>
       <r>   -5.4502    1.0000 </r>
       <r>   -4.9843    1.0000 </r>
       <r>   -4.6568    1.0000 </r>
       <r>   -4.0348    1.0000 </r>
       <r>   -2.9566    1.0000 </r>
       <r>   -2.8717    1.0000 </r>
       <r>   -1.2782    0.0000 </r>
       <r>   -1.2436    0.0000 </r>
       <r>   -0.2806    0.0000 </r>
       <r>    0.2662    0.0000 </r>
       <r>    0.7970    0.0000 </r>
       <r>    1.9700    0.0000 </r>
      </set>
      <set comment="kpoint 18">
       <r>  -27.7334    1.0000 </r>
       <r>  -27.7294    1.0000 </r>
       <r>  -27.7289    1.0000 </r>
       <r>  -27.7209    1.0000 </r>
       <r>  -27.7199    1.0000 </r>
       <r>  -27.7053    1.0000 </r>
       <r>  -27.7029    1.0000 </r>
       <r>  -27.7006    1.0000 </r>
       <r>  -27.6886    1.0000 </r>
       <r>  -27.6832    1.0000 </r>
       <r>  -16.8194    1.0000 </r>
       <r>  -15.3443    1.0000 </r>
       <r>  -15.1091    1.0000 </r>
       <r>  -14.7766    1.0000 </r>
       <r>  -11.4671    1.0000 </r>
       <r>   -9.2853    1.0000 </r>
       <r>   -7.3807    1.0000 </r>
       <r>   -5.9738    1.0000 </r>
       <r>   -5.7969    1.0000 </r>
       <r>   -5.5043    1.0000 </r>
       <r>   -5.2675    1.0000 </r>
       <r>   -4.9073    1.0000 </r>
       <r>   -4.6714    1.0000 </r>
       <r>   -4.0207    1.0000 </r>
       <r>   -3.1223    1.0000 </r>
       <r>   -2.7525    1.0000 </r>
       <r>   -1.3349    0.0000 </r>
       <r>   -1.2341    0.0000 </r>
       <r>   -0.1134    0.0000 </r>
       <r>    0.3077    0.0000 </r>
       <r>    0.8390    0.0000 </r>
       <r>    1.8421    0.0000 </r>
      </set>
      <set comment="kpoint 19">
       <r>  -27.7332    1.0000 </r>
       <r>  -27.7291    1.0000 </r>
       <r>  -27.7285    1.0000 </r>
       <r>  -27.7214    1.0000 </r>
       <r>  -27.7197    1.0000 </r>
       <r>  -27.7051    1.0000 </r>
       <r>  -27.7039    1.0000 </r>
       <r>  -27.7005    1.0000 </r>
       <r>  -27.6884    1.0000 </r>
       <r>  -27.6833    1.0000 </r>
       <r>  -16.7712    1.0000 </r>
       <r>  -15.3267    1.0000 </r>
       <r>  -15.1448    1.0000 </r>
       <r>  -14.8358    1.0000 </r>
       <r>  -11.3854    1.0000 </r>
       <r>   -9.3458    1.0000 </r>
       <r>   -7.3375    1.0000 </r>
       <r>   -6.0823    1.0000 </r>
       <r>   -6.0564    1.0000 </r>
       <r>   -5.5535    1.0000 </r>
       <r>   -5.1479    1.0000 </r>
       <r>   -4.7551    1.0000 </r>
       <r>   -4.7135    1.0000 </r>
       <r>   -3.9755    1.0000 </r>
       <r>   -3.3405    1.0000 </r>
       <r>   -2.6695    1.0000 </r>
       <r>   -1.3816    0.0000 </r>
       <r>   -1.1985    0.0000 </r>
       <r>    0.2647    0.0000 </r>
       <r>    0.4218    0.0000 </r>
       <r>    0.9591    0.0000 </r>
       <r>    1.6719    0.0000 </r>
      </set>
      <set comment="kpoint 20">
       <r>  -27.7328    1.0000 </r>
       <r>  -27.7286    1.0000 </r>
       <r>  -27.7280    1.0000 </r>
       <r>  -27.7218    1.0000 </r>
       <r>  -27.7195    1.0000 </r>
       <r>  -27.7052    1.0000 </r>
       <r>  -27.7047    1.0000 </r>
       <r>  -27.7006    1.0000 </r>
       <r>  -27.6881    1.0000 </r>
       <r>  -27.6836    1.0000 </r>
       <r>  -16.6920    1.0000 </r>
       <r>  -15.2986    1.0000 </r>
       <r>  -15.2228    1.0000 </r>
       <r>  -14.9053    1.0000 </r>
       <r>  -11.2575    1.0000 </r>
       <r>   -9.4491    1.0000 </r>
       <r>   -7.2688    1.0000 </r>
       <r>   -6.3383    1.0000 </r>
       <r>   -6.1637    1.0000 </r>
       <r>   -5.5638    1.0000 </r>
       <r>   -5.1663    1.0000 </r>
       <r>   -4.7859    1.0000 </r>
       <r>   -4.6096    1.0000 </r>
       <r>   -3.8942    1.0000 </r>
       <r>   -3.5497    1.0000 </r>
       <r>   -2.6680    1.0000 </r>
       <r>   -1.2999    0.0000 </r>
       <r>   -1.1228    0.0000 </r>
       <r>    0.5830    0.0000 </r>
       <r>    0.7078    0.0000 </r>
       <r>    1.1362    0.0000 </r>
       <r>    1.5253    0.0000 </r>
      </set>
      <set comment="kpoint 21">
       <r>  -27.7323    1.0000 </r>
       <r>  -27.7284    1.0000 </r>
       <r>  -27.7273    1.0000 </r>
       <r>  -27.7223    1.0000 </r>
       <r>  -27.7191    1.0000 </r>
       <r>  -27.7070    1.0000 </r>
       <r>  -27.7043    1.0000 </r>
       <r>  -27.7007    1.0000 </r>
       <r>  -27.6877    1.0000 </r>
       <r>  -27.6840    1.0000 </r>
       <r>  -16.5833    1.0000 </r>
       <r>  -15.3544    1.0000 </r>
       <r>  -15.2622    1.0000 </r>
       <r>  -14.9615    1.0000 </r>
       <r>  -11.0926    1.0000 </r>
       <r>   -9.5957    1.0000 </r>
       <r>   -7.1817    1.0000 </r>
       <r>   -6.5451    1.0000 </r>
       <r>   -6.2522    1.0000 </r>
       <r>   -5.5450    1.0000 </r>
       <r>   -5.2968    1.0000 </r>
       <r>   -4.8993    1.0000 </r>
       <r>   -4.4953    1.0000 </r>
       <r>   -3.7785    1.0000 </r>
       <r>   -3.7303    1.0000 </r>
       <r>   -2.7390    1.0000 </r>
       <r>   -1.0952    0.0000 </r>
       <r>   -1.0008    0.0000 </r>
       <r>    0.7639    0.0000 </r>
       <r>    1.0810    0.0000 </r>
       <r>    1.3287    0.0000 </r>
       <r>    1.5026    0.0000 </r>
      </set>
      <set comment="kpoint 22">
       <r>  -27.7317    1.0000 </r>
       <r>  -27.7284    1.0000 </r>
       <r>  -27.7265    1.0000 </r>
       <r>  -27.7228    1.0000 </r>
       <r>  -27.7184    1.0000 </r>
       <r>  -27.7090    1.0000 </r>
       <r>  -27.7037    1.0000 </r>
       <r>  -27.7010    1.0000 </r>
       <r>  -27.6872    1.0000 </r>
       <r>  -27.6844    1.0000 </r>
       <r>  -16.4476    1.0000 </r>
       <r>  -15.5267    1.0000 </r>
       <r>  -15.2200    1.0000 </r>
       <r>  -15.0049    1.0000 </r>
       <r>  -10.8993    1.0000 </r>
       <r>   -9.7806    1.0000 </r>
       <r>   -7.0888    1.0000 </r>
       <r>   -6.6984    1.0000 </r>
       <r>   -6.2873    1.0000 </r>
       <r>   -5.5089    1.0000 </r>
       <r>   -5.4928    1.0000 </r>
       <r>   -5.0414    1.0000 </r>
       <r>   -4.4043    1.0000 </r>
       <r>   -3.8808    1.0000 </r>
       <r>   -3.6394    1.0000 </r>
       <r>   -2.8594    1.0000 </r>
       <r>   -0.8449    0.0000 </r>
       <r>   -0.8436    0.0000 </r>
       <r>    0.9437    0.0000 </r>
       <r>    1.1895    0.0000 </r>
       <r>    1.4807    0.0000 </r>
       <r>    1.7851    0.0000 </r>
      </set>
      <set comment="kpoint 23">
       <r>  -27.7310    1.0000 </r>
       <r>  -27.7288    1.0000 </r>
       <r>  -27.7257    1.0000 </r>
       <r>  -27.7233    1.0000 </r>
       <r>  -27.7171    1.0000 </r>
       <r>  -27.7111    1.0000 </r>
       <r>  -27.7031    1.0000 </r>
       <r>  -27.7015    1.0000 </r>
       <r>  -27.6867    1.0000 </r>
       <r>  -27.6849    1.0000 </r>
       <r>  -16.2882    1.0000 </r>
       <r>  -15.7195    1.0000 </r>
       <r>  -15.1747    1.0000 </r>
       <r>  -15.0445    1.0000 </r>
       <r>  -10.6850    1.0000 </r>
       <r>   -9.9939    1.0000 </r>
       <r>   -7.0065    1.0000 </r>
       <r>   -6.8054    1.0000 </r>
       <r>   -6.2458    1.0000 </r>
       <r>   -5.7169    1.0000 </r>
       <r>   -5.4592    1.0000 </r>
       <r>   -5.1824    1.0000 </r>
       <r>   -4.3192    1.0000 </r>
       <r>   -4.0096    1.0000 </r>
       <r>   -3.4877    1.0000 </r>
       <r>   -3.0074    1.0000 </r>
       <r>   -0.6870    0.0000 </r>
       <r>   -0.6378    0.0000 </r>
       <r>    1.1130    0.0000 </r>
       <r>    1.2436    0.0000 </r>
       <r>    1.5498    0.0000 </r>
       <r>    1.7421    0.0000 </r>
      </set>
      <set comment="kpoint 24">
       <r>  -27.7302    1.0000 </r>
       <r>  -27.7295    1.0000 </r>
       <r>  -27.7248    1.0000 </r>
       <r>  -27.7240    1.0000 </r>
       <r>  -27.7153    1.0000 </r>
       <r>  -27.7133    1.0000 </r>
       <r>  -27.7025    1.0000 </r>
       <r>  -27.7020    1.0000 </r>
       <r>  -27.6861    1.0000 </r>
       <r>  -27.6855    1.0000 </r>
       <r>  -16.1095    1.0000 </r>
       <r>  -15.9173    1.0000 </r>
       <r>  -15.1291    1.0000 </r>
       <r>  -15.0855    1.0000 </r>
       <r>  -10.4570    1.0000 </r>
       <r>  -10.2233    1.0000 </r>
       <r>   -6.9410    1.0000 </r>
       <r>   -6.8804    1.0000 </r>
       <r>   -6.1229    1.0000 </r>
       <r>   -5.9370    1.0000 </r>
       <r>   -5.3923    1.0000 </r>
       <r>   -5.3014    1.0000 </r>
       <r>   -4.2273    1.0000 </r>
       <r>   -4.1243    1.0000 </r>
       <r>   -3.3291    1.0000 </r>
       <r>   -3.1672    1.0000 </r>
       <r>   -0.5712    0.0000 </r>
       <r>   -0.5439    0.0000 </r>
       <r>    1.2671    0.0000 </r>
       <r>    1.3215    0.0000 </r>
       <r>    1.5362    0.0000 </r>
       <r>    1.5656    0.0000 </r>
      </set>
      <set comment="kpoint 25">
       <r>  -27.7328    1.0000 </r>
       <r>  -27.7289    1.0000 </r>
       <r>  -27.7283    1.0000 </r>
       <r>  -27.7207    1.0000 </r>
       <r>  -27.7202    1.0000 </r>
       <r>  -27.7050    1.0000 </r>
       <r>  -27.7043    1.0000 </r>
       <r>  -27.7009    1.0000 </r>
       <r>  -27.6883    1.0000 </r>
       <r>  -27.6836    1.0000 </r>
       <r>  -16.7400    1.0000 </r>
       <r>  -15.3055    1.0000 </r>
       <r>  -15.3054    1.0000 </r>
       <r>  -14.8007    1.0000 </r>
       <r>  -11.2337    1.0000 </r>
       <r>   -9.3597    1.0000 </r>
       <r>   -7.3213    1.0000 </r>
       <r>   -6.0279    1.0000 </r>
       <r>   -5.7678    1.0000 </r>
       <r>   -5.7415    1.0000 </r>
       <r>   -5.4149    1.0000 </r>
       <r>   -4.8401    1.0000 </r>
       <r>   -4.6967    1.0000 </r>
       <r>   -3.9058    1.0000 </r>
       <r>   -3.1945    1.0000 </r>
       <r>   -2.9792    1.0000 </r>
       <r>   -1.1117    0.0000 </r>
       <r>   -0.8980    0.0000 </r>
       <r>    0.2697    0.0000 </r>
       <r>    0.3575    0.0000 </r>
       <r>    0.9424    0.0000 </r>
       <r>    1.7157    0.0000 </r>
      </set>
      <set comment="kpoint 26">
       <r>  -27.7328    1.0000 </r>
       <r>  -27.7289    1.0000 </r>
       <r>  -27.7281    1.0000 </r>
       <r>  -27.7209    1.0000 </r>
       <r>  -27.7201    1.0000 </r>
       <r>  -27.7049    1.0000 </r>
       <r>  -27.7046    1.0000 </r>
       <r>  -27.7009    1.0000 </r>
       <r>  -27.6882    1.0000 </r>
       <r>  -27.6836    1.0000 </r>
       <r>  -16.7248    1.0000 </r>
       <r>  -15.3128    1.0000 </r>
       <r>  -15.3005    1.0000 </r>
       <r>  -14.8165    1.0000 </r>
       <r>  -11.2208    1.0000 </r>
       <r>   -9.3860    1.0000 </r>
       <r>   -7.2944    1.0000 </r>
       <r>   -6.0632    1.0000 </r>
       <r>   -6.0560    1.0000 </r>
       <r>   -5.4562    1.0000 </r>
       <r>   -5.4454    1.0000 </r>
       <r>   -4.7755    1.0000 </r>
       <r>   -4.7197    1.0000 </r>
       <r>   -3.8897    1.0000 </r>
       <r>   -3.3425    1.0000 </r>
       <r>   -2.8503    1.0000 </r>
       <r>   -1.0999    0.0000 </r>
       <r>   -1.0129    0.0000 </r>
       <r>    0.3892    0.0000 </r>
       <r>    0.4298    0.0000 </r>
       <r>    0.9823    0.0000 </r>
       <r>    1.6080    0.0000 </r>
      </set>
      <set comment="kpoint 27">
       <r>  -27.7328    1.0000 </r>
       <r>  -27.7288    1.0000 </r>
       <r>  -27.7277    1.0000 </r>
       <r>  -27.7211    1.0000 </r>
       <r>  -27.7199    1.0000 </r>
       <r>  -27.7056    1.0000 </r>
       <r>  -27.7046    1.0000 </r>
       <r>  -27.7007    1.0000 </r>
       <r>  -27.6881    1.0000 </r>
       <r>  -27.6837    1.0000 </r>
       <r>  -16.6796    1.0000 </r>
       <r>  -15.3377    1.0000 </r>
       <r>  -15.2859    1.0000 </r>
       <r>  -14.8594    1.0000 </r>
       <r>  -11.1817    1.0000 </r>
       <r>   -9.4646    1.0000 </r>
       <r>   -7.2158    1.0000 </r>
       <r>   -6.3242    1.0000 </r>
       <r>   -6.1615    1.0000 </r>
       <r>   -5.4850    1.0000 </r>
       <r>   -5.2104    1.0000 </r>
       <r>   -4.7881    1.0000 </r>
       <r>   -4.6472    1.0000 </r>
       <r>   -3.8350    1.0000 </r>
       <r>   -3.5515    1.0000 </r>
       <r>   -2.6973    1.0000 </r>
       <r>   -1.2104    0.0000 </r>
       <r>   -1.0615    0.0000 </r>
       <r>    0.4754    0.0000 </r>
       <r>    0.7572    0.0000 </r>
       <r>    1.0985    0.0000 </r>
       <r>    1.4718    0.0000 </r>
      </set>
      <set comment="kpoint 28">
       <r>  -27.7328    1.0000 </r>
       <r>  -27.7288    1.0000 </r>
       <r>  -27.7270    1.0000 </r>
       <r>  -27.7213    1.0000 </r>
       <r>  -27.7197    1.0000 </r>
       <r>  -27.7069    1.0000 </r>
       <r>  -27.7043    1.0000 </r>
       <r>  -27.7006    1.0000 </r>
       <r>  -27.6878    1.0000 </r>
       <r>  -27.6839    1.0000 </r>
       <r>  -16.6055    1.0000 </r>
       <r>  -15.3883    1.0000 </r>
       <r>  -15.2629    1.0000 </r>
       <r>  -14.9171    1.0000 </r>
       <r>  -11.1155    1.0000 </r>
       <r>   -9.5923    1.0000 </r>
       <r>   -7.0923    1.0000 </r>
       <r>   -6.5388    1.0000 </r>
       <r>   -6.2920    1.0000 </r>
       <r>   -5.4934    1.0000 </r>
       <r>   -5.0712    1.0000 </r>
       <r>   -4.8988    1.0000 </r>
       <r>   -4.5345    1.0000 </r>
       <r>   -3.7344    1.0000 </r>
       <r>   -3.7316    1.0000 </r>
       <r>   -2.6054    1.0000 </r>
       <r>   -1.3277    0.0000 </r>
       <r>   -0.9919    0.0000 </r>
       <r>    0.5973    0.0000 </r>
       <r>    1.0197    0.0000 </r>
       <r>    1.2744    0.0000 </r>
       <r>    1.4606    0.0000 </r>
      </set>
      <set comment="kpoint 29">
       <r>  -27.7326    1.0000 </r>
       <r>  -27.7290    1.0000 </r>
       <r>  -27.7262    1.0000 </r>
       <r>  -27.7214    1.0000 </r>
       <r>  -27.7194    1.0000 </r>
       <r>  -27.7086    1.0000 </r>
       <r>  -27.7038    1.0000 </r>
       <r>  -27.7007    1.0000 </r>
       <r>  -27.6874    1.0000 </r>
       <r>  -27.6842    1.0000 </r>
       <r>  -16.5046    1.0000 </r>
       <r>  -15.4739    1.0000 </r>
       <r>  -15.2334    1.0000 </r>
       <r>  -14.9742    1.0000 </r>
       <r>  -11.0214    1.0000 </r>
       <r>   -9.7614    1.0000 </r>
       <r>   -6.9414    1.0000 </r>
       <r>   -6.6926    1.0000 </r>
       <r>   -6.4072    1.0000 </r>
       <r>   -5.4776    1.0000 </r>
       <r>   -5.0702    1.0000 </r>
       <r>   -5.0419    1.0000 </r>
       <r>   -4.4586    1.0000 </r>
       <r>   -3.8787    1.0000 </r>
       <r>   -3.5845    1.0000 </r>
       <r>   -2.5889    1.0000 </r>
       <r>   -1.3054    0.0000 </r>
       <r>   -0.8962    0.0000 </r>
       <r>    0.7407    0.0000 </r>
       <r>    1.0552    0.0000 </r>
       <r>    1.4686    0.0000 </r>
       <r>    1.6993    0.0000 </r>
      </set>
      <set comment="kpoint 30">
       <r>  -27.7323    1.0000 </r>
       <r>  -27.7294    1.0000 </r>
       <r>  -27.7253    1.0000 </r>
       <r>  -27.7216    1.0000 </r>
       <r>  -27.7187    1.0000 </r>
       <r>  -27.7104    1.0000 </r>
       <r>  -27.7032    1.0000 </r>
       <r>  -27.7008    1.0000 </r>
       <r>  -27.6869    1.0000 </r>
       <r>  -27.6846    1.0000 </r>
       <r>  -16.3798    1.0000 </r>
       <r>  -15.5962    1.0000 </r>
       <r>  -15.1998    1.0000 </r>
       <r>  -15.0214    1.0000 </r>
       <r>  -10.8991    1.0000 </r>
       <r>   -9.9588    1.0000 </r>
       <r>   -6.8192    1.0000 </r>
       <r>   -6.7892    1.0000 </r>
       <r>   -6.4343    1.0000 </r>
       <r>   -5.4506    1.0000 </r>
       <r>   -5.2485    1.0000 </r>
       <r>   -5.1406    1.0000 </r>
       <r>   -4.4031    1.0000 </r>
       <r>   -3.9949    1.0000 </r>
       <r>   -3.4138    1.0000 </r>
       <r>   -2.6432    1.0000 </r>
       <r>   -1.1631    0.0000 </r>
       <r>   -0.7960    0.0000 </r>
       <r>    0.8995    0.0000 </r>
       <r>    1.0517    0.0000 </r>
       <r>    1.6186    0.0000 </r>
       <r>    1.9818    0.0000 </r>
      </set>
      <set comment="kpoint 31">
       <r>  -27.7318    1.0000 </r>
       <r>  -27.7299    1.0000 </r>
       <r>  -27.7243    1.0000 </r>
       <r>  -27.7220    1.0000 </r>
       <r>  -27.7176    1.0000 </r>
       <r>  -27.7123    1.0000 </r>
       <r>  -27.7026    1.0000 </r>
       <r>  -27.7012    1.0000 </r>
       <r>  -27.6864    1.0000 </r>
       <r>  -27.6850    1.0000 </r>
       <r>  -16.2352    1.0000 </r>
       <r>  -15.7459    1.0000 </r>
       <r>  -15.1644    1.0000 </r>
       <r>  -15.0600    1.0000 </r>
       <r>  -10.7492    1.0000 </r>
       <r>  -10.1692    1.0000 </r>
       <r>   -6.8383    1.0000 </r>
       <r>   -6.8039    1.0000 </r>
       <r>   -6.2917    1.0000 </r>
       <r>   -5.4946    1.0000 </r>
       <r>   -5.4182    1.0000 </r>
       <r>   -5.2396    1.0000 </r>
       <r>   -4.3461    1.0000 </r>
       <r>   -4.0976    1.0000 </r>
       <r>   -3.2361    1.0000 </r>
       <r>   -2.7519    1.0000 </r>
       <r>   -0.9724    0.0000 </r>
       <r>   -0.7272    0.0000 </r>
       <r>    1.0689    0.0000 </r>
       <r>    1.1066    0.0000 </r>
       <r>    1.6684    0.0000 </r>
       <r>    1.8641    0.0000 </r>
      </set>
      <set comment="kpoint 32">
       <r>  -27.7312    1.0000 </r>
       <r>  -27.7306    1.0000 </r>
       <r>  -27.7235    1.0000 </r>
       <r>  -27.7227    1.0000 </r>
       <r>  -27.7160    1.0000 </r>
       <r>  -27.7142    1.0000 </r>
       <r>  -27.7021    1.0000 </r>
       <r>  -27.7016    1.0000 </r>
       <r>  -27.6859    1.0000 </r>
       <r>  -27.6855    1.0000 </r>
       <r>  -16.0761    1.0000 </r>
       <r>  -15.9099    1.0000 </r>
       <r>  -15.1291    1.0000 </r>
       <r>  -15.0946    1.0000 </r>
       <r>  -10.5739    1.0000 </r>
       <r>  -10.3779    1.0000 </r>
       <r>   -6.8499    1.0000 </r>
       <r>   -6.8332    1.0000 </r>
       <r>   -6.0476    1.0000 </r>
       <r>   -5.7709    1.0000 </r>
       <r>   -5.3775    1.0000 </r>
       <r>   -5.3202    1.0000 </r>
       <r>   -4.2762    1.0000 </r>
       <r>   -4.1921    1.0000 </r>
       <r>   -3.0610    1.0000 </r>
       <r>   -2.8961    1.0000 </r>
       <r>   -0.8104    0.0000 </r>
       <r>   -0.7254    0.0000 </r>
       <r>    1.2073    0.0000 </r>
       <r>    1.2127    0.0000 </r>
       <r>    1.6303    0.0000 </r>
       <r>    1.6849    0.0000 </r>
      </set>
      <set comment="kpoint 33">
       <r>  -27.7321    1.0000 </r>
       <r>  -27.7286    1.0000 </r>
       <r>  -27.7274    1.0000 </r>
       <r>  -27.7216    1.0000 </r>
       <r>  -27.7191    1.0000 </r>
       <r>  -27.7065    1.0000 </r>
       <r>  -27.7044    1.0000 </r>
       <r>  -27.7014    1.0000 </r>
       <r>  -27.6878    1.0000 </r>
       <r>  -27.6842    1.0000 </r>
       <r>  -16.6083    1.0000 </r>
       <r>  -15.5429    1.0000 </r>
       <r>  -15.2460    1.0000 </r>
       <r>  -14.8626    1.0000 </r>
       <r>  -10.9237    1.0000 </r>
       <r>   -9.5057    1.0000 </r>
       <r>   -7.2105    1.0000 </r>
       <r>   -6.1084    1.0000 </r>
       <r>   -6.0526    1.0000 </r>
       <r>   -5.9597    1.0000 </r>
       <r>   -5.3402    1.0000 </r>
       <r>   -4.7722    1.0000 </r>
       <r>   -4.6653    1.0000 </r>
       <r>   -3.7567    1.0000 </r>
       <r>   -3.4595    1.0000 </r>
       <r>   -3.0944    1.0000 </r>
       <r>   -0.9203    0.0000 </r>
       <r>   -0.5317    0.0000 </r>
       <r>    0.4752    0.0000 </r>
       <r>    0.9416    0.0000 </r>
       <r>    1.0935    0.0000 </r>
       <r>    1.4509    0.0000 </r>
      </set>
      <set comment="kpoint 34">
       <r>  -27.7321    1.0000 </r>
       <r>  -27.7287    1.0000 </r>
       <r>  -27.7272    1.0000 </r>
       <r>  -27.7216    1.0000 </r>
       <r>  -27.7192    1.0000 </r>
       <r>  -27.7069    1.0000 </r>
       <r>  -27.7043    1.0000 </r>
       <r>  -27.7013    1.0000 </r>
       <r>  -27.6877    1.0000 </r>
       <r>  -27.6842    1.0000 </r>
       <r>  -16.5945    1.0000 </r>
       <r>  -15.5456    1.0000 </r>
       <r>  -15.2425    1.0000 </r>
       <r>  -14.8733    1.0000 </r>
       <r>  -10.9270    1.0000 </r>
       <r>   -9.5390    1.0000 </r>
       <r>   -7.1729    1.0000 </r>
       <r>   -6.2865    1.0000 </r>
       <r>   -6.1376    1.0000 </r>
       <r>   -5.6950    1.0000 </r>
       <r>   -5.3745    1.0000 </r>
       <r>   -4.8054    1.0000 </r>
       <r>   -4.6142    1.0000 </r>
       <r>   -3.7331    1.0000 </r>
       <r>   -3.5706    1.0000 </r>
       <r>   -2.9753    1.0000 </r>
       <r>   -0.9102    0.0000 </r>
       <r>   -0.6585    0.0000 </r>
       <r>    0.4946    0.0000 </r>
       <r>    1.0407    0.0000 </r>
       <r>    1.1325    0.0000 </r>
       <r>    1.3952    0.0000 </r>
      </set>
      <set comment="kpoint 35">
       <r>  -27.7323    1.0000 </r>
       <r>  -27.7289    1.0000 </r>
       <r>  -27.7266    1.0000 </r>
       <r>  -27.7213    1.0000 </r>
       <r>  -27.7193    1.0000 </r>
       <r>  -27.7077    1.0000 </r>
       <r>  -27.7041    1.0000 </r>
       <r>  -27.7010    1.0000 </r>
       <r>  -27.6875    1.0000 </r>
       <r>  -27.6843    1.0000 </r>
       <r>  -16.5537    1.0000 </r>
       <r>  -15.5558    1.0000 </r>
       <r>  -15.2321    1.0000 </r>
       <r>  -14.9035    1.0000 </r>
       <r>  -10.9334    1.0000 </r>
       <r>   -9.6351    1.0000 </r>
       <r>   -7.0639    1.0000 </r>
       <r>   -6.5087    1.0000 </r>
       <r>   -6.2238    1.0000 </r>
       <r>   -5.4283    1.0000 </r>
       <r>   -5.3932    1.0000 </r>
       <r>   -4.9005    1.0000 </r>
       <r>   -4.5185    1.0000 </r>
       <r>   -3.7416    1.0000 </r>
       <r>   -3.6554    1.0000 </r>
       <r>   -2.7856    1.0000 </r>
       <r>   -0.9252    0.0000 </r>
       <r>   -0.8811    0.0000 </r>
       <r>    0.5500    0.0000 </r>
       <r>    1.1172    0.0000 </r>
       <r>    1.2454    0.0000 </r>
       <r>    1.4611    0.0000 </r>
[...]
       <r>    1.3923    0.0000 </r>
       <r>    1.4437    0.0000 </r>
      </set>
      <set comment="kpoint 54">
       <r>  -27.7323    1.0000 </r>
       <r>  -27.7318    1.0000 </r>
       <r>  -27.7216    1.0000 </r>
       <r>  -27.7206    1.0000 </r>
       <r>  -27.7173    1.0000 </r>
       <r>  -27.7156    1.0000 </r>
       <r>  -27.7016    1.0000 </r>
       <r>  -27.7012    1.0000 </r>
       <r>  -27.6858    1.0000 </r>
       <r>  -27.6854    1.0000 </r>
       <r>  -16.0577    1.0000 </r>
       <r>  -15.9298    1.0000 </r>
       <r>  -15.1169    1.0000 </r>
       <r>  -15.0892    1.0000 </r>
       <r>  -10.6997    1.0000 </r>
       <r>  -10.5503    1.0000 </r>
       <r>   -6.8226    1.0000 </r>
       <r>   -6.7773    1.0000 </r>
       <r>   -5.8244    1.0000 </r>
       <r>   -5.6425    1.0000 </r>
       <r>   -5.2315    1.0000 </r>
       <r>   -5.0554    1.0000 </r>
       <r>   -4.3300    1.0000 </r>
       <r>   -4.2620    1.0000 </r>
       <r>   -2.6603    1.0000 </r>
       <r>   -2.5226    1.0000 </r>
       <r>   -1.2313    0.0000 </r>
       <r>   -1.0345    0.0000 </r>
       <r>    1.1678    0.0000 </r>
       <r>    1.2082    0.0000 </r>
       <r>    1.4479    0.0000 </r>
       <r>    1.4791    0.0000 </r>
      </set>
      <set comment="kpoint 55">
       <r>  -27.7326    1.0000 </r>
       <r>  -27.7323    1.0000 </r>
       <r>  -27.7207    1.0000 </r>
       <r>  -27.7199    1.0000 </r>
       <r>  -27.7180    1.0000 </r>
       <r>  -27.7166    1.0000 </r>
       <r>  -27.7013    1.0000 </r>
       <r>  -27.7010    1.0000 </r>
       <r>  -27.6856    1.0000 </r>
       <r>  -27.6854    1.0000 </r>
       <r>  -16.0012    1.0000 </r>
       <r>  -15.9189    1.0000 </r>
       <r>  -15.1241    1.0000 </r>
       <r>  -15.1096    1.0000 </r>
       <r>  -10.7609    1.0000 </r>
       <r>  -10.6687    1.0000 </r>
       <r>   -6.8432    1.0000 </r>
       <r>   -6.8132    1.0000 </r>
       <r>   -5.7887    1.0000 </r>
       <r>   -5.6969    1.0000 </r>
       <r>   -5.0641    1.0000 </r>
       <r>   -4.9134    1.0000 </r>
       <r>   -4.3599    1.0000 </r>
       <r>   -4.3115    1.0000 </r>
       <r>   -2.5199    1.0000 </r>
       <r>   -2.4376    1.0000 </r>
       <r>   -1.3791    0.0000 </r>
       <r>   -1.2239    0.0000 </r>
       <r>    1.1983    0.0000 </r>
       <r>    1.3219    0.0000 </r>
       <r>    1.4333    0.0000 </r>
       <r>    1.5237    0.0000 </r>
      </set>
      <set comment="kpoint 56">
       <r>  -27.7326    1.0000 </r>
       <r>  -27.7325    1.0000 </r>
       <r>  -27.7200    1.0000 </r>
       <r>  -27.7195    1.0000 </r>
       <r>  -27.7182    1.0000 </r>
       <r>  -27.7175    1.0000 </r>
       <r>  -27.7010    1.0000 </r>
       <r>  -27.7010    1.0000 </r>
       <r>  -27.6855    1.0000 </r>
       <r>  -27.6854    1.0000 </r>
       <r>  -15.9550    1.0000 </r>
       <r>  -15.9265    1.0000 </r>
       <r>  -15.1273    1.0000 </r>
       <r>  -15.1229    1.0000 </r>
       <r>  -10.7780    1.0000 </r>
       <r>  -10.7468    1.0000 </r>
       <r>   -6.8514    1.0000 </r>
       <r>   -6.8413    1.0000 </r>
       <r>   -5.7604    1.0000 </r>
       <r>   -5.7329    1.0000 </r>
       <r>   -4.9277    1.0000 </r>
       <r>   -4.8700    1.0000 </r>
       <r>   -4.3643    1.0000 </r>
       <r>   -4.3454    1.0000 </r>
       <r>   -2.4373    1.0000 </r>
       <r>   -2.4113    1.0000 </r>
       <r>   -1.4236    0.0000 </r>
       <r>   -1.3653    0.0000 </r>
       <r>    1.2563    0.0000 </r>
       <r>    1.3218    0.0000 </r>
       <r>    1.4671    0.0000 </r>
       <r>    1.5153    0.0000 </r>
      </set>
     </set>
    </set>
   </array>
  </eigenvalues>
  <separator name="orbital magnetization" >
   <v name="MAGDIPOLOUT">      0.00000000      0.00000000      0.00000000</v>
  </separator>
  <dos>
   <i name="efermi">     -2.31025848 </i>
   <total>
    <array>
     <dimension dim="1">gridpoints</dimension>
     <dimension dim="2">spin</dimension>
     <field>energy</field>
     <field>total</field>
     <field>integrated</field>
     <set>
      <set comment="spin 1">
       <r>   -29.2243     0.0000     0.0000 </r>
       <r>   -29.1150     0.0000     0.0000 </r>
       <r>   -29.0057     0.0000     0.0000 </r>
       <r>   -28.8964     0.0000     0.0000 </r>
       <r>   -28.7871     0.0000     0.0000 </r>
       <r>   -28.6778     0.0000     0.0000 </r>
       <r>   -28.5685     0.0000     0.0000 </r>
       <r>   -28.4593     0.0000     0.0000 </r>
       <r>   -28.3500     0.0000     0.0000 </r>
       <r>   -28.2407     0.0000     0.0000 </r>
       <r>   -28.1314     0.0000     0.0000 </r>
       <r>   -28.0221     0.0000     0.0000 </r>
       <r>   -27.9128     0.0000     0.0000 </r>
       <r>   -27.8035     0.0000     0.0000 </r>
       <r>   -27.6942   141.6876    15.4858 </r>
       <r>   -27.5849    41.3022    20.0000 </r>
       <r>   -27.4756     0.0000    20.0000 </r>
       <r>   -27.3663     0.0000    20.0000 </r>
       <r>   -27.2570     0.0000    20.0000 </r>
       <r>   -27.1477     0.0000    20.0000 </r>
       <r>   -27.0384     0.0000    20.0000 </r>
       <r>   -26.9291     0.0000    20.0000 </r>
       <r>   -26.8198     0.0000    20.0000 </r>
       <r>   -26.7105     0.0000    20.0000 </r>
       <r>   -26.6012     0.0000    20.0000 </r>
       <r>   -26.4919     0.0000    20.0000 </r>
       <r>   -26.3826     0.0000    20.0000 </r>
       <r>   -26.2733     0.0000    20.0000 </r>
       <r>   -26.1640     0.0000    20.0000 </r>
       <r>   -26.0547     0.0000    20.0000 </r>
       <r>   -25.9455     0.0000    20.0000 </r>
       <r>   -25.8362     0.0000    20.0000 </r>
       <r>   -25.7269     0.0000    20.0000 </r>
       <r>   -25.6176     0.0000    20.0000 </r>
       <r>   -25.5083     0.0000    20.0000 </r>
       <r>   -25.3990     0.0000    20.0000 </r>
       <r>   -25.2897     0.0000    20.0000 </r>
       <r>   -25.1804     0.0000    20.0000 </r>
       <r>   -25.0711     0.0000    20.0000 </r>
       <r>   -24.9618     0.0000    20.0000 </r>
       <r>   -24.8525     0.0000    20.0000 </r>
       <r>   -24.7432     0.0000    20.0000 </r>
       <r>   -24.6339     0.0000    20.0000 </r>
       <r>   -24.5246     0.0000    20.0000 </r>
       <r>   -24.4153     0.0000    20.0000 </r>
       <r>   -24.3060     0.0000    20.0000 </r>
       <r>   -24.1967     0.0000    20.0000 </r>
       <r>   -24.0874     0.0000    20.0000 </r>
       <r>   -23.9781     0.0000    20.0000 </r>
       <r>   -23.8688     0.0000    20.0000 </r>
       <r>   -23.7595     0.0000    20.0000 </r>
       <r>   -23.6502     0.0000    20.0000 </r>
       <r>   -23.5409     0.0000    20.0000 </r>
       <r>   -23.4317     0.0000    20.0000 </r>
       <r>   -23.3224     0.0000    20.0000 </r>
       <r>   -23.2131     0.0000    20.0000 </r>
       <r>   -23.1038     0.0000    20.0000 </r>
       <r>   -22.9945     0.0000    20.0000 </r>
       <r>   -22.8852     0.0000    20.0000 </r>
       <r>   -22.7759     0.0000    20.0000 </r>
       <r>   -22.6666     0.0000    20.0000 </r>
       <r>   -22.5573     0.0000    20.0000 </r>
       <r>   -22.4480     0.0000    20.0000 </r>
       <r>   -22.3387     0.0000    20.0000 </r>
       <r>   -22.2294     0.0000    20.0000 </r>
       <r>   -22.1201     0.0000    20.0000 </r>
       <r>   -22.0108     0.0000    20.0000 </r>
       <r>   -21.9015     0.0000    20.0000 </r>
       <r>   -21.7922     0.0000    20.0000 </r>
       <r>   -21.6829     0.0000    20.0000 </r>
       <r>   -21.5736     0.0000    20.0000 </r>
       <r>   -21.4643     0.0000    20.0000 </r>
       <r>   -21.3550     0.0000    20.0000 </r>
       <r>   -21.2457     0.0000    20.0000 </r>
       <r>   -21.1364     0.0000    20.0000 </r>
       <r>   -21.0271     0.0000    20.0000 </r>
       <r>   -20.9179     0.0000    20.0000 </r>
       <r>   -20.8086     0.0000    20.0000 </r>
       <r>   -20.6993     0.0000    20.0000 </r>
       <r>   -20.5900     0.0000    20.0000 </r>
       <r>   -20.4807     0.0000    20.0000 </r>
       <r>   -20.3714     0.0000    20.0000 </r>
       <r>   -20.2621     0.0000    20.0000 </r>
       <r>   -20.1528     0.0000    20.0000 </r>
       <r>   -20.0435     0.0000    20.0000 </r>
       <r>   -19.9342     0.0000    20.0000 </r>
       <r>   -19.8249     0.0000    20.0000 </r>
       <r>   -19.7156     0.0000    20.0000 </r>
       <r>   -19.6063     0.0000    20.0000 </r>
       <r>   -19.4970     0.0000    20.0000 </r>
       <r>   -19.3877     0.0000    20.0000 </r>
       <r>   -19.2784     0.0000    20.0000 </r>
       <r>   -19.1691     0.0000    20.0000 </r>
       <r>   -19.0598     0.0000    20.0000 </r>
       <r>   -18.9505     0.0000    20.0000 </r>
       <r>   -18.8412     0.0000    20.0000 </r>
       <r>   -18.7319     0.0000    20.0000 </r>
       <r>   -18.6226     0.0000    20.0000 </r>
       <r>   -18.5133     0.0000    20.0000 </r>
       <r>   -18.4040     0.0000    20.0000 </r>
       <r>   -18.2948     0.0000    20.0000 </r>
       <r>   -18.1855     0.0000    20.0000 </r>
       <r>   -18.0762     0.0000    20.0000 </r>
       <r>   -17.9669     0.0000    20.0000 </r>
       <r>   -17.8576     0.0000    20.0000 </r>
       <r>   -17.7483     0.0000    20.0000 </r>
       <r>   -17.6390     0.0000    20.0000 </r>
       <r>   -17.5297     0.0000    20.0000 </r>
       <r>   -17.4204     0.0000    20.0000 </r>
       <r>   -17.3111     0.0000    20.0000 </r>
       <r>   -17.2018     0.0000    20.0000 </r>
       <r>   -17.0925     0.0000    20.0000 </r>
       <r>   -16.9832     0.0000    20.0000 </r>
       <r>   -16.8739     0.6658    20.0728 </r>
       <r>   -16.7646     1.6800    20.2564 </r>
       <r>   -16.6553     1.9315    20.4675 </r>
       <r>   -16.5460     2.0870    20.6956 </r>
       <r>   -16.4367     1.9749    20.9114 </r>
       <r>   -16.3274     2.0733    21.1380 </r>
       <r>   -16.2181     2.4900    21.4102 </r>
       <r>   -16.1088     2.4748    21.6807 </r>
       <r>   -15.9995     2.9239    22.0003 </r>
       <r>   -15.8902     4.7422    22.5186 </r>
       <r>   -15.7810     2.1105    22.7492 </r>
       <r>   -15.6717     2.4890    23.0213 </r>
       <r>   -15.5624     1.2979    23.1631 </r>
       <r>   -15.4531     2.0707    23.3895 </r>
       <r>   -15.3438     2.5276    23.6657 </r>
       <r>   -15.2345     6.4659    24.3724 </r>
       <r>   -15.1252     9.5938    25.4210 </r>
       <r>   -15.0159    11.8819    26.7196 </r>
       <r>   -14.9066     7.0300    27.4880 </r>
       <r>   -14.7973     3.1952    27.8372 </r>
       <r>   -14.6880     1.4857    27.9996 </r>
       <r>   -14.5787     0.0040    28.0000 </r>
       <r>   -14.4694     0.0000    28.0000 </r>
       <r>   -14.3601     0.0000    28.0000 </r>
       <r>   -14.2508     0.0000    28.0000 </r>
       <r>   -14.1415     0.0000    28.0000 </r>
       <r>   -14.0322     0.0000    28.0000 </r>
       <r>   -13.9229     0.0000    28.0000 </r>
       <r>   -13.8136     0.0000    28.0000 </r>
       <r>   -13.7043     0.0000    28.0000 </r>
       <r>   -13.5950     0.0000    28.0000 </r>
       <r>   -13.4857     0.0000    28.0000 </r>
       <r>   -13.3764     0.0000    28.0000 </r>
       <r>   -13.2672     0.0000    28.0000 </r>
       <r>   -13.1579     0.0000    28.0000 </r>
       <r>   -13.0486     0.0000    28.0000 </r>
       <r>   -12.9393     0.0000    28.0000 </r>
       <r>   -12.8300     0.0000    28.0000 </r>
       <r>   -12.7207     0.0000    28.0000 </r>
       <r>   -12.6114     0.0000    28.0000 </r>
       <r>   -12.5021     0.0000    28.0000 </r>
       <r>   -12.3928     0.0000    28.0000 </r>
       <r>   -12.2835     0.0000    28.0000 </r>
       <r>   -12.1742     0.0000    28.0000 </r>
       <r>   -12.0649     0.0000    28.0000 </r>
       <r>   -11.9556     0.0000    28.0000 </r>
       <r>   -11.8463     0.0000    28.0000 </r>
       <r>   -11.7370     0.0533    28.0058 </r>
       <r>   -11.6277     0.6772    28.0798 </r>
       <r>   -11.5184     0.5328    28.1381 </r>
       <r>   -11.4091     0.7289    28.2177 </r>
       <r>   -11.2998     0.9173    28.3180 </r>
       <r>   -11.1905     1.0313    28.4307 </r>
       <r>   -11.0812     1.5139    28.5962 </r>
       <r>   -10.9719     0.4600    28.6465 </r>
       <r>   -10.8626     3.2541    29.0021 </r>
       <r>   -10.7534     2.6929    29.2964 </r>
       <r>   -10.6441     3.3920    29.6672 </r>
       <r>   -10.5348     2.5554    29.9465 </r>
       <r>   -10.4255     1.2600    30.0842 </r>
       <r>   -10.3162     2.4196    30.3486 </r>
       <r>   -10.2069     1.2965    30.4903 </r>
       <r>   -10.0976     1.6801    30.6740 </r>
       <r>    -9.9883     1.3543    30.8220 </r>
       <r>    -9.8790     1.1933    30.9524 </r>
       <r>    -9.7697     1.5847    31.1256 </r>
       <r>    -9.6604     1.1312    31.2492 </r>
       <r>    -9.5511     1.5927    31.4233 </r>
       <r>    -9.4418     1.6196    31.6003 </r>
       <r>    -9.3325     1.5136    31.7658 </r>
       <r>    -9.2232     1.6428    31.9453 </r>
       <r>    -9.1139     0.5003    32.0000 </r>
       <r>    -9.0046     0.0000    32.0000 </r>
       <r>    -8.8953     0.0000    32.0000 </r>
       <r>    -8.7860     0.0000    32.0000 </r>
       <r>    -8.6767     0.0000    32.0000 </r>
       <r>    -8.5674     0.0000    32.0000 </r>
       <r>    -8.4581     0.0000    32.0000 </r>
       <r>    -8.3488     0.0000    32.0000 </r>
       <r>    -8.2395     0.0000    32.0000 </r>
       <r>    -8.1303     0.0000    32.0000 </r>
       <r>    -8.0210     0.0000    32.0000 </r>
       <r>    -7.9117     0.0000    32.0000 </r>
       <r>    -7.8024     0.0000    32.0000 </r>
       <r>    -7.6931     0.0000    32.0000 </r>
       <r>    -7.5838     0.0000    32.0000 </r>
       <r>    -7.4745     0.0138    32.0015 </r>
       <r>    -7.3652     2.6344    32.2894 </r>
       <r>    -7.2559     2.2435    32.5346 </r>
       <r>    -7.1466     1.9441    32.7471 </r>
       <r>    -7.0373     1.9011    32.9549 </r>
       <r>    -6.9280     1.7033    33.1411 </r>
       <r>    -6.8187     7.3012    33.9391 </r>
       <r>    -6.7094     7.8220    34.7940 </r>
       <r>    -6.6001     3.4151    35.1672 </r>
       <r>    -6.4908     1.8035    35.3644 </r>
       <r>    -6.3815     1.7804    35.5590 </r>
       <r>    -6.2722     3.1108    35.8990 </r>
       <r>    -6.1629     4.6601    36.4083 </r>
       <r>    -6.0536     6.9774    37.1709 </r>
       <r>    -5.9443     3.4976    37.5532 </r>
       <r>    -5.8350     3.7675    37.9649 </r>
       <r>    -5.7257     4.5048    38.4573 </r>
       <r>    -5.6165     4.6046    38.9606 </r>
       <r>    -5.5072     5.1213    39.5203 </r>
       <r>    -5.3979     8.0382    40.3989 </r>
       <r>    -5.2886     7.3209    41.1990 </r>
       <r>    -5.1793     6.5391    41.9137 </r>
       <r>    -5.0700     4.8942    42.4486 </r>
       <r>    -4.9607     5.4217    43.0412 </r>
       <r>    -4.8514     4.9554    43.5828 </r>
       <r>    -4.7421     3.2064    43.9333 </r>
       <r>    -4.6328     4.5556    44.4312 </r>
       <r>    -4.5235     1.7096    44.6180 </r>
       <r>    -4.4142     2.9251    44.9377 </r>
       <r>    -4.3049     7.4762    45.7548 </r>
       <r>    -4.1956     4.7849    46.2778 </r>
       <r>    -4.0863     3.9377    46.7082 </r>
       <r>    -3.9770     4.6961    47.2215 </r>
       <r>    -3.8677     3.6288    47.6181 </r>
       <r>    -3.7584     2.2047    47.8590 </r>
       <r>    -3.6491     3.3573    48.2260 </r>
       <r>    -3.5398     3.0183    48.5559 </r>
       <r>    -3.4305     2.3625    48.8141 </r>
       <r>    -3.3212     3.1492    49.1583 </r>
       <r>    -3.2119     2.4265    49.4235 </r>
       <r>    -3.1027     2.4429    49.6905 </r>
       <r>    -2.9934     2.5835    49.9728 </r>
       <r>    -2.8841     3.1013    50.3118 </r>
       <r>    -2.7748     3.5829    50.7034 </r>
       <r>    -2.6655     4.4619    51.1910 </r>
       <r>    -2.5562     3.2083    51.5417 </r>
       <r>    -2.4469     3.0483    51.8749 </r>
       <r>    -2.3376     1.1449    52.0000 </r>
       <r>    -2.2283     0.0000    52.0000 </r>
       <r>    -2.1190     0.0000    52.0000 </r>
       <r>    -2.0097     0.0000    52.0000 </r>
       <r>    -1.9004     0.0000    52.0000 </r>
       <r>    -1.7911     0.0000    52.0000 </r>
       <r>    -1.6818     0.0823    52.0090 </r>
       <r>    -1.5725     0.3163    52.0436 </r>
       <r>    -1.4632     0.4469    52.0924 </r>
       <r>    -1.3539     2.8166    52.4003 </r>
       <r>    -1.2446     4.8559    52.9310 </r>
       <r>    -1.1353     4.0098    53.3692 </r>
       <r>    -1.0260     3.3144    53.7315 </r>
       <r>    -0.9167     3.7211    54.1382 </r>
       <r>    -0.8074     4.6838    54.6501 </r>
       <r>    -0.6981     3.4513    55.0273 </r>
       <r>    -0.5889     3.7782    55.4403 </r>
       <r>    -0.4796     2.6393    55.7287 </r>
       <r>    -0.3703     1.5396    55.8970 </r>
       <r>    -0.2610     1.9016    56.1048 </r>
       <r>    -0.1517     0.5478    56.1647 </r>
       <r>    -0.0424     0.4638    56.2154 </r>
       <r>     0.0669     0.0000    56.2154 </r>
       <r>     0.1762     0.2105    56.2384 </r>
       <r>     0.2855     1.5234    56.4049 </r>
       <r>     0.3948     1.6866    56.5892 </r>
       <r>     0.5041     1.8223    56.7884 </r>
       <r>     0.6134     1.9085    56.9970 </r>
       <r>     0.7227     2.2470    57.2426 </r>
       <r>     0.8320     3.8875    57.6675 </r>
       <r>     0.9413     3.1388    58.0105 </r>
       <r>     1.0506     6.2453    58.6931 </r>
       <r>     1.1599     7.5601    59.5194 </r>
       <r>     1.2692     7.3631    60.3242 </r>
       <r>     1.3785     6.2135    61.0033 </r>
       <r>     1.4878     8.7779    61.9627 </r>
       <r>     1.5971     4.9383    62.5024 </r>
       <r>     1.7064     5.0528    63.0547 </r>
       <r>     1.8157     4.6087    63.5584 </r>
       <r>     1.9249     2.1346    63.7917 </r>
       <r>     2.0342     1.6713    63.9744 </r>
       <r>     2.1435     0.2346    64.0000 </r>
       <r>     2.2528     0.0000    64.0000 </r>
       <r>     2.3621     0.0000    64.0000 </r>
       <r>     2.4714     0.0000    64.0000 </r>
       <r>     2.5807     0.0000    64.0000 </r>
       <r>     2.6900     0.0000    64.0000 </r>
       <r>     2.7993     0.0000    64.0000 </r>
       <r>     2.9086     0.0000    64.0000 </r>
       <r>     3.0179     0.0000    64.0000 </r>
       <r>     3.1272     0.0000    64.0000 </r>
       <r>     3.2365     0.0000    64.0000 </r>
       <r>     3.3458     0.0000    64.0000 </r>
       <r>     3.4551     0.0000    64.0000 </r>
       <r>     3.5644     0.0000    64.0000 </r>
      </set>
     </set>
    </array>
   </total>
  </dos>
 </calculation>
 <structure name="finalpos" >
  <crystal>
   <varray name="basis" >
    <v>       4.90607700       0.00000000       0.00000000 </v>
    <v>       0.00000000       5.48699800       0.00000000 </v>
    <v>       0.00000000       0.00000000      18.07929100 </v>
   </varray>
   <i name="volume">    486.68790912 </i>
   <varray name="rec_basis" >
    <v>       0.20382884       0.00000000       0.00000000 </v>
    <v>       0.00000000       0.18224902       0.00000000 </v>
    <v>       0.00000000       0.00000000       0.05531190 </v>
   </varray>
  </crystal>
  <varray name="positions" >
   <v>       0.50000000       0.50000000       0.50000000 </v>
   <v>      -0.00000000      -0.00000000       0.50000000 </v>
   <v>       0.25000000       0.25000000       0.41463057 </v>
   <v>       0.75000000       0.75000000       0.41463057 </v>
   <v>       0.75000000       0.25000000       0.58536943 </v>
   <v>       0.25000000       0.75000000       0.58536943 </v>
  </varray>
 </structure>
</modeling>
