<?xml version="1.0" encoding="ISO-8859-1"?>
<modeling>
 <generator>
  <i name="program" type="string">vasp </i>
  <i name="version" type="string">5.4.1  </i>
  <i name="subversion" type="string">24Jun15 (build Nov 20 2020 10:29:34) complex                          parallel </i>
  <i name="platform" type="string">IFC91_ompi </i>
  <i name="date" type="string">2021 09 14 </i>
  <i name="time" type="string">00:24:01 </i>
 </generator>
 <incar>
  <i type="int" name="ISTART">     1</i>
  <i type="string" name="PREC">a</i>
  <i type="string" name="ALGO"> Normal</i>
  <i type="int" name="ISPIN">     1</i>
  <i type="int" name="ICHARG">     2</i>
  <i type="int" name="NELM">   250</i>
  <i type="int" name="NELMDL">    -5</i>
  <i type="int" name="NELMIN">     6</i>
  <i type="int" name="IBRION">     2</i>
  <i name="EDIFF">      0.00001000</i>
  <i name="EDIFFG">     -0.00500000</i>
  <i type="int" name="NSW">     0</i>
  <i type="int" name="ISIF">     2</i>
  <i name="ENCUT">    520.00000000</i>
  <i name="POTIM">      0.25000000</i>
  <v name="MAGMOM">      0.60000000      0.60000000</v>
  <i type="string" name="LREAL"> Auto</i>
  <i type="int" name="ISMEAR">     0</i>
  <i name="SIGMA">      0.02000000</i>
  <i type="logical" name="LWAVE"> F  </i>
  <i type="logical" name="LCHARG"> F  </i>
  <i type="logical" name="LVHAR"> F  </i>
  <v type="int" name="KPOINT_BSE">    -1     0     0     0</v>
  <i type="int" name="NELM">   250</i>
 </incar>
 <kpoints>
  <generation param="Gamma">
   <v type="int" name="divisions">      24       24        1 </v>
   <v name="usershift">      0.00000000       0.00000000       0.00000000 </v>
   <v name="genvec1">      0.04166667       0.00000000       0.00000000 </v>
   <v name="genvec2">      0.00000000       0.04166667       0.00000000 </v>
   <v name="genvec3">      0.00000000       0.00000000       1.00000000 </v>
   <v name="shift">      0.00000000       0.00000000       0.00000000 </v>
  </generation>
  <varray name="kpointlist" >
   <v>       0.00000000       0.00000000       0.00000000 </v>
   <v>       0.04166667       0.00000000       0.00000000 </v>
   <v>       0.08333333       0.00000000       0.00000000 </v>
   <v>       0.12500000       0.00000000       0.00000000 </v>
   <v>       0.16666667       0.00000000       0.00000000 </v>
   <v>       0.20833333       0.00000000       0.00000000 </v>
   <v>       0.25000000       0.00000000       0.00000000 </v>
   <v>       0.29166667       0.00000000       0.00000000 </v>
   <v>       0.33333333       0.00000000       0.00000000 </v>
   <v>       0.37500000       0.00000000       0.00000000 </v>
   <v>       0.41666667       0.00000000       0.00000000 </v>
   <v>       0.45833333       0.00000000       0.00000000 </v>
   <v>       0.50000000       0.00000000       0.00000000 </v>
   <v>       0.00000000       0.04166667       0.00000000 </v>
   <v>       0.04166667       0.04166667       0.00000000 </v>
   <v>       0.08333333       0.04166667       0.00000000 </v>
   <v>       0.12500000       0.04166667       0.00000000 </v>
   <v>       0.16666667       0.04166667       0.00000000 </v>
   <v>       0.20833333       0.04166667       0.00000000 </v>
   <v>       0.25000000       0.04166667       0.00000000 </v>
   <v>       0.29166667       0.04166667       0.00000000 </v>
   <v>       0.33333333       0.04166667       0.00000000 </v>
   <v>       0.37500000       0.04166667       0.00000000 </v>
   <v>       0.41666667       0.04166667       0.00000000 </v>
   <v>       0.45833333       0.04166667       0.00000000 </v>
   <v>       0.50000000       0.04166667       0.00000000 </v>
   <v>      -0.45833333       0.04166667       0.00000000 </v>
   <v>      -0.41666667       0.04166667       0.00000000 </v>
   <v>      -0.37500000       0.04166667       0.00000000 </v>
   <v>      -0.33333333       0.04166667       0.00000000 </v>
   <v>      -0.29166667       0.04166667       0.00000000 </v>
   <v>      -0.25000000       0.04166667       0.00000000 </v>
   <v>      -0.20833333       0.04166667       0.00000000 </v>
   <v>      -0.16666667       0.04166667       0.00000000 </v>
   <v>      -0.12500000       0.04166667       0.00000000 </v>
   <v>      -0.08333333       0.04166667       0.00000000 </v>
   <v>       0.00000000       0.08333333       0.00000000 </v>
   <v>       0.04166667       0.08333333       0.00000000 </v>
   <v>       0.08333333       0.08333333       0.00000000 </v>
   <v>       0.12500000       0.08333333       0.00000000 </v>
   <v>       0.16666667       0.08333333       0.00000000 </v>
   <v>       0.20833333       0.08333333       0.00000000 </v>
   <v>       0.25000000       0.08333333       0.00000000 </v>
   <v>       0.29166667       0.08333333       0.00000000 </v>
   <v>       0.33333333       0.08333333       0.00000000 </v>
   <v>       0.37500000       0.08333333       0.00000000 </v>
   <v>       0.41666667       0.08333333       0.00000000 </v>
   <v>       0.45833333       0.08333333       0.00000000 </v>
   <v>       0.50000000       0.08333333       0.00000000 </v>
   <v>      -0.45833333       0.08333333       0.00000000 </v>
   <v>      -0.41666667       0.08333333       0.00000000 </v>
   <v>      -0.37500000       0.08333333       0.00000000 </v>
   <v>      -0.33333333       0.08333333       0.00000000 </v>
   <v>      -0.29166667       0.08333333       0.00000000 </v>
   <v>      -0.25000000       0.08333333       0.00000000 </v>
   <v>      -0.20833333       0.08333333       0.00000000 </v>
   <v>      -0.16666667       0.08333333       0.00000000 </v>
   <v>       0.00000000       0.12500000       0.00000000 </v>
   <v>       0.04166667       0.12500000       0.00000000 </v>
   <v>       0.08333333       0.12500000       0.00000000 </v>
   <v>       0.12500000       0.12500000       0.00000000 </v>
   <v>       0.16666667       0.12500000       0.00000000 </v>
   <v>       0.20833333       0.12500000       0.00000000 </v>
   <v>       0.25000000       0.12500000       0.00000000 </v>
   <v>       0.29166667       0.12500000       0.00000000 </v>
   <v>       0.33333333       0.12500000       0.00000000 </v>
   <v>       0.37500000       0.12500000       0.00000000 </v>
   <v>       0.41666667       0.12500000       0.00000000 </v>
   <v>       0.45833333       0.12500000       0.00000000 </v>
   <v>       0.50000000       0.12500000       0.00000000 </v>
   <v>      -0.45833333       0.12500000       0.00000000 </v>
   <v>      -0.41666667       0.12500000       0.00000000 </v>
   <v>      -0.37500000       0.12500000       0.00000000 </v>
   <v>      -0.33333333       0.12500000       0.00000000 </v>
   <v>      -0.29166667       0.12500000       0.00000000 </v>
   <v>      -0.25000000       0.12500000       0.00000000 </v>
   <v>       0.00000000       0.16666667       0.00000000 </v>
   <v>       0.04166667       0.16666667       0.00000000 </v>
   <v>       0.08333333       0.16666667       0.00000000 </v>
   <v>       0.12500000       0.16666667       0.00000000 </v>
   <v>       0.16666667       0.16666667       0.00000000 </v>
   <v>       0.20833333       0.16666667       0.00000000 </v>
   <v>       0.25000000       0.16666667       0.00000000 </v>
   <v>       0.29166667       0.16666667       0.00000000 </v>
   <v>       0.33333333       0.16666667       0.00000000 </v>
   <v>       0.37500000       0.16666667       0.00000000 </v>
   <v>       0.41666667       0.16666667       0.00000000 </v>
   <v>       0.45833333       0.16666667       0.00000000 </v>
   <v>       0.50000000       0.16666667       0.00000000 </v>
   <v>      -0.45833333       0.16666667       0.00000000 </v>
   <v>      -0.41666667       0.16666667       0.00000000 </v>
   <v>      -0.37500000       0.16666667       0.00000000 </v>
   <v>      -0.33333333       0.16666667       0.00000000 </v>
   <v>       0.00000000       0.20833333       0.00000000 </v>
   <v>       0.04166667       0.20833333       0.00000000 </v>
   <v>       0.08333333       0.20833333       0.00000000 </v>
   <v>       0.12500000       0.20833333       0.00000000 </v>
   <v>       0.16666667       0.20833333       0.00000000 </v>
   <v>       0.20833333       0.20833333       0.00000000 </v>
   <v>       0.25000000       0.20833333       0.00000000 </v>
   <v>       0.29166667       0.20833333       0.00000000 </v>
   <v>       0.33333333       0.20833333       0.00000000 </v>
   <v>       0.37500000       0.20833333       0.00000000 </v>
   <v>       0.41666667       0.20833333       0.00000000 </v>
   <v>       0.45833333       0.20833333       0.00000000 </v>
   <v>       0.50000000       0.20833333       0.00000000 </v>
   <v>      -0.45833333       0.20833333       0.00000000 </v>
   <v>      -0.41666667       0.20833333       0.00000000 </v>
   <v>       0.00000000       0.25000000       0.00000000 </v>
   <v>       0.04166667       0.25000000       0.00000000 </v>
   <v>       0.08333333       0.25000000       0.00000000 </v>
   <v>       0.12500000       0.25000000       0.00000000 </v>
   <v>       0.16666667       0.25000000       0.00000000 </v>
   <v>       0.20833333       0.25000000       0.00000000 </v>
   <v>       0.25000000       0.25000000       0.00000000 </v>
   <v>       0.29166667       0.25000000       0.00000000 </v>
   <v>       0.33333333       0.25000000       0.00000000 </v>
   <v>       0.37500000       0.25000000       0.00000000 </v>
   <v>       0.41666667       0.25000000       0.00000000 </v>
   <v>       0.45833333       0.25000000       0.00000000 </v>
   <v>       0.50000000       0.25000000       0.00000000 </v>
   <v>       0.00000000       0.29166667       0.00000000 </v>
   <v>       0.04166667       0.29166667       0.00000000 </v>
   <v>       0.08333333       0.29166667       0.00000000 </v>
   <v>       0.12500000       0.29166667       0.00000000 </v>
   <v>       0.16666667       0.29166667       0.00000000 </v>
   <v>       0.20833333       0.29166667       0.00000000 </v>
   <v>       0.25000000       0.29166667       0.00000000 </v>
   <v>       0.29166667       0.29166667       0.00000000 </v>
   <v>       0.33333333       0.29166667       0.00000000 </v>
   <v>       0.37500000       0.29166667       0.00000000 </v>
   <v>       0.41666667       0.29166667       0.00000000 </v>
   <v>       0.00000000       0.33333333       0.00000000 </v>
   <v>       0.04166667       0.33333333       0.00000000 </v>
   <v>       0.08333333       0.33333333       0.00000000 </v>
   <v>       0.12500000       0.33333333       0.00000000 </v>
   <v>       0.16666667       0.33333333       0.00000000 </v>
   <v>       0.20833333       0.33333333       0.00000000 </v>
   <v>       0.25000000       0.33333333       0.00000000 </v>
   <v>       0.29166667       0.33333333       0.00000000 </v>
   <v>       0.33333333       0.33333333       0.00000000 </v>
   <v>       0.00000000       0.37500000       0.00000000 </v>
   <v>       0.04166667       0.37500000       0.00000000 </v>
   <v>       0.08333333       0.37500000       0.00000000 </v>
   <v>       0.12500000       0.37500000       0.00000000 </v>
   <v>       0.16666667       0.37500000       0.00000000 </v>
   <v>       0.20833333       0.37500000       0.00000000 </v>
   <v>       0.25000000       0.37500000       0.00000000 </v>
   <v>       0.00000000       0.41666667       0.00000000 </v>
   <v>       0.04166667       0.41666667       0.00000000 </v>
   <v>       0.08333333       0.41666667       0.00000000 </v>
   <v>       0.12500000       0.41666667       0.00000000 </v>
   <v>       0.16666667       0.41666667       0.00000000 </v>
   <v>       0.00000000       0.45833333       0.00000000 </v>
   <v>       0.04166667       0.45833333       0.00000000 </v>
   <v>       0.08333333       0.45833333       0.00000000 </v>
   <v>       0.00000000       0.50000000       0.00000000 </v>
  </varray>
  <varray name="weights" >
   <v>       0.00173611 </v>
   <v>       0.00694444 </v>
   <v>       0.00694444 </v>
   <v>       0.00694444 </v>
   <v>       0.00694444 </v>
   <v>       0.00694444 </v>
   <v>       0.00694444 </v>
   <v>       0.00694444 </v>
   <v>       0.00694444 </v>
   <v>       0.00694444 </v>
   <v>       0.00694444 </v>
   <v>       0.00694444 </v>
   <v>       0.00347222 </v>
   <v>       0.00347222 </v>
   <v>       0.00694444 </v>
   <v>       0.00694444 </v>
   <v>       0.00694444 </v>
   <v>       0.00694444 </v>
   <v>       0.00694444 </v>
   <v>       0.00694444 </v>
   <v>       0.00694444 </v>
   <v>       0.00694444 </v>
   <v>       0.00694444 </v>
   <v>       0.00694444 </v>
   <v>       0.00694444 </v>
   <v>       0.00694444 </v>
   <v>       0.00694444 </v>
   <v>       0.00694444 </v>
   <v>       0.00694444 </v>
   <v>       0.00694444 </v>
   <v>       0.00694444 </v>
   <v>       0.00694444 </v>
   <v>       0.00694444 </v>
   <v>       0.00694444 </v>
   <v>       0.00694444 </v>
   <v>       0.00347222 </v>
   <v>       0.00347222 </v>
   <v>       0.00694444 </v>
   <v>       0.00694444 </v>
   <v>       0.00694444 </v>
   <v>       0.00694444 </v>
   <v>       0.00694444 </v>
   <v>       0.00694444 </v>
   <v>       0.00694444 </v>
   <v>       0.00694444 </v>
   <v>       0.00694444 </v>
   <v>       0.00694444 </v>
   <v>       0.00694444 </v>
   <v>       0.00694444 </v>
   <v>       0.00694444 </v>
   <v>       0.00694444 </v>
   <v>       0.00694444 </v>
   <v>       0.00694444 </v>
   <v>       0.00694444 </v>
   <v>       0.00694444 </v>
   <v>       0.00694444 </v>
   <v>       0.00347222 </v>
   <v>       0.00347222 </v>
   <v>       0.00694444 </v>
   <v>       0.00694444 </v>
   <v>       0.00694444 </v>
   <v>       0.00694444 </v>
   <v>       0.00694444 </v>
   <v>       0.00694444 </v>
   <v>       0.00694444 </v>
   <v>       0.00694444 </v>
   <v>       0.00694444 </v>
   <v>       0.00694444 </v>
   <v>       0.00694444 </v>
   <v>       0.00694444 </v>
   <v>       0.00694444 </v>
   <v>       0.00694444 </v>
   <v>       0.00694444 </v>
   <v>       0.00694444 </v>
   <v>       0.00694444 </v>
   <v>       0.00347222 </v>
   <v>       0.00347222 </v>
   <v>       0.00694444 </v>
   <v>       0.00694444 </v>
   <v>       0.00694444 </v>
   <v>       0.00694444 </v>
   <v>       0.00694444 </v>
   <v>       0.00694444 </v>
   <v>       0.00694444 </v>
   <v>       0.00694444 </v>
   <v>       0.00694444 </v>
   <v>       0.00694444 </v>
   <v>       0.00694444 </v>
   <v>       0.00694444 </v>
   <v>       0.00694444 </v>
   <v>       0.00694444 </v>
   <v>       0.00694444 </v>
   <v>       0.00347222 </v>
   <v>       0.00347222 </v>
   <v>       0.00694444 </v>
   <v>       0.00694444 </v>
   <v>       0.00694444 </v>
   <v>       0.00694444 </v>
   <v>       0.00694444 </v>
   <v>       0.00694444 </v>
   <v>       0.00694444 </v>
   <v>       0.00694444 </v>
   <v>       0.00694444 </v>
   <v>       0.00694444 </v>
   <v>       0.00694444 </v>
   <v>       0.00694444 </v>
   <v>       0.00694444 </v>
   <v>       0.00347222 </v>
   <v>       0.00347222 </v>
   <v>       0.00694444 </v>
   <v>       0.00694444 </v>
   <v>       0.00694444 </v>
   <v>       0.00694444 </v>
   <v>       0.00694444 </v>
   <v>       0.00694444 </v>
   <v>       0.00694444 </v>
   <v>       0.00694444 </v>
   <v>       0.00694444 </v>
   <v>       0.00694444 </v>
   <v>       0.00694444 </v>
   <v>       0.00347222 </v>
   <v>       0.00347222 </v>
   <v>       0.00694444 </v>
   <v>       0.00694444 </v>
   <v>       0.00694444 </v>
   <v>       0.00694444 </v>
   <v>       0.00694444 </v>
   <v>       0.00694444 </v>
   <v>       0.00694444 </v>
   <v>       0.00694444 </v>
   <v>       0.00694444 </v>
   <v>       0.00347222 </v>
   <v>       0.00347222 </v>
   <v>       0.00694444 </v>
   <v>       0.00694444 </v>
   <v>       0.00694444 </v>
   <v>       0.00694444 </v>
   <v>       0.00694444 </v>
   <v>       0.00694444 </v>
   <v>       0.00694444 </v>
   <v>       0.00347222 </v>
   <v>       0.00347222 </v>
   <v>       0.00694444 </v>
   <v>       0.00694444 </v>
   <v>       0.00694444 </v>
   <v>       0.00694444 </v>
   <v>       0.00694444 </v>
   <v>       0.00347222 </v>
   <v>       0.00347222 </v>
   <v>       0.00694444 </v>
   <v>       0.00694444 </v>
   <v>       0.00694444 </v>
   <v>       0.00347222 </v>
   <v>       0.00347222 </v>
   <v>       0.00694444 </v>
   <v>       0.00347222 </v>
   <v>       0.00173611 </v>
  </varray>
 </kpoints>
 <parameters>
  <separator name="general" >
   <i type="string" name="SYSTEM">unknown system</i>
   <i type="logical" name="LCOMPAT"> F  </i>
  </separator>
  <separator name="electronic" >
   <i type="string" name="PREC">a</i>
   <i name="ENMAX">    520.00000000</i>
   <i name="ENAUG">    644.87300000</i>
   <i name="EDIFF">      0.00001000</i>
   <i type="int" name="IALGO">    38</i>
   <i type="int" name="IWAVPR">    10</i>
   <i type="int" name="NBANDS">    12</i>
   <i name="NELECT">      8.00000000</i>
   <i type="int" name="TURBO">     0</i>
   <i type="int" name="IRESTART">     0</i>
   <i type="int" name="NREBOOT">     0</i>
   <i type="int" name="NMIN">     0</i>
   <i name="EREF">      0.00000000</i>
   <separator name="electronic smearing" >
    <i type="int" name="ISMEAR">     0</i>
    <i name="SIGMA">      0.02000000</i>
    <i name="KSPACING">      0.50000000</i>
    <i type="logical" name="KGAMMA"> T  </i>
   </separator>
   <separator name="electronic projectors" >
    <i type="logical" name="LREAL"> T  </i>
    <v name="ROPT">     -0.00025000</v>
    <i type="int" name="LMAXPAW">  -100</i>
    <i type="int" name="LMAXMIX">     2</i>
    <i type="logical" name="NLSPLINE"> F  </i>
   </separator>
   <separator name="electronic startup" >
    <i type="int" name="ISTART">     0</i>
    <i type="int" name="ICHARG">     2</i>
    <i type="int" name="INIWAV">     1</i>
   </separator>
   <separator name="electronic spin" >
    <i type="int" name="ISPIN">     1</i>
    <i type="logical" name="LNONCOLLINEAR"> F  </i>
    <v name="MAGMOM">      0.60000000      0.60000000</v>
    <i name="NUPDOWN">     -1.00000000</i>
    <i type="logical" name="LSORBIT"> F  </i>
    <v name="SAXIS">      0.00000000      0.00000000      1.00000000</v>
    <i type="logical" name="LSPIRAL"> F  </i>
    <v name="QSPIRAL">      0.00000000      0.00000000      0.00000000</v>
    <i type="logical" name="LZEROZ"> F  </i>
   </separator>
   <separator name="electronic exchange-correlation" >
    <i type="logical" name="LASPH"> F  </i>
    <i type="logical" name="LMETAGGA"> F  </i>
   </separator>
   <separator name="electronic convergence" >
    <i type="int" name="NELM">   250</i>
    <i type="int" name="NELMDL">    -5</i>
    <i type="int" name="NELMIN">     6</i>
    <i name="ENINI">    520.00000000</i>
    <separator name="electronic convergence detail" >
     <i type="logical" name="LDIAG"> T  </i>
     <i type="logical" name="LSUBROT"> F  </i>
     <i name="WEIMIN">      0.00000000</i>
     <i name="EBREAK">      0.00000021</i>
     <i name="DEPER">      0.30000000</i>
     <i type="int" name="NRMM">     4</i>
     <i name="TIME">      0.40000000</i>
    </separator>
   </separator>
   <separator name="electronic mixer" >
    <i name="AMIX">      0.40000000</i>
    <i name="BMIX">      1.00000000</i>
    <i name="AMIN">      0.10000000</i>
    <i name="AMIX_MAG">      1.60000000</i>
    <i name="BMIX_MAG">      1.00000000</i>
    <separator name="electronic mixer details" >
     <i type="int" name="IMIX">     4</i>
     <i type="logical" name="MIXFIRST"> F  </i>
     <i type="int" name="MAXMIX">   -45</i>
     <i name="WC">    100.00000000</i>
     <i type="int" name="INIMIX">     1</i>
     <i type="int" name="MIXPRE">     1</i>
     <i type="int" name="MREMOVE">     5</i>
    </separator>
   </separator>
   <separator name="electronic dipolcorrection" >
    <i type="logical" name="LDIPOL"> F  </i>
    <i type="logical" name="LMONO"> F  </i>
    <i type="int" name="IDIPOL">     0</i>
    <i name="EPSILON">      1.00000000</i>
    <v name="DIPOL">   -100.00000000   -100.00000000   -100.00000000</v>
    <i name="EFIELD">      0.00000000</i>
   </separator>
  </separator>
  <separator name="grids" >
   <i type="int" name="NGX">    18</i>
   <i type="int" name="NGY">    18</i>
   <i type="int" name="NGZ">   112</i>
   <i type="int" name="NGXF">    36</i>
   <i type="int" name="NGYF">    36</i>
   <i type="int" name="NGZF">   224</i>
   <i type="logical" name="ADDGRID"> F  </i>
  </separator>
  <separator name="ionic" >
   <i type="int" name="NSW">     0</i>
   <i type="int" name="IBRION">    -1</i>
   <i type="int" name="ISIF">     2</i>
   <i name="PSTRESS">      0.00000000</i>
   <i name="EDIFFG">     -0.00500000</i>
   <i type="int" name="NFREE">     1</i>
   <i name="POTIM">      0.25000000</i>
   <i name="SMASS">     -3.00000000</i>
   <i name="SCALEE">      1.00000000</i>
  </separator>
  <separator name="ionic md" >
   <i name="TEBEG">      0.00010000</i>
   <i name="TEEND">      0.00010000</i>
   <i type="int" name="NBLOCK">     1</i>
   <i type="int" name="KBLOCK">     1</i>
   <i type="int" name="NPACO">   256</i>
   <i name="APACO">     16.00000000</i>
  </separator>
  <separator name="symmetry" >
   <i type="int" name="ISYM">     2</i>
   <i name="SYMPREC">      0.00001000</i>
  </separator>
  <separator name="dos" >
   <i type="logical" name="LORBIT"> F  </i>
   <v name="RWIGS">     -1.00000000</v>
   <i type="int" name="NEDOS">   301</i>
   <i name="EMIN">     10.00000000</i>
   <i name="EMAX">    -10.00000000</i>
   <i name="EFERMI">      0.00000000</i>
  </separator>
  <separator name="writing" >
   <i type="int" name="NWRITE">     2</i>
   <i type="logical" name="LWAVE"> F  </i>
   <i type="logical" name="LCHARG"> F  </i>
   <i type="logical" name="LPARD"> F  </i>
   <i type="logical" name="LVTOT"> F  </i>
   <i type="logical" name="LVHAR"> F  </i>
   <i type="logical" name="LELF"> F  </i>
   <i type="logical" name="LOPTICS"> F  </i>
   <v name="STM">      0.00000000      0.00000000      0.00000000      0.00000000      0.00000000      0.00000000      0.00000000</v>
  </separator>
  <separator name="performance" >
   <i type="int" name="NPAR">     6</i>
   <i type="int" name="NSIM">     4</i>
   <i type="int" name="NBLK">    -1</i>
   <i type="logical" name="LPLANE"> T  </i>
   <i type="logical" name="LSCALAPACK"> T  </i>
   <i type="logical" name="LSCAAWARE"> F  </i>
   <i type="logical" name="LSCALU"> F  </i>
   <i type="logical" name="LASYNC"> F  </i>
   <i type="logical" name="LORBITALREAL"> F  </i>
  </separator>
  <separator name="miscellaneous" >
   <i type="int" name="IDIOT">     3</i>
   <i type="logical" name="LMUSIC"> F  </i>
   <v name="POMASS">     12.01100000</v>
   <v name="DARWINR">      0.00000000</v>
   <v name="DARWINV">      1.00000000</v>
   <i type="logical" name="LCORR"> T  </i>
  </separator>
  <i type="logical" name="GGA_COMPAT"> T  </i>
  <i type="logical" name="LBERRY"> F  </i>
  <i type="int" name="ICORELEVEL">     0</i>
  <i type="logical" name="LDAU"> F  </i>
  <i type="int" name="I_CONSTRAINED_M">     0</i>
  <separator name="electronic exchange-correlation" >
   <i type="string" name="GGA">--</i>
   <i type="int" name="VOSKOWN">     0</i>
   <i type="logical" name="LHFCALC"> F  </i>
   <i type="string" name="PRECFOCK"></i>
   <i type="logical" name="LSYMGRAD"> F  </i>
   <i type="logical" name="LHFONE"> F  </i>
   <i type="logical" name="LRHFCALC"> F  </i>
   <i type="logical" name="LTHOMAS"> F  </i>
   <i type="logical" name="LMODELHF"> F  </i>
   <i name="ENCUT4O">     -1.00000000</i>
   <i type="int" name="EXXOEP">     0</i>
   <i type="int" name="FOURORBIT">     0</i>
   <i name="AEXX">      0.00000000</i>
   <i name="HFALPHA">      0.00000000</i>
   <i name="MCALPHA">      0.00000000</i>
   <i name="ALDAX">      1.00000000</i>
   <i name="AGGAX">      1.00000000</i>
   <i name="ALDAC">      1.00000000</i>
   <i name="AGGAC">      1.00000000</i>
   <i type="int" name="NKREDX">     1</i>
   <i type="int" name="NKREDY">     1</i>
   <i type="int" name="NKREDZ">     1</i>
   <i type="logical" name="SHIFTRED"> F  </i>
   <i type="logical" name="ODDONLY"> F  </i>
   <i type="logical" name="EVENONLY"> F  </i>
   <i type="int" name="LMAXFOCK">     0</i>
   <i type="int" name="NMAXFOCKAE">     0</i>
   <i type="logical" name="LFOCKAEDFT"> F  </i>
   <i name="HFSCREEN">      0.00000000</i>
   <i name="HFSCREENC">      0.00000000</i>
   <i type="int" name="NBANDSGWLOW">     0</i>
  </separator>
  <separator name="vdW DFT" >
   <i type="logical" name="LUSE_VDW"> F  </i>
   <i name="Zab_VDW">     -0.84910000</i>
   <i name="PARAM1">      0.12340000</i>
   <i name="PARAM2">      1.00000000</i>
   <i name="PARAM3">      0.00000000</i>
  </separator>
  <separator name="model GW" >
   <i type="int" name="MODEL_GW">     0</i>
   <i name="MODEL_EPS0">     23.88554458</i>
   <i name="MODEL_ALPHA">      1.00000000</i>
  </separator>
  <separator name="linear response parameters" >
   <i type="logical" name="LEPSILON"> F  </i>
   <i type="logical" name="LRPA"> F  </i>
   <i type="logical" name="LNABLA"> F  </i>
   <i type="logical" name="LVEL"> F  </i>
   <i type="int" name="KINTER">     0</i>
   <i name="CSHIFT">      0.10000000</i>
   <i name="OMEGAMAX">     -1.00000000</i>
   <i name="DEG_THRESHOLD">      0.00200000</i>
  </separator>
  <separator name="orbital magnetization" >
   <i type="logical" name="NUCIND"> F  </i>
   <v name="MAGPOS">      0.00000000      0.00000000      0.00000000</v>
   <i type="logical" name="LNICSALL"> T  </i>
   <i type="logical" name="ORBITALMAG"> F  </i>
   <i type="logical" name="LMAGBLOCH"> F  </i>
   <i type="logical" name="LCHIMAG"> F  </i>
   <i type="logical" name="LGAUGE"> T  </i>
   <i type="int" name="MAGATOM">     0</i>
   <v name="MAGDIPOL">      0.00000000      0.00000000      0.00000000</v>
   <v name="AVECCONST">      0.00000000      0.00000000      0.00000000</v>
  </separator>
  <separator name="response functions" >
   <i type="logical" name="LADDER"> F  </i>
   <i type="logical" name="LFXC"> F  </i>
   <i type="logical" name="LHARTREE"> T  </i>
   <i type="int" name="IBSE">     0</i>
   <v type="int" name="KPOINT">    -1     0     0     0</v>
   <i type="logical" name="LTCTE"> F  </i>
   <i type="logical" name="LTETE"> F  </i>
   <i type="logical" name="LTRIPLET"> F  </i>
   <i type="logical" name="LFXCEPS"> F  </i>
   <i type="logical" name="LFXHEG"> F  </i>
   <i type="int" name="NATURALO">     0</i>
   <i type="logical" name="L2ORDER"> F  </i>
   <i type="logical" name="LUSEW"> F  </i>
   <i name="ENCUTGW">     -2.00000000</i>
   <i name="ENCUTGWSOFT">     -2.00000000</i>
   <i name="ENCUTLF">     -1.00000000</i>
   <i type="int" name="LMAXMP2">    -1</i>
   <i name="SCISSOR">      0.00000000</i>
   <i type="int" name="NOMEGA">     0</i>
   <i type="int" name="NOMEGAR">     0</i>
   <i type="int" name="NBANDSGW">    -1</i>
   <i type="int" name="NBANDSO">    -1</i>
   <i type="int" name="NBANDSV">    -1</i>
   <i type="int" name="NELM">   250</i>
   <i type="int" name="NELMHF">     1</i>
   <i type="int" name="DIM">     3</i>
   <i type="int" name="ANTIRES">     0</i>
   <i name="OMEGAMAX">    -30.00000000</i>
   <i name="OMEGAMIN">    -30.00000000</i>
   <i name="OMEGATL">   -200.00000000</i>
   <i type="int" name="OMEGAGRID">     0</i>
   <i name="CSHIFT">     -0.10000000</i>
   <i type="logical" name="SELFENERGY"> F  </i>
   <i type="logical" name="LSPECTRAL"> F  </i>
   <i type="logical" name="LSPECTRALGW"> F  </i>
   <i type="logical" name="LSINGLES"> F  </i>
   <i type="logical" name="LFERMIGW"> F  </i>
   <i type="logical" name="ODDONLYGW"> F  </i>
   <i type="logical" name="EVENONLYGW"> F  </i>
   <i type="int" name="NKREDLFX">     1</i>
   <i type="int" name="NKREDLFY">     1</i>
   <i type="int" name="NKREDLFZ">     1</i>
   <i type="int" name="MAXMEM">  1800</i>
   <i type="int" name="TELESCOPE">     0</i>
   <i type="int" name="TAUPAR">     1</i>
   <i type="int" name="OMEGAPAR">    -1</i>
   <i name="LAMBDA">      1.00000000</i>
  </separator>
  <separator name="External order field" >
   <i name="OFIELD_KAPPA">      0.00000000</i>
   <v name="OFIELD_K">      0.00000000      0.00000000      0.00000000</v>
   <i name="OFIELD_Q6_NEAR">      0.00000000</i>
   <i name="OFIELD_Q6_FAR">      0.00000000</i>
   <i name="OFIELD_A">      0.00000000</i>
  </separator>
 </parameters>
 <atominfo>
  <atoms>       2 </atoms>
  <types>       1 </types>
  <array name="atoms" >
   <dimension dim="1">ion</dimension>
   <field type="string">element</field>
   <field type="int">atomtype</field>
   <set>
    <rc><c>C </c><c>   1</c></rc>
    <rc><c>C </c><c>   1</c></rc>
   </set>
  </array>
  <array name="atomtypes" >
   <dimension dim="1">type</dimension>
   <field type="int">atomspertype</field>
   <field type="string">element</field>
   <field>mass</field>
   <field>valence</field>
   <field type="string">pseudopotential</field>
   <set>
    <rc><c>   2</c><c>C </c><c>     12.01100000</c><c>      4.00000000</c><c>  PAW_PBE C 08Apr2002                   </c></rc>
   </set>
  </array>
 </atominfo>
 <structure name="initialpos" >
  <crystal>
   <varray name="basis" >
    <v>       2.48338900       0.00000000       0.00000000 </v>
    <v>      -1.24169500       2.13736100       0.00000000 </v>
    <v>       0.00000000       0.00000000      15.00000000 </v>
   </varray>
   <i name="volume">     79.61848195 </i>
   <varray name="rec_basis" >
    <v>       0.40267554       0.23393344       0.00000000 </v>
    <v>       0.00000000       0.46786668       0.00000000 </v>
    <v>       0.00000000       0.00000000       0.06666667 </v>
   </varray>
  </crystal>
  <varray name="positions" >
   <v>       0.00022761       0.00045521       0.50000000 </v>
   <v>       0.33310539       0.66621179       0.50000000 </v>
  </varray>
 </structure>
 <calculation>
  <scstep>
   <time name="dav">    0.47    0.47</time>
   <time name="total">    0.49    0.51</time>
   <energy>
    <i name="alphaZ">      4.12701745 </i>
    <i name="ewald">    828.01438954 </i>
    <i name="hartreedc">  -1047.43179450 </i>
    <i name="XCdc">     26.30722048 </i>
    <i name="pawpsdc">    217.04409276 </i>
    <i name="pawaedc">   -218.18290438 </i>
    <i name="eentropy">     -0.00020051 </i>
    <i name="bandstr">    -67.92748266 </i>
    <i name="atom">    294.29778662 </i>
    <i name="e_fr_energy">     36.24812480 </i>
    <i name="e_wo_entrp">     36.24832531 </i>
    <i name="e_0_energy">     36.24822506 </i>
   </energy>
  </scstep>
  <scstep>
   <time name="dav">    0.59    0.59</time>
   <time name="total">    0.59    0.60</time>
   <energy>
    <i name="e_fr_energy">    -17.84777652 </i>
    <i name="e_wo_entrp">    -17.84777652 </i>
    <i name="e_0_energy">    -17.84777652 </i>
   </energy>
  </scstep>
  <scstep>
   <time name="dav">    0.66    0.66</time>
   <time name="total">    0.66    0.66</time>
   <energy>
    <i name="e_fr_energy">    -19.66830505 </i>
    <i name="e_wo_entrp">    -19.66830504 </i>
    <i name="e_0_energy">    -19.66830504 </i>
   </energy>
  </scstep>
  <scstep>
   <time name="dav">    0.67    0.67</time>
   <time name="total">    0.67    0.67</time>
   <energy>
    <i name="e_fr_energy">    -19.67630591 </i>
    <i name="e_wo_entrp">    -19.67630590 </i>
    <i name="e_0_energy">    -19.67630590 </i>
   </energy>
  </scstep>
  <scstep>
   <time name="dav">    0.64    0.64</time>
   <time name="total">    0.66    0.66</time>
   <energy>
    <i name="e_fr_energy">    -19.67631173 </i>
    <i name="e_wo_entrp">    -19.67631172 </i>
    <i name="e_0_energy">    -19.67631173 </i>
   </energy>
  </scstep>
  <scstep>
   <time name="dav">    0.58    0.58</time>
   <time name="total">    0.60    0.61</time>
   <energy>
    <i name="e_fr_energy">    -18.79542923 </i>
    <i name="e_wo_entrp">    -18.79542920 </i>
    <i name="e_0_energy">    -18.79542922 </i>
   </energy>
  </scstep>
  <scstep>
   <time name="dav">    0.61    0.61</time>
   <time name="total">    0.63    0.64</time>
   <energy>
    <i name="e_fr_energy">    -18.45540838 </i>
    <i name="e_wo_entrp">    -18.45540829 </i>
    <i name="e_0_energy">    -18.45540834 </i>
   </energy>
  </scstep>
  <scstep>
   <time name="dav">    0.61    0.61</time>
   <time name="total">    0.64    0.64</time>
   <energy>
    <i name="e_fr_energy">    -18.44812408 </i>
    <i name="e_wo_entrp">    -18.44812401 </i>
    <i name="e_0_energy">    -18.44812404 </i>
   </energy>
  </scstep>
  <scstep>
   <time name="dav">    0.57    0.57</time>
   <time name="total">    0.59    0.60</time>
   <energy>
    <i name="e_fr_energy">    -18.44618395 </i>
    <i name="e_wo_entrp">    -18.44618388 </i>
    <i name="e_0_energy">    -18.44618391 </i>
   </energy>
  </scstep>
  <scstep>
   <time name="dav">    0.48    0.48</time>
   <time name="total">    0.51    0.51</time>
   <energy>
    <i name="e_fr_energy">    -18.44479710 </i>
    <i name="e_wo_entrp">    -18.44479702 </i>
    <i name="e_0_energy">    -18.44479706 </i>
   </energy>
  </scstep>
  <scstep>
   <time name="dav">    0.48    0.48</time>
   <time name="total">    0.50    0.50</time>
   <energy>
    <i name="e_fr_energy">    -18.44500926 </i>
    <i name="e_wo_entrp">    -18.44500918 </i>
    <i name="e_0_energy">    -18.44500922 </i>
   </energy>
  </scstep>
  <scstep>
   <time name="dav">    0.49    0.49</time>
   <time name="total">    0.52    0.52</time>
   <energy>
    <i name="e_fr_energy">    -18.44523140 </i>
    <i name="e_wo_entrp">    -18.44523133 </i>
    <i name="e_0_energy">    -18.44523136 </i>
   </energy>
  </scstep>
  <scstep>
   <time name="dav">    0.49    0.49</time>
   <time name="total">    0.52    0.52</time>
   <energy>
    <i name="e_fr_energy">    -18.44594146 </i>
    <i name="e_wo_entrp">    -18.44594138 </i>
    <i name="e_0_energy">    -18.44594142 </i>
   </energy>
  </scstep>
  <scstep>
   <time name="dav">    0.60    0.60</time>
   <time name="total">    0.62    0.62</time>
   <energy>
    <i name="e_fr_energy">    -18.44599809 </i>
    <i name="e_wo_entrp">    -18.44599802 </i>
    <i name="e_0_energy">    -18.44599805 </i>
   </energy>
  </scstep>
  <scstep>
   <time name="dav">    0.48    0.48</time>
   <time name="total">    0.50    0.50</time>
   <energy>
    <i name="e_fr_energy">    -18.44609212 </i>
    <i name="e_wo_entrp">    -18.44609205 </i>
    <i name="e_0_energy">    -18.44609209 </i>
   </energy>
  </scstep>
  <scstep>
   <time name="dav">    0.50    0.50</time>
   <time name="total">    0.51    0.51</time>
   <energy>
    <i name="alphaZ">      4.12701745 </i>
    <i name="ewald">    828.01438954 </i>
    <i name="hartreedc">  -1079.94620531 </i>
    <i name="XCdc">     27.47289440 </i>
    <i name="pawpsdc">    821.20346509 </i>
    <i name="pawaedc">   -822.56566342 </i>
    <i name="eentropy">     -0.00000007 </i>
    <i name="bandstr">    -91.04978353 </i>
    <i name="atom">    294.29778662 </i>
    <i name="e_fr_energy">    -18.44609924 </i>
    <i name="e_wo_entrp">    -18.44609916 </i>
    <i name="e_0_energy">    -18.44609920 </i>
   </energy>
  </scstep>
  <structure>
   <crystal>
    <varray name="basis" >
     <v>       2.48338900       0.00000000       0.00000000 </v>
     <v>      -1.24169500       2.13736100       0.00000000 </v>
     <v>       0.00000000       0.00000000      15.00000000 </v>
    </varray>
    <i name="volume">     79.61848195 </i>
    <varray name="rec_basis" >
     <v>       0.40267554       0.23393344       0.00000000 </v>
     <v>       0.00000000       0.46786668       0.00000000 </v>
     <v>       0.00000000       0.00000000       0.06666667 </v>
    </varray>
   </crystal>
   <varray name="positions" >
    <v>       0.00022761       0.00045521       0.50000000 </v>
    <v>       0.33310539       0.66621179       0.50000000 </v>
   </varray>
  </structure>
  <varray name="forces" >
   <v>       0.00000003      -0.12949261       0.00000000 </v>
   <v>      -0.00000003       0.12949261       0.00000000 </v>
  </varray>
  <varray name="stress" >
   <v>     -14.28660919       0.00000062       0.00000000 </v>
   <v>       0.00000062      -2.63859780       0.00000000 </v>
   <v>       0.00000000       0.00000000       0.02969053 </v>
  </varray>
  <energy>
   <i name="e_fr_energy">    -18.44609924 </i>
   <i name="e_wo_entrp">    -18.44609920 </i>
   <i name="e_0_energy">     -0.00000007 </i>
  </energy>
  <time name="totalsc">    9.59    9.65</time>
  <eigenvalues>
   <array>
    <dimension dim="1">band</dimension>
    <dimension dim="2">kpoint</dimension>
    <dimension dim="3">spin</dimension>
    <field>eigene</field>
    <field>occ</field>
    <set>
     <set comment="spin 1">
      <set comment="kpoint 1">
       <r>  -21.7089    1.0000 </r>
       <r>   -9.8266    1.0000 </r>
       <r>   -5.3390    1.0000 </r>
       <r>   -5.3081    1.0000 </r>
       <r>    1.0035    0.0000 </r>
       <r>    1.9137    0.0000 </r>
       <r>    2.3849    0.0000 </r>
       <r>    4.3357    0.0000 </r>
       <r>    5.0769    0.0000 </r>
       <r>    5.8471    0.0000 </r>
       <r>    6.0551    0.0000 </r>
       <r>    8.2119    0.0000 </r>
      </set>
      <set comment="kpoint 2">
       <r>  -21.6683    1.0000 </r>
       <r>   -9.7782    1.0000 </r>
       <r>   -5.4890    1.0000 </r>
       <r>   -5.4152    1.0000 </r>
       <r>    1.0586    0.0000 </r>
       <r>    1.9693    0.0000 </r>
       <r>    2.4410    0.0000 </r>
       <r>    4.3909    0.0000 </r>
       <r>    5.1303    0.0000 </r>
       <r>    5.9016    0.0000 </r>
       <r>    6.2076    0.0000 </r>
       <r>    8.2654    0.0000 </r>
      </set>
      <set comment="kpoint 3">
       <r>  -21.5465    1.0000 </r>
       <r>   -9.6334    1.0000 </r>
       <r>   -5.9710    1.0000 </r>
       <r>   -5.6598    1.0000 </r>
       <r>    1.2239    0.0000 </r>
       <r>    2.1358    0.0000 </r>
       <r>    2.6095    0.0000 </r>
       <r>    4.5564    0.0000 </r>
       <r>    5.2902    0.0000 </r>
       <r>    5.9849    0.0000 </r>
       <r>    6.6958    0.0000 </r>
       <r>    8.4130    0.0000 </r>
      </set>
      <set comment="kpoint 4">
       <r>  -21.3438    1.0000 </r>
       <r>   -9.3932    1.0000 </r>
       <r>   -6.7034    1.0000 </r>
       <r>   -6.0153    1.0000 </r>
       <r>    1.4994    0.0000 </r>
       <r>    2.4131    0.0000 </r>
       <r>    2.8902    0.0000 </r>
       <r>    4.8317    0.0000 </r>
       <r>    5.5512    0.0000 </r>
       <r>    6.0328    0.0000 </r>
       <r>    7.4794    0.0000 </r>
       <r>    7.7829    0.0000 </r>
      </set>
      <set comment="kpoint 5">
       <r>  -21.0609    1.0000 </r>
       <r>   -9.0593    1.0000 </r>
       <r>   -7.6103    1.0000 </r>
       <r>   -6.4334    1.0000 </r>
       <r>    1.8851    0.0000 </r>
       <r>    2.8003    0.0000 </r>
       <r>    3.2832    0.0000 </r>
       <r>    5.2150    0.0000 </r>
       <r>    5.8382    0.0000 </r>
       <r>    6.0904    0.0000 </r>
       <r>    6.9467    0.0000 </r>
       <r>    8.4934    0.0000 </r>
      </set>
      <set comment="kpoint 6">
       <r>  -20.6986    1.0000 </r>
       <r>   -8.6345    1.0000 </r>
       <r>   -8.6265    1.0000 </r>
       <r>   -6.8707    1.0000 </r>
       <r>    2.3805    0.0000 </r>
       <r>    3.2955    0.0000 </r>
       <r>    3.7882    0.0000 </r>
       <r>    5.6725    0.0000 </r>
       <r>    5.8257    0.0000 </r>
       <r>    6.0039    0.0000 </r>
       <r>    6.4901    0.0000 </r>
       <r>    9.5393    0.0000 </r>
      </set>
      <set comment="kpoint 7">
       <r>  -20.2582    1.0000 </r>
       <r>   -9.7019    1.0000 </r>
       <r>   -8.1235    1.0000 </r>
       <r>   -7.2943    1.0000 </r>
       <r>    2.9849    0.0000 </r>
       <r>    3.8835    0.0000 </r>
       <r>    4.4047    0.0000 </r>
       <r>    4.8866    0.0000 </r>
       <r>    5.6910    0.0000 </r>
       <r>    6.3322    0.0000 </r>
       <r>    7.0815    0.0000 </r>
       <r>   10.1121    0.0000 </r>
      </set>
      <set comment="kpoint 8">
       <r>  -19.7414    1.0000 </r>
       <r>  -10.7993    1.0000 </r>
       <r>   -7.6805    1.0000 </r>
       <r>   -7.5334    1.0000 </r>
       <r>    3.6855    0.0000 </r>
       <r>    3.6969    0.0000 </r>
       <r>    4.6716    0.0000 </r>
       <r>    5.1262    0.0000 </r>
       <r>    5.5419    0.0000 </r>
       <r>    7.0388    0.0000 </r>
       <r>    7.7910    0.0000 </r>
       <r>   10.7759    0.0000 </r>
      </set>
      <set comment="kpoint 9">
       <r>  -19.1509    1.0000 </r>
       <r>  -11.8912    1.0000 </r>
       <r>   -8.0131    1.0000 </r>
       <r>   -6.8767    1.0000 </r>
       <r>    2.5644    0.0000 </r>
       <r>    4.5108    0.0000 </r>
       <r>    5.3749    0.0000 </r>
       <r>    5.4746    0.0000 </r>
       <r>    5.9888    0.0000 </r>
       <r>    7.8539    0.0000 </r>
       <r>    8.6109    0.0000 </r>
       <r>   11.5134    0.0000 </r>
      </set>
      <set comment="kpoint 10">
       <r>  -18.4914    1.0000 </r>
       <r>  -12.9554    1.0000 </r>
       <r>   -8.2811    1.0000 </r>
       <r>   -6.1768    1.0000 </r>
       <r>    1.4636    0.0000 </r>
       <r>    5.1811    0.0000 </r>
       <r>    5.5053    0.0000 </r>
       <r>    6.4022    0.0000 </r>
       <r>    6.9372    0.0000 </r>
       <r>    8.7705    0.0000 </r>
       <r>    9.5377    0.0000 </r>
       <r>   12.2626    0.0000 </r>
      </set>
      <set comment="kpoint 11">
       <r>  -17.7732    1.0000 </r>
       <r>  -13.9701    1.0000 </r>
       <r>   -8.4771    1.0000 </r>
       <r>   -5.4826    1.0000 </r>
       <r>    0.4680    0.0000 </r>
       <r>    5.1203    0.0000 </r>
       <r>    6.4982    0.0000 </r>
       <r>    7.4344    0.0000 </r>
       <r>    8.0007    0.0000 </r>
       <r>    9.7785    0.0000 </r>
       <r>   10.5663    0.0000 </r>
       <r>   11.4726    0.0000 </r>
      </set>
      <set comment="kpoint 12">
       <r>  -17.0332    1.0000 </r>
       <r>  -14.8908    1.0000 </r>
       <r>   -8.5964    1.0000 </r>
       <r>   -4.9054    1.0000 </r>
       <r>   -0.2957    0.0000 </r>
       <r>    5.0618    0.0000 </r>
       <r>    7.6249    0.0000 </r>
       <r>    8.5616    0.0000 </r>
       <r>    9.1746    0.0000 </r>
       <r>   10.1488    0.0000 </r>
       <r>   10.7724    0.0000 </r>
       <r>   11.1911    0.0000 </r>
      </set>
      <set comment="kpoint 13">
       <r>  -16.5563    1.0000 </r>
       <r>  -15.4285    1.0000 </r>
       <r>   -8.6364    1.0000 </r>
       <r>   -4.6612    1.0000 </r>
       <r>   -0.6030    0.0000 </r>
       <r>    5.0414    0.0000 </r>
       <r>    8.7697    0.0000 </r>
       <r>    8.9289    0.0000 </r>
       <r>    9.6605    0.0000 </r>
       <r>    9.8965    0.0000 </r>
       <r>   10.4463    0.0000 </r>
       <r>   10.4722    0.0000 </r>
      </set>
      <set comment="kpoint 14">
       <r>  -21.6679    1.0000 </r>
       <r>   -9.7776    1.0000 </r>
       <r>   -5.5046    1.0000 </r>
       <r>   -5.3989    1.0000 </r>
       <r>    1.0591    0.0000 </r>
       <r>    1.9698    0.0000 </r>
       <r>    2.4416    0.0000 </r>
       <r>    4.3914    0.0000 </r>
       <r>    5.1313    0.0000 </r>
       <r>    6.0269    0.0000 </r>
       <r>    6.0653    0.0000 </r>
       <r>    8.2660    0.0000 </r>
      </set>
      <set comment="kpoint 15">
       <r>  -21.5863    1.0000 </r>
       <r>   -9.6805    1.0000 </r>
       <r>   -5.8167    1.0000 </r>
       <r>   -5.5781    1.0000 </r>
       <r>    1.1699    0.0000 </r>
       <r>    2.0814    0.0000 </r>
       <r>    2.5544    0.0000 </r>
       <r>    4.5024    0.0000 </r>
       <r>    5.2392    0.0000 </r>
       <r>    6.0682    0.0000 </r>
       <r>    6.3948    0.0000 </r>
       <r>    8.3732    0.0000 </r>
      </set>
      <set comment="kpoint 16">
       <r>  -21.4237    1.0000 </r>
       <r>   -9.4875    1.0000 </r>
       <r>   -6.4026    1.0000 </r>
       <r>   -5.8993    1.0000 </r>
       <r>    1.3909    0.0000 </r>
       <r>    2.3039    0.0000 </r>
       <r>    2.7795    0.0000 </r>
       <r>    4.7234    0.0000 </r>
       <r>    5.4532    0.0000 </r>
       <r>    6.1393    0.0000 </r>
       <r>    6.9905    0.0000 </r>
       <r>    8.0386    0.0000 </r>
      </set>
      <set comment="kpoint 17">
       <r>  -21.1806    1.0000 </r>
       <r>   -9.1998    1.0000 </r>
       <r>   -7.2012    1.0000 </r>
       <r>   -6.3076    1.0000 </r>
       <r>    1.7221    0.0000 </r>
       <r>    2.6367    0.0000 </r>
       <r>    3.1170    0.0000 </r>
       <r>    5.0536    0.0000 </r>
       <r>    5.7631    0.0000 </r>
       <r>    6.1794    0.0000 </r>
       <r>    7.3001    0.0000 </r>
       <r>    7.8118    0.0000 </r>
      </set>
      <set comment="kpoint 18">
       <r>  -20.8576    1.0000 </r>
       <r>   -8.8198    1.0000 </r>
       <r>   -8.1456    1.0000 </r>
       <r>   -6.7530    1.0000 </r>
       <r>    2.1633    0.0000 </r>
       <r>    3.0789    0.0000 </r>
       <r>    3.5666    0.0000 </r>
       <r>    5.4880    0.0000 </r>
       <r>    6.0072    0.0000 </r>
       <r>    6.3155    0.0000 </r>
       <r>    6.4021    0.0000 </r>
       <r>    8.8206    0.0000 </r>
      </set>
      <set comment="kpoint 19">
       <r>  -20.4558    1.0000 </r>
       <r>   -9.1788    1.0000 </r>
       <r>   -8.3511    1.0000 </r>
       <r>   -7.1969    1.0000 </r>
       <r>    2.7140    0.0000 </r>
       <r>    3.6257    0.0000 </r>
       <r>    4.1282    0.0000 </r>
       <r>    5.3553    0.0000 </r>
       <r>    5.9339    0.0000 </r>
       <r>    6.0656    0.0000 </r>
       <r>    6.8165    0.0000 </r>
       <r>    9.8524    0.0000 </r>
      </set>
      <set comment="kpoint 20">
       <r>  -19.9767    1.0000 </r>
       <r>  -10.2563    1.0000 </r>
       <r>   -7.7993    1.0000 </r>
       <r>   -7.6117    1.0000 </r>
       <r>    3.3732    0.0000 </r>
       <r>    4.1022    0.0000 </r>
       <r>    4.4507    0.0000 </r>
       <r>    4.8006    0.0000 </r>
       <r>    5.7905    0.0000 </r>
       <r>    6.7126    0.0000 </r>
       <r>    7.4674    0.0000 </r>
       <r>   10.4685    0.0000 </r>
      </set>
      <set comment="kpoint 21">
       <r>  -19.4226    1.0000 </r>
       <r>  -11.3447    1.0000 </r>
       <r>   -7.9783    1.0000 </r>
       <r>   -7.1738    1.0000 </r>
       <r>    3.0969    0.0000 </r>
       <r>    4.1389    0.0000 </r>
       <r>    5.0947    0.0000 </r>
       <r>    5.5405    0.0000 </r>
       <r>    5.6833    0.0000 </r>
       <r>    7.4744    0.0000 </r>
       <r>    8.2326    0.0000 </r>
       <r>   11.1648    0.0000 </r>
      </set>
      <set comment="kpoint 22">
       <r>  -18.7969    1.0000 </r>
       <r>  -12.4188    1.0000 </r>
       <r>   -8.2839    1.0000 </r>
       <r>   -6.4915    1.0000 </r>
       <r>    1.9814    0.0000 </r>
       <r>    4.9972    0.0000 </r>
       <r>    5.5007    0.0000 </r>
       <r>    5.9663    0.0000 </r>
       <r>    6.4950    0.0000 </r>
       <r>    8.3394    0.0000 </r>
       <r>    9.1065    0.0000 </r>
       <r>   11.9042    0.0000 </r>
      </set>
      <set comment="kpoint 23">
       <r>  -18.1063    1.0000 </r>
       <r>  -13.4565    1.0000 </r>
       <r>   -8.5199    1.0000 </r>
       <r>   -5.7855    1.0000 </r>
       <r>    0.9284    0.0000 </r>
       <r>    5.3404    0.0000 </r>
       <r>    6.0238    0.0000 </r>
       <r>    6.9461    0.0000 </r>
       <r>    7.5022    0.0000 </r>
       <r>    9.2996    0.0000 </r>
       <r>   10.0851    0.0000 </r>
       <r>   12.0715    0.0000 </r>
      </set>
      <set comment="kpoint 24">
       <r>  -17.3689    1.0000 </r>
       <r>  -14.4301    1.0000 </r>
       <r>   -8.6806    1.0000 </r>
       <r>   -5.1295    1.0000 </r>
       <r>    0.0317    0.0000 </r>
       <r>    5.2710    0.0000 </r>
       <r>    7.0945    0.0000 </r>
       <r>    8.0242    0.0000 </r>
       <r>    8.6216    0.0000 </r>
       <r>   10.3295    0.0000 </r>
       <r>   10.8202    0.0000 </r>
       <r>   11.1737    0.0000 </r>
      </set>
      <set comment="kpoint 25">
       <r>  -16.6802    1.0000 </r>
       <r>  -15.2378    1.0000 </r>
       <r>   -8.7627    1.0000 </r>
       <r>   -4.6874    1.0000 </r>
       <r>   -0.5332    0.0000 </r>
       <r>    5.2318    0.0000 </r>
       <r>    8.2672    0.0000 </r>
       <r>    9.1813    0.0000 </r>
       <r>    9.5204    0.0000 </r>
       <r>    9.8544    0.0000 </r>
       <r>   10.4137    0.0000 </r>
       <r>   11.1740    0.0000 </r>
      </set>
      <set comment="kpoint 26">
       <r>  -16.6860    1.0000 </r>
       <r>  -15.2308    1.0000 </r>
       <r>   -8.7646    1.0000 </r>
       <r>   -4.6903    1.0000 </r>
       <r>   -0.5296    0.0000 </r>
       <r>    5.2328    0.0000 </r>
       <r>    8.2548    0.0000 </r>
       <r>    9.1690    0.0000 </r>
       <r>    9.5348    0.0000 </r>
       <r>    9.8423    0.0000 </r>
       <r>   10.4255    0.0000 </r>
       <r>   11.1878    0.0000 </r>
      </set>
      <set comment="kpoint 27">
       <r>  -17.3768    1.0000 </r>
       <r>  -14.4188    1.0000 </r>
       <r>   -8.6863    1.0000 </r>
       <r>   -5.1363    1.0000 </r>
       <r>    0.0403    0.0000 </r>
       <r>    5.2737    0.0000 </r>
       <r>    7.0838    0.0000 </r>
       <r>    8.0125    0.0000 </r>
       <r>    8.6105    0.0000 </r>
       <r>   10.3177    0.0000 </r>
       <r>   10.8388    0.0000 </r>
       <r>   11.1628    0.0000 </r>
      </set>
      <set comment="kpoint 28">
       <r>  -18.1137    1.0000 </r>
       <r>  -13.4434    1.0000 </r>
       <r>   -8.5293    1.0000 </r>
       <r>   -5.7936    1.0000 </r>
       <r>    0.9393    0.0000 </r>
       <r>    5.3435    0.0000 </r>
       <r>    6.0156    0.0000 </r>
       <r>    6.9354    0.0000 </r>
       <r>    7.4923    0.0000 </r>
       <r>    9.2885    0.0000 </r>
       <r>   10.0750    0.0000 </r>
       <r>   12.1079    0.0000 </r>
      </set>
      <set comment="kpoint 29">
       <r>  -18.8035    1.0000 </r>
       <r>  -12.4039    1.0000 </r>
       <r>   -8.2972    1.0000 </r>
       <r>   -6.4996    1.0000 </r>
       <r>    1.9930    0.0000 </r>
       <r>    4.9870    0.0000 </r>
       <r>    5.5078    0.0000 </r>
       <r>    5.9567    0.0000 </r>
       <r>    6.4863    0.0000 </r>
       <r>    8.3294    0.0000 </r>
       <r>    9.0977    0.0000 </r>
       <r>   11.8918    0.0000 </r>
      </set>
      <set comment="kpoint 30">
       <r>  -19.4284    1.0000 </r>
       <r>  -11.3280    1.0000 </r>
       <r>   -7.9954    1.0000 </r>
       <r>   -7.1814    1.0000 </r>
       <r>    3.1082    0.0000 </r>
       <r>    4.1304    0.0000 </r>
       <r>    5.0861    0.0000 </r>
       <r>    5.5353    0.0000 </r>
       <r>    5.6870    0.0000 </r>
       <r>    7.4656    0.0000 </r>
       <r>    8.2251    0.0000 </r>
       <r>   11.1543    0.0000 </r>
      </set>
      <set comment="kpoint 31">
       <r>  -19.9817    1.0000 </r>
       <r>  -10.2374    1.0000 </r>
       <r>   -7.8060    1.0000 </r>
       <r>   -7.6326    1.0000 </r>
       <r>    3.3659    0.0000 </r>
       <r>    4.1072    0.0000 </r>
       <r>    4.4484    0.0000 </r>
       <r>    4.7934    0.0000 </r>
       <r>    5.7944    0.0000 </r>
       <r>    6.7049    0.0000 </r>
       <r>    7.4614    0.0000 </r>
       <r>   10.4597    0.0000 </r>
      </set>
      <set comment="kpoint 32">
       <r>  -20.4600    1.0000 </r>
       <r>   -9.1577    1.0000 </r>
       <r>   -8.3569    1.0000 </r>
       <r>   -7.2215    1.0000 </r>
       <r>    2.7078    0.0000 </r>
       <r>    3.6202    0.0000 </r>
       <r>    4.1222    0.0000 </r>
       <r>    5.3630    0.0000 </r>
       <r>    5.9305    0.0000 </r>
       <r>    6.0586    0.0000 </r>
       <r>    6.8123    0.0000 </r>
       <r>    9.8451    0.0000 </r>
      </set>
      <set comment="kpoint 33">
       <r>  -20.8610    1.0000 </r>
       <r>   -8.8247    1.0000 </r>
       <r>   -8.1220    1.0000 </r>
       <r>   -6.7808    1.0000 </r>
       <r>    2.1583    0.0000 </r>
       <r>    3.0742    0.0000 </r>
       <r>    3.5617    0.0000 </r>
       <r>    5.4837    0.0000 </r>
       <r>    5.9906    0.0000 </r>
       <r>    6.3124    0.0000 </r>
       <r>    6.4062    0.0000 </r>
       <r>    8.9853    0.0000 </r>
      </set>
      <set comment="kpoint 34">
       <r>  -21.1832    1.0000 </r>
       <r>   -9.2036    1.0000 </r>
       <r>   -7.1752    1.0000 </r>
       <r>   -6.3377    1.0000 </r>
       <r>    1.7182    0.0000 </r>
       <r>    2.6330    0.0000 </r>
       <r>    3.1132    0.0000 </r>
       <r>    5.0499    0.0000 </r>
       <r>    5.7533    0.0000 </r>
       <r>    6.1464    0.0000 </r>
       <r>    7.3024    0.0000 </r>
       <r>    7.9693    0.0000 </r>
      </set>
      <set comment="kpoint 35">
       <r>  -21.4256    1.0000 </r>
       <r>   -9.4902    1.0000 </r>
       <r>   -6.3750    1.0000 </r>
       <r>   -5.9303    1.0000 </r>
       <r>    1.3881    0.0000 </r>
       <r>    2.3012    0.0000 </r>
       <r>    2.7768    0.0000 </r>
       <r>    4.7207    0.0000 </r>
       <r>    5.4477    0.0000 </r>
       <r>    6.0654    0.0000 </r>
       <r>    7.1522    0.0000 </r>
       <r>    8.0392    0.0000 </r>
      </set>
      <set comment="kpoint 36">
       <r>  -21.5874    1.0000 </r>
       <r>   -9.6822    1.0000 </r>
       <r>   -5.7894    1.0000 </r>
       <r>   -5.6075    1.0000 </r>
       <r>    1.1682    0.0000 </r>
       <r>    2.0798    0.0000 </r>
       <r>    2.5528    0.0000 </r>
       <r>    4.5007    0.0000 </r>
       <r>    5.2360    0.0000 </r>
       <r>    5.9489    0.0000 </r>
       <r>    6.5659    0.0000 </r>
       <r>    8.3717    0.0000 </r>
      </set>
      <set comment="kpoint 37">
       <r>  -21.5450    1.0000 </r>
       <r>   -9.6312    1.0000 </r>
       <r>   -5.9767    1.0000 </r>
       <r>   -5.6522    1.0000 </r>
       <r>    1.2261    0.0000 </r>
       <r>    2.1380    0.0000 </r>
       <r>    2.6116    0.0000 </r>
       <r>    4.5586    0.0000 </r>
       <r>    5.2939    0.0000 </r>
       <r>    6.0738    0.0000 </r>
       <r>    6.5465    0.0000 </r>
       <r>    8.4277    0.0000 </r>
      </set>
      <set comment="kpoint 38">
       <r>  -21.4226    1.0000 </r>
       <r>   -9.4858    1.0000 </r>
       <r>   -6.3954    1.0000 </r>
       <r>   -5.9061    1.0000 </r>
       <r>    1.3926    0.0000 </r>
       <r>    2.3055    0.0000 </r>
       <r>    2.7812    0.0000 </r>
       <r>    4.7250    0.0000 </r>
       <r>    5.4555    0.0000 </r>
       <r>    6.1555    0.0000 </r>
       <r>    6.9385    0.0000 </r>
       <r>    8.0408    0.0000 </r>
      </set>
      <set comment="kpoint 39">
       <r>  -21.2195    1.0000 </r>
       <r>   -9.2452    1.0000 </r>
       <r>   -7.0151    1.0000 </r>
       <r>   -6.3133    1.0000 </r>
       <r>    1.6693    0.0000 </r>
       <r>    2.5836    0.0000 </r>
       <r>    3.0630    0.0000 </r>
       <r>    5.0012    0.0000 </r>
       <r>    5.7247    0.0000 </r>
       <r>    6.3608    0.0000 </r>
       <r>    7.4042    0.0000 </r>
       <r>    7.4258    0.0000 </r>
      </set>
      <set comment="kpoint 40">
       <r>  -20.9362    1.0000 </r>
       <r>   -8.9113    1.0000 </r>
       <r>   -7.8065    1.0000 </r>
       <r>   -6.7948    1.0000 </r>
       <r>    2.0562    0.0000 </r>
       <r>    2.9718    0.0000 </r>
       <r>    3.4572    0.0000 </r>
       <r>    5.3858    0.0000 </r>
       <r>    6.0907    0.0000 </r>
       <r>    6.5247    0.0000 </r>
       <r>    6.6311    0.0000 </r>
       <r>    8.0312    0.0000 </r>
      </set>
      <set comment="kpoint 41">
       <r>  -20.5738    1.0000 </r>
       <r>   -8.7310    1.0000 </r>
       <r>   -8.4869    1.0000 </r>
       <r>   -7.2848    1.0000 </r>
       <r>    2.5528    0.0000 </r>
       <r>    3.4681    0.0000 </r>
       <r>    3.9636    0.0000 </r>
       <r>    5.6737    0.0000 </r>
       <r>    5.9063    0.0000 </r>
       <r>    6.3988    0.0000 </r>
       <r>    6.7123    0.0000 </r>
       <r>    8.8798    0.0000 </r>
      </set>
      <set comment="kpoint 42">
       <r>  -20.1333    1.0000 </r>
       <r>   -9.7409    1.0000 </r>
       <r>   -7.9765    1.0000 </r>
       <r>   -7.7460    1.0000 </r>
       <r>    3.1587    0.0000 </r>
       <r>    4.0544    0.0000 </r>
       <r>    4.5819    0.0000 </r>
       <r>    4.6838    0.0000 </r>
       <r>    6.3571    0.0000 </r>
       <r>    6.4898    0.0000 </r>
       <r>    7.2605    0.0000 </r>
       <r>    9.8890    0.0000 </r>
      </set>
      <set comment="kpoint 43">
       <r>  -19.6169    1.0000 </r>
       <r>  -10.7930    1.0000 </r>
       <r>   -8.1578    1.0000 </r>
       <r>   -7.3871    1.0000 </r>
       <r>    3.5509    0.0000 </r>
       <r>    3.8726    0.0000 </r>
       <r>    4.8175    0.0000 </r>
       <r>    5.3107    0.0000 </r>
       <r>    6.2279    0.0000 </r>
       <r>    7.1966    0.0000 </r>
       <r>    7.9651    0.0000 </r>
       <r>   10.8925    0.0000 </r>
      </set>
      <set comment="kpoint 44">
       <r>  -19.0271    1.0000 </r>
       <r>  -11.8536    1.0000 </r>
       <r>   -8.5079    1.0000 </r>
       <r>   -6.7312    1.0000 </r>
       <r>    2.4561    0.0000 </r>
       <r>    4.6921    0.0000 </r>
       <r>    5.6320    0.0000 </r>
       <r>    6.0452    0.0000 </r>
       <r>    6.1953    0.0000 </r>
       <r>    8.0059    0.0000 </r>
       <r>    8.7838    0.0000 </r>
       <r>   11.5736    0.0000 </r>
      </set>
      <set comment="kpoint 45">
       <r>  -18.3689    1.0000 </r>
       <r>  -12.8960    1.0000 </r>
       <r>   -8.7878    1.0000 </r>
       <r>   -6.0314    1.0000 </r>
       <r>    1.3852    0.0000 </r>
       <r>    5.5973    0.0000 </r>
       <r>    5.9731    0.0000 </r>
       <r>    6.5560    0.0000 </r>
       <r>    7.1163    0.0000 </r>
       <r>    8.9090    0.0000 </r>
       <r>    9.7093    0.0000 </r>
       <r>   12.1639    0.0000 </r>
      </set>
      <set comment="kpoint 46">
       <r>  -17.6528    1.0000 </r>
       <r>  -13.8950    1.0000 </r>
       <r>   -8.9922    1.0000 </r>
       <r>   -5.3358    1.0000 </r>
       <r>    0.4107    0.0000 </r>
       <r>    5.8312    0.0000 </r>
       <r>    6.6731    0.0000 </r>
       <r>    7.5776    0.0000 </r>
       <r>    8.1797    0.0000 </r>
       <r>    9.8842    0.0000 </r>
       <r>   10.7338    0.0000 </r>
       <r>   11.4928    0.0000 </r>
      </set>
      <set comment="kpoint 47">
       <r>  -16.9166    1.0000 </r>
       <r>  -14.8035    1.0000 </r>
       <r>   -9.1175    1.0000 </r>
       <r>   -4.7556    1.0000 </r>
       <r>   -0.3419    0.0000 </r>
       <r>    5.7775    0.0000 </r>
       <r>    7.7937    0.0000 </r>
       <r>    8.6787    0.0000 </r>
       <r>    9.3533    0.0000 </r>
       <r>   10.2567    0.0000 </r>
       <r>   10.7199    0.0000 </r>
       <r>   11.3391    0.0000 </r>
      </set>
      <set comment="kpoint 48">
       <r>  -16.4509    1.0000 </r>
       <r>  -15.3256    1.0000 </r>
       <r>   -9.1619    1.0000 </r>
       <r>   -4.5124    1.0000 </r>
       <r>   -0.6427    0.0000 </r>
       <r>    5.7590    0.0000 </r>
       <r>    8.9113    0.0000 </r>
       <r>    9.0830    0.0000 </r>
       <r>    9.6336    0.0000 </r>
       <r>   10.0651    0.0000 </r>
       <r>   10.6048    0.0000 </r>
       <r>   10.6434    0.0000 </r>
      </set>
      <set comment="kpoint 49">
       <r>  -16.9319    1.0000 </r>
       <r>  -14.7836    1.0000 </r>
       <r>   -9.1248    1.0000 </r>
       <r>   -4.7664    1.0000 </r>
       <r>   -0.3288    0.0000 </r>
       <r>    5.7807    0.0000 </r>
       <r>    7.7705    0.0000 </r>
       <r>    8.6546    0.0000 </r>
       <r>    9.3299    0.0000 </r>
       <r>   10.2901    0.0000 </r>
       <r>   10.7126    0.0000 </r>
       <r>   11.3464    0.0000 </r>
      </set>
      <set comment="kpoint 50">
       <r>  -17.6682    1.0000 </r>
       <r>  -13.8702    1.0000 </r>
       <r>   -9.0067    1.0000 </r>
       <r>   -5.3514    1.0000 </r>
       <r>    0.4306    0.0000 </r>
       <r>    5.8358    0.0000 </r>
       <r>    6.6543    0.0000 </r>
       <r>    7.5551    0.0000 </r>
       <r>    8.1587    0.0000 </r>
       <r>    9.8613    0.0000 </r>
       <r>   10.7125    0.0000 </r>
       <r>   11.5450    0.0000 </r>
      </set>
      <set comment="kpoint 51">
       <r>  -18.3830    1.0000 </r>
       <r>  -12.8677    1.0000 </r>
       <r>   -8.8097    1.0000 </r>
       <r>   -6.0479    1.0000 </r>
       <r>    1.4075    0.0000 </r>
       <r>    5.5756    0.0000 </r>
       <r>    5.9849    0.0000 </r>
       <r>    6.5357    0.0000 </r>
       <r>    7.0978    0.0000 </r>
       <r>    8.8881    0.0000 </r>
       <r>    9.6905    0.0000 </r>
       <r>   12.1403    0.0000 </r>
      </set>
      <set comment="kpoint 52">
       <r>  -19.0396    1.0000 </r>
       <r>  -11.8216    1.0000 </r>
       <r>   -8.5372    1.0000 </r>
       <r>   -6.7470    1.0000 </r>
       <r>    2.4784    0.0000 </r>
       <r>    4.6739    0.0000 </r>
       <r>    5.6138    0.0000 </r>
       <r>    6.0440    0.0000 </r>
       <r>    6.1905    0.0000 </r>
       <r>    7.9873    0.0000 </r>
       <r>    8.7676    0.0000 </r>
       <r>   11.5505    0.0000 </r>
      </set>
      <set comment="kpoint 53">
       <r>  -19.6277    1.0000 </r>
       <r>  -10.7569    1.0000 </r>
       <r>   -8.1947    1.0000 </r>
       <r>   -7.4016    1.0000 </r>
       <r>    3.5715    0.0000 </r>
       <r>    3.8569    0.0000 </r>
       <r>    4.8012    0.0000 </r>
       <r>    5.2954    0.0000 </r>
       <r>    6.2346    0.0000 </r>
       <r>    7.1803    0.0000 </r>
       <r>    7.9519    0.0000 </r>
       <r>   10.8733    0.0000 </r>
      </set>
      <set comment="kpoint 54">
       <r>  -20.1426    1.0000 </r>
       <r>   -9.7005    1.0000 </r>
       <r>   -7.9892    1.0000 </r>
       <r>   -7.7898    1.0000 </r>
       <r>    3.1453    0.0000 </r>
       <r>    4.0445    0.0000 </r>
       <r>    4.5689    0.0000 </r>
       <r>    4.6968    0.0000 </r>
       <r>    6.3515    0.0000 </r>
       <r>    6.4756    0.0000 </r>
       <r>    7.2510    0.0000 </r>
       <r>   10.2371    0.0000 </r>
      </set>
      <set comment="kpoint 55">
       <r>  -20.5814    1.0000 </r>
       <r>   -8.6871    1.0000 </r>
       <r>   -8.4977    1.0000 </r>
       <r>   -7.3341    1.0000 </r>
       <r>    2.5417    0.0000 </r>
       <r>    3.4576    0.0000 </r>
       <r>    3.9528    0.0000 </r>
       <r>    5.6865    0.0000 </r>
       <r>    5.8928    0.0000 </r>
       <r>    6.3700    0.0000 </r>
       <r>    6.7060    0.0000 </r>
       <r>    9.1479    0.0000 </r>
      </set>
      <set comment="kpoint 56">
       <r>  -20.9423    1.0000 </r>
       <r>   -8.9200    1.0000 </r>
       <r>   -7.7623    1.0000 </r>
       <r>   -6.8451    1.0000 </r>
       <r>    2.0473    0.0000 </r>
       <r>    2.9633    0.0000 </r>
       <r>    3.4486    0.0000 </r>
       <r>    5.3774    0.0000 </r>
       <r>    6.0713    0.0000 </r>
       <r>    6.4761    0.0000 </r>
       <r>    6.6364    0.0000 </r>
       <r>    8.3071    0.0000 </r>
      </set>
      <set comment="kpoint 57">
       <r>  -21.2240    1.0000 </r>
       <r>   -9.2518    1.0000 </r>
       <r>   -6.9787    1.0000 </r>
       <r>   -6.3553    1.0000 </r>
       <r>    1.6626    0.0000 </r>
       <r>    2.5772    0.0000 </r>
       <r>    3.0565    0.0000 </r>
       <r>    4.9948    0.0000 </r>
       <r>    5.7124    0.0000 </r>
       <r>    6.2788    0.0000 </r>
       <r>    7.4270    0.0000 </r>
       <r>    7.6675    0.0000 </r>
      </set>
      <set comment="kpoint 58">
       <r>  -21.3404    1.0000 </r>
       <r>   -9.3882    1.0000 </r>
       <r>   -6.6952    1.0000 </r>
       <r>   -6.0217    1.0000 </r>
       <r>    1.5044    0.0000 </r>
       <r>    2.4180    0.0000 </r>
       <r>    2.8950    0.0000 </r>
       <r>    4.8367    0.0000 </r>
       <r>    5.5586    0.0000 </r>
       <r>    6.0442    0.0000 </r>
       <r>    7.3554    0.0000 </r>
       <r>    7.7871    0.0000 </r>
      </set>
      <set comment="kpoint 59">
       <r>  -21.1775    1.0000 </r>
       <r>   -9.1953    1.0000 </r>
       <r>   -7.1802    1.0000 </r>
       <r>   -6.3292    1.0000 </r>
       <r>    1.7265    0.0000 </r>
       <r>    2.6411    0.0000 </r>
       <r>    3.1213    0.0000 </r>
       <r>    5.0583    0.0000 </r>
       <r>    5.7660    0.0000 </r>
       <r>    6.1492    0.0000 </r>
       <r>    7.3050    0.0000 </r>
       <r>    7.7754    0.0000 </r>
      </set>
      <set comment="kpoint 60">
       <r>  -20.9343    1.0000 </r>
       <r>   -8.9085    1.0000 </r>
       <r>   -7.7887    1.0000 </r>
       <r>   -6.8141    1.0000 </r>
       <r>    2.0589    0.0000 </r>
       <r>    2.9746    0.0000 </r>
       <r>    3.4599    0.0000 </r>
       <r>    5.3891    0.0000 </r>
       <r>    6.0897    0.0000 </r>
       <r>    6.4849    0.0000 </r>
       <r>    6.6340    0.0000 </r>
       <r>    8.0501    0.0000 </r>
      </set>
      <set comment="kpoint 61">
       <r>  -20.6116    1.0000 </r>
       <r>   -8.5300    1.0000 </r>
       <r>   -8.5131    1.0000 </r>
       <r>   -7.3878    1.0000 </r>
       <r>    2.5013    0.0000 </r>
       <r>    3.4176    0.0000 </r>
       <r>    3.9109    0.0000 </r>
       <r>    5.8093    0.0000 </r>
       <r>    5.8354    0.0000 </r>
       <r>    6.5196    0.0000 </r>
       <r>    6.9119    0.0000 </r>
       <r>    8.3066    0.0000 </r>
      </set>
      <set comment="kpoint 62">
       <r>  -20.2105    1.0000 </r>
       <r>   -9.3580    1.0000 </r>
       <r>   -8.0634    1.0000 </r>
       <r>   -7.9519    1.0000 </r>
       <r>    3.0531    0.0000 </r>
       <r>    3.9666    0.0000 </r>
       <r>    4.4740    0.0000 </r>
       <r>    4.8917    0.0000 </r>
       <r>    6.3752    0.0000 </r>
       <r>    6.9583    0.0000 </r>
       <r>    7.2534    0.0000 </r>
       <r>    8.8384    0.0000 </r>
      </set>
      <set comment="kpoint 63">
       <r>  -19.7326    1.0000 </r>
       <r>  -10.3015    1.0000 </r>
       <r>   -8.4517    1.0000 </r>
       <r>   -7.5141    1.0000 </r>
       <r>    3.7137    0.0000 </r>
       <r>    3.8742    0.0000 </r>
       <r>    4.6415    0.0000 </r>
       <r>    5.1490    0.0000 </r>
       <r>    7.0262    0.0000 </r>
       <r>    7.0425    0.0000 </r>
       <r>    7.8189    0.0000 </r>
       <r>    9.6913    0.0000 </r>
      </set>
      <set comment="kpoint 64">
       <r>  -19.1804    1.0000 </r>
       <r>  -11.3011    1.0000 </r>
       <r>   -8.8720    1.0000 </r>
       <r>   -6.8913    1.0000 </r>
       <r>    2.8351    0.0000 </r>
       <r>    4.4817    0.0000 </r>
       <r>    5.4024    0.0000 </r>
       <r>    5.9348    0.0000 </r>
       <r>    6.9487    0.0000 </r>
       <r>    7.7771    0.0000 </r>
       <r>    8.5725    0.0000 </r>
       <r>   10.6723    0.0000 </r>
      </set>
      <set comment="kpoint 65">
       <r>  -18.5574    1.0000 </r>
       <r>  -12.3164    1.0000 </r>
       <r>   -9.2107    1.0000 </r>
       <r>   -6.2108    1.0000 </r>
       <r>    1.7885    0.0000 </r>
       <r>    5.3545    0.0000 </r>
       <r>    6.2691    0.0000 </r>
       <r>    6.7694    0.0000 </r>
       <r>    6.8903    0.0000 </r>
       <r>    8.6178    0.0000 </r>
       <r>    9.4418    0.0000 </r>
       <r>   11.5478    0.0000 </r>
      </set>
      <set comment="kpoint 66">
       <r>  -17.8708    1.0000 </r>
       <r>  -13.3145    1.0000 </r>
       <r>   -9.4671    1.0000 </r>
       <r>   -5.5039    1.0000 </r>
       <r>    0.7889    0.0000 </r>
       <r>    6.3167    0.0000 </r>
       <r>    6.7240    0.0000 </r>
       <r>    7.2292    0.0000 </r>
       <r>    7.8504    0.0000 </r>
       <r>    9.5218    0.0000 </r>
       <r>   10.4141    0.0000 </r>
       <r>   11.7935    0.0000 </r>
      </set>
      <set comment="kpoint 67">
       <r>  -17.1394    1.0000 </r>
       <r>  -14.2604    1.0000 </r>
       <r>   -9.6404    1.0000 </r>
       <r>   -4.8415    1.0000 </r>
       <r>   -0.0772    0.0000 </r>
       <r>    6.6111    0.0000 </r>
       <r>    7.4275    0.0000 </r>
       <r>    8.2607    0.0000 </r>
       <r>    8.9683    0.0000 </r>
       <r>   10.3767    0.0000 </r>
       <r>   10.9694    0.0000 </r>
       <r>   11.4983    0.0000 </r>
      </set>
      <set comment="kpoint 68">
       <r>  -16.4610    1.0000 </r>
       <r>  -15.0466    1.0000 </r>
       <r>   -9.7298    1.0000 </r>
       <r>   -4.3900    1.0000 </r>
       <r>   -0.6323    0.0000 </r>
       <r>    6.5762    0.0000 </r>
       <r>    8.5834    0.0000 </r>
       <r>    9.2701    0.0000 </r>
       <r>    9.7795    0.0000 </r>
       <r>   10.1991    0.0000 </r>
       <r>   10.4575    0.0000 </r>
       <r>   11.4828    0.0000 </r>
      </set>
      <set comment="kpoint 69">
       <r>  -16.4788    1.0000 </r>
       <r>  -15.0252    1.0000 </r>
       <r>   -9.7349    1.0000 </r>
       <r>   -4.3995    1.0000 </r>
       <r>   -0.6213    0.0000 </r>
       <r>    6.5780    0.0000 </r>
       <r>    8.5466    0.0000 </r>
       <r>    9.2397    0.0000 </r>
       <r>    9.8235    0.0000 </r>
       <r>   10.1628    0.0000 </r>
       <r>   10.4756    0.0000 </r>
       <r>   11.5244    0.0000 </r>
      </set>
      <set comment="kpoint 70">
       <r>  -17.1633    1.0000 </r>
       <r>  -14.2257    1.0000 </r>
       <r>   -9.6559    1.0000 </r>
       <r>   -4.8628    1.0000 </r>
       <r>   -0.0515    0.0000 </r>
       <r>    6.6140    0.0000 </r>
       <r>    7.3975    0.0000 </r>
       <r>    8.2260    0.0000 </r>
       <r>    8.9350    0.0000 </r>
       <r>   10.3482    0.0000 </r>
       <r>   11.0310    0.0000 </r>
       <r>   11.4655    0.0000 </r>
      </set>
      <set comment="kpoint 71">
       <r>  -17.8931    1.0000 </r>
       <r>  -13.2737    1.0000 </r>
       <r>   -9.4932    1.0000 </r>
       <r>   -5.5289    1.0000 </r>
       <r>    0.8202    0.0000 </r>
       <r>    6.2821    0.0000 </r>
       <r>    6.7373    0.0000 </r>
       <r>    7.1971    0.0000 </r>
       <r>    7.8210    0.0000 </r>
       <r>    9.4892    0.0000 </r>
       <r>   10.3842    0.0000 </r>
       <r>   11.9271    0.0000 </r>
      </set>
      <set comment="kpoint 72">
       <r>  -18.5773    1.0000 </r>
       <r>  -12.2698    1.0000 </r>
       <r>   -9.2476    1.0000 </r>
       <r>   -6.2356    1.0000 </r>
       <r>    1.8206    0.0000 </r>
       <r>    5.3258    0.0000 </r>
       <r>    6.2402    0.0000 </r>
       <r>    6.7544    0.0000 </r>
       <r>    6.8897    0.0000 </r>
       <r>    8.5883    0.0000 </r>
       <r>    9.4160    0.0000 </r>
       <r>   11.7915    0.0000 </r>
      </set>
      <set comment="kpoint 73">
       <r>  -19.1978    1.0000 </r>
       <r>  -11.2487    1.0000 </r>
       <r>   -8.9196    1.0000 </r>
       <r>   -6.9144    1.0000 </r>
       <r>    2.8648    0.0000 </r>
       <r>    4.4568    0.0000 </r>
       <r>    5.3768    0.0000 </r>
       <r>    5.9102    0.0000 </r>
       <r>    6.9537    0.0000 </r>
       <r>    7.7512    0.0000 </r>
       <r>    8.5513    0.0000 </r>
       <r>   10.9429    0.0000 </r>
      </set>
      <set comment="kpoint 74">
       <r>  -19.7477    1.0000 </r>
       <r>  -10.2440    1.0000 </r>
       <r>   -8.5085    1.0000 </r>
       <r>   -7.5348    1.0000 </r>
       <r>    3.6923    0.0000 </r>
       <r>    3.8997    0.0000 </r>
       <r>    4.6186    0.0000 </r>
       <r>    5.1279    0.0000 </r>
       <r>    7.0039    0.0000 </r>
       <r>    7.0289    0.0000 </r>
       <r>    7.8040    0.0000 </r>
       <r>    9.9844    0.0000 </r>
      </set>
      <set comment="kpoint 75">
       <r>  -20.2231    1.0000 </r>
       <r>   -9.2998    1.0000 </r>
       <r>   -8.0812    1.0000 </r>
       <r>   -8.0126    1.0000 </r>
       <r>    3.0350    0.0000 </r>
       <r>    3.9497    0.0000 </r>
       <r>    4.4562    0.0000 </r>
       <r>    4.9078    0.0000 </r>
       <r>    6.3564    0.0000 </r>
       <r>    6.9194    0.0000 </r>
       <r>    7.2413    0.0000 </r>
       <r>    9.1534    0.0000 </r>
      </set>
      <set comment="kpoint 76">
       <r>  -20.6219    1.0000 </r>
       <r>   -8.5447    1.0000 </r>
       <r>   -8.4653    1.0000 </r>
       <r>   -7.4399    1.0000 </r>
       <r>    2.4864    0.0000 </r>
       <r>    3.4031    0.0000 </r>
       <r>    3.8963    0.0000 </r>
       <r>    5.8134    0.0000 </r>
       <r>    5.8254    0.0000 </r>
       <r>    6.4933    0.0000 </r>
       <r>    6.8855    0.0000 </r>
       <r>    8.6138    0.0000 </r>
      </set>
      <set comment="kpoint 77">
       <r>  -21.0549    1.0000 </r>
       <r>   -9.0503    1.0000 </r>
       <r>   -7.5896    1.0000 </r>
       <r>   -6.4546    1.0000 </r>
       <r>    1.8938    0.0000 </r>
       <r>    2.8092    0.0000 </r>
       <r>    3.2917    0.0000 </r>
       <r>    5.2245    0.0000 </r>
       <r>    5.8187    0.0000 </r>
       <r>    6.0652    0.0000 </r>
       <r>    6.9526    0.0000 </r>
       <r>    8.3943    0.0000 </r>
      </set>
      <set comment="kpoint 78">
       <r>  -20.8519    1.0000 </r>
       <r>   -8.8113    1.0000 </r>
       <r>   -8.1128    1.0000 </r>
       <r>   -6.7899    1.0000 </r>
       <r>    2.1714    0.0000 </r>
       <r>    3.0874    0.0000 </r>
       <r>    3.5746    0.0000 </r>
       <r>    5.4987    0.0000 </r>
       <r>    5.9449    0.0000 </r>
       <r>    6.3025    0.0000 </r>
       <r>    6.4079    0.0000 </r>
       <r>    8.8186    0.0000 </r>
      </set>
      <set comment="kpoint 79">
       <r>  -20.5692    1.0000 </r>
       <r>   -8.6971    1.0000 </r>
       <r>   -8.4799    1.0000 </r>
       <r>   -7.3241    1.0000 </r>
       <r>    2.5592    0.0000 </r>
       <r>    3.4753    0.0000 </r>
       <r>    3.9700    0.0000 </r>
       <r>    5.6938    0.0000 </r>
       <r>    5.8994    0.0000 </r>
       <r>    6.3254    0.0000 </r>
       <r>    6.6949    0.0000 </r>
       <r>    8.9443    0.0000 </r>
      </set>
      <set comment="kpoint 80">
       <r>  -20.2078    1.0000 </r>
       <r>   -9.3350    1.0000 </r>
       <r>   -8.0592    1.0000 </r>
       <r>   -7.9789    1.0000 </r>
       <r>    3.0568    0.0000 </r>
       <r>    3.9720    0.0000 </r>
       <r>    4.4777    0.0000 </r>
       <r>    4.8959    0.0000 </r>
       <r>    6.3773    0.0000 </r>
       <r>    6.9045    0.0000 </r>
       <r>    7.2230    0.0000 </r>
       <r>    8.9180    0.0000 </r>
      </set>
      <set comment="kpoint 81">
       <r>  -19.7693    1.0000 </r>
       <r>  -10.0522    1.0000 </r>
       <r>   -8.6431    1.0000 </r>
       <r>   -7.5533    1.0000 </r>
       <r>    3.6634    0.0000 </r>
       <r>    4.0034    0.0000 </r>
       <r>    4.5759    0.0000 </r>
       <r>    5.0975    0.0000 </r>
       <r>    6.9700    0.0000 </r>
       <r>    7.5262    0.0000 </r>
       <r>    7.8516    0.0000 </r>
       <r>    8.9782    0.0000 </r>
      </set>
      <set comment="kpoint 82">
       <r>  -19.2555    1.0000 </r>
       <r>  -10.8747    1.0000 </r>
       <r>   -9.2200    1.0000 </r>
       <r>   -6.9692    1.0000 </r>
       <r>    3.0537    0.0000 </r>
       <r>    4.3780    0.0000 </r>
       <r>    5.2842    0.0000 </r>
       <r>    5.8291    0.0000 </r>
       <r>    7.6608    0.0000 </r>
       <r>    7.8863    0.0000 </r>
       <r>    8.4941    0.0000 </r>
       <r>    9.4999    0.0000 </r>
      </set>
      <set comment="kpoint 83">
       <r>  -18.6696    1.0000 </r>
       <r>  -11.7839    1.0000 </r>
       <r>   -9.6745    1.0000 </r>
       <r>   -6.3179    1.0000 </r>
       <r>    2.0749    0.0000 </r>
       <r>    5.1988    0.0000 </r>
       <r>    6.0916    0.0000 </r>
       <r>    6.6715    0.0000 </r>
       <r>    7.8777    0.0000 </r>
       <r>    8.4363    0.0000 </r>
       <r>    9.2861    0.0000 </r>
       <r>   10.3884    0.0000 </r>
      </set>
      <set comment="kpoint 84">
       <r>  -18.0169    1.0000 </r>
       <r>  -12.7316    1.0000 </r>
       <r>  -10.0143    1.0000 </r>
       <r>   -5.6200    1.0000 </r>
       <r>    1.1028    0.0000 </r>
       <r>    6.1226    0.0000 </r>
       <r>    6.9865    0.0000 </r>
       <r>    7.6098    0.0000 </r>
       <r>    7.7941    0.0000 </r>
       <r>    9.2606    0.0000 </r>
       <r>   10.1993    0.0000 </r>
       <r>   11.2159    0.0000 </r>
      </set>
      <set comment="kpoint 85">
       <r>  -17.3087    1.0000 </r>
       <r>  -13.6704    1.0000 </r>
       <r>  -10.2522    1.0000 </r>
       <r>   -4.9191    1.0000 </r>
       <r>    0.1948    0.0000 </r>
       <r>    7.1384    0.0000 </r>
       <r>    7.6854    0.0000 </r>
       <r>    7.9384    0.0000 </r>
       <r>    8.6958    0.0000 </r>
       <r>   10.0182    0.0000 </r>
       <r>   11.1693    0.0000 </r>
       <r>   11.4353    0.0000 </r>
      </set>
      <set comment="kpoint 86">
       <r>  -16.5837    1.0000 </r>
       <r>  -14.5392    1.0000 </r>
       <r>  -10.3954    1.0000 </r>
       <r>   -4.3218    1.0000 </r>
       <r>   -0.5309    0.0000 </r>
       <r>    7.5995    0.0000 </r>
       <r>    8.2757    0.0000 </r>
       <r>    8.8418    0.0000 </r>
       <r>    9.8643    0.0000 </r>
       <r>   10.4496    0.0000 </r>
       <r>   10.5654    0.0000 </r>
       <r>   11.8276    0.0000 </r>
      </set>
      <set comment="kpoint 87">
       <r>  -16.1351    1.0000 </r>
       <r>  -15.0335    1.0000 </r>
       <r>  -10.4473    1.0000 </r>
       <r>   -4.0679    1.0000 </r>
       <r>   -0.8273    0.0000 </r>
       <r>    7.5840    0.0000 </r>
       <r>    9.2857    0.0000 </r>
       <r>    9.3212    0.0000 </r>
       <r>    9.5362    0.0000 </r>
       <r>   10.5694    0.0000 </r>
       <r>   11.0827    0.0000 </r>
       <r>   11.1478    0.0000 </r>
      </set>
      <set comment="kpoint 88">
       <r>  -16.6148    1.0000 </r>
       <r>  -14.4977    1.0000 </r>
       <r>  -10.4087    1.0000 </r>
       <r>   -4.3454    1.0000 </r>
       <r>   -0.5043    0.0000 </r>
       <r>    7.5978    0.0000 </r>
       <r>    8.2343    0.0000 </r>
       <r>    8.8016    0.0000 </r>
       <r>    9.8180    0.0000 </r>
       <r>   10.4377    0.0000 </r>
       <r>   10.6373    0.0000 </r>
       <r>   11.8252    0.0000 </r>
      </set>
      <set comment="kpoint 89">
       <r>  -17.3400    1.0000 </r>
       <r>  -13.6181    1.0000 </r>
       <r>  -10.2790    1.0000 </r>
       <r>   -4.9520    1.0000 </r>
       <r>    0.2331    0.0000 </r>
       <r>    7.0904    0.0000 </r>
       <r>    7.6970    0.0000 </r>
       <r>    7.8947    0.0000 </r>
       <r>    8.6545    0.0000 </r>
       <r>    9.9807    0.0000 </r>
       <r>   11.1490    0.0000 </r>
       <r>   11.5462    0.0000 </r>
      </set>
      <set comment="kpoint 90">
       <r>  -18.0453    1.0000 </r>
       <r>  -12.6713    1.0000 </r>
       <r>  -10.0549    1.0000 </r>
       <r>   -5.6543    1.0000 </r>
       <r>    1.1433    0.0000 </r>
       <r>    6.0823    0.0000 </r>
       <r>    6.9463    0.0000 </r>
       <r>    7.5706    0.0000 </r>
       <r>    7.8031    0.0000 </r>
       <r>    9.2204    0.0000 </r>
       <r>   10.1643    0.0000 </r>
       <r>   11.4427    0.0000 </r>
      </set>
      <set comment="kpoint 91">
       <r>  -18.6947    1.0000 </r>
       <r>  -11.7164    1.0000 </r>
       <r>   -9.7280    1.0000 </r>
       <r>   -6.3505    1.0000 </r>
       <r>    2.1125    0.0000 </r>
       <r>    5.1636    0.0000 </r>
[...]
       <r>    9.8208    0.0000 </r>
       <r>   10.6191    0.0000 </r>
       <r>   11.5657    0.0000 </r>
      </set>
      <set comment="kpoint 150">
       <r>  -17.3201    1.0000 </r>
       <r>  -14.4124    1.0000 </r>
       <r>   -8.7608    1.0000 </r>
       <r>   -5.0533    1.0000 </r>
       <r>    0.0123    0.0000 </r>
       <r>    5.0616    0.0000 </r>
       <r>    7.1445    0.0000 </r>
       <r>    8.0668    0.0000 </r>
       <r>    8.6736    0.0000 </r>
       <r>   10.3653    0.0000 </r>
       <r>   10.9202    0.0000 </r>
       <r>   11.2227    0.0000 </r>
      </set>
      <set comment="kpoint 151">
       <r>  -16.8592    1.0000 </r>
       <r>  -14.7959    1.0000 </r>
       <r>   -9.1952    1.0000 </r>
       <r>   -4.6725    1.0000 </r>
       <r>   -0.3722    0.0000 </r>
       <r>    5.5621    0.0000 </r>
       <r>    7.8423    0.0000 </r>
       <r>    8.7144    0.0000 </r>
       <r>    9.4039    0.0000 </r>
       <r>   10.3554    0.0000 </r>
       <r>   10.7458    0.0000 </r>
       <r>   11.4191    0.0000 </r>
      </set>
      <set comment="kpoint 152">
       <r>  -16.3842    1.0000 </r>
       <r>  -15.0631    1.0000 </r>
       <r>   -9.8002    1.0000 </r>
       <r>   -4.2995    1.0000 </r>
       <r>   -0.6774    0.0000 </r>
       <r>    6.3528    0.0000 </r>
       <r>    8.6302    0.0000 </r>
       <r>    9.2861    0.0000 </r>
       <r>    9.8764    0.0000 </r>
       <r>   10.2460    0.0000 </r>
       <r>   10.5151    0.0000 </r>
       <r>   11.5823    0.0000 </r>
      </set>
      <set comment="kpoint 153">
       <r>  -16.0305    1.0000 </r>
       <r>  -15.0864    1.0000 </r>
       <r>  -10.5058    1.0000 </r>
       <r>   -3.9712    1.0000 </r>
       <r>   -0.8888    0.0000 </r>
       <r>    7.3528    0.0000 </r>
       <r>    9.2879    0.0000 </r>
       <r>    9.4058    0.0000 </r>
       <r>    9.5869    0.0000 </r>
       <r>   10.6409    0.0000 </r>
       <r>   11.1682    0.0000 </r>
       <r>   11.2011    0.0000 </r>
      </set>
      <set comment="kpoint 154">
       <r>  -16.9672    1.0000 </r>
       <r>  -14.8907    1.0000 </r>
       <r>   -8.6764    1.0000 </r>
       <r>   -4.8149    1.0000 </r>
       <r>   -0.3281    0.0000 </r>
       <r>    4.8500    0.0000 </r>
       <r>    7.6866    0.0000 </r>
       <r>    8.6144    0.0000 </r>
       <r>    9.2384    0.0000 </r>
       <r>   10.2321    0.0000 </r>
       <r>   10.8115    0.0000 </r>
       <r>   11.2707    0.0000 </r>
      </set>
      <set comment="kpoint 155">
       <r>  -16.5958    1.0000 </r>
       <r>  -15.2561    1.0000 </r>
       <r>   -8.8429    1.0000 </r>
       <r>   -4.5903    1.0000 </r>
       <r>   -0.5731    0.0000 </r>
       <r>    5.0177    0.0000 </r>
       <r>    8.3287    0.0000 </r>
       <r>    9.2277    0.0000 </r>
       <r>    9.6051    0.0000 </r>
       <r>    9.9166    0.0000 </r>
       <r>   10.4799    0.0000 </r>
       <r>   11.2624    0.0000 </r>
      </set>
      <set comment="kpoint 156">
       <r>  -16.3444    1.0000 </r>
       <r>  -15.3691    1.0000 </r>
       <r>   -9.2370    1.0000 </r>
       <r>   -4.4115    1.0000 </r>
       <r>   -0.6913    0.0000 </r>
       <r>    5.5399    0.0000 </r>
       <r>    8.9946    0.0000 </r>
       <r>    9.1422    0.0000 </r>
       <r>    9.6650    0.0000 </r>
       <r>   10.1411    0.0000 </r>
       <r>   10.6862    0.0000 </r>
       <r>   10.7099    0.0000 </r>
      </set>
      <set comment="kpoint 157">
       <r>  -16.4491    1.0000 </r>
       <r>  -15.4693    1.0000 </r>
       <r>   -8.7174    1.0000 </r>
       <r>   -4.5588    1.0000 </r>
       <r>   -0.6468    0.0000 </r>
       <r>    4.8277    0.0000 </r>
       <r>    8.8527    0.0000 </r>
       <r>    8.9912    0.0000 </r>
       <r>    9.7033    0.0000 </r>
       <r>    9.9744    0.0000 </r>
       <r>   10.5240    0.0000 </r>
       <r>   10.5454    0.0000 </r>
      </set>
     </set>
    </set>
   </array>
  </eigenvalues>
  <separator name="orbital magnetization" >
   <v name="MAGDIPOLOUT">      0.00000000      0.00000000      0.00000000</v>
  </separator>
  <dos>
   <i name="efermi">     -2.29061887 </i>
   <total>
    <array>
     <dimension dim="1">gridpoints</dimension>
     <dimension dim="2">spin</dimension>
     <field>energy</field>
     <field>total</field>
     <field>integrated</field>
     <set>
      <set comment="spin 1">
       <r>   -23.4445     0.0000     0.0000 </r>
       <r>   -23.3172     0.0000     0.0000 </r>
       <r>   -23.1899     0.0000     0.0000 </r>
       <r>   -23.0626     0.0000     0.0000 </r>
       <r>   -22.9354     0.0000     0.0000 </r>
       <r>   -22.8081     0.0000     0.0000 </r>
       <r>   -22.6808     0.0000     0.0000 </r>
       <r>   -22.5536     0.0000     0.0000 </r>
       <r>   -22.4263     0.0000     0.0000 </r>
       <r>   -22.2990     0.0000     0.0000 </r>
       <r>   -22.1717     0.0000     0.0000 </r>
       <r>   -22.0445     0.0000     0.0000 </r>
       <r>   -21.9172     0.0000     0.0000 </r>
       <r>   -21.7899     0.0000     0.0000 </r>
       <r>   -21.6626     0.1341     0.0171 </r>
       <r>   -21.5354     0.3472     0.0612 </r>
       <r>   -21.4081     0.3214     0.1022 </r>
       <r>   -21.2808     0.2068     0.1285 </r>
       <r>   -21.1536     0.4811     0.1897 </r>
       <r>   -21.0263     0.1717     0.2116 </r>
       <r>   -20.8990     0.3279     0.2534 </r>
       <r>   -20.7717     0.3268     0.2951 </r>
       <r>   -20.6445     0.1678     0.3165 </r>
       <r>   -20.5172     0.4869     0.3785 </r>
       <r>   -20.3899     0.3274     0.4201 </r>
       <r>   -20.2626     0.0468     0.4261 </r>
       <r>   -20.1354     0.5945     0.5018 </r>
       <r>   -20.0081     0.1821     0.5249 </r>
       <r>   -19.8808     0.3224     0.5660 </r>
       <r>   -19.7536     0.2182     0.5937 </r>
       <r>   -19.6263     0.5293     0.6612 </r>
       <r>   -19.4990     0.2342     0.6910 </r>
       <r>   -19.3717     0.3261     0.7325 </r>
       <r>   -19.2445     0.2712     0.7670 </r>
       <r>   -19.1172     0.5316     0.8348 </r>
       <r>   -18.9899     0.3325     0.8772 </r>
       <r>   -18.8626     0.0093     0.8785 </r>
       <r>   -18.7354     0.3536     0.9235 </r>
       <r>   -18.6081     0.4659     0.9828 </r>
       <r>   -18.4808     0.4132     1.0354 </r>
       <r>   -18.3536     0.3043     1.0742 </r>
       <r>   -18.2263     0.0993     1.0868 </r>
       <r>   -18.0990     0.3145     1.1268 </r>
       <r>   -17.9717     0.6659     1.2116 </r>
       <r>   -17.8445     0.2766     1.2468 </r>
       <r>   -17.7172     0.2048     1.2729 </r>
       <r>   -17.5899     0.3357     1.3156 </r>
       <r>   -17.4627     0.0812     1.3259 </r>
       <r>   -17.3354     0.7169     1.4172 </r>
       <r>   -17.2081     0.3496     1.4618 </r>
       <r>   -17.0808     0.3186     1.5024 </r>
       <r>   -16.9536     0.1706     1.5241 </r>
       <r>   -16.8263     0.3307     1.5662 </r>
       <r>   -16.6990     0.4997     1.6299 </r>
       <r>   -16.5717     0.6787     1.7164 </r>
       <r>   -16.4445     0.4770     1.7771 </r>
       <r>   -16.3172     0.2210     1.8054 </r>
       <r>   -16.1899     0.0015     1.8056 </r>
       <r>   -16.0627     0.3485     1.8499 </r>
       <r>   -15.9354     0.6316     1.9303 </r>
       <r>   -15.8081     0.0020     1.9306 </r>
       <r>   -15.6808     0.0000     1.9306 </r>
       <r>   -15.5536     0.1092     1.9444 </r>
       <r>   -15.4263     0.2234     1.9729 </r>
       <r>   -15.2990     0.4009     2.0239 </r>
       <r>   -15.1717     0.3305     2.0660 </r>
       <r>   -15.0445     0.2477     2.0975 </r>
       <r>   -14.9172     0.2616     2.1308 </r>
       <r>   -14.7899     0.4137     2.1835 </r>
       <r>   -14.6627     0.5203     2.2497 </r>
       <r>   -14.5354     0.2430     2.2806 </r>
       <r>   -14.4081     0.7283     2.3733 </r>
       <r>   -14.2808     0.1576     2.3934 </r>
       <r>   -14.1536     0.5675     2.4656 </r>
       <r>   -14.0263     0.0791     2.4757 </r>
       <r>   -13.8990     0.6032     2.5525 </r>
       <r>   -13.7718     0.3787     2.6007 </r>
       <r>   -13.6445     0.1421     2.6188 </r>
       <r>   -13.5172     0.1877     2.6427 </r>
       <r>   -13.3899     0.6358     2.7236 </r>
       <r>   -13.2627     0.2999     2.7619 </r>
       <r>   -13.1354     0.0474     2.7679 </r>
       <r>   -13.0081     0.3209     2.8087 </r>
       <r>   -12.8808     0.2825     2.8447 </r>
       <r>   -12.7536     0.3502     2.8893 </r>
       <r>   -12.6263     0.4061     2.9410 </r>
       <r>   -12.4990     0.1345     2.9581 </r>
       <r>   -12.3718     0.4863     3.0200 </r>
       <r>   -12.2445     0.5141     3.0854 </r>
       <r>   -12.1172     0.3383     3.1285 </r>
       <r>   -11.9899     0.0056     3.1292 </r>
       <r>   -11.8627     0.5594     3.2004 </r>
       <r>   -11.7354     0.6179     3.2790 </r>
       <r>   -11.6081     0.4056     3.3306 </r>
       <r>   -11.4808     0.1529     3.3501 </r>
       <r>   -11.3536     0.0918     3.3618 </r>
       <r>   -11.2263     0.7058     3.4517 </r>
       <r>   -11.0990     0.5743     3.5247 </r>
       <r>   -10.9718     0.1602     3.5451 </r>
       <r>   -10.8445     0.4477     3.6021 </r>
       <r>   -10.7172     0.6952     3.6906 </r>
       <r>   -10.5899     0.0024     3.6910 </r>
       <r>   -10.4627     0.4169     3.7440 </r>
       <r>   -10.3354     0.4130     3.7966 </r>
       <r>   -10.2081     0.9266     3.9146 </r>
       <r>   -10.0808     0.0892     3.9260 </r>
       <r>    -9.9536     0.5139     3.9914 </r>
       <r>    -9.8263     0.1117     4.0057 </r>
       <r>    -9.6990     1.1068     4.1466 </r>
       <r>    -9.5718     0.8680     4.2571 </r>
       <r>    -9.4445     0.6470     4.3395 </r>
       <r>    -9.3172     0.3892     4.3891 </r>
       <r>    -9.1899     1.3131     4.5562 </r>
       <r>    -9.0627     0.8907     4.6696 </r>
       <r>    -8.9354     0.4490     4.7267 </r>
       <r>    -8.8081     1.0970     4.8663 </r>
       <r>    -8.6809     1.0571     5.0010 </r>
       <r>    -8.5536     1.0659     5.1367 </r>
       <r>    -8.4263     1.5136     5.3293 </r>
       <r>    -8.2990     0.5703     5.4019 </r>
       <r>    -8.1718     0.4855     5.4638 </r>
       <r>    -8.0445     1.0045     5.5916 </r>
       <r>    -7.9172     1.0516     5.7256 </r>
       <r>    -7.7899     0.4880     5.7878 </r>
       <r>    -7.6627     0.7303     5.8807 </r>
       <r>    -7.5354     0.6816     5.9675 </r>
       <r>    -7.4081     0.4968     6.0307 </r>
       <r>    -7.2809     0.8165     6.1346 </r>
       <r>    -7.1536     0.9397     6.2543 </r>
       <r>    -7.0263     0.1291     6.2707 </r>
       <r>    -6.8990     0.6410     6.3523 </r>
       <r>    -6.7718     0.9935     6.4787 </r>
       <r>    -6.6445     0.6306     6.5590 </r>
       <r>    -6.5172     0.0154     6.5610 </r>
       <r>    -6.3899     0.6782     6.6473 </r>
       <r>    -6.2627     1.1097     6.7885 </r>
       <r>    -6.1354     0.4447     6.8452 </r>
       <r>    -6.0081     0.3879     6.8946 </r>
       <r>    -5.8809     0.6225     6.9738 </r>
       <r>    -5.7536     0.4002     7.0248 </r>
       <r>    -5.6263     0.7417     7.1192 </r>
       <r>    -5.4990     0.5961     7.1953 </r>
       <r>    -5.3718     0.5738     7.2683 </r>
       <r>    -5.2445     0.3730     7.3158 </r>
       <r>    -5.1172     0.1889     7.3398 </r>
       <r>    -4.9900     0.3317     7.3821 </r>
       <r>    -4.8627     0.7787     7.4812 </r>
       <r>    -4.7354     0.5472     7.5508 </r>
       <r>    -4.6081     0.4030     7.6021 </r>
       <r>    -4.4809     0.2328     7.6318 </r>
       <r>    -4.3536     0.3140     7.6717 </r>
       <r>    -4.2263     1.0362     7.8037 </r>
       <r>    -4.0990     0.0161     7.8057 </r>
       <r>    -3.9718     0.1341     7.8228 </r>
       <r>    -3.8445     0.0354     7.8273 </r>
       <r>    -3.7172     0.2897     7.8642 </r>
       <r>    -3.5900     0.3469     7.9083 </r>
       <r>    -3.4627     0.1740     7.9306 </r>
       <r>    -3.3354     0.0481     7.9367 </r>
       <r>    -3.2081     0.1152     7.9513 </r>
       <r>    -3.0809     0.0000     7.9514 </r>
       <r>    -2.9536     0.1837     7.9748 </r>
       <r>    -2.8263     0.1437     7.9931 </r>
       <r>    -2.6990     0.0000     7.9931 </r>
       <r>    -2.5718     0.0000     7.9931 </r>
       <r>    -2.4445     0.0000     7.9931 </r>
       <r>    -2.3172     0.0528     7.9998 </r>
       <r>    -2.1900     0.0563     8.0069 </r>
       <r>    -2.0627     0.0000     8.0069 </r>
       <r>    -1.9354     0.0000     8.0069 </r>
       <r>    -1.8081     0.0000     8.0069 </r>
       <r>    -1.6809     0.0495     8.0132 </r>
       <r>    -1.5536     0.2776     8.0486 </r>
       <r>    -1.4263     0.0019     8.0489 </r>
       <r>    -1.2990     0.1581     8.0690 </r>
       <r>    -1.1718     0.0037     8.0694 </r>
       <r>    -1.0445     0.0812     8.0798 </r>
       <r>    -0.9172     0.7174     8.1711 </r>
       <r>    -0.7900     0.1820     8.1944 </r>
       <r>    -0.6627     0.1604     8.2149 </r>
       <r>    -0.5354     0.7559     8.3111 </r>
       <r>    -0.4081     0.4402     8.3671 </r>
       <r>    -0.2809     0.8998     8.4817 </r>
       <r>    -0.1536     0.1159     8.4965 </r>
       <r>    -0.0263     0.3236     8.5377 </r>
       <r>     0.1009     0.3311     8.5799 </r>
       <r>     0.2282     0.2570     8.6126 </r>
       <r>     0.3555     0.0696     8.6216 </r>
       <r>     0.4828     0.8713     8.7325 </r>
       <r>     0.6100     0.1097     8.7465 </r>
       <r>     0.7373     0.0000     8.7465 </r>
       <r>     0.8646     0.3273     8.7882 </r>
       <r>     0.9919     0.3330     8.8306 </r>
       <r>     1.1191     0.3755     8.8784 </r>
       <r>     1.2464     0.4550     8.9363 </r>
       <r>     1.3737     0.4090     8.9883 </r>
       <r>     1.5009     0.8268     9.0936 </r>
       <r>     1.6282     0.0831     9.1042 </r>
       <r>     1.7555     0.4880     9.1664 </r>
       <r>     1.8828     0.3882     9.2159 </r>
       <r>     2.0100     0.5954     9.2917 </r>
       <r>     2.1373     0.9380     9.4111 </r>
       <r>     2.2646     0.5627     9.4828 </r>
       <r>     2.3919     0.4645     9.5419 </r>
       <r>     2.5191     0.8676     9.6523 </r>
       <r>     2.6464     1.2276     9.8086 </r>
       <r>     2.7737     0.5300     9.8761 </r>
       <r>     2.9009     0.8206     9.9806 </r>
       <r>     3.0282     0.5798    10.0545 </r>
       <r>     3.1555     1.8983    10.2961 </r>
       <r>     3.2828     0.2711    10.3308 </r>
       <r>     3.4100     0.6249    10.4103 </r>
       <r>     3.5373     0.7854    10.5104 </r>
       <r>     3.6646     1.0728    10.6469 </r>
       <r>     3.7918     0.7796    10.7462 </r>
       <r>     3.9191     1.0106    10.8748 </r>
       <r>     4.0464     0.9647    10.9977 </r>
       <r>     4.1737     1.1901    11.1492 </r>
       <r>     4.3009     0.0266    11.1528 </r>
       <r>     4.4282     0.6859    11.2401 </r>
       <r>     4.5555     1.4373    11.4231 </r>
       <r>     4.6828     1.1653    11.5714 </r>
       <r>     4.8100     1.1741    11.7209 </r>
       <r>     4.9373     1.0960    11.8604 </r>
       <r>     5.0646     1.1212    12.0032 </r>
       <r>     5.1918     1.9601    12.2526 </r>
       <r>     5.3191     1.7640    12.4773 </r>
       <r>     5.4464     2.0466    12.7379 </r>
       <r>     5.5737     1.8388    12.9720 </r>
       <r>     5.7009     1.6586    13.1834 </r>
       <r>     5.8282     2.0049    13.4385 </r>
       <r>     5.9555     1.8540    13.6747 </r>
       <r>     6.0828     3.5692    14.1290 </r>
       <r>     6.2100     1.7390    14.3504 </r>
       <r>     6.3373     1.6246    14.5572 </r>
       <r>     6.4646     1.8329    14.7906 </r>
       <r>     6.5918     2.1719    15.0670 </r>
       <r>     6.7191     2.0583    15.3290 </r>
       <r>     6.8464     1.1713    15.4782 </r>
       <r>     6.9737     2.5048    15.7971 </r>
       <r>     7.1009     1.8679    16.0351 </r>
       <r>     7.2282     1.3708    16.2096 </r>
       <r>     7.3555     1.1248    16.3527 </r>
       <r>     7.4828     1.5751    16.5532 </r>
       <r>     7.6100     1.9170    16.7972 </r>
       <r>     7.7373     1.5177    16.9904 </r>
       <r>     7.8646     2.4792    17.3060 </r>
       <r>     7.9918     1.7751    17.5319 </r>
       <r>     8.1191     1.5213    17.7257 </r>
       <r>     8.2464     0.8515    17.8341 </r>
       <r>     8.3737     2.0888    18.1000 </r>
       <r>     8.5009     2.1424    18.3728 </r>
       <r>     8.6282     2.4283    18.6820 </r>
       <r>     8.7555     1.5747    18.8824 </r>
       <r>     8.8827     1.8002    19.1117 </r>
       <r>     9.0100     2.0532    19.3731 </r>
       <r>     9.1373     1.0015    19.5007 </r>
       <r>     9.2646     1.6483    19.7105 </r>
       <r>     9.3918     1.4902    19.9002 </r>
       <r>     9.5191     0.9779    20.0247 </r>
       <r>     9.6464     1.7208    20.2438 </r>
       <r>     9.7737     1.4838    20.4326 </r>
       <r>     9.9009     2.3967    20.7378 </r>
       <r>    10.0282     1.4037    20.9167 </r>
       <r>    10.1555     1.4905    21.1064 </r>
       <r>    10.2827     1.6175    21.3123 </r>
       <r>    10.4100     1.7581    21.5361 </r>
       <r>    10.5373     2.0130    21.7925 </r>
       <r>    10.6646     1.5622    21.9913 </r>
       <r>    10.7918     2.1518    22.2653 </r>
       <r>    10.9191     1.8114    22.4958 </r>
       <r>    11.0464     1.3327    22.6655 </r>
       <r>    11.1737     1.3108    22.8324 </r>
       <r>    11.3009     1.4253    23.0138 </r>
       <r>    11.4282     0.5503    23.0839 </r>
       <r>    11.5555     1.5597    23.2824 </r>
       <r>    11.6827     0.9980    23.4094 </r>
       <r>    11.8100     0.3595    23.4552 </r>
       <r>    11.9373     1.5361    23.6507 </r>
       <r>    12.0646     0.6522    23.7339 </r>
       <r>    12.1918     0.8099    23.8369 </r>
       <r>    12.3191     0.2988    23.8750 </r>
       <r>    12.4464     0.0000    23.8750 </r>
       <r>    12.5736     0.0437    23.8806 </r>
       <r>    12.7009     0.3061    23.9195 </r>
       <r>    12.8282     0.3026    23.9581 </r>
       <r>    12.9555     0.1368    23.9755 </r>
       <r>    13.0827     0.1925    24.0000 </r>
       <r>    13.2100     0.0000    24.0000 </r>
       <r>    13.3373     0.0000    24.0000 </r>
       <r>    13.4646     0.0000    24.0000 </r>
       <r>    13.5918     0.0000    24.0000 </r>
       <r>    13.7191     0.0000    24.0000 </r>
       <r>    13.8464     0.0000    24.0000 </r>
       <r>    13.9736     0.0000    24.0000 </r>
       <r>    14.1009     0.0000    24.0000 </r>
       <r>    14.2282     0.0000    24.0000 </r>
       <r>    14.3555     0.0000    24.0000 </r>
       <r>    14.4827     0.0000    24.0000 </r>
       <r>    14.6100     0.0000    24.0000 </r>
       <r>    14.7373     0.0000    24.0000 </r>
      </set>
     </set>
    </array>
   </total>
  </dos>
 </calculation>
 <structure name="finalpos" >
  <crystal>
   <varray name="basis" >
    <v>       2.48338900       0.00000000       0.00000000 </v>
    <v>      -1.24169500       2.13736100       0.00000000 </v>
    <v>       0.00000000       0.00000000      15.00000000 </v>
   </varray>
   <i name="volume">     79.61848195 </i>
   <varray name="rec_basis" >
    <v>       0.40267554       0.23393344       0.00000000 </v>
    <v>       0.00000000       0.46786668       0.00000000 </v>
    <v>       0.00000000       0.00000000       0.06666667 </v>
   </varray>
  </crystal>
  <varray name="positions" >
   <v>       0.00022761       0.00045521       0.50000000 </v>
   <v>       0.33310539       0.66621179       0.50000000 </v>
  </varray>
 </structure>
</modeling>
