<?xml version="1.0" encoding="ISO-8859-1"?>
<modeling>
 <generator>
  <i name="program" type="string">vasp </i>
  <i name="version" type="string">5.4.1  </i>
  <i name="subversion" type="string">24Jun15 (build Nov 20 2020 10:29:34) complex                          parallel </i>
  <i name="platform" type="string">IFC91_ompi </i>
  <i name="date" type="string">2021 09 09 </i>
  <i name="time" type="string">14:55:11 </i>
 </generator>
 <incar>
  <i type="string" name="PREC">a</i>
  <i type="string" name="ALGO"> Normal</i>
  <i type="int" name="ISPIN">     1</i>
  <i type="int" name="ICHARG">     2</i>
  <i type="int" name="NELM">   250</i>
  <i type="int" name="NELMDL">    -5</i>
  <i type="int" name="NELMIN">     6</i>
  <i type="int" name="IBRION">     2</i>
  <i name="EDIFF">      0.00001000</i>
  <i name="EDIFFG">     -0.01000000</i>
  <i type="int" name="NSW">   200</i>
  <i type="int" name="ISIF">     2</i>
  <i name="ENCUT">    520.00000000</i>
  <i name="POTIM">      0.30000000</i>
  <i type="logical" name="LREAL"> F  </i>
  <i type="int" name="ISMEAR">     0</i>
  <i name="SIGMA">      0.02000000</i>
  <i type="logical" name="LWAVE"> F  </i>
  <i type="logical" name="LCHARG"> F  </i>
  <i type="logical" name="LAECHG"> F  </i>
  <v type="int" name="KPOINT_BSE">    -1     0     0     0</v>
  <i type="int" name="NELM">   250</i>
 </incar>
 <kpoints>
  <generation param="Gamma">
   <v type="int" name="divisions">      15       13        1 </v>
   <v name="usershift">      0.00000000       0.00000000       0.00000000 </v>
   <v name="genvec1">      0.06666667       0.00000000       0.00000000 </v>
   <v name="genvec2">      0.00000000       0.07692308       0.00000000 </v>
   <v name="genvec3">      0.00000000       0.00000000       1.00000000 </v>
   <v name="shift">      0.00000000       0.00000000       0.00000000 </v>
  </generation>
  <varray name="kpointlist" >
   <v>       0.00000000       0.00000000       0.00000000 </v>
   <v>       0.06666667       0.00000000       0.00000000 </v>
   <v>       0.13333333       0.00000000       0.00000000 </v>
   <v>       0.20000000       0.00000000       0.00000000 </v>
   <v>       0.26666667       0.00000000       0.00000000 </v>
   <v>       0.33333333      -0.00000000       0.00000000 </v>
   <v>       0.40000000       0.00000000       0.00000000 </v>
   <v>       0.46666667       0.00000000       0.00000000 </v>
   <v>       0.00000000       0.07692308       0.00000000 </v>
   <v>       0.06666667       0.07692308       0.00000000 </v>
   <v>       0.13333333       0.07692308       0.00000000 </v>
   <v>       0.20000000       0.07692308       0.00000000 </v>
   <v>       0.26666667       0.07692308       0.00000000 </v>
   <v>       0.33333333       0.07692308       0.00000000 </v>
   <v>       0.40000000       0.07692308       0.00000000 </v>
   <v>       0.46666667       0.07692308       0.00000000 </v>
   <v>      -0.46666667       0.07692308       0.00000000 </v>
   <v>      -0.40000000       0.07692308       0.00000000 </v>
   <v>      -0.33333333       0.07692308       0.00000000 </v>
   <v>      -0.26666667       0.07692308       0.00000000 </v>
   <v>      -0.20000000       0.07692308       0.00000000 </v>
   <v>      -0.13333333       0.07692308       0.00000000 </v>
   <v>      -0.06666667       0.07692308       0.00000000 </v>
   <v>       0.00000000       0.15384615       0.00000000 </v>
   <v>       0.06666667       0.15384615       0.00000000 </v>
   <v>       0.13333333       0.15384615       0.00000000 </v>
   <v>       0.20000000       0.15384615       0.00000000 </v>
   <v>       0.26666667       0.15384615       0.00000000 </v>
   <v>       0.33333333       0.15384615       0.00000000 </v>
   <v>       0.40000000       0.15384615       0.00000000 </v>
   <v>       0.46666667       0.15384615       0.00000000 </v>
   <v>      -0.46666667       0.15384615       0.00000000 </v>
   <v>      -0.40000000       0.15384615       0.00000000 </v>
   <v>      -0.33333333       0.15384615       0.00000000 </v>
   <v>      -0.26666667       0.15384615       0.00000000 </v>
   <v>      -0.20000000       0.15384615       0.00000000 </v>
   <v>      -0.13333333       0.15384615       0.00000000 </v>
   <v>      -0.06666667       0.15384615       0.00000000 </v>
   <v>       0.00000000       0.23076923       0.00000000 </v>
   <v>       0.06666667       0.23076923       0.00000000 </v>
   <v>       0.13333333       0.23076923       0.00000000 </v>
   <v>       0.20000000       0.23076923       0.00000000 </v>
   <v>       0.26666667       0.23076923       0.00000000 </v>
   <v>       0.33333333       0.23076923       0.00000000 </v>
   <v>       0.40000000       0.23076923       0.00000000 </v>
   <v>       0.46666667       0.23076923       0.00000000 </v>
   <v>      -0.46666667       0.23076923       0.00000000 </v>
   <v>      -0.40000000       0.23076923       0.00000000 </v>
   <v>      -0.33333333       0.23076923       0.00000000 </v>
   <v>      -0.26666667       0.23076923       0.00000000 </v>
   <v>      -0.20000000       0.23076923       0.00000000 </v>
   <v>      -0.13333333       0.23076923       0.00000000 </v>
   <v>      -0.06666667       0.23076923       0.00000000 </v>
   <v>       0.00000000       0.30769231       0.00000000 </v>
   <v>       0.06666667       0.30769231       0.00000000 </v>
   <v>       0.13333333       0.30769231       0.00000000 </v>
   <v>       0.20000000       0.30769231       0.00000000 </v>
   <v>       0.26666667       0.30769231       0.00000000 </v>
   <v>       0.33333333       0.30769231       0.00000000 </v>
   <v>       0.40000000       0.30769231       0.00000000 </v>
   <v>       0.46666667       0.30769231       0.00000000 </v>
   <v>      -0.46666667       0.30769231       0.00000000 </v>
   <v>      -0.40000000       0.30769231       0.00000000 </v>
   <v>      -0.33333333       0.30769231       0.00000000 </v>
   <v>      -0.26666667       0.30769231       0.00000000 </v>
   <v>      -0.20000000       0.30769231       0.00000000 </v>
   <v>      -0.13333333       0.30769231       0.00000000 </v>
   <v>      -0.06666667       0.30769231       0.00000000 </v>
   <v>      -0.00000000       0.38461538       0.00000000 </v>
   <v>       0.06666667       0.38461538       0.00000000 </v>
   <v>       0.13333333       0.38461538       0.00000000 </v>
   <v>       0.20000000       0.38461538       0.00000000 </v>
   <v>       0.26666667       0.38461538       0.00000000 </v>
   <v>       0.33333333       0.38461538       0.00000000 </v>
   <v>       0.40000000       0.38461538       0.00000000 </v>
   <v>       0.46666667       0.38461538       0.00000000 </v>
   <v>      -0.46666667       0.38461538       0.00000000 </v>
   <v>      -0.40000000       0.38461538       0.00000000 </v>
   <v>      -0.33333333       0.38461538       0.00000000 </v>
   <v>      -0.26666667       0.38461538       0.00000000 </v>
   <v>      -0.20000000       0.38461538       0.00000000 </v>
   <v>      -0.13333333       0.38461538       0.00000000 </v>
   <v>      -0.06666667       0.38461538       0.00000000 </v>
   <v>       0.00000000       0.46153846       0.00000000 </v>
   <v>       0.06666667       0.46153846       0.00000000 </v>
   <v>       0.13333333       0.46153846       0.00000000 </v>
   <v>       0.20000000       0.46153846       0.00000000 </v>
   <v>       0.26666667       0.46153846       0.00000000 </v>
   <v>       0.33333333       0.46153846       0.00000000 </v>
   <v>       0.40000000       0.46153846       0.00000000 </v>
   <v>       0.46666667       0.46153846       0.00000000 </v>
   <v>      -0.46666667       0.46153846       0.00000000 </v>
   <v>      -0.40000000       0.46153846       0.00000000 </v>
   <v>      -0.33333333       0.46153846       0.00000000 </v>
   <v>      -0.26666667       0.46153846       0.00000000 </v>
   <v>      -0.20000000       0.46153846       0.00000000 </v>
   <v>      -0.13333333       0.46153846       0.00000000 </v>
   <v>      -0.06666667       0.46153846       0.00000000 </v>
  </varray>
  <varray name="weights" >
   <v>       0.00512821 </v>
   <v>       0.01025641 </v>
   <v>       0.01025641 </v>
   <v>       0.01025641 </v>
   <v>       0.01025641 </v>
   <v>       0.01025641 </v>
   <v>       0.01025641 </v>
   <v>       0.01025641 </v>
   <v>       0.01025641 </v>
   <v>       0.01025641 </v>
   <v>       0.01025641 </v>
   <v>       0.01025641 </v>
   <v>       0.01025641 </v>
   <v>       0.01025641 </v>
   <v>       0.01025641 </v>
   <v>       0.01025641 </v>
   <v>       0.01025641 </v>
   <v>       0.01025641 </v>
   <v>       0.01025641 </v>
   <v>       0.01025641 </v>
   <v>       0.01025641 </v>
   <v>       0.01025641 </v>
   <v>       0.01025641 </v>
   <v>       0.01025641 </v>
   <v>       0.01025641 </v>
   <v>       0.01025641 </v>
   <v>       0.01025641 </v>
   <v>       0.01025641 </v>
   <v>       0.01025641 </v>
   <v>       0.01025641 </v>
   <v>       0.01025641 </v>
   <v>       0.01025641 </v>
   <v>       0.01025641 </v>
   <v>       0.01025641 </v>
   <v>       0.01025641 </v>
   <v>       0.01025641 </v>
   <v>       0.01025641 </v>
   <v>       0.01025641 </v>
   <v>       0.01025641 </v>
   <v>       0.01025641 </v>
   <v>       0.01025641 </v>
   <v>       0.01025641 </v>
   <v>       0.01025641 </v>
   <v>       0.01025641 </v>
   <v>       0.01025641 </v>
   <v>       0.01025641 </v>
   <v>       0.01025641 </v>
   <v>       0.01025641 </v>
   <v>       0.01025641 </v>
   <v>       0.01025641 </v>
   <v>       0.01025641 </v>
   <v>       0.01025641 </v>
   <v>       0.01025641 </v>
   <v>       0.01025641 </v>
   <v>       0.01025641 </v>
   <v>       0.01025641 </v>
   <v>       0.01025641 </v>
   <v>       0.01025641 </v>
   <v>       0.01025641 </v>
   <v>       0.01025641 </v>
   <v>       0.01025641 </v>
   <v>       0.01025641 </v>
   <v>       0.01025641 </v>
   <v>       0.01025641 </v>
   <v>       0.01025641 </v>
   <v>       0.01025641 </v>
   <v>       0.01025641 </v>
   <v>       0.01025641 </v>
   <v>       0.01025641 </v>
   <v>       0.01025641 </v>
   <v>       0.01025641 </v>
   <v>       0.01025641 </v>
   <v>       0.01025641 </v>
   <v>       0.01025641 </v>
   <v>       0.01025641 </v>
   <v>       0.01025641 </v>
   <v>       0.01025641 </v>
   <v>       0.01025641 </v>
   <v>       0.01025641 </v>
   <v>       0.01025641 </v>
   <v>       0.01025641 </v>
   <v>       0.01025641 </v>
   <v>       0.01025641 </v>
   <v>       0.01025641 </v>
   <v>       0.01025641 </v>
   <v>       0.01025641 </v>
   <v>       0.01025641 </v>
   <v>       0.01025641 </v>
   <v>       0.01025641 </v>
   <v>       0.01025641 </v>
   <v>       0.01025641 </v>
   <v>       0.01025641 </v>
   <v>       0.01025641 </v>
   <v>       0.01025641 </v>
   <v>       0.01025641 </v>
   <v>       0.01025641 </v>
   <v>       0.01025641 </v>
   <v>       0.01025641 </v>
  </varray>
 </kpoints>
 <parameters>
  <separator name="general" >
   <i type="string" name="SYSTEM">unknown system</i>
   <i type="logical" name="LCOMPAT"> F  </i>
  </separator>
  <separator name="electronic" >
   <i type="string" name="PREC">a</i>
   <i name="ENMAX">    520.00000000</i>
   <i name="ENAUG">    531.35600000</i>
   <i name="EDIFF">      0.00001000</i>
   <i type="int" name="IALGO">    38</i>
   <i type="int" name="IWAVPR">    11</i>
   <i type="int" name="NBANDS">    32</i>
   <i name="NELECT">     52.00000000</i>
   <i type="int" name="TURBO">     0</i>
   <i type="int" name="IRESTART">     0</i>
   <i type="int" name="NREBOOT">     0</i>
   <i type="int" name="NMIN">     0</i>
   <i name="EREF">      0.00000000</i>
   <separator name="electronic smearing" >
    <i type="int" name="ISMEAR">     0</i>
    <i name="SIGMA">      0.02000000</i>
    <i name="KSPACING">      0.50000000</i>
    <i type="logical" name="KGAMMA"> T  </i>
   </separator>
   <separator name="electronic projectors" >
    <i type="logical" name="LREAL"> F  </i>
    <v name="ROPT">      0.00000000      0.00000000</v>
    <i type="int" name="LMAXPAW">  -100</i>
    <i type="int" name="LMAXMIX">     2</i>
    <i type="logical" name="NLSPLINE"> F  </i>
   </separator>
   <separator name="electronic startup" >
    <i type="int" name="ISTART">     0</i>
    <i type="int" name="ICHARG">     2</i>
    <i type="int" name="INIWAV">     1</i>
   </separator>
   <separator name="electronic spin" >
    <i type="int" name="ISPIN">     1</i>
    <i type="logical" name="LNONCOLLINEAR"> F  </i>
    <v name="MAGMOM">      1.00000000      1.00000000      1.00000000      1.00000000      1.00000000      1.00000000</v>
    <i name="NUPDOWN">     -1.00000000</i>
    <i type="logical" name="LSORBIT"> F  </i>
    <v name="SAXIS">      0.00000000      0.00000000      1.00000000</v>
    <i type="logical" name="LSPIRAL"> F  </i>
    <v name="QSPIRAL">      0.00000000      0.00000000      0.00000000</v>
    <i type="logical" name="LZEROZ"> F  </i>
   </separator>
   <separator name="electronic exchange-correlation" >
    <i type="logical" name="LASPH"> F  </i>
    <i type="logical" name="LMETAGGA"> F  </i>
   </separator>
   <separator name="electronic convergence" >
    <i type="int" name="NELM">   250</i>
    <i type="int" name="NELMDL">    -5</i>
    <i type="int" name="NELMIN">     6</i>
    <i name="ENINI">    520.00000000</i>
    <separator name="electronic convergence detail" >
     <i type="logical" name="LDIAG"> T  </i>
     <i type="logical" name="LSUBROT"> F  </i>
     <i name="WEIMIN">      0.00100000</i>
     <i name="EBREAK">      0.00000008</i>
     <i name="DEPER">      0.30000000</i>
     <i type="int" name="NRMM">     4</i>
     <i name="TIME">      0.40000000</i>
    </separator>
   </separator>
   <separator name="electronic mixer" >
    <i name="AMIX">      0.40000000</i>
    <i name="BMIX">      1.00000000</i>
    <i name="AMIN">      0.10000000</i>
    <i name="AMIX_MAG">      1.60000000</i>
    <i name="BMIX_MAG">      1.00000000</i>
    <separator name="electronic mixer details" >
     <i type="int" name="IMIX">     4</i>
     <i type="logical" name="MIXFIRST"> F  </i>
     <i type="int" name="MAXMIX">   -45</i>
     <i name="WC">    100.00000000</i>
     <i type="int" name="INIMIX">     1</i>
     <i type="int" name="MIXPRE">     1</i>
     <i type="int" name="MREMOVE">     5</i>
    </separator>
   </separator>
   <separator name="electronic dipolcorrection" >
    <i type="logical" name="LDIPOL"> F  </i>
    <i type="logical" name="LMONO"> F  </i>
    <i type="int" name="IDIPOL">     0</i>
    <i name="EPSILON">      1.00000000</i>
    <v name="DIPOL">   -100.00000000   -100.00000000   -100.00000000</v>
    <i name="EFIELD">      0.00000000</i>
   </separator>
  </separator>
  <separator name="grids" >
   <i type="int" name="NGX">    36</i>
   <i type="int" name="NGY">    42</i>
   <i type="int" name="NGZ">   140</i>
   <i type="int" name="NGXF">    72</i>
   <i type="int" name="NGYF">    84</i>
   <i type="int" name="NGZF">   280</i>
   <i type="logical" name="ADDGRID"> F  </i>
  </separator>
  <separator name="ionic" >
   <i type="int" name="NSW">   200</i>
   <i type="int" name="IBRION">     2</i>
   <i type="int" name="ISIF">     2</i>
   <i name="PSTRESS">      0.00000000</i>
   <i name="EDIFFG">     -0.01000000</i>
   <i type="int" name="NFREE">     1</i>
   <i name="POTIM">      0.30000000</i>
   <i name="SMASS">     -3.00000000</i>
   <i name="SCALEE">      1.00000000</i>
  </separator>
  <separator name="ionic md" >
   <i name="TEBEG">      0.00010000</i>
   <i name="TEEND">      0.00010000</i>
   <i type="int" name="NBLOCK">     1</i>
   <i type="int" name="KBLOCK">   200</i>
   <i type="int" name="NPACO">   256</i>
   <i name="APACO">     16.00000000</i>
  </separator>
  <separator name="symmetry" >
   <i type="int" name="ISYM">     2</i>
   <i name="SYMPREC">      0.00001000</i>
  </separator>
  <separator name="dos" >
   <i type="logical" name="LORBIT"> F  </i>
   <v name="RWIGS">     -1.00000000     -1.00000000</v>
   <i type="int" name="NEDOS">   301</i>
   <i name="EMIN">     10.00000000</i>
   <i name="EMAX">    -10.00000000</i>
   <i name="EFERMI">      0.00000000</i>
  </separator>
  <separator name="writing" >
   <i type="int" name="NWRITE">     2</i>
   <i type="logical" name="LWAVE"> F  </i>
   <i type="logical" name="LCHARG"> F  </i>
   <i type="logical" name="LPARD"> F  </i>
   <i type="logical" name="LVTOT"> F  </i>
   <i type="logical" name="LVHAR"> F  </i>
   <i type="logical" name="LELF"> F  </i>
   <i type="logical" name="LOPTICS"> F  </i>
   <v name="STM">      0.00000000      0.00000000      0.00000000      0.00000000      0.00000000      0.00000000      0.00000000</v>
  </separator>
  <separator name="performance" >
   <i type="int" name="NPAR">     4</i>
   <i type="int" name="NSIM">     4</i>
   <i type="int" name="NBLK">    -1</i>
   <i type="logical" name="LPLANE"> T  </i>
   <i type="logical" name="LSCALAPACK"> T  </i>
   <i type="logical" name="LSCAAWARE"> F  </i>
   <i type="logical" name="LSCALU"> F  </i>
   <i type="logical" name="LASYNC"> F  </i>
   <i type="logical" name="LORBITALREAL"> F  </i>
  </separator>
  <separator name="miscellaneous" >
   <i type="int" name="IDIOT">     3</i>
   <i type="logical" name="LMUSIC"> F  </i>
   <v name="POMASS">     72.61000000     78.96000000</v>
   <v name="DARWINR">      0.00000000      0.00000000</v>
   <v name="DARWINV">      1.00000000      1.00000000</v>
   <i type="logical" name="LCORR"> T  </i>
  </separator>
  <i type="logical" name="GGA_COMPAT"> T  </i>
  <i type="logical" name="LBERRY"> F  </i>
  <i type="int" name="ICORELEVEL">     0</i>
  <i type="logical" name="LDAU"> F  </i>
  <i type="int" name="I_CONSTRAINED_M">     0</i>
  <separator name="electronic exchange-correlation" >
   <i type="string" name="GGA">--</i>
   <i type="int" name="VOSKOWN">     0</i>
   <i type="logical" name="LHFCALC"> F  </i>
   <i type="string" name="PRECFOCK"></i>
   <i type="logical" name="LSYMGRAD"> F  </i>
   <i type="logical" name="LHFONE"> F  </i>
   <i type="logical" name="LRHFCALC"> F  </i>
   <i type="logical" name="LTHOMAS"> F  </i>
   <i type="logical" name="LMODELHF"> F  </i>
   <i name="ENCUT4O">     -1.00000000</i>
   <i type="int" name="EXXOEP">     0</i>
   <i type="int" name="FOURORBIT">     0</i>
   <i name="AEXX">      0.00000000</i>
   <i name="HFALPHA">      0.00000000</i>
   <i name="MCALPHA">      0.00000000</i>
   <i name="ALDAX">      1.00000000</i>
   <i name="AGGAX">      1.00000000</i>
   <i name="ALDAC">      1.00000000</i>
   <i name="AGGAC">      1.00000000</i>
   <i type="int" name="NKREDX">     1</i>
   <i type="int" name="NKREDY">     1</i>
   <i type="int" name="NKREDZ">     1</i>
   <i type="logical" name="SHIFTRED"> F  </i>
   <i type="logical" name="ODDONLY"> F  </i>
   <i type="logical" name="EVENONLY"> F  </i>
   <i type="int" name="LMAXFOCK">     0</i>
   <i type="int" name="NMAXFOCKAE">     0</i>
   <i type="logical" name="LFOCKAEDFT"> F  </i>
   <i name="HFSCREEN">      0.00000000</i>
   <i name="HFSCREENC">      0.00000000</i>
   <i type="int" name="NBANDSGWLOW">     0</i>
  </separator>
  <separator name="vdW DFT" >
   <i type="logical" name="LUSE_VDW"> F  </i>
   <i name="Zab_VDW">     -0.84910000</i>
   <i name="PARAM1">      0.12340000</i>
   <i name="PARAM2">      1.00000000</i>
   <i name="PARAM3">      0.00000000</i>
  </separator>
  <separator name="model GW" >
   <i type="int" name="MODEL_GW">     0</i>
   <i name="MODEL_EPS0">     49.41319615</i>
   <i name="MODEL_ALPHA">      1.00000000</i>
  </separator>
  <separator name="linear response parameters" >
   <i type="logical" name="LEPSILON"> F  </i>
   <i type="logical" name="LRPA"> F  </i>
   <i type="logical" name="LNABLA"> F  </i>
   <i type="logical" name="LVEL"> F  </i>
   <i type="int" name="KINTER">     0</i>
   <i name="CSHIFT">      0.10000000</i>
   <i name="OMEGAMAX">     -1.00000000</i>
   <i name="DEG_THRESHOLD">      0.00200000</i>
  </separator>
  <separator name="orbital magnetization" >
   <i type="logical" name="NUCIND"> F  </i>
   <v name="MAGPOS">      0.00000000      0.00000000      0.00000000</v>
   <i type="logical" name="LNICSALL"> T  </i>
   <i type="logical" name="ORBITALMAG"> F  </i>
   <i type="logical" name="LMAGBLOCH"> F  </i>
   <i type="logical" name="LCHIMAG"> F  </i>
   <i type="logical" name="LGAUGE"> T  </i>
   <i type="int" name="MAGATOM">     0</i>
   <v name="MAGDIPOL">      0.00000000      0.00000000      0.00000000</v>
   <v name="AVECCONST">      0.00000000      0.00000000      0.00000000</v>
  </separator>
  <separator name="response functions" >
   <i type="logical" name="LADDER"> F  </i>
   <i type="logical" name="LFXC"> F  </i>
   <i type="logical" name="LHARTREE"> T  </i>
   <i type="int" name="IBSE">     0</i>
   <v type="int" name="KPOINT">    -1     0     0     0</v>
   <i type="logical" name="LTCTE"> F  </i>
   <i type="logical" name="LTETE"> F  </i>
   <i type="logical" name="LTRIPLET"> F  </i>
   <i type="logical" name="LFXCEPS"> F  </i>
   <i type="logical" name="LFXHEG"> F  </i>
   <i type="int" name="NATURALO">     0</i>
   <i type="logical" name="L2ORDER"> F  </i>
   <i type="logical" name="LUSEW"> F  </i>
   <i name="ENCUTGW">     -2.00000000</i>
   <i name="ENCUTGWSOFT">     -2.00000000</i>
   <i name="ENCUTLF">     -1.00000000</i>
   <i type="int" name="LMAXMP2">    -1</i>
   <i name="SCISSOR">      0.00000000</i>
   <i type="int" name="NOMEGA">     0</i>
   <i type="int" name="NOMEGAR">     0</i>
   <i type="int" name="NBANDSGW">    -1</i>
   <i type="int" name="NBANDSO">    -1</i>
   <i type="int" name="NBANDSV">    -1</i>
   <i type="int" name="NELM">   250</i>
   <i type="int" name="NELMHF">     1</i>
   <i type="int" name="DIM">     3</i>
   <i type="int" name="ANTIRES">     0</i>
   <i name="OMEGAMAX">    -30.00000000</i>
   <i name="OMEGAMIN">    -30.00000000</i>
   <i name="OMEGATL">   -200.00000000</i>
   <i type="int" name="OMEGAGRID">     0</i>
   <i name="CSHIFT">     -0.10000000</i>
   <i type="logical" name="SELFENERGY"> F  </i>
   <i type="logical" name="LSPECTRAL"> F  </i>
   <i type="logical" name="LSPECTRALGW"> F  </i>
   <i type="logical" name="LSINGLES"> F  </i>
   <i type="logical" name="LFERMIGW"> F  </i>
   <i type="logical" name="ODDONLYGW"> F  </i>
   <i type="logical" name="EVENONLYGW"> F  </i>
   <i type="int" name="NKREDLFX">     1</i>
   <i type="int" name="NKREDLFY">     1</i>
   <i type="int" name="NKREDLFZ">     1</i>
   <i type="int" name="MAXMEM">  1800</i>
   <i type="int" name="TELESCOPE">     0</i>
   <i type="int" name="TAUPAR">     1</i>
   <i type="int" name="OMEGAPAR">    -1</i>
   <i name="LAMBDA">      1.00000000</i>
  </separator>
  <separator name="External order field" >
   <i name="OFIELD_KAPPA">      0.00000000</i>
   <v name="OFIELD_K">      0.00000000      0.00000000      0.00000000</v>
   <i name="OFIELD_Q6_NEAR">      0.00000000</i>
   <i name="OFIELD_Q6_FAR">      0.00000000</i>
   <i name="OFIELD_A">      0.00000000</i>
  </separator>
 </parameters>
 <atominfo>
  <atoms>       6 </atoms>
  <types>       2 </types>
  <array name="atoms" >
   <dimension dim="1">ion</dimension>
   <field type="string">element</field>
   <field type="int">atomtype</field>
   <set>
    <rc><c>Ge</c><c>   1</c></rc>
    <rc><c>Ge</c><c>   1</c></rc>
    <rc><c>Se</c><c>   2</c></rc>
    <rc><c>Se</c><c>   2</c></rc>
    <rc><c>Se</c><c>   2</c></rc>
    <rc><c>Se</c><c>   2</c></rc>
   </set>
  </array>
  <array name="atomtypes" >
   <dimension dim="1">type</dimension>
   <field type="int">atomspertype</field>
   <field type="string">element</field>
   <field>mass</field>
   <field>valence</field>
   <field type="string">pseudopotential</field>
   <set>
    <rc><c>   2</c><c>Ge</c><c>     72.61000000</c><c>     14.00000000</c><c>  PAW_PBE Ge_d 03Jul2007                </c></rc>
    <rc><c>   4</c><c>Se</c><c>     78.96000000</c><c>      6.00000000</c><c>  PAW_PBE Se 06Sep2000                  </c></rc>
   </set>
  </array>
 </atominfo>
 <structure name="initialpos" >
  <crystal>
   <varray name="basis" >
    <v>       4.90601600      -0.02453100       0.00000000 </v>
    <v>      -0.02785600       5.57113200       0.00000000 </v>
    <v>       0.00000000       0.00000000      18.07929100 </v>
   </varray>
   <i name="volume">    494.13196151 </i>
   <varray name="rec_basis" >
    <v>       0.20383647       0.00101919       0.00000000 </v>
    <v>       0.00089754       0.17950122       0.00000000 </v>
    <v>       0.00000000       0.00000000       0.05531190 </v>
   </varray>
  </crystal>
  <varray name="positions" >
   <v>       0.50000000       0.50000000       0.50000000 </v>
   <v>       0.00000000       0.00000000       0.50000000 </v>
   <v>       0.25000000       0.25000000       0.41502600 </v>
   <v>       0.75000000       0.75000000       0.41502600 </v>
   <v>       0.75000000       0.25000000       0.58497400 </v>
   <v>       0.25000000       0.75000000       0.58497400 </v>
  </varray>
 </structure>
 <calculation>
  <scstep>
   <time name="dav">    2.84    2.84</time>
   <time name="total">    2.88    2.88</time>
   <energy>
    <i name="alphaZ">     46.48765761 </i>
    <i name="ewald">   4982.39063471 </i>
    <i name="hartreedc">  -9769.67457009 </i>
    <i name="XCdc">    142.44891302 </i>
    <i name="pawpsdc">   4514.43351212 </i>
    <i name="pawaedc">  -5329.26418529 </i>
    <i name="eentropy">     -0.00030022 </i>
    <i name="bandstr">   -368.73675371 </i>
    <i name="atom">   6220.98622430 </i>
    <i name="e_fr_energy">    439.07113245 </i>
    <i name="e_wo_entrp">    439.07143267 </i>
    <i name="e_0_energy">    439.07128256 </i>
   </energy>
  </scstep>
  <scstep>
   <time name="dav">    3.05    3.05</time>
   <time name="total">    3.05    3.06</time>
   <energy>
    <i name="e_fr_energy">     45.08520322 </i>
    <i name="e_wo_entrp">     45.08545962 </i>
    <i name="e_0_energy">     45.08533142 </i>
   </energy>
  </scstep>
  <scstep>
   <time name="dav">    3.26    3.26</time>
   <time name="total">    3.26    3.26</time>
   <energy>
    <i name="e_fr_energy">    -21.52243847 </i>
    <i name="e_wo_entrp">    -21.52243847 </i>
    <i name="e_0_energy">    -21.52243847 </i>
   </energy>
  </scstep>
  <scstep>
   <time name="dav">    2.95    2.95</time>
   <time name="total">    2.95    2.95</time>
   <energy>
    <i name="e_fr_energy">    -24.75440525 </i>
    <i name="e_wo_entrp">    -24.75440525 </i>
    <i name="e_0_energy">    -24.75440525 </i>
   </energy>
  </scstep>
  <scstep>
   <time name="dav">    3.49    3.49</time>
   <time name="total">    3.63    3.64</time>
   <energy>
    <i name="e_fr_energy">    -24.86298043 </i>
    <i name="e_wo_entrp">    -24.86298043 </i>
    <i name="e_0_energy">    -24.86298043 </i>
   </energy>
  </scstep>
  <scstep>
   <time name="dav">    3.36    3.36</time>
   <time name="total">    3.53    3.53</time>
   <energy>
    <i name="e_fr_energy">    -24.36220009 </i>
    <i name="e_wo_entrp">    -24.36220009 </i>
    <i name="e_0_energy">    -24.36220009 </i>
   </energy>
  </scstep>
  <scstep>
   <time name="dav">    3.05    3.06</time>
   <time name="total">    3.22    3.23</time>
   <energy>
    <i name="e_fr_energy">    -24.26654212 </i>
    <i name="e_wo_entrp">    -24.26654212 </i>
    <i name="e_0_energy">    -24.26654212 </i>
   </energy>
  </scstep>
  <scstep>
   <time name="dav">    3.21    3.21</time>
   <time name="total">    3.38    3.39</time>
   <energy>
    <i name="e_fr_energy">    -24.26081366 </i>
    <i name="e_wo_entrp">    -24.26081366 </i>
    <i name="e_0_energy">    -24.26081366 </i>
   </energy>
  </scstep>
  <scstep>
   <time name="dav">    3.27    3.27</time>
   <time name="total">    3.44    3.44</time>
   <energy>
    <i name="e_fr_energy">    -24.26027586 </i>
    <i name="e_wo_entrp">    -24.26027586 </i>
    <i name="e_0_energy">    -24.26027586 </i>
   </energy>
  </scstep>
  <scstep>
   <time name="dav">    3.42    3.42</time>
   <time name="total">    3.59    3.59</time>
   <energy>
    <i name="e_fr_energy">    -24.26004506 </i>
    <i name="e_wo_entrp">    -24.26004506 </i>
    <i name="e_0_energy">    -24.26004506 </i>
   </energy>
  </scstep>
  <scstep>
   <time name="dav">    2.78    2.78</time>
   <time name="total">    2.95    2.95</time>
   <energy>
    <i name="e_fr_energy">    -24.25983989 </i>
    <i name="e_wo_entrp">    -24.25983989 </i>
    <i name="e_0_energy">    -24.25983989 </i>
   </energy>
  </scstep>
  <scstep>
   <time name="dav">    2.69    2.70</time>
   <time name="total">    2.87    2.87</time>
   <energy>
    <i name="e_fr_energy">    -24.25996829 </i>
    <i name="e_wo_entrp">    -24.25996829 </i>
    <i name="e_0_energy">    -24.25996829 </i>
   </energy>
  </scstep>
  <scstep>
   <time name="dav">    2.67    2.67</time>
   <time name="total">    2.84    2.84</time>
   <energy>
    <i name="e_fr_energy">    -24.26023432 </i>
    <i name="e_wo_entrp">    -24.26023432 </i>
    <i name="e_0_energy">    -24.26023432 </i>
   </energy>
  </scstep>
  <scstep>
   <time name="dav">    2.52    2.52</time>
   <time name="total">    2.69    2.70</time>
   <energy>
    <i name="e_fr_energy">    -24.26033816 </i>
    <i name="e_wo_entrp">    -24.26033816 </i>
    <i name="e_0_energy">    -24.26033816 </i>
   </energy>
  </scstep>
  <scstep>
   <time name="dav">    2.48    2.48</time>
   <time name="total">    2.66    2.66</time>
   <energy>
    <i name="e_fr_energy">    -24.26039466 </i>
    <i name="e_wo_entrp">    -24.26039466 </i>
    <i name="e_0_energy">    -24.26039466 </i>
   </energy>
  </scstep>
  <scstep>
   <time name="dav">    2.38    2.38</time>
   <time name="total">    2.55    2.55</time>
   <energy>
    <i name="e_fr_energy">    -24.26044674 </i>
    <i name="e_wo_entrp">    -24.26044674 </i>
    <i name="e_0_energy">    -24.26044674 </i>
   </energy>
  </scstep>
  <scstep>
   <time name="dav">    2.24    2.25</time>
   <time name="total">    2.42    2.42</time>
   <energy>
    <i name="e_fr_energy">    -24.26049291 </i>
    <i name="e_wo_entrp">    -24.26049291 </i>
    <i name="e_0_energy">    -24.26049291 </i>
   </energy>
  </scstep>
  <scstep>
   <time name="dav">    2.28    2.28</time>
   <time name="total">    2.45    2.46</time>
   <energy>
    <i name="e_fr_energy">    -24.26053368 </i>
    <i name="e_wo_entrp">    -24.26053368 </i>
    <i name="e_0_energy">    -24.26053368 </i>
   </energy>
  </scstep>
  <scstep>
   <time name="dav">    2.36    2.36</time>
   <time name="total">    2.39    2.39</time>
   <energy>
    <i name="alphaZ">     46.48765761 </i>
    <i name="ewald">   4982.39063471 </i>
    <i name="hartreedc">  -9774.17624374 </i>
    <i name="XCdc">    142.98674795 </i>
    <i name="pawpsdc">   5761.50270565 </i>
    <i name="pawaedc">  -6581.62120035 </i>
    <i name="eentropy">     -0.00000000 </i>
    <i name="bandstr">   -822.81706745 </i>
    <i name="atom">   6220.98622430 </i>
    <i name="e_fr_energy">    -24.26054132 </i>
    <i name="e_wo_entrp">    -24.26054132 </i>
    <i name="e_0_energy">    -24.26054132 </i>
   </energy>
  </scstep>
  <structure>
   <crystal>
    <varray name="basis" >
     <v>       4.90601600      -0.02453100       0.00000000 </v>
     <v>      -0.02785600       5.57113200       0.00000000 </v>
     <v>       0.00000000       0.00000000      18.07929100 </v>
    </varray>
    <i name="volume">    494.13196151 </i>
    <varray name="rec_basis" >
     <v>       0.20383647       0.00101919       0.00000000 </v>
     <v>       0.00089754       0.17950122       0.00000000 </v>
     <v>       0.00000000       0.00000000       0.05531190 </v>
    </varray>
   </crystal>
   <varray name="positions" >
    <v>       0.50000000       0.50000000       0.50000000 </v>
    <v>       0.00000000       0.00000000       0.50000000 </v>
    <v>       0.25000000       0.25000000       0.41502600 </v>
    <v>       0.75000000       0.75000000       0.41502600 </v>
    <v>       0.75000000       0.25000000       0.58497400 </v>
    <v>       0.25000000       0.75000000       0.58497400 </v>
   </varray>
  </structure>
  <varray name="forces" >
   <v>       0.00000000      -0.00000000       0.09836052 </v>
   <v>       0.00000000      -0.00000000       0.09836052 </v>
   <v>      -0.00000000      -0.00000000      -0.04942387 </v>
   <v>       0.00000000      -0.00000000      -0.04942387 </v>
   <v>      -0.00000000      -0.00000000      -0.04893665 </v>
   <v>       0.00000000       0.00000000      -0.04893665 </v>
  </varray>
  <varray name="stress" >
   <v>       0.19683104       2.04886752       0.00000000 </v>
   <v>       2.04886752       0.09062050       0.00000000 </v>
   <v>       0.00000000       0.00000000      -0.04900148 </v>
  </varray>
  <energy>
   <i name="e_fr_energy">    -24.26054132 </i>
   <i name="e_wo_entrp">    -24.26054132 </i>
   <i name="e_0_energy">     -0.00000000 </i>
  </energy>
  <time name="totalsc">   58.72   58.78</time>
 </calculation>
 <calculation>
  <scstep>
   <time name="dav">    3.07    3.07</time>
   <time name="total">    3.24    3.24</time>
   <energy>
    <i name="alphaZ">     46.48765761 </i>
    <i name="ewald">   4982.34091147 </i>
    <i name="hartreedc">  -9774.13130804 </i>
    <i name="XCdc">    142.98630784 </i>
    <i name="pawpsdc">   5761.51364164 </i>
    <i name="pawaedc">  -6581.63208758 </i>
    <i name="eentropy">     -0.00000000 </i>
    <i name="bandstr">   -822.81222275 </i>
    <i name="atom">   6220.98622430 </i>
    <i name="e_fr_energy">    -24.26087552 </i>
    <i name="e_wo_entrp">    -24.26087552 </i>
    <i name="e_0_energy">    -24.26087552 </i>
   </energy>
  </scstep>
  <scstep>
   <time name="dav">    3.21    3.21</time>
   <time name="total">    3.38    3.39</time>
   <energy>
    <i name="e_fr_energy">    -24.26101353 </i>
    <i name="e_wo_entrp">    -24.26101353 </i>
    <i name="e_0_energy">    -24.26101353 </i>
   </energy>
  </scstep>
  <scstep>
   <time name="dav">    3.16    3.16</time>
   <time name="total">    3.34    3.34</time>
   <energy>
    <i name="e_fr_energy">    -24.26101447 </i>
    <i name="e_wo_entrp">    -24.26101447 </i>
    <i name="e_0_energy">    -24.26101447 </i>
   </energy>
  </scstep>
  <scstep>
   <time name="dav">    2.30    2.30</time>
   <time name="total">    2.47    2.48</time>
   <energy>
    <i name="e_fr_energy">    -24.26101324 </i>
    <i name="e_wo_entrp">    -24.26101324 </i>
    <i name="e_0_energy">    -24.26101324 </i>
   </energy>
  </scstep>
  <scstep>
   <time name="dav">    2.31    2.31</time>
   <time name="total">    2.48    2.48</time>
   <energy>
    <i name="e_fr_energy">    -24.26101293 </i>
    <i name="e_wo_entrp">    -24.26101293 </i>
    <i name="e_0_energy">    -24.26101293 </i>
   </energy>
  </scstep>
  <scstep>
   <time name="dav">    2.10    2.10</time>
   <time name="total">    2.13    2.13</time>
   <energy>
    <i name="alphaZ">     46.48765761 </i>
    <i name="ewald">   4982.34091147 </i>
    <i name="hartreedc">  -9774.12998367 </i>
    <i name="XCdc">    142.98631276 </i>
    <i name="pawpsdc">   5761.28419445 </i>
    <i name="pawaedc">  -6581.40125884 </i>
    <i name="eentropy">     -0.00000000 </i>
    <i name="bandstr">   -822.81507155 </i>
    <i name="atom">   6220.98622430 </i>
    <i name="e_fr_energy">    -24.26101346 </i>
    <i name="e_wo_entrp">    -24.26101346 </i>
    <i name="e_0_energy">    -24.26101346 </i>
   </energy>
  </scstep>
  <structure>
   <crystal>
    <varray name="basis" >
     <v>       4.90601600      -0.02453100       0.00000000 </v>
     <v>      -0.02785600       5.57113200       0.00000000 </v>
     <v>       0.00000000       0.00000000      18.07929100 </v>
    </varray>
    <i name="volume">    494.13196151 </i>
    <varray name="rec_basis" >
     <v>       0.20383647       0.00101919       0.00000000 </v>
     <v>       0.00089754       0.17950122       0.00000000 </v>
     <v>       0.00000000       0.00000000       0.05531190 </v>
    </varray>
   </crystal>
   <varray name="positions" >
    <v>       0.50000000       0.50000000       0.50015748 </v>
    <v>       0.00000000      -0.00000000       0.50015748 </v>
    <v>       0.25000000       0.25000000       0.41494687 </v>
    <v>       0.75000000       0.75000000       0.41494687 </v>
    <v>       0.75000000       0.25000000       0.58489565 </v>
    <v>       0.25000000       0.75000000       0.58489565 </v>
   </varray>
  </structure>
  <varray name="forces" >
   <v>       0.00000000       0.00000000       0.00950258 </v>
   <v>      -0.00000000      -0.00000000       0.00950258 </v>
   <v>      -0.00000000       0.00000000      -0.00417064 </v>
   <v>      -0.00000000       0.00000000      -0.00417064 </v>
   <v>      -0.00000000       0.00000000      -0.00533194 </v>
   <v>      -0.00000000       0.00000000      -0.00533194 </v>
  </varray>
  <varray name="stress" >
   <v>       0.18729784       1.77383691       0.00000000 </v>
   <v>       1.77383698       0.07926919       0.00000000 </v>
   <v>       0.00000000       0.00000000      -0.06969494 </v>
  </varray>
  <energy>
   <i name="e_fr_energy">    -24.26101346 </i>
   <i name="e_wo_entrp">    -24.26101346 </i>
   <i name="e_0_energy">     -0.00000000 </i>
  </energy>
  <time name="totalsc">   18.89   18.91</time>
  <eigenvalues>
   <array>
    <dimension dim="1">band</dimension>
    <dimension dim="2">kpoint</dimension>
    <dimension dim="3">spin</dimension>
    <field>eigene</field>
    <field>occ</field>
    <set>
     <set comment="spin 1">
      <set comment="kpoint 1">
       <r>  -27.7949    1.0000 </r>
       <r>  -27.7902    1.0000 </r>
       <r>  -27.7888    1.0000 </r>
       <r>  -27.7826    1.0000 </r>
       <r>  -27.7810    1.0000 </r>
       <r>  -27.7683    1.0000 </r>
       <r>  -27.7635    1.0000 </r>
       <r>  -27.7618    1.0000 </r>
       <r>  -27.7490    1.0000 </r>
       <r>  -27.7434    1.0000 </r>
       <r>  -16.9059    1.0000 </r>
       <r>  -15.3942    1.0000 </r>
       <r>  -14.9711    1.0000 </r>
       <r>  -14.7611    1.0000 </r>
       <r>  -11.7926    1.0000 </r>
       <r>   -9.2163    1.0000 </r>
       <r>   -7.4593    1.0000 </r>
       <r>   -5.8968    1.0000 </r>
       <r>   -5.4982    1.0000 </r>
       <r>   -5.4532    1.0000 </r>
       <r>   -5.2079    1.0000 </r>
       <r>   -5.1342    1.0000 </r>
       <r>   -4.6512    1.0000 </r>
       <r>   -4.1553    1.0000 </r>
       <r>   -2.8694    1.0000 </r>
       <r>   -2.7625    1.0000 </r>
       <r>   -1.8413    0.0000 </r>
       <r>   -1.3768    0.0000 </r>
       <r>   -0.9022    0.0000 </r>
       <r>    0.1380    0.0000 </r>
       <r>    0.6690    0.0000 </r>
       <r>    1.9467    0.0000 </r>
      </set>
      <set comment="kpoint 2">
       <r>  -27.7948    1.0000 </r>
       <r>  -27.7902    1.0000 </r>
       <r>  -27.7887    1.0000 </r>
       <r>  -27.7827    1.0000 </r>
       <r>  -27.7810    1.0000 </r>
       <r>  -27.7683    1.0000 </r>
       <r>  -27.7635    1.0000 </r>
       <r>  -27.7620    1.0000 </r>
       <r>  -27.7489    1.0000 </r>
       <r>  -27.7435    1.0000 </r>
       <r>  -16.8893    1.0000 </r>
       <r>  -15.3879    1.0000 </r>
       <r>  -14.9737    1.0000 </r>
       <r>  -14.8001    1.0000 </r>
       <r>  -11.7498    1.0000 </r>
       <r>   -9.2317    1.0000 </r>
       <r>   -7.4578    1.0000 </r>
       <r>   -5.8908    1.0000 </r>
       <r>   -5.5897    1.0000 </r>
       <r>   -5.5297    1.0000 </r>
       <r>   -5.2704    1.0000 </r>
       <r>   -5.0342    1.0000 </r>
       <r>   -4.6476    1.0000 </r>
       <r>   -4.1407    1.0000 </r>
       <r>   -2.9212    1.0000 </r>
       <r>   -2.8007    1.0000 </r>
       <r>   -1.7420    0.0000 </r>
       <r>   -1.3725    0.0000 </r>
       <r>   -0.7914    0.0000 </r>
       <r>    0.1865    0.0000 </r>
       <r>    0.7163    0.0000 </r>
       <r>    1.9762    0.0000 </r>
      </set>
      <set comment="kpoint 3">
       <r>  -27.7944    1.0000 </r>
       <r>  -27.7900    1.0000 </r>
       <r>  -27.7883    1.0000 </r>
       <r>  -27.7830    1.0000 </r>
       <r>  -27.7809    1.0000 </r>
       <r>  -27.7681    1.0000 </r>
       <r>  -27.7637    1.0000 </r>
       <r>  -27.7628    1.0000 </r>
       <r>  -27.7487    1.0000 </r>
       <r>  -27.7436    1.0000 </r>
       <r>  -16.8397    1.0000 </r>
       <r>  -15.3695    1.0000 </r>
       <r>  -14.9825    1.0000 </r>
       <r>  -14.9093    1.0000 </r>
       <r>  -11.6278    1.0000 </r>
       <r>   -9.2796    1.0000 </r>
       <r>   -7.4521    1.0000 </r>
       <r>   -5.8712    1.0000 </r>
       <r>   -5.7433    1.0000 </r>
       <r>   -5.7279    1.0000 </r>
       <r>   -5.4304    1.0000 </r>
       <r>   -4.8578    1.0000 </r>
       <r>   -4.6540    1.0000 </r>
       <r>   -4.0984    1.0000 </r>
       <r>   -3.0648    1.0000 </r>
       <r>   -2.8939    1.0000 </r>
       <r>   -1.4854    0.0000 </r>
       <r>   -1.3481    0.0000 </r>
       <r>   -0.4800    0.0000 </r>
       <r>    0.3219    0.0000 </r>
       <r>    0.8474    0.0000 </r>
       <r>    2.0137    0.0000 </r>
      </set>
      <set comment="kpoint 4">
       <r>  -27.7938    1.0000 </r>
       <r>  -27.7897    1.0000 </r>
       <r>  -27.7878    1.0000 </r>
       <r>  -27.7836    1.0000 </r>
       <r>  -27.7806    1.0000 </r>
       <r>  -27.7678    1.0000 </r>
       <r>  -27.7642    1.0000 </r>
       <r>  -27.7637    1.0000 </r>
       <r>  -27.7484    1.0000 </r>
       <r>  -27.7439    1.0000 </r>
       <r>  -16.7578    1.0000 </r>
       <r>  -15.3402    1.0000 </r>
       <r>  -15.0774    1.0000 </r>
       <r>  -14.9925    1.0000 </r>
       <r>  -11.4426    1.0000 </r>
       <r>   -9.3647    1.0000 </r>
       <r>   -7.4387    1.0000 </r>
       <r>   -5.9907    1.0000 </r>
       <r>   -5.8978    1.0000 </r>
       <r>   -5.8174    1.0000 </r>
       <r>   -5.6325    1.0000 </r>
       <r>   -4.6926    1.0000 </r>
       <r>   -4.6888    1.0000 </r>
       <r>   -4.0327    1.0000 </r>
       <r>   -3.2671    1.0000 </r>
       <r>   -3.0159    1.0000 </r>
       <r>   -1.2805    0.0000 </r>
       <r>   -1.1481    0.0000 </r>
       <r>   -0.0144    0.0000 </r>
       <r>    0.5203    0.0000 </r>
       <r>    1.0286    0.0000 </r>
       <r>    1.8476    0.0000 </r>
      </set>
      <set comment="kpoint 5">
       <r>  -27.7930    1.0000 </r>
       <r>  -27.7893    1.0000 </r>
       <r>  -27.7875    1.0000 </r>
       <r>  -27.7843    1.0000 </r>
       <r>  -27.7799    1.0000 </r>
       <r>  -27.7673    1.0000 </r>
       <r>  -27.7659    1.0000 </r>
       <r>  -27.7640    1.0000 </r>
       <r>  -27.7481    1.0000 </r>
       <r>  -27.7443    1.0000 </r>
       <r>  -16.6451    1.0000 </r>
       <r>  -15.3020    1.0000 </r>
       <r>  -15.2762    1.0000 </r>
       <r>  -15.0136    1.0000 </r>
       <r>  -11.2122    1.0000 </r>
       <r>   -9.4922    1.0000 </r>
       <r>   -7.4113    1.0000 </r>
       <r>   -6.2732    1.0000 </r>
       <r>   -6.0106    1.0000 </r>
       <r>   -5.8280    1.0000 </r>
       <r>   -5.7499    1.0000 </r>
       <r>   -4.7716    1.0000 </r>
       <r>   -4.5485    1.0000 </r>
       <r>   -3.9488    1.0000 </r>
       <r>   -3.4930    1.0000 </r>
       <r>   -3.1488    1.0000 </r>
       <r>   -1.1532    0.0000 </r>
       <r>   -0.8037    0.0000 </r>
       <r>    0.5585    0.0000 </r>
       <r>    0.7519    0.0000 </r>
       <r>    1.2063    0.0000 </r>
       <r>    1.6838    0.0000 </r>
      </set>
      <set comment="kpoint 6">
       <r>  -27.7920    1.0000 </r>
       <r>  -27.7888    1.0000 </r>
       <r>  -27.7875    1.0000 </r>
       <r>  -27.7852    1.0000 </r>
       <r>  -27.7787    1.0000 </r>
       <r>  -27.7679    1.0000 </r>
       <r>  -27.7669    1.0000 </r>
       <r>  -27.7644    1.0000 </r>
       <r>  -27.7476    1.0000 </r>
       <r>  -27.7447    1.0000 </r>
       <r>  -16.5037    1.0000 </r>
       <r>  -15.4945    1.0000 </r>
       <r>  -15.2575    1.0000 </r>
       <r>  -15.0409    1.0000 </r>
       <r>  -10.9522    1.0000 </r>
       <r>   -9.6646    1.0000 </r>
       <r>   -7.3613    1.0000 </r>
       <r>   -6.5460    1.0000 </r>
       <r>   -6.0961    1.0000 </r>
       <r>   -5.9867    1.0000 </r>
       <r>   -5.6479    1.0000 </r>
       <r>   -4.8890    1.0000 </r>
       <r>   -4.4351    1.0000 </r>
       <r>   -3.8519    1.0000 </r>
       <r>   -3.7156    1.0000 </r>
       <r>   -3.2802    1.0000 </r>
       <r>   -0.9694    0.0000 </r>
       <r>   -0.5244    0.0000 </r>
       <r>    0.9825    0.0000 </r>
       <r>    1.1949    0.0000 </r>
       <r>    1.3273    0.0000 </r>
       <r>    1.5751    0.0000 </r>
      </set>
      <set comment="kpoint 7">
       <r>  -27.7909    1.0000 </r>
       <r>  -27.7883    1.0000 </r>
       <r>  -27.7879    1.0000 </r>
       <r>  -27.7861    1.0000 </r>
       <r>  -27.7769    1.0000 </r>
       <r>  -27.7701    1.0000 </r>
       <r>  -27.7663    1.0000 </r>
       <r>  -27.7648    1.0000 </r>
       <r>  -27.7470    1.0000 </r>
       <r>  -27.7453    1.0000 </r>
       <r>  -16.3361    1.0000 </r>
       <r>  -15.7185    1.0000 </r>
       <r>  -15.2096    1.0000 </r>
       <r>  -15.0752    1.0000 </r>
       <r>  -10.6764    1.0000 </r>
       <r>   -9.8791    1.0000 </r>
       <r>   -7.2799    1.0000 </r>
       <r>   -6.7907    1.0000 </r>
       <r>   -6.1503    1.0000 </r>
       <r>   -6.0959    1.0000 </r>
       <r>   -5.5168    1.0000 </r>
       <r>   -5.0359    1.0000 </r>
       <r>   -4.3330    1.0000 </r>
       <r>   -3.9166    1.0000 </r>
       <r>   -3.7467    1.0000 </r>
       <r>   -3.4047    1.0000 </r>
       <r>   -0.7523    0.0000 </r>
       <r>   -0.3781    0.0000 </r>
       <r>    1.1756    0.0000 </r>
       <r>    1.3781    0.0000 </r>
       <r>    1.4465    0.0000 </r>
       <r>    1.4654    0.0000 </r>
      </set>
      <set comment="kpoint 8">
       <r>  -27.7897    1.0000 </r>
       <r>  -27.7887    1.0000 </r>
       <r>  -27.7877    1.0000 </r>
       <r>  -27.7870    1.0000 </r>
       <r>  -27.7748    1.0000 </r>
       <r>  -27.7725    1.0000 </r>
       <r>  -27.7658    1.0000 </r>
       <r>  -27.7653    1.0000 </r>
       <r>  -27.7464    1.0000 </r>
       <r>  -27.7458    1.0000 </r>
       <r>  -16.1461    1.0000 </r>
       <r>  -15.9383    1.0000 </r>
       <r>  -15.1615    1.0000 </r>
       <r>  -15.1159    1.0000 </r>
       <r>  -10.3972    1.0000 </r>
       <r>  -10.1272    1.0000 </r>
       <r>   -7.1599    1.0000 </r>
       <r>   -6.9969    1.0000 </r>
       <r>   -6.1715    1.0000 </r>
       <r>   -6.1556    1.0000 </r>
       <r>   -5.3638    1.0000 </r>
       <r>   -5.1991    1.0000 </r>
       <r>   -4.2220    1.0000 </r>
       <r>   -4.0858    1.0000 </r>
       <r>   -3.6365    1.0000 </r>
       <r>   -3.5227    1.0000 </r>
       <r>   -0.5423    0.0000 </r>
       <r>   -0.3957    0.0000 </r>
       <r>    1.3063    0.0000 </r>
       <r>    1.3852    0.0000 </r>
       <r>    1.3905    0.0000 </r>
       <r>    1.4056    0.0000 </r>
      </set>
      <set comment="kpoint 9">
       <r>  -27.7948    1.0000 </r>
       <r>  -27.7901    1.0000 </r>
       <r>  -27.7887    1.0000 </r>
       <r>  -27.7825    1.0000 </r>
       <r>  -27.7811    1.0000 </r>
       <r>  -27.7683    1.0000 </r>
       <r>  -27.7636    1.0000 </r>
       <r>  -27.7621    1.0000 </r>
       <r>  -27.7489    1.0000 </r>
       <r>  -27.7435    1.0000 </r>
       <r>  -16.8872    1.0000 </r>
       <r>  -15.3854    1.0000 </r>
       <r>  -15.0215    1.0000 </r>
       <r>  -14.7706    1.0000 </r>
       <r>  -11.7296    1.0000 </r>
       <r>   -9.2343    1.0000 </r>
       <r>   -7.4457    1.0000 </r>
       <r>   -5.9205    1.0000 </r>
       <r>   -5.5127    1.0000 </r>
       <r>   -5.4899    1.0000 </r>
       <r>   -5.2928    1.0000 </r>
       <r>   -5.0991    1.0000 </r>
       <r>   -4.6470    1.0000 </r>
       <r>   -4.1251    1.0000 </r>
       <r>   -2.9123    1.0000 </r>
       <r>   -2.8199    1.0000 </r>
       <r>   -1.7244    0.0000 </r>
       <r>   -1.3535    0.0000 </r>
       <r>   -0.7719    0.0000 </r>
       <r>    0.1563    0.0000 </r>
       <r>    0.7030    0.0000 </r>
       <r>    1.9741    0.0000 </r>
      </set>
      <set comment="kpoint 10">
       <r>  -27.7946    1.0000 </r>
       <r>  -27.7901    1.0000 </r>
       <r>  -27.7886    1.0000 </r>
       <r>  -27.7827    1.0000 </r>
       <r>  -27.7810    1.0000 </r>
       <r>  -27.7682    1.0000 </r>
       <r>  -27.7636    1.0000 </r>
       <r>  -27.7624    1.0000 </r>
       <r>  -27.7488    1.0000 </r>
       <r>  -27.7436    1.0000 </r>
       <r>  -16.8699    1.0000 </r>
       <r>  -15.3788    1.0000 </r>
       <r>  -15.0319    1.0000 </r>
       <r>  -14.8016    1.0000 </r>
       <r>  -11.6888    1.0000 </r>
       <r>   -9.2493    1.0000 </r>
       <r>   -7.4423    1.0000 </r>
       <r>   -5.9174    1.0000 </r>
       <r>   -5.6103    1.0000 </r>
       <r>   -5.5745    1.0000 </r>
       <r>   -5.3126    1.0000 </r>
       <r>   -5.0022    1.0000 </r>
       <r>   -4.6488    1.0000 </r>
       <r>   -4.1115    1.0000 </r>
       <r>   -2.9636    1.0000 </r>
       <r>   -2.8465    1.0000 </r>
       <r>   -1.7069    0.0000 </r>
       <r>   -1.3480    0.0000 </r>
       <r>   -0.6086    0.0000 </r>
       <r>    0.2037    0.0000 </r>
       <r>    0.7523    0.0000 </r>
       <r>    1.9536    0.0000 </r>
      </set>
      <set comment="kpoint 11">
       <r>  -27.7941    1.0000 </r>
       <r>  -27.7900    1.0000 </r>
       <r>  -27.7884    1.0000 </r>
       <r>  -27.7829    1.0000 </r>
       <r>  -27.7809    1.0000 </r>
       <r>  -27.7680    1.0000 </r>
       <r>  -27.7637    1.0000 </r>
       <r>  -27.7632    1.0000 </r>
       <r>  -27.7486    1.0000 </r>
       <r>  -27.7437    1.0000 </r>
       <r>  -16.8199    1.0000 </r>
       <r>  -15.3606    1.0000 </r>
       <r>  -15.0640    1.0000 </r>
       <r>  -14.8822    1.0000 </r>
       <r>  -11.5764    1.0000 </r>
       <r>   -9.2997    1.0000 </r>
       <r>   -7.4286    1.0000 </r>
       <r>   -5.9366    1.0000 </r>
       <r>   -5.8608    1.0000 </r>
       <r>   -5.6884    1.0000 </r>
       <r>   -5.3664    1.0000 </r>
       <r>   -4.8290    1.0000 </r>
       <r>   -4.6652    1.0000 </r>
       <r>   -4.0716    1.0000 </r>
       <r>   -3.1569    1.0000 </r>
       <r>   -2.8610    1.0000 </r>
       <r>   -1.5684    0.0000 </r>
       <r>   -1.3207    0.0000 </r>
       <r>   -0.2471    0.0000 </r>
       <r>    0.3337    0.0000 </r>
       <r>    0.8842    0.0000 </r>
       <r>    1.8408    0.0000 </r>
      </set>
      <set comment="kpoint 12">
       <r>  -27.7934    1.0000 </r>
       <r>  -27.7898    1.0000 </r>
       <r>  -27.7882    1.0000 </r>
       <r>  -27.7832    1.0000 </r>
       <r>  -27.7806    1.0000 </r>
       <r>  -27.7676    1.0000 </r>
       <r>  -27.7647    1.0000 </r>
       <r>  -27.7637    1.0000 </r>
       <r>  -27.7484    1.0000 </r>
       <r>  -27.7440    1.0000 </r>
       <r>  -16.7382    1.0000 </r>
       <r>  -15.3318    1.0000 </r>
       <r>  -15.1541    1.0000 </r>
       <r>  -14.9617    1.0000 </r>
       <r>  -11.4061    1.0000 </r>
       <r>   -9.3899    1.0000 </r>
       <r>   -7.4023    1.0000 </r>
       <r>   -6.1335    1.0000 </r>
       <r>   -6.0039    1.0000 </r>
       <r>   -5.7258    1.0000 </r>
       <r>   -5.5080    1.0000 </r>
       <r>   -4.7119    1.0000 </r>
       <r>   -4.6624    1.0000 </r>
       <r>   -4.0065    1.0000 </r>
       <r>   -3.3726    1.0000 </r>
       <r>   -2.9394    1.0000 </r>
       <r>   -1.3125    0.0000 </r>
       <r>   -1.2502    0.0000 </r>
       <r>    0.2300    0.0000 </r>
       <r>    0.5212    0.0000 </r>
       <r>    1.0680    0.0000 </r>
       <r>    1.6810    0.0000 </r>
      </set>
      <set comment="kpoint 13">
       <r>  -27.7925    1.0000 </r>
       <r>  -27.7895    1.0000 </r>
       <r>  -27.7882    1.0000 </r>
       <r>  -27.7837    1.0000 </r>
       <r>  -27.7799    1.0000 </r>
       <r>  -27.7672    1.0000 </r>
       <r>  -27.7663    1.0000 </r>
       <r>  -27.7640    1.0000 </r>
       <r>  -27.7480    1.0000 </r>
       <r>  -27.7444    1.0000 </r>
       <r>  -16.6261    1.0000 </r>
       <r>  -15.3182    1.0000 </r>
       <r>  -15.2947    1.0000 </r>
       <r>  -15.0077    1.0000 </r>
       <r>  -11.1935    1.0000 </r>
       <r>   -9.5238    1.0000 </r>
       <r>   -7.3599    1.0000 </r>
       <r>   -6.3904    1.0000 </r>
       <r>   -6.0901    1.0000 </r>
       <r>   -5.6917    1.0000 </r>
       <r>   -5.6911    1.0000 </r>
       <r>   -4.8001    1.0000 </r>
       <r>   -4.5256    1.0000 </r>
       <r>   -3.9188    1.0000 </r>
       <r>   -3.5868    1.0000 </r>
       <r>   -3.0553    1.0000 </r>
       <r>   -1.1233    0.0000 </r>
       <r>   -0.9977    0.0000 </r>
       <r>    0.7358    0.0000 </r>
       <r>    0.7620    0.0000 </r>
       <r>    1.2539    0.0000 </r>
       <r>    1.5363    0.0000 </r>
      </set>
      <set comment="kpoint 14">
       <r>  -27.7915    1.0000 </r>
       <r>  -27.7891    1.0000 </r>
       <r>  -27.7885    1.0000 </r>
       <r>  -27.7842    1.0000 </r>
       <r>  -27.7786    1.0000 </r>
       <r>  -27.7683    1.0000 </r>
       <r>  -27.7667    1.0000 </r>
       <r>  -27.7643    1.0000 </r>
       <r>  -27.7475    1.0000 </r>
       <r>  -27.7448    1.0000 </r>
       <r>  -16.4857    1.0000 </r>
       <r>  -15.5190    1.0000 </r>
       <r>  -15.2517    1.0000 </r>
       <r>  -15.0426    1.0000 </r>
       <r>  -10.9525    1.0000 </r>
       <r>   -9.7020    1.0000 </r>
       <r>   -7.2970    1.0000 </r>
       <r>   -6.6175    1.0000 </r>
       <r>   -6.1546    1.0000 </r>
       <r>   -5.8703    1.0000 </r>
       <r>   -5.6175    1.0000 </r>
       <r>   -4.9263    1.0000 </r>
       <r>   -4.4165    1.0000 </r>
       <r>   -3.8134    1.0000 </r>
       <r>   -3.7841    1.0000 </r>
       <r>   -3.1869    1.0000 </r>
       <r>   -0.9459    0.0000 </r>
       <r>   -0.7046    0.0000 </r>
       <r>    0.9453    0.0000 </r>
       <r>    1.2464    0.0000 </r>
       <r>    1.3893    0.0000 </r>
       <r>    1.4885    0.0000 </r>
      </set>
      <set comment="kpoint 15">
       <r>  -27.7904    1.0000 </r>
       <r>  -27.7892    1.0000 </r>
       <r>  -27.7886    1.0000 </r>
       <r>  -27.7849    1.0000 </r>
       <r>  -27.7769    1.0000 </r>
       <r>  -27.7705    1.0000 </r>
       <r>  -27.7662    1.0000 </r>
       <r>  -27.7647    1.0000 </r>
       <r>  -27.7469    1.0000 </r>
       <r>  -27.7453    1.0000 </r>
       <r>  -16.3200    1.0000 </r>
       <r>  -15.7319    1.0000 </r>
       <r>  -15.2058    1.0000 </r>
       <r>  -15.0788    1.0000 </r>
       <r>  -10.6948    1.0000 </r>
       <r>   -9.9192    1.0000 </r>
       <r>   -7.2100    1.0000 </r>
       <r>   -6.8130    1.0000 </r>
       <r>   -6.1836    1.0000 </r>
       <r>   -6.0164    1.0000 </r>
       <r>   -5.5146    1.0000 </r>
       <r>   -5.0760    1.0000 </r>
       <r>   -4.3191    1.0000 </r>
       <r>   -3.9579    1.0000 </r>
       <r>   -3.6958    1.0000 </r>
       <r>   -3.3205    1.0000 </r>
       <r>   -0.7441    0.0000 </r>
       <r>   -0.5160    0.0000 </r>
       <r>    1.1220    0.0000 </r>
       <r>    1.3275    0.0000 </r>
       <r>    1.4528    0.0000 </r>
       <r>    1.5229    0.0000 </r>
      </set>
      <set comment="kpoint 16">
       <r>  -27.7900    1.0000 </r>
       <r>  -27.7892    1.0000 </r>
       <r>  -27.7880    1.0000 </r>
       <r>  -27.7857    1.0000 </r>
       <r>  -27.7749    1.0000 </r>
       <r>  -27.7728    1.0000 </r>
       <r>  -27.7656    1.0000 </r>
       <r>  -27.7652    1.0000 </r>
       <r>  -27.7464    1.0000 </r>
       <r>  -27.7459    1.0000 </r>
       <r>  -16.1326    1.0000 </r>
       <r>  -15.9436    1.0000 </r>
       <r>  -15.1600    1.0000 </r>
       <r>  -15.1190    1.0000 </r>
       <r>  -10.4313    1.0000 </r>
       <r>  -10.1655    1.0000 </r>
       <r>   -7.0972    1.0000 </r>
       <r>   -6.9788    1.0000 </r>
       <r>   -6.1714    1.0000 </r>
       <r>   -6.1174    1.0000 </r>
       <r>   -5.3884    1.0000 </r>
       <r>   -5.2312    1.0000 </r>
       <r>   -4.2159    1.0000 </r>
       <r>   -4.1066    1.0000 </r>
       <r>   -3.5693    1.0000 </r>
       <r>   -3.4506    1.0000 </r>
       <r>   -0.5605    0.0000 </r>
       <r>   -0.4817    0.0000 </r>
       <r>    1.2584    0.0000 </r>
       <r>    1.3174    0.0000 </r>
       <r>    1.4409    0.0000 </r>
       <r>    1.4587    0.0000 </r>
      </set>
      <set comment="kpoint 17">
       <r>  -27.7910    1.0000 </r>
       <r>  -27.7882    1.0000 </r>
       <r>  -27.7873    1.0000 </r>
       <r>  -27.7864    1.0000 </r>
       <r>  -27.7751    1.0000 </r>
       <r>  -27.7726    1.0000 </r>
       <r>  -27.7657    1.0000 </r>
       <r>  -27.7651    1.0000 </r>
       <r>  -27.7464    1.0000 </r>
       <r>  -27.7458    1.0000 </r>
       <r>  -16.1454    1.0000 </r>
       <r>  -15.9286    1.0000 </r>
       <r>  -15.1631    1.0000 </r>
       <r>  -15.1170    1.0000 </r>
       <r>  -10.4288    1.0000 </r>
       <r>  -10.1725    1.0000 </r>
       <r>   -7.1153    1.0000 </r>
       <r>   -6.9597    1.0000 </r>
       <r>   -6.1733    1.0000 </r>
       <r>   -6.1121    1.0000 </r>
       <r>   -5.3763    1.0000 </r>
       <r>   -5.2445    1.0000 </r>
       <r>   -4.2309    1.0000 </r>
       <r>   -4.0957    1.0000 </r>
       <r>   -3.5758    1.0000 </r>
       <r>   -3.4347    1.0000 </r>
       <r>   -0.5832    0.0000 </r>
       <r>   -0.4500    0.0000 </r>
       <r>    1.2442    0.0000 </r>
       <r>    1.3633    0.0000 </r>
       <r>    1.4353    0.0000 </r>
       <r>    1.4479    0.0000 </r>
      </set>
      <set comment="kpoint 18">
       <r>  -27.7919    1.0000 </r>
       <r>  -27.7876    1.0000 </r>
       <r>  -27.7872    1.0000 </r>
       <r>  -27.7863    1.0000 </r>
       <r>  -27.7772    1.0000 </r>
       <r>  -27.7704    1.0000 </r>
       <r>  -27.7663    1.0000 </r>
       <r>  -27.7646    1.0000 </r>
       <r>  -27.7470    1.0000 </r>
       <r>  -27.7452    1.0000 </r>
       <r>  -16.3307    1.0000 </r>
       <r>  -15.7144    1.0000 </r>
       <r>  -15.2093    1.0000 </r>
       <r>  -15.0788    1.0000 </r>
       <r>  -10.6967    1.0000 </r>
       <r>   -9.9298    1.0000 </r>
       <r>   -7.2228    1.0000 </r>
       <r>   -6.8001    1.0000 </r>
       <r>   -6.1892    1.0000 </r>
       <r>   -6.0001    1.0000 </r>
       <r>   -5.5009    1.0000 </r>
       <r>   -5.0913    1.0000 </r>
       <r>   -4.3359    1.0000 </r>
       <r>   -3.9551    1.0000 </r>
       <r>   -3.6960    1.0000 </r>
       <r>   -3.2920    1.0000 </r>
       <r>   -0.7614    0.0000 </r>
       <r>   -0.4687    0.0000 </r>
       <r>    1.1204    0.0000 </r>
       <r>    1.3759    0.0000 </r>
       <r>    1.4276    0.0000 </r>
       <r>    1.5427    0.0000 </r>
      </set>
      <set comment="kpoint 19">
       <r>  -27.7928    1.0000 </r>
       <r>  -27.7880    1.0000 </r>
       <r>  -27.7874    1.0000 </r>
       <r>  -27.7852    1.0000 </r>
       <r>  -27.7789    1.0000 </r>
       <r>  -27.7683    1.0000 </r>
       <r>  -27.7668    1.0000 </r>
       <r>  -27.7641    1.0000 </r>
       <r>  -27.7475    1.0000 </r>
       <r>  -27.7447    1.0000 </r>
       <r>  -16.4945    1.0000 </r>
       <r>  -15.4984    1.0000 </r>
       <r>  -15.2552    1.0000 </r>
       <r>  -15.0459    1.0000 </r>
       <r>  -10.9580    1.0000 </r>
       <r>   -9.7145    1.0000 </r>
       <r>   -7.3031    1.0000 </r>
       <r>   -6.6179    1.0000 </r>
       <r>   -6.1693    1.0000 </r>
       <r>   -5.8368    1.0000 </r>
       <r>   -5.5982    1.0000 </r>
       <r>   -4.9423    1.0000 </r>
       <r>   -4.4337    1.0000 </r>
       <r>   -3.8100    1.0000 </r>
       <r>   -3.7945    1.0000 </r>
       <r>   -3.1428    1.0000 </r>
       <r>   -0.9586    0.0000 </r>
       <r>   -0.6378    0.0000 </r>
       <r>    0.9469    0.0000 </r>
       <r>    1.2383    0.0000 </r>
       <r>    1.3660    0.0000 </r>
       <r>    1.4473    0.0000 </r>
      </set>
      <set comment="kpoint 20">
       <r>  -27.7936    1.0000 </r>
       <r>  -27.7886    1.0000 </r>
       <r>  -27.7874    1.0000 </r>
       <r>  -27.7843    1.0000 </r>
       <r>  -27.7801    1.0000 </r>
       <r>  -27.7673    1.0000 </r>
       <r>  -27.7664    1.0000 </r>
       <r>  -27.7637    1.0000 </r>
       <r>  -27.7480    1.0000 </r>
       <r>  -27.7443    1.0000 </r>
       <r>  -16.6330    1.0000 </r>
       <r>  -15.2979    1.0000 </r>
       <r>  -15.2930    1.0000 </r>
       <r>  -15.0167    1.0000 </r>
       <r>  -11.2013    1.0000 </r>
       <r>   -9.5364    1.0000 </r>
       <r>   -7.3602    1.0000 </r>
       <r>   -6.4088    1.0000 </r>
       <r>   -6.1173    1.0000 </r>
       <r>   -5.6629    1.0000 </r>
       <r>   -5.6381    1.0000 </r>
       <r>   -4.8145    1.0000 </r>
       <r>   -4.5414    1.0000 </r>
       <r>   -3.9144    1.0000 </r>
       <r>   -3.6152    1.0000 </r>
       <r>   -2.9945    1.0000 </r>
       <r>   -1.1314    0.0000 </r>
       <r>   -0.9168    0.0000 </r>
       <r>    0.6735    0.0000 </r>
       <r>    0.7366    0.0000 </r>
       <r>    1.2333    0.0000 </r>
       <r>    1.5204    0.0000 </r>
      </set>
      <set comment="kpoint 21">
       <r>  -27.7942    1.0000 </r>
       <r>  -27.7892    1.0000 </r>
       <r>  -27.7877    1.0000 </r>
       <r>  -27.7835    1.0000 </r>
       <r>  -27.7808    1.0000 </r>
       <r>  -27.7677    1.0000 </r>
       <r>  -27.7650    1.0000 </r>
       <r>  -27.7632    1.0000 </r>
       <r>  -27.7484    1.0000 </r>
       <r>  -27.7440    1.0000 </r>
       <r>  -16.7434    1.0000 </r>
       <r>  -15.3344    1.0000 </r>
       <r>  -15.1233    1.0000 </r>
       <r>  -14.9786    1.0000 </r>
       <r>  -11.4145    1.0000 </r>
       <r>   -9.4006    1.0000 </r>
       <r>   -7.3992    1.0000 </r>
       <r>   -6.1709    1.0000 </r>
       <r>   -6.0436    1.0000 </r>
       <r>   -5.6862    1.0000 </r>
       <r>   -5.4374    1.0000 </r>
       <r>   -4.7230    1.0000 </r>
       <r>   -4.6750    1.0000 </r>
       <r>   -4.0034    1.0000 </r>
       <r>   -3.4211    1.0000 </r>
       <r>   -2.8631    1.0000 </r>
       <r>   -1.2541    0.0000 </r>
       <r>   -1.2275    0.0000 </r>
       <r>    0.1265    0.0000 </r>
       <r>    0.5203    0.0000 </r>
       <r>    1.0511    0.0000 </r>
       <r>    1.6608    0.0000 </r>
      </set>
      <set comment="kpoint 22">
       <r>  -27.7946    1.0000 </r>
       <r>  -27.7896    1.0000 </r>
       <r>  -27.7882    1.0000 </r>
       <r>  -27.7829    1.0000 </r>
       <r>  -27.7811    1.0000 </r>
       <r>  -27.7680    1.0000 </r>
       <r>  -27.7641    1.0000 </r>
       <r>  -27.7627    1.0000 </r>
       <r>  -27.7487    1.0000 </r>
       <r>  -27.7437    1.0000 </r>
       <r>  -16.8234    1.0000 </r>
       <r>  -15.3623    1.0000 </r>
       <r>  -15.0423    1.0000 </r>
       <r>  -14.8935    1.0000 </r>
       <r>  -11.5834    1.0000 </r>
       <r>   -9.3074    1.0000 </r>
       <r>   -7.4248    1.0000 </r>
       <r>   -5.9746    1.0000 </r>
       <r>   -5.9150    1.0000 </r>
       <r>   -5.6503    1.0000 </r>
       <r>   -5.2841    1.0000 </r>
       <r>   -4.8379    1.0000 </r>
       <r>   -4.6733    1.0000 </r>
       <r>   -4.0704    1.0000 </r>
       <r>   -3.2243    1.0000 </r>
       <r>   -2.7734    1.0000 </r>
       <r>   -1.4914    0.0000 </r>
       <r>   -1.3216    0.0000 </r>
       <r>   -0.3426    0.0000 </r>
       <r>    0.3318    0.0000 </r>
       <r>    0.8722    0.0000 </r>
       <r>    1.8211    0.0000 </r>
      </set>
      <set comment="kpoint 23">
       <r>  -27.7948    1.0000 </r>
       <r>  -27.7899    1.0000 </r>
       <r>  -27.7885    1.0000 </r>
       <r>  -27.7826    1.0000 </r>
       <r>  -27.7812    1.0000 </r>
       <r>  -27.7682    1.0000 </r>
       <r>  -27.7637    1.0000 </r>
       <r>  -27.7622    1.0000 </r>
       <r>  -27.7488    1.0000 </r>
       <r>  -27.7436    1.0000 </r>
       <r>  -16.8716    1.0000 </r>
       <r>  -15.3797    1.0000 </r>
       <r>  -15.0231    1.0000 </r>
       <r>  -14.8048    1.0000 </r>
       <r>  -11.6928    1.0000 </r>
       <r>   -9.2532    1.0000 </r>
       <r>   -7.4398    1.0000 </r>
       <r>   -5.9360    1.0000 </r>
       <r>   -5.6715    1.0000 </r>
       <r>   -5.5547    1.0000 </r>
       <r>   -5.2341    1.0000 </r>
       <r>   -5.0079    1.0000 </r>
       <r>   -4.6539    1.0000 </r>
       <r>   -4.1115    1.0000 </r>
       <r>   -3.0460    1.0000 </r>
       <r>   -2.7535    1.0000 </r>
       <r>   -1.6562    0.0000 </r>
       <r>   -1.3478    0.0000 </r>
       <r>   -0.6709    0.0000 </r>
       <r>    0.2021    0.0000 </r>
       <r>    0.7461    0.0000 </r>
       <r>    1.9491    0.0000 </r>
      </set>
      <set comment="kpoint 24">
       <r>  -27.7944    1.0000 </r>
       <r>  -27.7897    1.0000 </r>
       <r>  -27.7885    1.0000 </r>
       <r>  -27.7824    1.0000 </r>
       <r>  -27.7813    1.0000 </r>
       <r>  -27.7680    1.0000 </r>
       <r>  -27.7638    1.0000 </r>
       <r>  -27.7631    1.0000 </r>
       <r>  -27.7487    1.0000 </r>
       <r>  -27.7438    1.0000 </r>
       <r>  -16.8313    1.0000 </r>
       <r>  -15.3592    1.0000 </r>
       <r>  -15.1598    1.0000 </r>
       <r>  -14.7984    1.0000 </r>
       <r>  -11.5539    1.0000 </r>
       <r>   -9.2912    1.0000 </r>
       <r>   -7.4036    1.0000 </r>
       <r>   -5.9813    1.0000 </r>
       <r>   -5.6653    1.0000 </r>
       <r>   -5.5068    1.0000 </r>
       <r>   -5.4630    1.0000 </r>
       <r>   -5.0038    1.0000 </r>
       <r>   -4.6553    1.0000 </r>
       <r>   -4.0404    1.0000 </r>
       <r>   -3.0518    1.0000 </r>
       <r>   -2.9288    1.0000 </r>
       <r>   -1.4317    0.0000 </r>
       <r>   -1.2806    0.0000 </r>
       <r>   -0.4118    0.0000 </r>
       <r>    0.2094    0.0000 </r>
       <r>    0.7966    0.0000 </r>
       <r>    1.8955    0.0000 </r>
      </set>
      <set comment="kpoint 25">
       <r>  -27.7941    1.0000 </r>
       <r>  -27.7898    1.0000 </r>
       <r>  -27.7885    1.0000 </r>
       <r>  -27.7825    1.0000 </r>
       <r>  -27.7811    1.0000 </r>
       <r>  -27.7679    1.0000 </r>
       <r>  -27.7638    1.0000 </r>
       <r>  -27.7634    1.0000 </r>
       <r>  -27.7486    1.0000 </r>
       <r>  -27.7438    1.0000 </r>
       <r>  -16.8137    1.0000 </r>
       <r>  -15.3528    1.0000 </r>
       <r>  -15.1743    1.0000 </r>
       <r>  -14.8202    1.0000 </r>
       <r>  -11.5225    1.0000 </r>
       <r>   -9.3086    1.0000 </r>
       <r>   -7.3923    1.0000 </r>
       <r>   -5.9943    1.0000 </r>
       <r>   -5.8391    1.0000 </r>
       <r>   -5.5242    1.0000 </r>
       <r>   -5.3981    1.0000 </r>
       <r>   -4.9166    1.0000 </r>
       <r>   -4.6663    1.0000 </r>
       <r>   -4.0287    1.0000 </r>
       <r>   -3.1534    1.0000 </r>
       <r>   -2.8821    1.0000 </r>
       <r>   -1.5212    0.0000 </r>
       <r>   -1.2721    0.0000 </r>
       <r>   -0.2029    0.0000 </r>
       <r>    0.2517    0.0000 </r>
       <r>    0.8464    0.0000 </r>
       <r>    1.7818    0.0000 </r>
      </set>
      <set comment="kpoint 26">
       <r>  -27.7936    1.0000 </r>
       <r>  -27.7898    1.0000 </r>
       <r>  -27.7886    1.0000 </r>
       <r>  -27.7825    1.0000 </r>
       <r>  -27.7810    1.0000 </r>
       <r>  -27.7677    1.0000 </r>
       <r>  -27.7646    1.0000 </r>
       <r>  -27.7634    1.0000 </r>
       <r>  -27.7484    1.0000 </r>
       <r>  -27.7440    1.0000 </r>
       <r>  -16.7645    1.0000 </r>
       <r>  -15.3359    1.0000 </r>
       <r>  -15.2109    1.0000 </r>
       <r>  -14.8785    1.0000 </r>
       <r>  -11.4386    1.0000 </r>
       <r>   -9.3698    1.0000 </r>
       <r>   -7.3547    1.0000 </r>
       <r>   -6.1171    1.0000 </r>
       <r>   -6.0587    1.0000 </r>
       <r>   -5.5939    1.0000 </r>
       <r>   -5.2923    1.0000 </r>
       <r>   -4.7555    1.0000 </r>
       <r>   -4.7060    1.0000 </r>
       <r>   -3.9904    1.0000 </r>
       <r>   -3.3659    1.0000 </r>
       <r>   -2.8086    1.0000 </r>
       <r>   -1.5758    0.0000 </r>
       <r>   -1.2386    0.0000 </r>
       <r>    0.1890    0.0000 </r>
       <r>    0.3647    0.0000 </r>
       <r>    0.9763    0.0000 </r>
       <r>    1.6201    0.0000 </r>
      </set>
      <set comment="kpoint 27">
       <r>  -27.7931    1.0000 </r>
       <r>  -27.7895    1.0000 </r>
       <r>  -27.7887    1.0000 </r>
       <r>  -27.7825    1.0000 </r>
       <r>  -27.7807    1.0000 </r>
       <r>  -27.7674    1.0000 </r>
       <r>  -27.7659    1.0000 </r>
       <r>  -27.7635    1.0000 </r>
       <r>  -27.7481    1.0000 </r>
       <r>  -27.7442    1.0000 </r>
       <r>  -16.6849    1.0000 </r>
       <r>  -15.3098    1.0000 </r>
       <r>  -15.2845    1.0000 </r>
       <r>  -14.9486    1.0000 </r>
       <r>  -11.3100    1.0000 </r>
       <r>   -9.4765    1.0000 </r>
       <r>   -7.2925    1.0000 </r>
       <r>   -6.3693    1.0000 </r>
       <r>   -6.1575    1.0000 </r>
       <r>   -5.6128    1.0000 </r>
       <r>   -5.3105    1.0000 </r>
       <r>   -4.7794    1.0000 </r>
       <r>   -4.6031    1.0000 </r>
       <r>   -3.9194    1.0000 </r>
       <r>   -3.5726    1.0000 </r>
       <r>   -2.8074    1.0000 </r>
       <r>   -1.4976    0.0000 </r>
       <r>   -1.1656    0.0000 </r>
       <r>    0.5237    0.0000 </r>
       <r>    0.6368    0.0000 </r>
       <r>    1.1625    0.0000 </r>
       <r>    1.4798    0.0000 </r>
      </set>
      <set comment="kpoint 28">
       <r>  -27.7924    1.0000 </r>
       <r>  -27.7891    1.0000 </r>
       <r>  -27.7890    1.0000 </r>
       <r>  -27.7826    1.0000 </r>
       <r>  -27.7800    1.0000 </r>
       <r>  -27.7676    1.0000 </r>
       <r>  -27.7669    1.0000 </r>
       <r>  -27.7637    1.0000 </r>
       <r>  -27.7477    1.0000 </r>
       <r>  -27.7445    1.0000 </r>
       <r>  -16.5763    1.0000 </r>
       <r>  -15.4072    1.0000 </r>
       <r>  -15.2765    1.0000 </r>
       <r>  -15.0071    1.0000 </r>
       <r>  -11.1457    1.0000 </r>
       <r>   -9.6282    1.0000 </r>
       <r>   -7.2103    1.0000 </r>
       <r>   -6.5751    1.0000 </r>
       <r>   -6.2472    1.0000 </r>
       <r>   -5.5928    1.0000 </r>
       <r>   -5.4306    1.0000 </r>
       <r>   -4.8945    1.0000 </r>
       <r>   -4.4857    1.0000 </r>
       <r>   -3.8145    1.0000 </r>
       <r>   -3.7529    1.0000 </r>
       <r>   -2.8716    1.0000 </r>
       <r>   -1.2953    0.0000 </r>
       <r>   -1.0472    0.0000 </r>
       <r>    0.7020    0.0000 </r>
       <r>    1.0168    0.0000 </r>
       <r>    1.3593    0.0000 </r>
       <r>    1.4507    0.0000 </r>
      </set>
      <set comment="kpoint 29">
       <r>  -27.7917    1.0000 </r>
       <r>  -27.7897    1.0000 </r>
       <r>  -27.7884    1.0000 </r>
       <r>  -27.7830    1.0000 </r>
       <r>  -27.7788    1.0000 </r>
       <r>  -27.7695    1.0000 </r>
       <r>  -27.7664    1.0000 </r>
       <r>  -27.7640    1.0000 </r>
       <r>  -27.7473    1.0000 </r>
       <r>  -27.7449    1.0000 </r>
       <r>  -16.4412    1.0000 </r>
       <r>  -15.5703    1.0000 </r>
       <r>  -15.2385    1.0000 </r>
       <r>  -15.0511    1.0000 </r>
       <r>  -10.9541    1.0000 </r>
       <r>   -9.8191    1.0000 </r>
       <r>   -7.1187    1.0000 </r>
       <r>   -6.7305    1.0000 </r>
       <r>   -6.2911    1.0000 </r>
       <r>   -5.6089    1.0000 </r>
       <r>   -5.5510    1.0000 </r>
       <r>   -5.0387    1.0000 </r>
       <r>   -4.3966    1.0000 </r>
       <r>   -3.9044    1.0000 </r>
       <r>   -3.6841    1.0000 </r>
       <r>   -2.9801    1.0000 </r>
       <r>   -1.0384    0.0000 </r>
       <r>   -0.8965    0.0000 </r>
       <r>    0.8789    0.0000 </r>
       <r>    1.1296    0.0000 </r>
       <r>    1.5084    0.0000 </r>
       <r>    1.7046    0.0000 </r>
      </set>
      <set comment="kpoint 30">
       <r>  -27.7909    1.0000 </r>
       <r>  -27.7905    1.0000 </r>
       <r>  -27.7876    1.0000 </r>
       <r>  -27.7836    1.0000 </r>
       <r>  -27.7772    1.0000 </r>
       <r>  -27.7715    1.0000 </r>
       <r>  -27.7658    1.0000 </r>
       <r>  -27.7644    1.0000 </r>
       <r>  -27.7468    1.0000 </r>
       <r>  -27.7454    1.0000 </r>
       <r>  -16.2829    1.0000 </r>
       <r>  -15.7548    1.0000 </r>
       <r>  -15.1985    1.0000 </r>
       <r>  -15.0887    1.0000 </r>
       <r>  -10.7423    1.0000 </r>
       <r>  -10.0387    1.0000 </r>
       <r>   -7.0324    1.0000 </r>
       <r>   -6.8426    1.0000 </r>
       <r>   -6.2645    1.0000 </r>
       <r>   -5.8093    1.0000 </r>
       <r>   -5.4943    1.0000 </r>
       <r>   -5.1833    1.0000 </r>
       <r>   -4.3168    1.0000 </r>
       <r>   -4.0349    1.0000 </r>
       <r>   -3.5384    1.0000 </r>
       <r>   -3.1134    1.0000 </r>
       <r>   -0.8130    0.0000 </r>
       <r>   -0.7466    0.0000 </r>
       <r>    1.0436    0.0000 </r>
       <r>    1.1603    0.0000 </r>
       <r>    1.5690    0.0000 </r>
       <r>    1.6565    0.0000 </r>
      </set>
      <set comment="kpoint 31">
       <r>  -27.7913    1.0000 </r>
       <r>  -27.7901    1.0000 </r>
       <r>  -27.7868    1.0000 </r>
       <r>  -27.7843    1.0000 </r>
       <r>  -27.7753    1.0000 </r>
       <r>  -27.7736    1.0000 </r>
       <r>  -27.7652    1.0000 </r>
       <r>  -27.7649    1.0000 </r>
       <r>  -27.7462    1.0000 </r>
       <r>  -27.7459    1.0000 </r>
       <r>  -16.1059    1.0000 </r>
       <r>  -15.9454    1.0000 </r>
       <r>  -15.1592    1.0000 </r>
       <r>  -15.1259    1.0000 </r>
       <r>  -10.5168    1.0000 </r>
       <r>  -10.2741    1.0000 </r>
       <r>   -6.9608    1.0000 </r>
       <r>   -6.9243    1.0000 </r>
       <r>   -6.1584    1.0000 </r>
       <r>   -6.0037    1.0000 </r>
       <r>   -5.4214    1.0000 </r>
       <r>   -5.3064    1.0000 </r>
       <r>   -4.2318    1.0000 </r>
       <r>   -4.1505    1.0000 </r>
       <r>   -3.3837    1.0000 </r>
       <r>   -3.2572    1.0000 </r>
       <r>   -0.6887    0.0000 </r>
       <r>   -0.6425    0.0000 </r>
       <r>    1.1913    0.0000 </r>
       <r>    1.1972    0.0000 </r>
       <r>    1.5313    0.0000 </r>
       <r>    1.5478    0.0000 </r>
      </set>
      <set comment="kpoint 32">
       <r>  -27.7921    1.0000 </r>
       <r>  -27.7894    1.0000 </r>
       <r>  -27.7859    1.0000 </r>
       <r>  -27.7852    1.0000 </r>
       <r>  -27.7757    1.0000 </r>
       <r>  -27.7732    1.0000 </r>
       <r>  -27.7654    1.0000 </r>
       <r>  -27.7647    1.0000 </r>
       <r>  -27.7464    1.0000 </r>
       <r>  -27.7457    1.0000 </r>
       <r>  -16.1311    1.0000 </r>
       <r>  -15.9160    1.0000 </r>
       <r>  -15.1648    1.0000 </r>
       <r>  -15.1224    1.0000 </r>
       <r>  -10.5132    1.0000 </r>
       <r>  -10.2850    1.0000 </r>
       <r>   -6.9906    1.0000 </r>
       <r>   -6.8971    1.0000 </r>
       <r>   -6.1668    1.0000 </r>
       <r>   -5.9860    1.0000 </r>
       <r>   -5.4010    1.0000 </r>
       <r>   -5.3268    1.0000 </r>
       <r>   -4.2527    1.0000 </r>
       <r>   -4.1358    1.0000 </r>
       <r>   -3.4031    1.0000 </r>
       <r>   -3.2237    1.0000 </r>
       <r>   -0.6871    0.0000 </r>
       <r>   -0.6296    0.0000 </r>
       <r>    1.1484    0.0000 </r>
       <r>    1.2683    0.0000 </r>
       <r>    1.5213    0.0000 </r>
       <r>    1.5442    0.0000 </r>
      </set>
      <set comment="kpoint 33">
       <r>  -27.7929    1.0000 </r>
       <r>  -27.7887    1.0000 </r>
       <r>  -27.7860    1.0000 </r>
       <r>  -27.7850    1.0000 </r>
       <r>  -27.7776    1.0000 </r>
       <r>  -27.7712    1.0000 </r>
       <r>  -27.7659    1.0000 </r>
       <r>  -27.7642    1.0000 </r>
       <r>  -27.7469    1.0000 </r>
       <r>  -27.7452    1.0000 </r>
       <r>  -16.3042    1.0000 </r>
       <r>  -15.7211    1.0000 </r>
       <r>  -15.2051    1.0000 </r>
       <r>  -15.0887    1.0000 </r>
       <r>  -10.7458    1.0000 </r>
       <r>  -10.0558    1.0000 </r>
       <r>   -7.0564    1.0000 </r>
       <r>   -6.8242    1.0000 </r>
       <r>   -6.2745    1.0000 </r>
       <r>   -5.7743    1.0000 </r>
       <r>   -5.4710    1.0000 </r>
       <r>   -5.2062    1.0000 </r>
       <r>   -4.3424    1.0000 </r>
       <r>   -4.0286    1.0000 </r>
       <r>   -3.5463    1.0000 </r>
       <r>   -3.0643    1.0000 </r>
       <r>   -0.7811    0.0000 </r>
       <r>   -0.7352    0.0000 </r>
       <r>    1.0252    0.0000 </r>
       <r>    1.2163    0.0000 </r>
       <r>    1.5363    0.0000 </r>
       <r>    1.6825    0.0000 </r>
      </set>
      <set comment="kpoint 34">
       <r>  -27.7935    1.0000 </r>
       <r>  -27.7882    1.0000 </r>
       <r>  -27.7868    1.0000 </r>
       <r>  -27.7842    1.0000 </r>
       <r>  -27.7792    1.0000 </r>
       <r>  -27.7693    1.0000 </r>
       <r>  -27.7665    1.0000 </r>
       <r>  -27.7637    1.0000 </r>
       <r>  -27.7474    1.0000 </r>
       <r>  -27.7448    1.0000 </r>
       <r>  -16.4587    1.0000 </r>
       <r>  -15.5323    1.0000 </r>
       <r>  -15.2451    1.0000 </r>
       <r>  -15.0561    1.0000 </r>
       <r>  -10.9636    1.0000 </r>
       <r>   -9.8401    1.0000 </r>
       <r>   -7.1313    1.0000 </r>
       <r>   -6.7246    1.0000 </r>
       <r>   -6.3109    1.0000 </r>
       <r>   -5.5538    1.0000 </r>
       <r>   -5.5228    1.0000 </r>
       <r>   -5.0643    1.0000 </r>
       <r>   -4.4249    1.0000 </r>
       <r>   -3.9091    1.0000 </r>
       <r>   -3.6834    1.0000 </r>
       <r>   -2.9156    1.0000 </r>
       <r>   -0.9441    0.0000 </r>
       <r>   -0.9223    0.0000 </r>
       <r>    0.8724    0.0000 </r>
       <r>    1.1475    0.0000 </r>
       <r>    1.4738    0.0000 </r>
       <r>    1.6180    0.0000 </r>
      </set>
      <set comment="kpoint 35">
       <r>  -27.7941    1.0000 </r>
       <r>  -27.7879    1.0000 </r>
       <r>  -27.7876    1.0000 </r>
       <r>  -27.7835    1.0000 </r>
       <r>  -27.7804    1.0000 </r>
       <r>  -27.7675    1.0000 </r>
       <r>  -27.7670    1.0000 </r>
       <r>  -27.7633    1.0000 </r>
       <r>  -27.7478    1.0000 </r>
       <r>  -27.7444    1.0000 </r>
       <r>  -16.5902    1.0000 </r>
       <r>  -15.3665    1.0000 </r>
       <r>  -15.2826    1.0000 </r>
       <r>  -15.0174    1.0000 </r>
       <r>  -11.1590    1.0000 </r>
       <r>   -9.6499    1.0000 </r>
       <r>   -7.2123    1.0000 </r>
       <r>   -6.5843    1.0000 </r>
       <r>   -6.2780    1.0000 </r>
       <r>   -5.5591    1.0000 </r>
       <r>   -5.3577    1.0000 </r>
       <r>   -4.9195    1.0000 </r>
       <r>   -4.5138    1.0000 </r>
       <r>   -3.8092    1.0000 </r>
       <r>   -3.7721    1.0000 </r>
       <r>   -2.7935    1.0000 </r>
       <r>   -1.1915    0.0000 </r>
       <r>   -1.0643    0.0000 </r>
       <r>    0.6998    0.0000 </r>
       <r>    0.9370    0.0000 </r>
       <r>    1.3242    0.0000 </r>
       <r>    1.4079    0.0000 </r>
      </set>
      <set comment="kpoint 36">
       <r>  -27.7944    1.0000 </r>
       <r>  -27.7883    1.0000 </r>
       <r>  -27.7879    1.0000 </r>
       <r>  -27.7829    1.0000 </r>
       <r>  -27.7812    1.0000 </r>
       <r>  -27.7674    1.0000 </r>
       <r>  -27.7661    1.0000 </r>
       <r>  -27.7631    1.0000 </r>
       <r>  -27.7482    1.0000 </r>
       <r>  -27.7441    1.0000 </r>
       <r>  -16.6952    1.0000 </r>
       <r>  -15.3148    1.0000 </r>
[...]
       <r>    1.2890    0.0000 </r>
       <r>    1.3410    0.0000 </r>
      </set>
      <set comment="kpoint 96">
       <r>  -27.7931    1.0000 </r>
       <r>  -27.7906    1.0000 </r>
       <r>  -27.7843    1.0000 </r>
       <r>  -27.7841    1.0000 </r>
       <r>  -27.7762    1.0000 </r>
       <r>  -27.7735    1.0000 </r>
       <r>  -27.7653    1.0000 </r>
       <r>  -27.7644    1.0000 </r>
       <r>  -27.7464    1.0000 </r>
       <r>  -27.7457    1.0000 </r>
       <r>  -16.2011    1.0000 </r>
       <r>  -15.9861    1.0000 </r>
       <r>  -15.1355    1.0000 </r>
       <r>  -15.0734    1.0000 </r>
       <r>  -10.5387    1.0000 </r>
       <r>  -10.3011    1.0000 </r>
       <r>   -6.7738    1.0000 </r>
       <r>   -6.7555    1.0000 </r>
       <r>   -6.0581    1.0000 </r>
       <r>   -5.7275    1.0000 </r>
       <r>   -5.3657    1.0000 </r>
       <r>   -5.3055    1.0000 </r>
       <r>   -4.2701    1.0000 </r>
       <r>   -4.1407    1.0000 </r>
       <r>   -3.1422    1.0000 </r>
       <r>   -2.9208    1.0000 </r>
       <r>   -0.8334    0.0000 </r>
       <r>   -0.7982    0.0000 </r>
       <r>    0.8274    0.0000 </r>
       <r>    1.0803    0.0000 </r>
       <r>    1.2467    0.0000 </r>
       <r>    1.2977    0.0000 </r>
      </set>
      <set comment="kpoint 97">
       <r>  -27.7925    1.0000 </r>
       <r>  -27.7901    1.0000 </r>
       <r>  -27.7850    1.0000 </r>
       <r>  -27.7850    1.0000 </r>
       <r>  -27.7755    1.0000 </r>
       <r>  -27.7727    1.0000 </r>
       <r>  -27.7656    1.0000 </r>
       <r>  -27.7649    1.0000 </r>
       <r>  -27.7465    1.0000 </r>
       <r>  -27.7458    1.0000 </r>
       <r>  -16.2382    1.0000 </r>
       <r>  -16.0169    1.0000 </r>
       <r>  -15.1287    1.0000 </r>
       <r>  -15.0565    1.0000 </r>
       <r>  -10.4359    1.0000 </r>
       <r>  -10.1645    1.0000 </r>
       <r>   -6.8180    1.0000 </r>
       <r>   -6.7174    1.0000 </r>
       <r>   -6.1526    1.0000 </r>
       <r>   -5.9473    1.0000 </r>
       <r>   -5.2736    1.0000 </r>
       <r>   -5.1810    1.0000 </r>
       <r>   -4.2606    1.0000 </r>
       <r>   -4.0889    1.0000 </r>
       <r>   -3.3176    1.0000 </r>
       <r>   -3.1194    1.0000 </r>
       <r>   -0.6509    0.0000 </r>
       <r>   -0.5940    0.0000 </r>
       <r>    0.7515    0.0000 </r>
       <r>    0.9879    0.0000 </r>
       <r>    1.2369    0.0000 </r>
       <r>    1.2436    0.0000 </r>
      </set>
      <set comment="kpoint 98">
       <r>  -27.7918    1.0000 </r>
       <r>  -27.7900    1.0000 </r>
       <r>  -27.7858    1.0000 </r>
       <r>  -27.7853    1.0000 </r>
       <r>  -27.7750    1.0000 </r>
       <r>  -27.7722    1.0000 </r>
       <r>  -27.7659    1.0000 </r>
       <r>  -27.7652    1.0000 </r>
       <r>  -27.7466    1.0000 </r>
       <r>  -27.7459    1.0000 </r>
       <r>  -16.2599    1.0000 </r>
       <r>  -16.0398    1.0000 </r>
       <r>  -15.1240    1.0000 </r>
       <r>  -15.0468    1.0000 </r>
       <r>  -10.3608    1.0000 </r>
       <r>  -10.0662    1.0000 </r>
       <r>   -6.8655    1.0000 </r>
       <r>   -6.6727    1.0000 </r>
       <r>   -6.2107    1.0000 </r>
       <r>   -6.1363    1.0000 </r>
       <r>   -5.1688    1.0000 </r>
       <r>   -5.0575    1.0000 </r>
       <r>   -4.2735    1.0000 </r>
       <r>   -4.0506    1.0000 </r>
       <r>   -3.4436    1.0000 </r>
       <r>   -3.2886    1.0000 </r>
       <r>   -0.5593    0.0000 </r>
       <r>   -0.4279    0.0000 </r>
       <r>    0.7142    0.0000 </r>
       <r>    0.9182    0.0000 </r>
       <r>    1.1894    0.0000 </r>
       <r>    1.2305    0.0000 </r>
      </set>
     </set>
    </set>
   </array>
  </eigenvalues>
  <separator name="orbital magnetization" >
   <v name="MAGDIPOLOUT">      0.00000000      0.00000000      0.00000000</v>
  </separator>
  <dos>
   <i name="efermi">     -2.38435301 </i>
   <total>
    <array>
     <dimension dim="1">gridpoints</dimension>
     <dimension dim="2">spin</dimension>
     <field>energy</field>
     <field>total</field>
     <field>integrated</field>
     <set>
      <set comment="spin 1">
       <r>   -29.2854     0.0000     0.0000 </r>
       <r>   -29.1761     0.0000     0.0000 </r>
       <r>   -29.0668     0.0000     0.0000 </r>
       <r>   -28.9575     0.0000     0.0000 </r>
       <r>   -28.8482     0.0000     0.0000 </r>
       <r>   -28.7389     0.0000     0.0000 </r>
       <r>   -28.6296     0.0000     0.0000 </r>
       <r>   -28.5203     0.0000     0.0000 </r>
       <r>   -28.4110     0.0000     0.0000 </r>
       <r>   -28.3017     0.0000     0.0000 </r>
       <r>   -28.1924     0.0000     0.0000 </r>
       <r>   -28.0831     0.0000     0.0000 </r>
       <r>   -27.9738     0.0000     0.0000 </r>
       <r>   -27.8645     0.0000     0.0000 </r>
       <r>   -27.7552   142.2680    15.5496 </r>
       <r>   -27.6459    40.7175    20.0000 </r>
       <r>   -27.5366     0.0000    20.0000 </r>
       <r>   -27.4273     0.0000    20.0000 </r>
       <r>   -27.3180     0.0000    20.0000 </r>
       <r>   -27.2087     0.0000    20.0000 </r>
       <r>   -27.0994     0.0000    20.0000 </r>
       <r>   -26.9901     0.0000    20.0000 </r>
       <r>   -26.8808     0.0000    20.0000 </r>
       <r>   -26.7715     0.0000    20.0000 </r>
       <r>   -26.6622     0.0000    20.0000 </r>
       <r>   -26.5529     0.0000    20.0000 </r>
       <r>   -26.4436     0.0000    20.0000 </r>
       <r>   -26.3343     0.0000    20.0000 </r>
       <r>   -26.2250     0.0000    20.0000 </r>
       <r>   -26.1157     0.0000    20.0000 </r>
       <r>   -26.0064     0.0000    20.0000 </r>
       <r>   -25.8971     0.0000    20.0000 </r>
       <r>   -25.7878     0.0000    20.0000 </r>
       <r>   -25.6785     0.0000    20.0000 </r>
       <r>   -25.5692     0.0000    20.0000 </r>
       <r>   -25.4599     0.0000    20.0000 </r>
       <r>   -25.3506     0.0000    20.0000 </r>
       <r>   -25.2413     0.0000    20.0000 </r>
       <r>   -25.1320     0.0000    20.0000 </r>
       <r>   -25.0227     0.0000    20.0000 </r>
       <r>   -24.9134     0.0000    20.0000 </r>
       <r>   -24.8042     0.0000    20.0000 </r>
       <r>   -24.6949     0.0000    20.0000 </r>
       <r>   -24.5856     0.0000    20.0000 </r>
       <r>   -24.4763     0.0000    20.0000 </r>
       <r>   -24.3670     0.0000    20.0000 </r>
       <r>   -24.2577     0.0000    20.0000 </r>
       <r>   -24.1484     0.0000    20.0000 </r>
       <r>   -24.0391     0.0000    20.0000 </r>
       <r>   -23.9298     0.0000    20.0000 </r>
       <r>   -23.8205     0.0000    20.0000 </r>
       <r>   -23.7112     0.0000    20.0000 </r>
       <r>   -23.6019     0.0000    20.0000 </r>
       <r>   -23.4926     0.0000    20.0000 </r>
       <r>   -23.3833     0.0000    20.0000 </r>
       <r>   -23.2740     0.0000    20.0000 </r>
       <r>   -23.1647     0.0000    20.0000 </r>
       <r>   -23.0554     0.0000    20.0000 </r>
       <r>   -22.9461     0.0000    20.0000 </r>
       <r>   -22.8368     0.0000    20.0000 </r>
       <r>   -22.7275     0.0000    20.0000 </r>
       <r>   -22.6182     0.0000    20.0000 </r>
       <r>   -22.5089     0.0000    20.0000 </r>
       <r>   -22.3996     0.0000    20.0000 </r>
       <r>   -22.2903     0.0000    20.0000 </r>
       <r>   -22.1810     0.0000    20.0000 </r>
       <r>   -22.0717     0.0000    20.0000 </r>
       <r>   -21.9624     0.0000    20.0000 </r>
       <r>   -21.8531     0.0000    20.0000 </r>
       <r>   -21.7438     0.0000    20.0000 </r>
       <r>   -21.6345     0.0000    20.0000 </r>
       <r>   -21.5252     0.0000    20.0000 </r>
       <r>   -21.4159     0.0000    20.0000 </r>
       <r>   -21.3066     0.0000    20.0000 </r>
       <r>   -21.1973     0.0000    20.0000 </r>
       <r>   -21.0880     0.0000    20.0000 </r>
       <r>   -20.9787     0.0000    20.0000 </r>
       <r>   -20.8694     0.0000    20.0000 </r>
       <r>   -20.7601     0.0000    20.0000 </r>
       <r>   -20.6508     0.0000    20.0000 </r>
       <r>   -20.5415     0.0000    20.0000 </r>
       <r>   -20.4322     0.0000    20.0000 </r>
       <r>   -20.3229     0.0000    20.0000 </r>
       <r>   -20.2136     0.0000    20.0000 </r>
       <r>   -20.1043     0.0000    20.0000 </r>
       <r>   -19.9950     0.0000    20.0000 </r>
       <r>   -19.8857     0.0000    20.0000 </r>
       <r>   -19.7764     0.0000    20.0000 </r>
       <r>   -19.6671     0.0000    20.0000 </r>
       <r>   -19.5578     0.0000    20.0000 </r>
       <r>   -19.4485     0.0000    20.0000 </r>
       <r>   -19.3392     0.0000    20.0000 </r>
       <r>   -19.2299     0.0000    20.0000 </r>
       <r>   -19.1206     0.0000    20.0000 </r>
       <r>   -19.0113     0.0000    20.0000 </r>
       <r>   -18.9020     0.0000    20.0000 </r>
       <r>   -18.7927     0.0000    20.0000 </r>
       <r>   -18.6835     0.0000    20.0000 </r>
       <r>   -18.5742     0.0000    20.0000 </r>
       <r>   -18.4649     0.0000    20.0000 </r>
       <r>   -18.3556     0.0000    20.0000 </r>
       <r>   -18.2463     0.0000    20.0000 </r>
       <r>   -18.1370     0.0000    20.0000 </r>
       <r>   -18.0277     0.0000    20.0000 </r>
       <r>   -17.9184     0.0000    20.0000 </r>
       <r>   -17.8091     0.0000    20.0000 </r>
       <r>   -17.6998     0.0000    20.0000 </r>
       <r>   -17.5905     0.0000    20.0000 </r>
       <r>   -17.4812     0.0000    20.0000 </r>
       <r>   -17.3719     0.0000    20.0000 </r>
       <r>   -17.2626     0.0000    20.0000 </r>
       <r>   -17.1533     0.0000    20.0000 </r>
       <r>   -17.0440     0.0000    20.0000 </r>
       <r>   -16.9347     0.0022    20.0002 </r>
       <r>   -16.8254     1.3640    20.1493 </r>
       <r>   -16.7161     1.9894    20.3668 </r>
       <r>   -16.6068     1.8471    20.5687 </r>
       <r>   -16.4975     1.9298    20.7796 </r>
       <r>   -16.3882     2.3845    21.0402 </r>
       <r>   -16.2789     2.1054    21.2703 </r>
       <r>   -16.1696     2.4414    21.5372 </r>
       <r>   -16.0603     2.8241    21.8458 </r>
       <r>   -15.9510     3.8464    22.2662 </r>
       <r>   -15.8417     3.0832    22.6032 </r>
       <r>   -15.7324     3.0084    22.9321 </r>
       <r>   -15.6231     1.5246    23.0987 </r>
       <r>   -15.5138     2.0837    23.3264 </r>
       <r>   -15.4045     1.1802    23.4554 </r>
       <r>   -15.2952     5.8724    24.0973 </r>
       <r>   -15.1859     8.2782    25.0021 </r>
       <r>   -15.0766    13.9972    26.5319 </r>
       <r>   -14.9673     8.1779    27.4258 </r>
       <r>   -14.8580     3.4790    27.8060 </r>
       <r>   -14.7487     1.7451    27.9968 </r>
       <r>   -14.6394     0.0295    28.0000 </r>
       <r>   -14.5301     0.0000    28.0000 </r>
       <r>   -14.4208     0.0000    28.0000 </r>
       <r>   -14.3115     0.0000    28.0000 </r>
       <r>   -14.2022     0.0000    28.0000 </r>
       <r>   -14.0929     0.0000    28.0000 </r>
       <r>   -13.9836     0.0000    28.0000 </r>
       <r>   -13.8743     0.0000    28.0000 </r>
       <r>   -13.7650     0.0000    28.0000 </r>
       <r>   -13.6557     0.0000    28.0000 </r>
       <r>   -13.5464     0.0000    28.0000 </r>
       <r>   -13.4371     0.0000    28.0000 </r>
       <r>   -13.3278     0.0000    28.0000 </r>
       <r>   -13.2185     0.0000    28.0000 </r>
       <r>   -13.1092     0.0000    28.0000 </r>
       <r>   -12.9999     0.0000    28.0000 </r>
       <r>   -12.8906     0.0000    28.0000 </r>
       <r>   -12.7813     0.0000    28.0000 </r>
       <r>   -12.6720     0.0000    28.0000 </r>
       <r>   -12.5628     0.0000    28.0000 </r>
       <r>   -12.4535     0.0000    28.0000 </r>
       <r>   -12.3442     0.0000    28.0000 </r>
       <r>   -12.2349     0.0000    28.0000 </r>
       <r>   -12.1256     0.0000    28.0000 </r>
       <r>   -12.0163     0.0000    28.0000 </r>
       <r>   -11.9070     0.0000    28.0000 </r>
       <r>   -11.7977     0.0339    28.0037 </r>
       <r>   -11.6884     0.6480    28.0745 </r>
       <r>   -11.5791     0.5536    28.1350 </r>
       <r>   -11.4698     0.7589    28.2180 </r>
       <r>   -11.3605     0.9154    28.3180 </r>
       <r>   -11.2512     1.0329    28.4309 </r>
       <r>   -11.1419     1.4880    28.5936 </r>
       <r>   -11.0326     0.4831    28.6464 </r>
       <r>   -10.9233     3.0907    28.9842 </r>
       <r>   -10.8140     1.8160    29.1827 </r>
       <r>   -10.7047     3.9532    29.6148 </r>
       <r>   -10.5954     2.5155    29.8897 </r>
       <r>   -10.4861     1.7532    30.0813 </r>
       <r>   -10.3768     2.4300    30.3469 </r>
       <r>   -10.2675     1.2415    30.4826 </r>
       <r>   -10.1582     1.7090    30.6694 </r>
       <r>   -10.0489     1.1792    30.7983 </r>
       <r>    -9.9396     1.3930    30.9505 </r>
       <r>    -9.8303     1.2666    31.0890 </r>
       <r>    -9.7210     1.3769    31.2395 </r>
       <r>    -9.6117     1.5494    31.4088 </r>
       <r>    -9.5024     1.2823    31.5490 </r>
       <r>    -9.3931     1.3866    31.7005 </r>
       <r>    -9.2838     1.6843    31.8846 </r>
       <r>    -9.1745     1.0555    32.0000 </r>
       <r>    -9.0652     0.0001    32.0000 </r>
       <r>    -8.9559     0.0000    32.0000 </r>
       <r>    -8.8466     0.0000    32.0000 </r>
       <r>    -8.7373     0.0000    32.0000 </r>
       <r>    -8.6280     0.0000    32.0000 </r>
       <r>    -8.5187     0.0000    32.0000 </r>
       <r>    -8.4094     0.0000    32.0000 </r>
       <r>    -8.3001     0.0000    32.0000 </r>
       <r>    -8.1908     0.0000    32.0000 </r>
       <r>    -8.0815     0.0000    32.0000 </r>
       <r>    -7.9722     0.0000    32.0000 </r>
       <r>    -7.8629     0.0000    32.0000 </r>
       <r>    -7.7536     0.0000    32.0000 </r>
       <r>    -7.6443     0.0000    32.0000 </r>
       <r>    -7.5350     0.0000    32.0000 </r>
       <r>    -7.4257     1.3649    32.1492 </r>
       <r>    -7.3164     2.5900    32.4323 </r>
       <r>    -7.2071     2.2495    32.6781 </r>
       <r>    -7.0978     1.8711    32.8826 </r>
       <r>    -6.9885     1.8051    33.0799 </r>
       <r>    -6.8792     2.4178    33.3442 </r>
       <r>    -6.7699    10.5973    34.5025 </r>
       <r>    -6.6606     5.1968    35.0705 </r>
       <r>    -6.5513     2.0470    35.2942 </r>
       <r>    -6.4420     1.9130    35.5033 </r>
       <r>    -6.3328     2.4418    35.7702 </r>
       <r>    -6.2235     4.1364    36.2223 </r>
       <r>    -6.1142     7.2361    37.0132 </r>
       <r>    -6.0049     4.0799    37.4591 </r>
       <r>    -5.8956     4.5022    37.9512 </r>
       <r>    -5.7863     3.7363    38.3596 </r>
       <r>    -5.6770     4.6212    38.8647 </r>
       <r>    -5.5677     4.7520    39.3841 </r>
       <r>    -5.4584     7.4858    40.2023 </r>
       <r>    -5.3491     8.5597    41.1378 </r>
       <r>    -5.2398     6.5870    41.8578 </r>
       <r>    -5.1305     6.1852    42.5338 </r>
       <r>    -5.0212     5.1292    43.0944 </r>
       <r>    -4.9119     3.0489    43.4277 </r>
       <r>    -4.8026     2.8418    43.7383 </r>
       <r>    -4.6933     3.3477    44.1042 </r>
       <r>    -4.5840     3.8246    44.5222 </r>
       <r>    -4.4747     2.1322    44.7553 </r>
       <r>    -4.3654     5.1038    45.3131 </r>
       <r>    -4.2561     6.7368    46.0494 </r>
       <r>    -4.1468     3.8042    46.4652 </r>
       <r>    -4.0375     4.7129    46.9803 </r>
       <r>    -3.9282     3.7121    47.3861 </r>
       <r>    -3.8189     3.5728    47.7766 </r>
       <r>    -3.7096     3.5737    48.1671 </r>
       <r>    -3.6003     2.7608    48.4689 </r>
       <r>    -3.4910     2.9414    48.7904 </r>
       <r>    -3.3817     2.9049    49.1079 </r>
       <r>    -3.2724     2.8890    49.4237 </r>
       <r>    -3.1631     2.4361    49.6899 </r>
       <r>    -3.0538     3.2229    50.0422 </r>
       <r>    -2.9445     3.4069    50.4146 </r>
       <r>    -2.8352     3.9165    50.8426 </r>
       <r>    -2.7259     4.5848    51.3437 </r>
       <r>    -2.6166     3.6265    51.7401 </r>
       <r>    -2.5073     2.2896    51.9904 </r>
       <r>    -2.3980     0.0882    52.0000 </r>
       <r>    -2.2887     0.0000    52.0000 </r>
       <r>    -2.1794     0.0000    52.0000 </r>
       <r>    -2.0701     0.0000    52.0000 </r>
       <r>    -1.9608     0.0000    52.0000 </r>
       <r>    -1.8515     0.0221    52.0024 </r>
       <r>    -1.7422     0.1853    52.0227 </r>
       <r>    -1.6329     0.6279    52.0913 </r>
       <r>    -1.5236     1.7910    52.2871 </r>
       <r>    -1.4143     3.6075    52.6813 </r>
       <r>    -1.3050     3.8643    53.1037 </r>
       <r>    -1.1957     3.4728    53.4833 </r>
       <r>    -1.0864     4.0648    53.9276 </r>
       <r>    -0.9771     2.9738    54.2526 </r>
       <r>    -0.8678     4.9171    54.7900 </r>
       <r>    -0.7585     4.1787    55.2468 </r>
       <r>    -0.6492     3.0169    55.5765 </r>
       <r>    -0.5399     2.1111    55.8072 </r>
       <r>    -0.4306     2.0309    56.0292 </r>
       <r>    -0.3213     1.1359    56.1534 </r>
       <r>    -0.2121     0.4271    56.2001 </r>
       <r>    -0.1028     0.1403    56.2154 </r>
       <r>     0.0065     0.1747    56.2345 </r>
       <r>     0.1158     0.3297    56.2705 </r>
       <r>     0.2251     1.5714    56.4423 </r>
       <r>     0.3344     1.6042    56.6176 </r>
       <r>     0.4437     1.6388    56.7967 </r>
       <r>     0.5530     2.5112    57.0712 </r>
       <r>     0.6623     1.8430    57.2726 </r>
       <r>     0.7716     4.1322    57.7243 </r>
       <r>     0.8809     2.9897    58.0510 </r>
       <r>     0.9902     5.7231    58.6766 </r>
       <r>     1.0995     8.1191    59.5640 </r>
       <r>     1.2088     7.6340    60.3984 </r>
       <r>     1.3181     5.8523    61.0380 </r>
       <r>     1.4274     7.7946    61.8900 </r>
       <r>     1.5367     5.2828    62.4674 </r>
       <r>     1.6460     6.0821    63.1321 </r>
       <r>     1.7553     3.9891    63.5681 </r>
       <r>     1.8646     2.5175    63.8433 </r>
       <r>     1.9739     1.0216    63.9550 </r>
       <r>     2.0832     0.4121    64.0000 </r>
       <r>     2.1925     0.0000    64.0000 </r>
       <r>     2.3018     0.0000    64.0000 </r>
       <r>     2.4111     0.0000    64.0000 </r>
       <r>     2.5204     0.0000    64.0000 </r>
       <r>     2.6297     0.0000    64.0000 </r>
       <r>     2.7390     0.0000    64.0000 </r>
       <r>     2.8483     0.0000    64.0000 </r>
       <r>     2.9576     0.0000    64.0000 </r>
       <r>     3.0669     0.0000    64.0000 </r>
       <r>     3.1762     0.0000    64.0000 </r>
       <r>     3.2855     0.0000    64.0000 </r>
       <r>     3.3948     0.0000    64.0000 </r>
       <r>     3.5041     0.0000    64.0000 </r>
      </set>
     </set>
    </array>
   </total>
  </dos>
 </calculation>
 <structure name="finalpos" >
  <crystal>
   <varray name="basis" >
    <v>       4.90601600      -0.02453100       0.00000000 </v>
    <v>      -0.02785600       5.57113200       0.00000000 </v>
    <v>       0.00000000       0.00000000      18.07929100 </v>
   </varray>
   <i name="volume">    494.13196151 </i>
   <varray name="rec_basis" >
    <v>       0.20383647       0.00101919       0.00000000 </v>
    <v>       0.00089754       0.17950122       0.00000000 </v>
    <v>       0.00000000       0.00000000       0.05531190 </v>
   </varray>
  </crystal>
  <varray name="positions" >
   <v>       0.50000000       0.50000000       0.50015748 </v>
   <v>       0.00000000      -0.00000000       0.50015748 </v>
   <v>       0.25000000       0.25000000       0.41494687 </v>
   <v>       0.75000000       0.75000000       0.41494687 </v>
   <v>       0.75000000       0.25000000       0.58489565 </v>
   <v>       0.25000000       0.75000000       0.58489565 </v>
  </varray>
 </structure>
</modeling>
