<?xml version="1.0" encoding="ISO-8859-1"?>
<modeling>
 <generator>
  <i name="program" type="string">vasp </i>
  <i name="version" type="string">5.4.1  </i>
  <i name="subversion" type="string">24Jun15 (build Nov 20 2020 10:29:34) complex                          parallel </i>
  <i name="platform" type="string">IFC91_ompi </i>
  <i name="date" type="string">2021 09 09 </i>
  <i name="time" type="string">15:16:22 </i>
 </generator>
 <incar>
  <i type="string" name="PREC">a</i>
  <i type="string" name="ALGO"> Normal</i>
  <i type="int" name="ISPIN">     1</i>
  <i type="int" name="ICHARG">     2</i>
  <i type="int" name="NELM">   250</i>
  <i type="int" name="NELMDL">    -5</i>
  <i type="int" name="NELMIN">     6</i>
  <i type="int" name="IBRION">     2</i>
  <i name="EDIFF">      0.00001000</i>
  <i name="EDIFFG">     -0.01000000</i>
  <i type="int" name="NSW">   200</i>
  <i type="int" name="ISIF">     2</i>
  <i name="ENCUT">    520.00000000</i>
  <i name="POTIM">      0.30000000</i>
  <i type="logical" name="LREAL"> F  </i>
  <i type="int" name="ISMEAR">     0</i>
  <i name="SIGMA">      0.02000000</i>
  <i type="logical" name="LWAVE"> F  </i>
  <i type="logical" name="LCHARG"> F  </i>
  <i type="logical" name="LAECHG"> F  </i>
  <v type="int" name="KPOINT_BSE">    -1     0     0     0</v>
  <i type="int" name="NELM">   250</i>
 </incar>
 <kpoints>
  <generation param="Gamma">
   <v type="int" name="divisions">      20       16        1 </v>
   <v name="usershift">      0.00000000       0.00000000       0.00000000 </v>
   <v name="genvec1">      0.05000000       0.00000000       0.00000000 </v>
   <v name="genvec2">      0.00000000       0.06250000       0.00000000 </v>
   <v name="genvec3">      0.00000000       0.00000000       1.00000000 </v>
   <v name="shift">      0.00000000       0.00000000       0.00000000 </v>
  </generation>
  <varray name="kpointlist" >
   <v>       0.00000000       0.00000000       0.00000000 </v>
   <v>       0.05000000       0.00000000       0.00000000 </v>
   <v>       0.10000000       0.00000000       0.00000000 </v>
   <v>       0.15000000       0.00000000       0.00000000 </v>
   <v>       0.20000000       0.00000000       0.00000000 </v>
   <v>       0.25000000       0.00000000       0.00000000 </v>
   <v>       0.30000000       0.00000000       0.00000000 </v>
   <v>       0.35000000       0.00000000       0.00000000 </v>
   <v>       0.40000000       0.00000000       0.00000000 </v>
   <v>       0.45000000       0.00000000       0.00000000 </v>
   <v>       0.50000000       0.00000000       0.00000000 </v>
   <v>       0.00000000       0.06250000       0.00000000 </v>
   <v>       0.05000000       0.06250000       0.00000000 </v>
   <v>       0.10000000       0.06250000       0.00000000 </v>
   <v>       0.15000000       0.06250000       0.00000000 </v>
   <v>       0.20000000       0.06250000       0.00000000 </v>
   <v>       0.25000000       0.06250000       0.00000000 </v>
   <v>       0.30000000       0.06250000       0.00000000 </v>
   <v>       0.35000000       0.06250000       0.00000000 </v>
   <v>       0.40000000       0.06250000       0.00000000 </v>
   <v>       0.45000000       0.06250000       0.00000000 </v>
   <v>       0.50000000       0.06250000       0.00000000 </v>
   <v>      -0.45000000       0.06250000       0.00000000 </v>
   <v>      -0.40000000       0.06250000       0.00000000 </v>
   <v>      -0.35000000       0.06250000       0.00000000 </v>
   <v>      -0.30000000       0.06250000       0.00000000 </v>
   <v>      -0.25000000       0.06250000       0.00000000 </v>
   <v>      -0.20000000       0.06250000       0.00000000 </v>
   <v>      -0.15000000       0.06250000       0.00000000 </v>
   <v>      -0.10000000       0.06250000       0.00000000 </v>
   <v>      -0.05000000       0.06250000       0.00000000 </v>
   <v>       0.00000000       0.12500000       0.00000000 </v>
   <v>       0.05000000       0.12500000       0.00000000 </v>
   <v>       0.10000000       0.12500000       0.00000000 </v>
   <v>       0.15000000       0.12500000       0.00000000 </v>
   <v>       0.20000000       0.12500000       0.00000000 </v>
   <v>       0.25000000       0.12500000       0.00000000 </v>
   <v>       0.30000000       0.12500000       0.00000000 </v>
   <v>       0.35000000       0.12500000       0.00000000 </v>
   <v>       0.40000000       0.12500000       0.00000000 </v>
   <v>       0.45000000       0.12500000       0.00000000 </v>
   <v>       0.50000000       0.12500000       0.00000000 </v>
   <v>      -0.45000000       0.12500000       0.00000000 </v>
   <v>      -0.40000000       0.12500000       0.00000000 </v>
   <v>      -0.35000000       0.12500000       0.00000000 </v>
   <v>      -0.30000000       0.12500000       0.00000000 </v>
   <v>      -0.25000000       0.12500000       0.00000000 </v>
   <v>      -0.20000000       0.12500000       0.00000000 </v>
   <v>      -0.15000000       0.12500000       0.00000000 </v>
   <v>      -0.10000000       0.12500000       0.00000000 </v>
   <v>      -0.05000000       0.12500000       0.00000000 </v>
   <v>       0.00000000       0.18750000       0.00000000 </v>
   <v>       0.05000000       0.18750000       0.00000000 </v>
   <v>       0.10000000       0.18750000       0.00000000 </v>
   <v>       0.15000000       0.18750000       0.00000000 </v>
   <v>       0.20000000       0.18750000       0.00000000 </v>
   <v>       0.25000000       0.18750000       0.00000000 </v>
   <v>       0.30000000       0.18750000       0.00000000 </v>
   <v>       0.35000000       0.18750000       0.00000000 </v>
   <v>       0.40000000       0.18750000       0.00000000 </v>
   <v>       0.45000000       0.18750000       0.00000000 </v>
   <v>       0.50000000       0.18750000       0.00000000 </v>
   <v>      -0.45000000       0.18750000       0.00000000 </v>
   <v>      -0.40000000       0.18750000       0.00000000 </v>
   <v>      -0.35000000       0.18750000       0.00000000 </v>
   <v>      -0.30000000       0.18750000       0.00000000 </v>
   <v>      -0.25000000       0.18750000       0.00000000 </v>
   <v>      -0.20000000       0.18750000       0.00000000 </v>
   <v>      -0.15000000       0.18750000       0.00000000 </v>
   <v>      -0.10000000       0.18750000       0.00000000 </v>
   <v>      -0.05000000       0.18750000       0.00000000 </v>
   <v>       0.00000000       0.25000000       0.00000000 </v>
   <v>       0.05000000       0.25000000       0.00000000 </v>
   <v>       0.10000000       0.25000000       0.00000000 </v>
   <v>       0.15000000       0.25000000       0.00000000 </v>
   <v>       0.20000000       0.25000000       0.00000000 </v>
   <v>       0.25000000       0.25000000       0.00000000 </v>
   <v>       0.30000000       0.25000000       0.00000000 </v>
   <v>       0.35000000       0.25000000       0.00000000 </v>
   <v>       0.40000000       0.25000000       0.00000000 </v>
   <v>       0.45000000       0.25000000       0.00000000 </v>
   <v>       0.50000000       0.25000000       0.00000000 </v>
   <v>      -0.45000000       0.25000000       0.00000000 </v>
   <v>      -0.40000000       0.25000000       0.00000000 </v>
   <v>      -0.35000000       0.25000000       0.00000000 </v>
   <v>      -0.30000000       0.25000000       0.00000000 </v>
   <v>      -0.25000000       0.25000000       0.00000000 </v>
   <v>      -0.20000000       0.25000000       0.00000000 </v>
   <v>      -0.15000000       0.25000000       0.00000000 </v>
   <v>      -0.10000000       0.25000000       0.00000000 </v>
   <v>      -0.05000000       0.25000000       0.00000000 </v>
   <v>       0.00000000       0.31250000       0.00000000 </v>
   <v>       0.05000000       0.31250000       0.00000000 </v>
   <v>       0.10000000       0.31250000       0.00000000 </v>
   <v>       0.15000000       0.31250000       0.00000000 </v>
   <v>       0.20000000       0.31250000       0.00000000 </v>
   <v>       0.25000000       0.31250000       0.00000000 </v>
   <v>       0.30000000       0.31250000       0.00000000 </v>
   <v>       0.35000000       0.31250000       0.00000000 </v>
   <v>       0.40000000       0.31250000       0.00000000 </v>
   <v>       0.45000000       0.31250000       0.00000000 </v>
   <v>       0.50000000       0.31250000       0.00000000 </v>
   <v>      -0.45000000       0.31250000       0.00000000 </v>
   <v>      -0.40000000       0.31250000       0.00000000 </v>
   <v>      -0.35000000       0.31250000       0.00000000 </v>
   <v>      -0.30000000       0.31250000       0.00000000 </v>
   <v>      -0.25000000       0.31250000       0.00000000 </v>
   <v>      -0.20000000       0.31250000       0.00000000 </v>
   <v>      -0.15000000       0.31250000       0.00000000 </v>
   <v>      -0.10000000       0.31250000       0.00000000 </v>
   <v>      -0.05000000       0.31250000       0.00000000 </v>
   <v>       0.00000000       0.37500000       0.00000000 </v>
   <v>       0.05000000       0.37500000       0.00000000 </v>
   <v>       0.10000000       0.37500000       0.00000000 </v>
   <v>       0.15000000       0.37500000       0.00000000 </v>
   <v>       0.20000000       0.37500000       0.00000000 </v>
   <v>       0.25000000       0.37500000       0.00000000 </v>
   <v>       0.30000000       0.37500000       0.00000000 </v>
   <v>       0.35000000       0.37500000       0.00000000 </v>
   <v>       0.40000000       0.37500000       0.00000000 </v>
   <v>       0.45000000       0.37500000       0.00000000 </v>
   <v>       0.50000000       0.37500000       0.00000000 </v>
   <v>      -0.45000000       0.37500000       0.00000000 </v>
   <v>      -0.40000000       0.37500000       0.00000000 </v>
   <v>      -0.35000000       0.37500000       0.00000000 </v>
   <v>      -0.30000000       0.37500000       0.00000000 </v>
   <v>      -0.25000000       0.37500000       0.00000000 </v>
   <v>      -0.20000000       0.37500000       0.00000000 </v>
   <v>      -0.15000000       0.37500000       0.00000000 </v>
   <v>      -0.10000000       0.37500000       0.00000000 </v>
   <v>      -0.05000000       0.37500000       0.00000000 </v>
   <v>       0.00000000       0.43750000       0.00000000 </v>
   <v>       0.05000000       0.43750000       0.00000000 </v>
   <v>       0.10000000       0.43750000       0.00000000 </v>
   <v>       0.15000000       0.43750000       0.00000000 </v>
   <v>       0.20000000       0.43750000       0.00000000 </v>
   <v>       0.25000000       0.43750000       0.00000000 </v>
   <v>       0.30000000       0.43750000       0.00000000 </v>
   <v>       0.35000000       0.43750000       0.00000000 </v>
   <v>       0.40000000       0.43750000       0.00000000 </v>
   <v>       0.45000000       0.43750000       0.00000000 </v>
   <v>       0.50000000       0.43750000       0.00000000 </v>
   <v>      -0.45000000       0.43750000       0.00000000 </v>
   <v>      -0.40000000       0.43750000       0.00000000 </v>
   <v>      -0.35000000       0.43750000       0.00000000 </v>
   <v>      -0.30000000       0.43750000       0.00000000 </v>
   <v>      -0.25000000       0.43750000       0.00000000 </v>
   <v>      -0.20000000       0.43750000       0.00000000 </v>
   <v>      -0.15000000       0.43750000       0.00000000 </v>
   <v>      -0.10000000       0.43750000       0.00000000 </v>
   <v>      -0.05000000       0.43750000       0.00000000 </v>
   <v>       0.00000000       0.50000000       0.00000000 </v>
   <v>       0.05000000       0.50000000       0.00000000 </v>
   <v>       0.10000000       0.50000000       0.00000000 </v>
   <v>       0.15000000       0.50000000       0.00000000 </v>
   <v>       0.20000000       0.50000000       0.00000000 </v>
   <v>       0.25000000       0.50000000       0.00000000 </v>
   <v>       0.30000000       0.50000000       0.00000000 </v>
   <v>       0.35000000       0.50000000       0.00000000 </v>
   <v>       0.40000000       0.50000000       0.00000000 </v>
   <v>       0.45000000       0.50000000       0.00000000 </v>
   <v>       0.50000000       0.50000000       0.00000000 </v>
  </varray>
  <varray name="weights" >
   <v>       0.00312500 </v>
   <v>       0.00625000 </v>
   <v>       0.00625000 </v>
   <v>       0.00625000 </v>
   <v>       0.00625000 </v>
   <v>       0.00625000 </v>
   <v>       0.00625000 </v>
   <v>       0.00625000 </v>
   <v>       0.00625000 </v>
   <v>       0.00625000 </v>
   <v>       0.00312500 </v>
   <v>       0.00625000 </v>
   <v>       0.00625000 </v>
   <v>       0.00625000 </v>
   <v>       0.00625000 </v>
   <v>       0.00625000 </v>
   <v>       0.00625000 </v>
   <v>       0.00625000 </v>
   <v>       0.00625000 </v>
   <v>       0.00625000 </v>
   <v>       0.00625000 </v>
   <v>       0.00625000 </v>
   <v>       0.00625000 </v>
   <v>       0.00625000 </v>
   <v>       0.00625000 </v>
   <v>       0.00625000 </v>
   <v>       0.00625000 </v>
   <v>       0.00625000 </v>
   <v>       0.00625000 </v>
   <v>       0.00625000 </v>
   <v>       0.00625000 </v>
   <v>       0.00625000 </v>
   <v>       0.00625000 </v>
   <v>       0.00625000 </v>
   <v>       0.00625000 </v>
   <v>       0.00625000 </v>
   <v>       0.00625000 </v>
   <v>       0.00625000 </v>
   <v>       0.00625000 </v>
   <v>       0.00625000 </v>
   <v>       0.00625000 </v>
   <v>       0.00625000 </v>
   <v>       0.00625000 </v>
   <v>       0.00625000 </v>
   <v>       0.00625000 </v>
   <v>       0.00625000 </v>
   <v>       0.00625000 </v>
   <v>       0.00625000 </v>
   <v>       0.00625000 </v>
   <v>       0.00625000 </v>
   <v>       0.00625000 </v>
   <v>       0.00625000 </v>
   <v>       0.00625000 </v>
   <v>       0.00625000 </v>
   <v>       0.00625000 </v>
   <v>       0.00625000 </v>
   <v>       0.00625000 </v>
   <v>       0.00625000 </v>
   <v>       0.00625000 </v>
   <v>       0.00625000 </v>
   <v>       0.00625000 </v>
   <v>       0.00625000 </v>
   <v>       0.00625000 </v>
   <v>       0.00625000 </v>
   <v>       0.00625000 </v>
   <v>       0.00625000 </v>
   <v>       0.00625000 </v>
   <v>       0.00625000 </v>
   <v>       0.00625000 </v>
   <v>       0.00625000 </v>
   <v>       0.00625000 </v>
   <v>       0.00625000 </v>
   <v>       0.00625000 </v>
   <v>       0.00625000 </v>
   <v>       0.00625000 </v>
   <v>       0.00625000 </v>
   <v>       0.00625000 </v>
   <v>       0.00625000 </v>
   <v>       0.00625000 </v>
   <v>       0.00625000 </v>
   <v>       0.00625000 </v>
   <v>       0.00625000 </v>
   <v>       0.00625000 </v>
   <v>       0.00625000 </v>
   <v>       0.00625000 </v>
   <v>       0.00625000 </v>
   <v>       0.00625000 </v>
   <v>       0.00625000 </v>
   <v>       0.00625000 </v>
   <v>       0.00625000 </v>
   <v>       0.00625000 </v>
   <v>       0.00625000 </v>
   <v>       0.00625000 </v>
   <v>       0.00625000 </v>
   <v>       0.00625000 </v>
   <v>       0.00625000 </v>
   <v>       0.00625000 </v>
   <v>       0.00625000 </v>
   <v>       0.00625000 </v>
   <v>       0.00625000 </v>
   <v>       0.00625000 </v>
   <v>       0.00625000 </v>
   <v>       0.00625000 </v>
   <v>       0.00625000 </v>
   <v>       0.00625000 </v>
   <v>       0.00625000 </v>
   <v>       0.00625000 </v>
   <v>       0.00625000 </v>
   <v>       0.00625000 </v>
   <v>       0.00625000 </v>
   <v>       0.00625000 </v>
   <v>       0.00625000 </v>
   <v>       0.00625000 </v>
   <v>       0.00625000 </v>
   <v>       0.00625000 </v>
   <v>       0.00625000 </v>
   <v>       0.00625000 </v>
   <v>       0.00625000 </v>
   <v>       0.00625000 </v>
   <v>       0.00625000 </v>
   <v>       0.00625000 </v>
   <v>       0.00625000 </v>
   <v>       0.00625000 </v>
   <v>       0.00625000 </v>
   <v>       0.00625000 </v>
   <v>       0.00625000 </v>
   <v>       0.00625000 </v>
   <v>       0.00625000 </v>
   <v>       0.00625000 </v>
   <v>       0.00625000 </v>
   <v>       0.00625000 </v>
   <v>       0.00625000 </v>
   <v>       0.00625000 </v>
   <v>       0.00625000 </v>
   <v>       0.00625000 </v>
   <v>       0.00625000 </v>
   <v>       0.00625000 </v>
   <v>       0.00625000 </v>
   <v>       0.00625000 </v>
   <v>       0.00625000 </v>
   <v>       0.00625000 </v>
   <v>       0.00625000 </v>
   <v>       0.00625000 </v>
   <v>       0.00625000 </v>
   <v>       0.00625000 </v>
   <v>       0.00625000 </v>
   <v>       0.00625000 </v>
   <v>       0.00625000 </v>
   <v>       0.00625000 </v>
   <v>       0.00625000 </v>
   <v>       0.00625000 </v>
   <v>       0.00312500 </v>
   <v>       0.00625000 </v>
   <v>       0.00625000 </v>
   <v>       0.00625000 </v>
   <v>       0.00625000 </v>
   <v>       0.00625000 </v>
   <v>       0.00625000 </v>
   <v>       0.00625000 </v>
   <v>       0.00625000 </v>
   <v>       0.00625000 </v>
   <v>       0.00312500 </v>
  </varray>
 </kpoints>
 <parameters>
  <separator name="general" >
   <i type="string" name="SYSTEM">unknown system</i>
   <i type="logical" name="LCOMPAT"> F  </i>
  </separator>
  <separator name="electronic" >
   <i type="string" name="PREC">a</i>
   <i name="ENMAX">    520.00000000</i>
   <i name="ENAUG">    342.92400000</i>
   <i name="EDIFF">      0.00001000</i>
   <i type="int" name="IALGO">    38</i>
   <i type="int" name="IWAVPR">    11</i>
   <i type="int" name="NBANDS">    16</i>
   <i name="NELECT">     20.00000000</i>
   <i type="int" name="TURBO">     0</i>
   <i type="int" name="IRESTART">     0</i>
   <i type="int" name="NREBOOT">     0</i>
   <i type="int" name="NMIN">     0</i>
   <i name="EREF">      0.00000000</i>
   <separator name="electronic smearing" >
    <i type="int" name="ISMEAR">     0</i>
    <i name="SIGMA">      0.02000000</i>
    <i name="KSPACING">      0.50000000</i>
    <i type="logical" name="KGAMMA"> T  </i>
   </separator>
   <separator name="electronic projectors" >
    <i type="logical" name="LREAL"> F  </i>
    <v name="ROPT">      0.00000000</v>
    <i type="int" name="LMAXPAW">  -100</i>
    <i type="int" name="LMAXMIX">     2</i>
    <i type="logical" name="NLSPLINE"> F  </i>
   </separator>
   <separator name="electronic startup" >
    <i type="int" name="ISTART">     0</i>
    <i type="int" name="ICHARG">     2</i>
    <i type="int" name="INIWAV">     1</i>
   </separator>
   <separator name="electronic spin" >
    <i type="int" name="ISPIN">     1</i>
    <i type="logical" name="LNONCOLLINEAR"> F  </i>
    <v name="MAGMOM">      1.00000000      1.00000000      1.00000000      1.00000000</v>
    <i name="NUPDOWN">     -1.00000000</i>
    <i type="logical" name="LSORBIT"> F  </i>
    <v name="SAXIS">      0.00000000      0.00000000      1.00000000</v>
    <i type="logical" name="LSPIRAL"> F  </i>
    <v name="QSPIRAL">      0.00000000      0.00000000      0.00000000</v>
    <i type="logical" name="LZEROZ"> F  </i>
   </separator>
   <separator name="electronic exchange-correlation" >
    <i type="logical" name="LASPH"> F  </i>
    <i type="logical" name="LMETAGGA"> F  </i>
   </separator>
   <separator name="electronic convergence" >
    <i type="int" name="NELM">   250</i>
    <i type="int" name="NELMDL">    -5</i>
    <i type="int" name="NELMIN">     6</i>
    <i name="ENINI">    520.00000000</i>
    <separator name="electronic convergence detail" >
     <i type="logical" name="LDIAG"> T  </i>
     <i type="logical" name="LSUBROT"> F  </i>
     <i name="WEIMIN">      0.00100000</i>
     <i name="EBREAK">      0.00000016</i>
     <i name="DEPER">      0.30000000</i>
     <i type="int" name="NRMM">     4</i>
     <i name="TIME">      0.40000000</i>
    </separator>
   </separator>
   <separator name="electronic mixer" >
    <i name="AMIX">      0.40000000</i>
    <i name="BMIX">      1.00000000</i>
    <i name="AMIN">      0.10000000</i>
    <i name="AMIX_MAG">      1.60000000</i>
    <i name="BMIX_MAG">      1.00000000</i>
    <separator name="electronic mixer details" >
     <i type="int" name="IMIX">     4</i>
     <i type="logical" name="MIXFIRST"> F  </i>
     <i type="int" name="MAXMIX">   -45</i>
     <i name="WC">    100.00000000</i>
     <i type="int" name="INIMIX">     1</i>
     <i type="int" name="MIXPRE">     1</i>
     <i type="int" name="MREMOVE">     5</i>
    </separator>
   </separator>
   <separator name="electronic dipolcorrection" >
    <i type="logical" name="LDIPOL"> F  </i>
    <i type="logical" name="LMONO"> F  </i>
    <i type="int" name="IDIPOL">     0</i>
    <i name="EPSILON">      1.00000000</i>
    <v name="DIPOL">   -100.00000000   -100.00000000   -100.00000000</v>
    <i name="EFIELD">      0.00000000</i>
   </separator>
  </separator>
  <separator name="grids" >
   <i type="int" name="NGX">    28</i>
   <i type="int" name="NGY">    36</i>
   <i type="int" name="NGZ">   150</i>
   <i type="int" name="NGXF">    56</i>
   <i type="int" name="NGYF">    72</i>
   <i type="int" name="NGZF">   300</i>
   <i type="logical" name="ADDGRID"> F  </i>
  </separator>
  <separator name="ionic" >
   <i type="int" name="NSW">   200</i>
   <i type="int" name="IBRION">     2</i>
   <i type="int" name="ISIF">     2</i>
   <i name="PSTRESS">      0.00000000</i>
   <i name="EDIFFG">     -0.01000000</i>
   <i type="int" name="NFREE">     1</i>
   <i name="POTIM">      0.30000000</i>
   <i name="SMASS">     -3.00000000</i>
   <i name="SCALEE">      1.00000000</i>
  </separator>
  <separator name="ionic md" >
   <i name="TEBEG">      0.00010000</i>
   <i name="TEEND">      0.00010000</i>
   <i type="int" name="NBLOCK">     1</i>
   <i type="int" name="KBLOCK">   200</i>
   <i type="int" name="NPACO">   256</i>
   <i name="APACO">     16.00000000</i>
  </separator>
  <separator name="symmetry" >
   <i type="int" name="ISYM">     2</i>
   <i name="SYMPREC">      0.00001000</i>
  </separator>
  <separator name="dos" >
   <i type="logical" name="LORBIT"> F  </i>
   <v name="RWIGS">     -1.00000000</v>
   <i type="int" name="NEDOS">   301</i>
   <i name="EMIN">     10.00000000</i>
   <i name="EMAX">    -10.00000000</i>
   <i name="EFERMI">      0.00000000</i>
  </separator>
  <separator name="writing" >
   <i type="int" name="NWRITE">     2</i>
   <i type="logical" name="LWAVE"> F  </i>
   <i type="logical" name="LCHARG"> F  </i>
   <i type="logical" name="LPARD"> F  </i>
   <i type="logical" name="LVTOT"> F  </i>
   <i type="logical" name="LVHAR"> F  </i>
   <i type="logical" name="LELF"> F  </i>
   <i type="logical" name="LOPTICS"> F  </i>
   <v name="STM">      0.00000000      0.00000000      0.00000000      0.00000000      0.00000000      0.00000000      0.00000000</v>
  </separator>
  <separator name="performance" >
   <i type="int" name="NPAR">     4</i>
   <i type="int" name="NSIM">     4</i>
   <i type="int" name="NBLK">    -1</i>
   <i type="logical" name="LPLANE"> T  </i>
   <i type="logical" name="LSCALAPACK"> T  </i>
   <i type="logical" name="LSCAAWARE"> F  </i>
   <i type="logical" name="LSCALU"> F  </i>
   <i type="logical" name="LASYNC"> F  </i>
   <i type="logical" name="LORBITALREAL"> F  </i>
  </separator>
  <separator name="miscellaneous" >
   <i type="int" name="IDIOT">     3</i>
   <i type="logical" name="LMUSIC"> F  </i>
   <v name="POMASS">     30.97400000</v>
   <v name="DARWINR">      0.00000000</v>
   <v name="DARWINV">      1.00000000</v>
   <i type="logical" name="LCORR"> T  </i>
  </separator>
  <i type="logical" name="GGA_COMPAT"> T  </i>
  <i type="logical" name="LBERRY"> F  </i>
  <i type="int" name="ICORELEVEL">     0</i>
  <i type="logical" name="LDAU"> F  </i>
  <i type="int" name="I_CONSTRAINED_M">     0</i>
  <separator name="electronic exchange-correlation" >
   <i type="string" name="GGA">--</i>
   <i type="int" name="VOSKOWN">     0</i>
   <i type="logical" name="LHFCALC"> F  </i>
   <i type="string" name="PRECFOCK"></i>
   <i type="logical" name="LSYMGRAD"> F  </i>
   <i type="logical" name="LHFONE"> F  </i>
   <i type="logical" name="LRHFCALC"> F  </i>
   <i type="logical" name="LTHOMAS"> F  </i>
   <i type="logical" name="LMODELHF"> F  </i>
   <i name="ENCUT4O">     -1.00000000</i>
   <i type="int" name="EXXOEP">     0</i>
   <i type="int" name="FOURORBIT">     0</i>
   <i name="AEXX">      0.00000000</i>
   <i name="HFALPHA">      0.00000000</i>
   <i name="MCALPHA">      0.00000000</i>
   <i name="ALDAX">      1.00000000</i>
   <i name="AGGAX">      1.00000000</i>
   <i name="ALDAC">      1.00000000</i>
   <i name="AGGAC">      1.00000000</i>
   <i type="int" name="NKREDX">     1</i>
   <i type="int" name="NKREDY">     1</i>
   <i type="int" name="NKREDZ">     1</i>
   <i type="logical" name="SHIFTRED"> F  </i>
   <i type="logical" name="ODDONLY"> F  </i>
   <i type="logical" name="EVENONLY"> F  </i>
   <i type="int" name="LMAXFOCK">     0</i>
   <i type="int" name="NMAXFOCKAE">     0</i>
   <i type="logical" name="LFOCKAEDFT"> F  </i>
   <i name="HFSCREEN">      0.00000000</i>
   <i name="HFSCREENC">      0.00000000</i>
   <i type="int" name="NBANDSGWLOW">     0</i>
  </separator>
  <separator name="vdW DFT" >
   <i type="logical" name="LUSE_VDW"> F  </i>
   <i name="Zab_VDW">     -0.84910000</i>
   <i name="PARAM1">      0.12340000</i>
   <i name="PARAM2">      1.00000000</i>
   <i name="PARAM3">      0.00000000</i>
  </separator>
  <separator name="model GW" >
   <i type="int" name="MODEL_GW">     0</i>
   <i name="MODEL_EPS0">     49.73867386</i>
   <i name="MODEL_ALPHA">      1.00000000</i>
  </separator>
  <separator name="linear response parameters" >
   <i type="logical" name="LEPSILON"> F  </i>
   <i type="logical" name="LRPA"> F  </i>
   <i type="logical" name="LNABLA"> F  </i>
   <i type="logical" name="LVEL"> F  </i>
   <i type="int" name="KINTER">     0</i>
   <i name="CSHIFT">      0.10000000</i>
   <i name="OMEGAMAX">     -1.00000000</i>
   <i name="DEG_THRESHOLD">      0.00200000</i>
  </separator>
  <separator name="orbital magnetization" >
   <i type="logical" name="NUCIND"> F  </i>
   <v name="MAGPOS">      0.00000000      0.00000000      0.00000000</v>
   <i type="logical" name="LNICSALL"> T  </i>
   <i type="logical" name="ORBITALMAG"> F  </i>
   <i type="logical" name="LMAGBLOCH"> F  </i>
   <i type="logical" name="LCHIMAG"> F  </i>
   <i type="logical" name="LGAUGE"> T  </i>
   <i type="int" name="MAGATOM">     0</i>
   <v name="MAGDIPOL">      0.00000000      0.00000000      0.00000000</v>
   <v name="AVECCONST">      0.00000000      0.00000000      0.00000000</v>
  </separator>
  <separator name="response functions" >
   <i type="logical" name="LADDER"> F  </i>
   <i type="logical" name="LFXC"> F  </i>
   <i type="logical" name="LHARTREE"> T  </i>
   <i type="int" name="IBSE">     0</i>
   <v type="int" name="KPOINT">    -1     0     0     0</v>
   <i type="logical" name="LTCTE"> F  </i>
   <i type="logical" name="LTETE"> F  </i>
   <i type="logical" name="LTRIPLET"> F  </i>
   <i type="logical" name="LFXCEPS"> F  </i>
   <i type="logical" name="LFXHEG"> F  </i>
   <i type="int" name="NATURALO">     0</i>
   <i type="logical" name="L2ORDER"> F  </i>
   <i type="logical" name="LUSEW"> F  </i>
   <i name="ENCUTGW">     -2.00000000</i>
   <i name="ENCUTGWSOFT">     -2.00000000</i>
   <i name="ENCUTLF">     -1.00000000</i>
   <i type="int" name="LMAXMP2">    -1</i>
   <i name="SCISSOR">      0.00000000</i>
   <i type="int" name="NOMEGA">     0</i>
   <i type="int" name="NOMEGAR">     0</i>
   <i type="int" name="NBANDSGW">    -1</i>
   <i type="int" name="NBANDSO">    -1</i>
   <i type="int" name="NBANDSV">    -1</i>
   <i type="int" name="NELM">   250</i>
   <i type="int" name="NELMHF">     1</i>
   <i type="int" name="DIM">     3</i>
   <i type="int" name="ANTIRES">     0</i>
   <i name="OMEGAMAX">    -30.00000000</i>
   <i name="OMEGAMIN">    -30.00000000</i>
   <i name="OMEGATL">   -200.00000000</i>
   <i type="int" name="OMEGAGRID">     0</i>
   <i name="CSHIFT">     -0.10000000</i>
   <i type="logical" name="SELFENERGY"> F  </i>
   <i type="logical" name="LSPECTRAL"> F  </i>
   <i type="logical" name="LSPECTRALGW"> F  </i>
   <i type="logical" name="LSINGLES"> F  </i>
   <i type="logical" name="LFERMIGW"> F  </i>
   <i type="logical" name="ODDONLYGW"> F  </i>
   <i type="logical" name="EVENONLYGW"> F  </i>
   <i type="int" name="NKREDLFX">     1</i>
   <i type="int" name="NKREDLFY">     1</i>
   <i type="int" name="NKREDLFZ">     1</i>
   <i type="int" name="MAXMEM">  1800</i>
   <i type="int" name="TELESCOPE">     0</i>
   <i type="int" name="TAUPAR">     1</i>
   <i type="int" name="OMEGAPAR">    -1</i>
   <i name="LAMBDA">      1.00000000</i>
  </separator>
  <separator name="External order field" >
   <i name="OFIELD_KAPPA">      0.00000000</i>
   <v name="OFIELD_K">      0.00000000      0.00000000      0.00000000</v>
   <i name="OFIELD_Q6_NEAR">      0.00000000</i>
   <i name="OFIELD_Q6_FAR">      0.00000000</i>
   <i name="OFIELD_A">      0.00000000</i>
  </separator>
 </parameters>
 <atominfo>
  <atoms>       4 </atoms>
  <types>       1 </types>
  <array name="atoms" >
   <dimension dim="1">ion</dimension>
   <field type="string">element</field>
   <field type="int">atomtype</field>
   <set>
    <rc><c>P </c><c>   1</c></rc>
    <rc><c>P </c><c>   1</c></rc>
    <rc><c>P </c><c>   1</c></rc>
    <rc><c>P </c><c>   1</c></rc>
   </set>
  </array>
  <array name="atomtypes" >
   <dimension dim="1">type</dimension>
   <field type="int">atomspertype</field>
   <field type="string">element</field>
   <field>mass</field>
   <field>valence</field>
   <field type="string">pseudopotential</field>
   <set>
    <rc><c>   4</c><c>P </c><c>     30.97400000</c><c>      5.00000000</c><c>  PAW_PBE P 06Sep2000                   </c></rc>
   </set>
  </array>
 </atominfo>
 <structure name="initialpos" >
  <crystal>
   <varray name="basis" >
    <v>       3.58168000       0.00000000       0.00000000 </v>
    <v>       0.00000000       4.62335100      -0.00005300 </v>
    <v>       0.00000000       0.00000000      20.02439000 </v>
   </varray>
   <i name="volume">    331.59115908 </i>
   <varray name="rec_basis" >
    <v>       0.27919859       0.00000000       0.00000000 </v>
    <v>       0.00000000       0.21629333       0.00000000 </v>
    <v>       0.00000000       0.00000057       0.04993910 </v>
   </varray>
  </crystal>
  <varray name="positions" >
   <v>       0.50000000       0.91077300       0.55252100 </v>
   <v>       0.50000000       0.08922700       0.44747900 </v>
   <v>       0.00000000       0.41076900       0.44747900 </v>
   <v>       0.00000000       0.58923100       0.55252100 </v>
  </varray>
 </structure>
 <calculation>
  <scstep>
   <time name="dav">    1.54    1.54</time>
   <time name="total">    1.57    1.57</time>
   <energy>
    <i name="alphaZ">      4.83776782 </i>
    <i name="ewald">   1673.57899203 </i>
    <i name="hartreedc">  -2268.76294049 </i>
    <i name="XCdc">     12.25556893 </i>
    <i name="pawpsdc">    559.04011960 </i>
    <i name="pawaedc">   -526.39432044 </i>
    <i name="eentropy">     -0.00076524 </i>
    <i name="bandstr">    -29.69340153 </i>
    <i name="atom">    704.16778566 </i>
    <i name="e_fr_energy">    129.02880635 </i>
    <i name="e_wo_entrp">    129.02957159 </i>
    <i name="e_0_energy">    129.02918897 </i>
   </energy>
  </scstep>
  <scstep>
   <time name="dav">    2.04    2.04</time>
   <time name="total">    2.04    2.05</time>
   <energy>
    <i name="e_fr_energy">     -5.43321746 </i>
    <i name="e_wo_entrp">     -5.43321746 </i>
    <i name="e_0_energy">     -5.43321746 </i>
   </energy>
  </scstep>
  <scstep>
   <time name="dav">    1.91    1.91</time>
   <time name="total">    1.91    1.92</time>
   <energy>
    <i name="e_fr_energy">    -20.97872334 </i>
    <i name="e_wo_entrp">    -20.97872334 </i>
    <i name="e_0_energy">    -20.97872334 </i>
   </energy>
  </scstep>
  <scstep>
   <time name="dav">    1.92    1.92</time>
   <time name="total">    1.92    1.92</time>
   <energy>
    <i name="e_fr_energy">    -21.30692354 </i>
    <i name="e_wo_entrp">    -21.30692354 </i>
    <i name="e_0_energy">    -21.30692354 </i>
   </energy>
  </scstep>
  <scstep>
   <time name="dav">    2.05    2.05</time>
   <time name="total">    2.14    2.15</time>
   <energy>
    <i name="e_fr_energy">    -21.31721032 </i>
    <i name="e_wo_entrp">    -21.31721032 </i>
    <i name="e_0_energy">    -21.31721032 </i>
   </energy>
  </scstep>
  <scstep>
   <time name="dav">    1.88    1.88</time>
   <time name="total">    2.00    2.00</time>
   <energy>
    <i name="e_fr_energy">    -21.21025202 </i>
    <i name="e_wo_entrp">    -21.21025202 </i>
    <i name="e_0_energy">    -21.21025202 </i>
   </energy>
  </scstep>
  <scstep>
   <time name="dav">    1.80    1.80</time>
   <time name="total">    1.92    1.92</time>
   <energy>
    <i name="e_fr_energy">    -21.15608915 </i>
    <i name="e_wo_entrp">    -21.15608915 </i>
    <i name="e_0_energy">    -21.15608915 </i>
   </energy>
  </scstep>
  <scstep>
   <time name="dav">    1.93    1.93</time>
   <time name="total">    2.04    2.04</time>
   <energy>
    <i name="e_fr_energy">    -21.15628449 </i>
    <i name="e_wo_entrp">    -21.15628449 </i>
    <i name="e_0_energy">    -21.15628449 </i>
   </energy>
  </scstep>
  <scstep>
   <time name="dav">    2.15    2.15</time>
   <time name="total">    2.27    2.27</time>
   <energy>
    <i name="e_fr_energy">    -21.15627448 </i>
    <i name="e_wo_entrp">    -21.15627448 </i>
    <i name="e_0_energy">    -21.15627448 </i>
   </energy>
  </scstep>
  <scstep>
   <time name="dav">    1.93    1.93</time>
   <time name="total">    2.04    2.04</time>
   <energy>
    <i name="e_fr_energy">    -21.15620510 </i>
    <i name="e_wo_entrp">    -21.15620510 </i>
    <i name="e_0_energy">    -21.15620510 </i>
   </energy>
  </scstep>
  <scstep>
   <time name="dav">    1.86    1.86</time>
   <time name="total">    1.97    1.98</time>
   <energy>
    <i name="e_fr_energy">    -21.15618189 </i>
    <i name="e_wo_entrp">    -21.15618189 </i>
    <i name="e_0_energy">    -21.15618189 </i>
   </energy>
  </scstep>
  <scstep>
   <time name="dav">    1.69    1.69</time>
   <time name="total">    1.80    1.80</time>
   <energy>
    <i name="e_fr_energy">    -21.15645131 </i>
    <i name="e_wo_entrp">    -21.15645131 </i>
    <i name="e_0_energy">    -21.15645131 </i>
   </energy>
  </scstep>
  <scstep>
   <time name="dav">    1.67    1.67</time>
   <time name="total">    1.78    1.78</time>
   <energy>
    <i name="e_fr_energy">    -21.15653718 </i>
    <i name="e_wo_entrp">    -21.15653718 </i>
    <i name="e_0_energy">    -21.15653718 </i>
   </energy>
  </scstep>
  <scstep>
   <time name="dav">    1.56    1.56</time>
   <time name="total">    1.67    1.67</time>
   <energy>
    <i name="e_fr_energy">    -21.15664309 </i>
    <i name="e_wo_entrp">    -21.15664309 </i>
    <i name="e_0_energy">    -21.15664309 </i>
   </energy>
  </scstep>
  <scstep>
   <time name="dav">    1.62    1.62</time>
   <time name="total">    1.74    1.74</time>
   <energy>
    <i name="e_fr_energy">    -21.15666649 </i>
    <i name="e_wo_entrp">    -21.15666649 </i>
    <i name="e_0_energy">    -21.15666649 </i>
   </energy>
  </scstep>
  <scstep>
   <time name="dav">    1.55    1.55</time>
   <time name="total">    1.66    1.67</time>
   <energy>
    <i name="e_fr_energy">    -21.15668819 </i>
    <i name="e_wo_entrp">    -21.15668819 </i>
    <i name="e_0_energy">    -21.15668819 </i>
   </energy>
  </scstep>
  <scstep>
   <time name="dav">    1.52    1.52</time>
   <time name="total">    1.54    1.54</time>
   <energy>
    <i name="alphaZ">      4.83776782 </i>
    <i name="ewald">   1673.57899203 </i>
    <i name="hartreedc">  -2280.60677116 </i>
    <i name="XCdc">     13.18819674 </i>
    <i name="pawpsdc">   1771.12740409 </i>
    <i name="pawaedc">  -1738.70065694 </i>
    <i name="eentropy">     -0.00000000 </i>
    <i name="bandstr">   -168.74940978 </i>
    <i name="atom">    704.16778566 </i>
    <i name="e_fr_energy">    -21.15669153 </i>
    <i name="e_wo_entrp">    -21.15669153 </i>
    <i name="e_0_energy">    -21.15669153 </i>
   </energy>
  </scstep>
  <structure>
   <crystal>
    <varray name="basis" >
     <v>       3.58168000       0.00000000       0.00000000 </v>
     <v>       0.00000000       4.62335100      -0.00005300 </v>
     <v>       0.00000000       0.00000000      20.02439000 </v>
    </varray>
    <i name="volume">    331.59115908 </i>
    <varray name="rec_basis" >
     <v>       0.27919859       0.00000000       0.00000000 </v>
     <v>       0.00000000       0.21629333       0.00000000 </v>
     <v>       0.00000000       0.00000057       0.04993910 </v>
    </varray>
   </crystal>
   <varray name="positions" >
    <v>       0.50000000       0.91077300       0.55252100 </v>
    <v>       0.50000000       0.08922700       0.44747900 </v>
    <v>       0.00000000       0.41076900       0.44747900 </v>
    <v>       0.00000000       0.58923100       0.55252100 </v>
   </varray>
  </structure>
  <varray name="forces" >
   <v>      -0.00000000      -0.19172863      -0.12185382 </v>
   <v>       0.00000000       0.19172863       0.12185382 </v>
   <v>      -0.00000006      -0.19175413       0.12185957 </v>
   <v>       0.00000006       0.19175413      -0.12185957 </v>
  </varray>
  <varray name="stress" >
   <v>     -32.50180211       0.00000374      -0.00000043 </v>
   <v>       0.00000371      -9.73902785       0.00037086 </v>
   <v>      -0.00000037       0.00037079      -2.53603894 </v>
  </varray>
  <energy>
   <i name="e_fr_energy">    -21.15669153 </i>
   <i name="e_wo_entrp">    -21.15669153 </i>
   <i name="e_0_energy">     -0.00000000 </i>
  </energy>
  <time name="totalsc">   32.86   32.90</time>
 </calculation>
 <calculation>
  <scstep>
   <time name="dav">    1.63    1.63</time>
   <time name="total">    1.74    1.74</time>
   <energy>
    <i name="alphaZ">      4.83776782 </i>
    <i name="ewald">   1677.21373857 </i>
    <i name="hartreedc">  -2283.88662110 </i>
    <i name="XCdc">     13.23071947 </i>
    <i name="pawpsdc">   1770.84823434 </i>
    <i name="pawaedc">  -1738.42153809 </i>
    <i name="eentropy">     -0.00000000 </i>
    <i name="bandstr">   -169.15111065 </i>
    <i name="atom">    704.16778566 </i>
    <i name="e_fr_energy">    -21.16102398 </i>
    <i name="e_wo_entrp">    -21.16102398 </i>
    <i name="e_0_energy">    -21.16102398 </i>
   </energy>
  </scstep>
  <scstep>
   <time name="dav">    1.89    1.89</time>
   <time name="total">    2.00    2.00</time>
   <energy>
    <i name="e_fr_energy">    -21.16152907 </i>
    <i name="e_wo_entrp">    -21.16152907 </i>
    <i name="e_0_energy">    -21.16152907 </i>
   </energy>
  </scstep>
  <scstep>
   <time name="dav">    2.04    2.04</time>
   <time name="total">    2.16    2.16</time>
   <energy>
    <i name="e_fr_energy">    -21.16153638 </i>
    <i name="e_wo_entrp">    -21.16153638 </i>
    <i name="e_0_energy">    -21.16153638 </i>
   </energy>
  </scstep>
  <scstep>
   <time name="dav">    1.49    1.49</time>
   <time name="total">    1.60    1.60</time>
   <energy>
    <i name="e_fr_energy">    -21.16153593 </i>
    <i name="e_wo_entrp">    -21.16153593 </i>
    <i name="e_0_energy">    -21.16153593 </i>
   </energy>
  </scstep>
  <scstep>
   <time name="dav">    1.41    1.41</time>
   <time name="total">    1.52    1.52</time>
   <energy>
    <i name="e_fr_energy">    -21.16153760 </i>
    <i name="e_wo_entrp">    -21.16153760 </i>
    <i name="e_0_energy">    -21.16153760 </i>
   </energy>
  </scstep>
  <scstep>
   <time name="dav">    1.31    1.31</time>
   <time name="total">    1.33    1.33</time>
   <energy>
    <i name="alphaZ">      4.83776782 </i>
    <i name="ewald">   1677.21373857 </i>
    <i name="hartreedc">  -2283.88709422 </i>
    <i name="XCdc">     13.23382317 </i>
    <i name="pawpsdc">   1791.26370499 </i>
    <i name="pawaedc">  -1758.84466859 </i>
    <i name="eentropy">     -0.00000000 </i>
    <i name="bandstr">   -169.14659529 </i>
    <i name="atom">    704.16778566 </i>
    <i name="e_fr_energy">    -21.16153789 </i>
    <i name="e_wo_entrp">    -21.16153789 </i>
    <i name="e_0_energy">    -21.16153789 </i>
   </energy>
  </scstep>
  <structure>
   <crystal>
    <varray name="basis" >
     <v>       3.58168000       0.00000000       0.00000000 </v>
     <v>       0.00000000       4.62335100      -0.00005300 </v>
     <v>       0.00000000       0.00000000      20.02439000 </v>
    </varray>
    <i name="volume">    331.59115908 </i>
    <varray name="rec_basis" >
     <v>       0.27919859       0.00000000       0.00000000 </v>
     <v>       0.00000000       0.21629333       0.00000000 </v>
     <v>       0.00000000       0.00000057       0.04993910 </v>
    </varray>
   </crystal>
   <varray name="positions" >
    <v>       0.50000000       0.90957264       0.55234486 </v>
    <v>       0.50000000       0.09042736       0.44765514 </v>
    <v>      -0.00000000       0.40956848       0.44765515 </v>
    <v>       0.00000000       0.59043152       0.55234485 </v>
   </varray>
  </structure>
  <varray name="forces" >
   <v>       0.00000025      -0.10991479      -0.08895374 </v>
   <v>      -0.00000025       0.10991479       0.08895374 </v>
   <v>       0.00000024      -0.10993724       0.08895579 </v>
   <v>      -0.00000024       0.10993724      -0.08895579 </v>
  </varray>
  <varray name="stress" >
   <v>     -32.28862223      -0.00000482      -0.00000019 </v>
   <v>      -0.00000483      -8.41868626       0.00032689 </v>
   <v>      -0.00000027       0.00032684      -1.90214572 </v>
  </varray>
  <energy>
   <i name="e_fr_energy">    -21.16153789 </i>
   <i name="e_wo_entrp">    -21.16153789 </i>
   <i name="e_0_energy">     -0.00000000 </i>
  </energy>
  <time name="totalsc">   11.20   11.21</time>
 </calculation>
 <calculation>
  <scstep>
   <time name="dav">    1.59    1.59</time>
   <time name="total">    1.70    1.71</time>
   <energy>
    <i name="alphaZ">      4.83776782 </i>
    <i name="ewald">   1683.10826072 </i>
    <i name="hartreedc">  -2289.17103205 </i>
    <i name="XCdc">     13.30255140 </i>
    <i name="pawpsdc">   1791.44939427 </i>
    <i name="pawaedc">  -1759.03028282 </i>
    <i name="eentropy">     -0.00000000 </i>
    <i name="bandstr">   -169.82757449 </i>
    <i name="atom">    704.16778566 </i>
    <i name="e_fr_energy">    -21.16312948 </i>
    <i name="e_wo_entrp">    -21.16312948 </i>
    <i name="e_0_energy">    -21.16312948 </i>
   </energy>
  </scstep>
  <scstep>
   <time name="dav">    1.90    1.90</time>
   <time name="total">    2.01    2.01</time>
   <energy>
    <i name="e_fr_energy">    -21.16448507 </i>
    <i name="e_wo_entrp">    -21.16448507 </i>
    <i name="e_0_energy">    -21.16448507 </i>
   </energy>
  </scstep>
  <scstep>
   <time name="dav">    2.05    2.05</time>
   <time name="total">    2.16    2.16</time>
   <energy>
    <i name="e_fr_energy">    -21.16449895 </i>
    <i name="e_wo_entrp">    -21.16449895 </i>
    <i name="e_0_energy">    -21.16449895 </i>
   </energy>
  </scstep>
  <scstep>
   <time name="dav">    1.68    1.68</time>
   <time name="total">    1.79    1.79</time>
   <energy>
    <i name="e_fr_energy">    -21.16449626 </i>
    <i name="e_wo_entrp">    -21.16449626 </i>
    <i name="e_0_energy">    -21.16449626 </i>
   </energy>
  </scstep>
  <scstep>
   <time name="dav">    1.61    1.61</time>
   <time name="total">    1.72    1.72</time>
   <energy>
    <i name="e_fr_energy">    -21.16449619 </i>
    <i name="e_wo_entrp">    -21.16449619 </i>
    <i name="e_0_energy">    -21.16449619 </i>
   </energy>
  </scstep>
  <scstep>
   <time name="dav">    1.34    1.34</time>
   <time name="total">    1.36    1.36</time>
   <energy>
    <i name="alphaZ">      4.83776782 </i>
    <i name="ewald">   1683.10826072 </i>
    <i name="hartreedc">  -2289.15432618 </i>
    <i name="XCdc">     13.30748068 </i>
    <i name="pawpsdc">   1825.21892988 </i>
    <i name="pawaedc">  -1792.81240625 </i>
    <i name="eentropy">     -0.00000000 </i>
    <i name="bandstr">   -169.83798896 </i>
    <i name="atom">    704.16778566 </i>
    <i name="e_fr_energy">    -21.16449662 </i>
    <i name="e_wo_entrp">    -21.16449662 </i>
    <i name="e_0_energy">    -21.16449662 </i>
   </energy>
  </scstep>
  <structure>
   <crystal>
    <varray name="basis" >
     <v>       3.58168000       0.00000000       0.00000000 </v>
     <v>       0.00000000       4.62335100      -0.00005300 </v>
     <v>       0.00000000       0.00000000      20.02439000 </v>
    </varray>
    <i name="volume">    331.59115908 </i>
    <varray name="rec_basis" >
     <v>       0.27919859       0.00000000       0.00000000 </v>
     <v>       0.00000000       0.21629333       0.00000000 </v>
     <v>       0.00000000       0.00000057       0.04993910 </v>
    </varray>
   </crystal>
   <varray name="positions" >
    <v>       0.50000000       0.90762754       0.55205942 </v>
    <v>       0.50000000       0.09237246       0.44794058 </v>
    <v>      -0.00000000       0.40762312       0.44794058 </v>
    <v>       0.00000000       0.59237688       0.55205942 </v>
   </varray>
  </structure>
  <varray name="forces" >
   <v>       0.00000022       0.02542339      -0.03666756 </v>
   <v>      -0.00000022      -0.02542339       0.03666756 </v>
   <v>       0.00000015       0.02540618       0.03666378 </v>
   <v>      -0.00000015      -0.02540618      -0.03666378 </v>
  </varray>
  <varray name="stress" >
   <v>     -31.87575251      -0.00000237      -0.00000048 </v>
   <v>      -0.00000236      -6.26814975       0.00024761 </v>
   <v>      -0.00000046       0.00024763      -0.87185279 </v>
  </varray>
  <energy>
   <i name="e_fr_energy">    -21.16449662 </i>
   <i name="e_wo_entrp">    -21.16449662 </i>
   <i name="e_0_energy">     -0.00000000 </i>
  </energy>
  <time name="totalsc">   11.59   11.61</time>
 </calculation>
 <calculation>
  <scstep>
   <time name="dav">    1.63    1.63</time>
   <time name="total">    1.74    1.75</time>
   <energy>
    <i name="alphaZ">      4.83776782 </i>
    <i name="ewald">   1683.03434951 </i>
    <i name="hartreedc">  -2289.06004446 </i>
    <i name="XCdc">     13.30627237 </i>
    <i name="pawpsdc">   1825.58367315 </i>
    <i name="pawaedc">  -1793.17701772 </i>
    <i name="eentropy">     -0.00000000 </i>
    <i name="bandstr">   -169.85728531 </i>
    <i name="atom">    704.16778566 </i>
    <i name="e_fr_energy">    -21.16449898 </i>
    <i name="e_wo_entrp">    -21.16449898 </i>
    <i name="e_0_energy">    -21.16449898 </i>
   </energy>
  </scstep>
  <scstep>
   <time name="dav">    1.27    1.27</time>
   <time name="total">    1.39    1.39</time>
   <energy>
    <i name="e_fr_energy">    -21.16450067 </i>
    <i name="e_wo_entrp">    -21.16450067 </i>
    <i name="e_0_energy">    -21.16450067 </i>
   </energy>
  </scstep>
  <scstep>
   <time name="dav">    1.29    1.29</time>
   <time name="total">    1.40    1.41</time>
   <energy>
    <i name="e_fr_energy">    -21.16450249 </i>
    <i name="e_wo_entrp">    -21.16450249 </i>
    <i name="e_0_energy">    -21.16450249 </i>
   </energy>
  </scstep>
  <scstep>
   <time name="dav">    1.46    1.46</time>
   <time name="total">    1.57    1.57</time>
   <energy>
    <i name="e_fr_energy">    -21.16450618 </i>
    <i name="e_wo_entrp">    -21.16450618 </i>
    <i name="e_0_energy">    -21.16450618 </i>
   </energy>
  </scstep>
  <scstep>
   <time name="dav">    1.27    1.27</time>
   <time name="total">    1.39    1.39</time>
   <energy>
    <i name="e_fr_energy">    -21.16450745 </i>
    <i name="e_wo_entrp">    -21.16450745 </i>
    <i name="e_0_energy">    -21.16450745 </i>
   </energy>
  </scstep>
  <scstep>
   <time name="dav">    1.52    1.52</time>
   <time name="total">    1.54    1.55</time>
   <energy>
    <i name="alphaZ">      4.83776782 </i>
    <i name="ewald">   1683.03434951 </i>
    <i name="hartreedc">  -2289.01591335 </i>
    <i name="XCdc">     13.30575163 </i>
    <i name="pawpsdc">   1825.36999338 </i>
    <i name="pawaedc">  -1792.96323366 </i>
    <i name="eentropy">     -0.00000000 </i>
    <i name="bandstr">   -169.90101134 </i>
    <i name="atom">    704.16778566 </i>
    <i name="e_fr_energy">    -21.16451035 </i>
    <i name="e_wo_entrp">    -21.16451035 </i>
    <i name="e_0_energy">    -21.16451035 </i>
   </energy>
  </scstep>
  <structure>
   <crystal>
    <varray name="basis" >
     <v>       3.58168000       0.00000000       0.00000000 </v>
     <v>       0.00000000       4.62335100      -0.00005300 </v>
     <v>       0.00000000       0.00000000      20.02439000 </v>
    </varray>
    <i name="volume">    331.59115908 </i>
    <varray name="rec_basis" >
     <v>       0.27919859       0.00000000       0.00000000 </v>
     <v>       0.00000000       0.21629333       0.00000000 </v>
     <v>       0.00000000       0.00000057       0.04993910 </v>
    </varray>
   </crystal>
   <varray name="positions" >
    <v>       0.50000000       0.90765191       0.55206300 </v>
    <v>       0.50000000       0.09234809       0.44793700 </v>
    <v>      -0.00000000       0.40764750       0.44793700 </v>
    <v>       0.00000000       0.59235250       0.55206300 </v>
   </varray>
  </structure>
  <varray name="forces" >
   <v>       0.00000007       0.02389134      -0.03714561 </v>
   <v>      -0.00000007      -0.02389134       0.03714561 </v>
   <v>       0.00000010       0.02387425       0.03714138 </v>
   <v>      -0.00000010      -0.02387425      -0.03714138 </v>
  </varray>
  <varray name="stress" >
   <v>     -31.88073990       0.00000056       0.00000011 </v>
   <v>       0.00000052      -6.27759888       0.00024772 </v>
   <v>       0.00000011       0.00024770      -0.81472731 </v>
  </varray>
  <energy>
   <i name="e_fr_energy">    -21.16451035 </i>
   <i name="e_wo_entrp">    -21.16451035 </i>
   <i name="e_0_energy">     -0.00000000 </i>
  </energy>
  <time name="totalsc">    9.88    9.90</time>
 </calculation>
 <calculation>
  <scstep>
   <time name="dav">    1.52    1.52</time>
   <time name="total">    1.63    1.63</time>
   <energy>
    <i name="alphaZ">      4.83776782 </i>
    <i name="ewald">   1684.33010618 </i>
    <i name="hartreedc">  -2290.25055353 </i>
    <i name="XCdc">     13.31327029 </i>
    <i name="pawpsdc">   1825.37099526 </i>
    <i name="pawaedc">  -1792.96423151 </i>
    <i name="eentropy">     -0.00000000 </i>
    <i name="bandstr">   -169.96979019 </i>
    <i name="atom">    704.16778566 </i>
    <i name="e_fr_energy">    -21.16465001 </i>
    <i name="e_wo_entrp">    -21.16465001 </i>
    <i name="e_0_energy">    -21.16465001 </i>
   </energy>
  </scstep>
  <scstep>
   <time name="dav">    1.88    1.88</time>
   <time name="total">    1.99    1.99</time>
   <energy>
    <i name="e_fr_energy">    -21.16470367 </i>
    <i name="e_wo_entrp">    -21.16470367 </i>
    <i name="e_0_energy">    -21.16470367 </i>
   </energy>
  </scstep>
  <scstep>
   <time name="dav">    1.46    1.46</time>
   <time name="total">    1.57    1.57</time>
   <energy>
    <i name="e_fr_energy">    -21.16470245 </i>
    <i name="e_wo_entrp">    -21.16470245 </i>
    <i name="e_0_energy">    -21.16470245 </i>
   </energy>
  </scstep>
  <scstep>
   <time name="dav">    1.24    1.24</time>
   <time name="total">    1.35    1.36</time>
   <energy>
    <i name="e_fr_energy">    -21.16470285 </i>
    <i name="e_wo_entrp">    -21.16470285 </i>
    <i name="e_0_energy">    -21.16470285 </i>
   </energy>
  </scstep>
  <scstep>
   <time name="dav">    1.21    1.21</time>
   <time name="total">    1.32    1.32</time>
   <energy>
    <i name="e_fr_energy">    -21.16470291 </i>
    <i name="e_wo_entrp">    -21.16470291 </i>
    <i name="e_0_energy">    -21.16470291 </i>
   </energy>
  </scstep>
  <scstep>
   <time name="dav">    1.21    1.21</time>
   <time name="total">    1.23    1.23</time>
   <energy>
    <i name="alphaZ">      4.83776782 </i>
    <i name="ewald">   1684.33010618 </i>
    <i name="hartreedc">  -2290.25806840 </i>
    <i name="XCdc">     13.31402140 </i>
    <i name="pawpsdc">   1828.79721274 </i>
    <i name="pawaedc">  -1796.39170040 </i>
    <i name="eentropy">     -0.00000000 </i>
    <i name="bandstr">   -169.96182797 </i>
    <i name="atom">    704.16778566 </i>
    <i name="e_fr_energy">    -21.16470296 </i>
    <i name="e_wo_entrp">    -21.16470296 </i>
    <i name="e_0_energy">    -21.16470296 </i>
   </energy>
  </scstep>
  <structure>
   <crystal>
    <varray name="basis" >
     <v>       3.58168000       0.00000000       0.00000000 </v>
     <v>       0.00000000       4.62335100      -0.00005300 </v>
     <v>       0.00000000       0.00000000      20.02439000 </v>
    </varray>
    <i name="volume">    331.59115908 </i>
    <varray name="rec_basis" >
     <v>       0.27919859       0.00000000       0.00000000 </v>
     <v>       0.00000000       0.21629333       0.00000000 </v>
     <v>       0.00000000       0.00000057       0.04993910 </v>
    </varray>
   </crystal>
   <varray name="positions" >
    <v>       0.50000000       0.90778786       0.55198310 </v>
    <v>       0.50000000       0.09221214       0.44801690 </v>
    <v>      -0.00000000       0.40778330       0.44801690 </v>
    <v>       0.00000000       0.59221670       0.55198310 </v>
   </varray>
  </structure>
  <varray name="forces" >
   <v>       0.00000002       0.00650411      -0.01014856 </v>
   <v>      -0.00000002      -0.00650411       0.01014856 </v>
   <v>       0.00000006       0.00649019       0.01014784 </v>
   <v>      -0.00000006      -0.00649019      -0.01014784 </v>
  </varray>
  <varray name="stress" >
   <v>     -31.84778843      -0.00000073      -0.00000026 </v>
   <v>      -0.00000069      -6.32831132       0.00021595 </v>
   <v>      -0.00000021       0.00021593      -0.27573944 </v>
  </varray>
  <energy>
   <i name="e_fr_energy">    -21.16470296 </i>
   <i name="e_wo_entrp">    -21.16470296 </i>
   <i name="e_0_energy">     -0.00000000 </i>
  </energy>
  <time name="totalsc">    9.93    9.94</time>
 </calculation>
 <calculation>
  <scstep>
   <time name="dav">    1.51    1.51</time>
   <time name="total">    1.62    1.62</time>
   <energy>
    <i name="alphaZ">      4.83776782 </i>
    <i name="ewald">   1684.81693749 </i>
    <i name="hartreedc">  -2290.71950495 </i>
    <i name="XCdc">     13.31679578 </i>
    <i name="pawpsdc">   1828.85002592 </i>
    <i name="pawaedc">  -1796.44449523 </i>
    <i name="eentropy">     -0.00000000 </i>
    <i name="bandstr">   -169.99002359 </i>
    <i name="atom">    704.16778566 </i>
    <i name="e_fr_energy">    -21.16471111 </i>
    <i name="e_wo_entrp">    -21.16471111 </i>
    <i name="e_0_energy">    -21.16471111 </i>
   </energy>
  </scstep>
  <scstep>
   <time name="dav">    1.89    1.89</time>
   <time name="total">    2.00    2.00</time>
   <energy>
    <i name="e_fr_energy">    -21.16471913 </i>
    <i name="e_wo_entrp">    -21.16471913 </i>
    <i name="e_0_energy">    -21.16471913 </i>
   </energy>
  </scstep>
  <scstep>
   <time name="dav">    1.21    1.21</time>
   <time name="total">    1.32    1.32</time>
   <energy>
    <i name="e_fr_energy">    -21.16471909 </i>
    <i name="e_wo_entrp">    -21.16471909 </i>
    <i name="e_0_energy">    -21.16471909 </i>
   </energy>
  </scstep>
  <scstep>
   <time name="dav">    1.17    1.17</time>
   <time name="total">    1.28    1.28</time>
   <energy>
    <i name="e_fr_energy">    -21.16471928 </i>
    <i name="e_wo_entrp">    -21.16471928 </i>
    <i name="e_0_energy">    -21.16471928 </i>
   </energy>
  </scstep>
  <scstep>
   <time name="dav">    1.14    1.14</time>
   <time name="total">    1.25    1.25</time>
   <energy>
    <i name="e_fr_energy">    -21.16471929 </i>
    <i name="e_wo_entrp">    -21.16471929 </i>
    <i name="e_0_energy">    -21.16471929 </i>
   </energy>
  </scstep>
  <scstep>
   <time name="dav">    1.16    1.16</time>
   <time name="total">    1.18    1.18</time>
   <energy>
    <i name="alphaZ">      4.83776782 </i>
    <i name="ewald">   1684.81693749 </i>
    <i name="hartreedc">  -2290.72058829 </i>
    <i name="XCdc">     13.31706516 </i>
    <i name="pawpsdc">   1830.09350088 </i>
    <i name="pawaedc">  -1797.68844681 </i>
    <i name="eentropy">     -0.00000000 </i>
    <i name="bandstr">   -169.98874122 </i>
    <i name="atom">    704.16778566 </i>
    <i name="e_fr_energy">    -21.16471931 </i>
    <i name="e_wo_entrp">    -21.16471931 </i>
    <i name="e_0_energy">    -21.16471931 </i>
   </energy>
  </scstep>
  <structure>
   <crystal>
    <varray name="basis" >
     <v>       3.58168000       0.00000000       0.00000000 </v>
     <v>       0.00000000       4.62335100      -0.00005300 </v>
     <v>       0.00000000       0.00000000      20.02439000 </v>
    </varray>
    <i name="volume">    331.59115908 </i>
    <varray name="rec_basis" >
     <v>       0.27919859       0.00000000       0.00000000 </v>
     <v>       0.00000000       0.21629333       0.00000000 </v>
     <v>       0.00000000       0.00000057       0.04993910 </v>
    </varray>
   </crystal>
   <varray name="positions" >
    <v>       0.50000000       0.90783891       0.55195310 </v>
    <v>       0.50000000       0.09216109       0.44804690 </v>
    <v>       0.00000000       0.40783429       0.44804690 </v>
    <v>      -0.00000000       0.59216571       0.55195310 </v>
   </varray>
  </structure>
  <varray name="forces" >
   <v>      -0.00000002      -0.00005350      -0.00005465 </v>
   <v>       0.00000002       0.00005350       0.00005465 </v>
   <v>      -0.00000000      -0.00006628       0.00005517 </v>
   <v>       0.00000000       0.00006628      -0.00005517 </v>
  </varray>
  <varray name="stress" >
   <v>     -31.83276932      -0.00000041      -0.00000012 </v>
   <v>      -0.00000041      -6.34515481       0.00020455 </v>
   <v>      -0.00000019       0.00020453      -0.06905009 </v>
  </varray>
  <energy>
   <i name="e_fr_energy">    -21.16471931 </i>
   <i name="e_wo_entrp">    -21.16471931 </i>
   <i name="e_0_energy">     -0.00000000 </i>
  </energy>
  <time name="totalsc">    9.43    9.45</time>
  <eigenvalues>
   <array>
    <dimension dim="1">band</dimension>
    <dimension dim="2">kpoint</dimension>
    <dimension dim="3">spin</dimension>
    <field>eigene</field>
    <field>occ</field>
    <set>
     <set comment="spin 1">
      <set comment="kpoint 1">
       <r>  -16.9226    1.0000 </r>
       <r>  -14.3053    1.0000 </r>
       <r>  -11.7817    1.0000 </r>
       <r>   -7.7080    1.0000 </r>
       <r>   -7.1872    1.0000 </r>
       <r>   -6.5310    1.0000 </r>
       <r>   -6.5243    1.0000 </r>
       <r>   -4.8255    1.0000 </r>
       <r>   -3.6613    1.0000 </r>
       <r>   -2.5210    1.0000 </r>
       <r>   -1.7745    0.0000 </r>
       <r>   -1.1072    0.0000 </r>
       <r>   -1.0279    0.0000 </r>
       <r>    0.0046    0.0000 </r>
       <r>    2.1058    0.0000 </r>
       <r>    2.1609    0.0000 </r>
      </set>
      <set comment="kpoint 2">
       <r>  -16.8982    1.0000 </r>
       <r>  -14.2793    1.0000 </r>
       <r>  -11.8086    1.0000 </r>
       <r>   -7.6908    1.0000 </r>
       <r>   -7.2557    1.0000 </r>
       <r>   -6.6329    1.0000 </r>
       <r>   -6.5036    1.0000 </r>
       <r>   -4.9159    1.0000 </r>
       <r>   -3.6621    1.0000 </r>
       <r>   -2.5409    1.0000 </r>
       <r>   -1.5836    0.0000 </r>
       <r>   -1.0854    0.0000 </r>
       <r>   -0.8388    0.0000 </r>
       <r>   -0.1071    0.0000 </r>
       <r>    2.1302    0.0000 </r>
       <r>    2.1888    0.0000 </r>
      </set>
      <set comment="kpoint 3">
       <r>  -16.8254    1.0000 </r>
       <r>  -14.2013    1.0000 </r>
       <r>  -11.8929    1.0000 </r>
       <r>   -7.6401    1.0000 </r>
       <r>   -7.4726    1.0000 </r>
       <r>   -6.8825    1.0000 </r>
       <r>   -6.4417    1.0000 </r>
       <r>   -5.1010    1.0000 </r>
       <r>   -3.6702    1.0000 </r>
       <r>   -2.6058    1.0000 </r>
       <r>   -1.0623    0.0000 </r>
       <r>   -1.0205    0.0000 </r>
       <r>   -0.3845    0.0000 </r>
       <r>   -0.3661    0.0000 </r>
       <r>    2.1756    0.0000 </r>
       <r>    2.2723    0.0000 </r>
      </set>
      <set comment="kpoint 4">
       <r>  -16.7045    1.0000 </r>
       <r>  -14.0715    1.0000 </r>
       <r>  -12.0433    1.0000 </r>
       <r>   -7.8467    1.0000 </r>
       <r>   -7.5587    1.0000 </r>
       <r>   -7.1724    1.0000 </r>
       <r>   -6.3403    1.0000 </r>
       <r>   -5.2465    1.0000 </r>
       <r>   -3.7020    1.0000 </r>
       <r>   -2.7209    1.0000 </r>
       <r>   -0.9153    0.0000 </r>
       <r>   -0.7124    0.0000 </r>
       <r>   -0.3177    0.0000 </r>
       <r>    0.1757    0.0000 </r>
       <r>    1.8835    0.0000 </r>
       <r>    2.4032    0.0000 </r>
      </set>
      <set comment="kpoint 5">
       <r>  -16.5362    1.0000 </r>
       <r>  -13.8902    1.0000 </r>
       <r>  -12.2682    1.0000 </r>
       <r>   -8.3475    1.0000 </r>
       <r>   -7.4521    1.0000 </r>
       <r>   -7.4179    1.0000 </r>
       <r>   -6.2023    1.0000 </r>
       <r>   -5.2999    1.0000 </r>
       <r>   -3.7819    1.0000 </r>
       <r>   -2.8884    1.0000 </r>
       <r>   -0.9884    0.0000 </r>
       <r>   -0.7763    0.0000 </r>
       <r>    0.4636    0.0000 </r>
       <r>    0.5395    0.0000 </r>
       <r>    1.4026    0.0000 </r>
       <r>    2.3944    0.0000 </r>
      </set>
      <set comment="kpoint 6">
       <r>  -16.3217    1.0000 </r>
       <r>  -13.6579    1.0000 </r>
       <r>  -12.5681    1.0000 </r>
       <r>   -8.9213    1.0000 </r>
       <r>   -7.5740    1.0000 </r>
       <r>   -7.3297    1.0000 </r>
       <r>   -6.0323    1.0000 </r>
       <r>   -5.2760    1.0000 </r>
       <r>   -3.9270    1.0000 </r>
       <r>   -3.1063    1.0000 </r>
       <r>   -1.1431    0.0000 </r>
       <r>   -0.6212    0.0000 </r>
       <r>    0.2886    0.0000 </r>
       <r>    0.9352    0.0000 </r>
       <r>    1.3060    0.0000 </r>
       <r>    2.5272    0.0000 </r>
      </set>
      <set comment="kpoint 7">
       <r>  -16.0626    1.0000 </r>
       <r>  -13.3753    1.0000 </r>
       <r>  -12.9324    1.0000 </r>
       <r>   -9.5226    1.0000 </r>
       <r>   -7.6290    1.0000 </r>
       <r>   -7.2070    1.0000 </r>
       <r>   -5.8376    1.0000 </r>
       <r>   -5.2070    1.0000 </r>
       <r>   -4.1238    1.0000 </r>
       <r>   -3.3657    1.0000 </r>
       <r>   -1.1513    0.0000 </r>
       <r>   -0.5046    0.0000 </r>
       <r>   -0.1040    0.0000 </r>
       <r>    0.5732    0.0000 </r>
       <r>    1.4623    0.0000 </r>
       <r>    2.5625    0.0000 </r>
      </set>
      <set comment="kpoint 8">
       <r>  -15.7611    1.0000 </r>
       <r>  -13.3416    1.0000 </r>
       <r>  -13.0433    1.0000 </r>
       <r>  -10.1219    1.0000 </r>
       <r>   -7.5930    1.0000 </r>
       <r>   -7.1078    1.0000 </r>
       <r>   -5.6294    1.0000 </r>
       <r>   -5.1258    1.0000 </r>
       <r>   -4.3230    1.0000 </r>
       <r>   -3.6500    1.0000 </r>
       <r>   -1.0262    0.0000 </r>
       <r>   -0.5510    0.0000 </r>
       <r>   -0.5029    0.0000 </r>
       <r>    0.4660    0.0000 </r>
       <r>    1.1443    0.0000 </r>
       <r>    2.3643    0.0000 </r>
      </set>
      <set comment="kpoint 9">
       <r>  -15.4202    1.0000 </r>
       <r>  -13.7743    1.0000 </r>
       <r>  -12.6629    1.0000 </r>
       <r>  -10.7019    1.0000 </r>
       <r>   -7.4884    1.0000 </r>
       <r>   -7.0627    1.0000 </r>
       <r>   -5.4242    1.0000 </r>
       <r>   -5.0650    1.0000 </r>
       <r>   -4.4608    1.0000 </r>
       <r>   -3.9360    1.0000 </r>
       <r>   -0.8209    0.0000 </r>
       <r>   -0.7957    0.0000 </r>
       <r>   -0.7566    0.0000 </r>
       <r>    0.6324    0.0000 </r>
       <r>    0.7247    0.0000 </r>
       <r>    2.0383    0.0000 </r>
      </set>
      <set comment="kpoint 10">
       <r>  -15.0441    1.0000 </r>
       <r>  -14.2116    1.0000 </r>
       <r>  -12.2360    1.0000 </r>
       <r>  -11.2517    1.0000 </r>
       <r>   -7.3452    1.0000 </r>
       <r>   -7.0949    1.0000 </r>
       <r>   -5.2442    1.0000 </r>
       <r>   -5.0548    1.0000 </r>
       <r>   -4.4873    1.0000 </r>
       <r>   -4.1945    1.0000 </r>
       <r>   -1.0123    0.0000 </r>
       <r>   -0.9564    0.0000 </r>
       <r>   -0.4857    0.0000 </r>
       <r>    0.2938    0.0000 </r>
       <r>    0.9303    0.0000 </r>
       <r>    1.6643    0.0000 </r>
      </set>
      <set comment="kpoint 11">
       <r>  -14.6386    1.0000 </r>
       <r>  -14.6386    1.0000 </r>
       <r>  -11.7645    1.0000 </r>
       <r>  -11.7645    1.0000 </r>
       <r>   -7.2001    1.0000 </r>
       <r>   -7.2001    1.0000 </r>
       <r>   -5.1147    1.0000 </r>
       <r>   -5.1147    1.0000 </r>
       <r>   -4.3906    1.0000 </r>
       <r>   -4.3906    1.0000 </r>
       <r>   -1.0552    0.0000 </r>
       <r>   -1.0552    0.0000 </r>
       <r>   -0.1165    0.0000 </r>
       <r>   -0.1165    0.0000 </r>
       <r>    1.2854    0.0000 </r>
       <r>    1.2854    0.0000 </r>
      </set>
      <set comment="kpoint 12">
       <r>  -16.9039    1.0000 </r>
       <r>  -14.3399    1.0000 </r>
       <r>  -11.7686    1.0000 </r>
       <r>   -7.9083    1.0000 </r>
       <r>   -7.0251    1.0000 </r>
       <r>   -6.5157    1.0000 </r>
       <r>   -6.4654    1.0000 </r>
       <r>   -4.8404    1.0000 </r>
       <r>   -3.6015    1.0000 </r>
       <r>   -2.6378    1.0000 </r>
       <r>   -1.7535    0.0000 </r>
       <r>   -1.0792    0.0000 </r>
       <r>   -0.9997    0.0000 </r>
       <r>   -0.0077    0.0000 </r>
       <r>    2.1461    0.0000 </r>
       <r>    2.1868    0.0000 </r>
      </set>
      <set comment="kpoint 13">
       <r>  -16.8796    1.0000 </r>
       <r>  -14.3142    1.0000 </r>
       <r>  -11.7940    1.0000 </r>
       <r>   -7.9075    1.0000 </r>
       <r>   -7.0752    1.0000 </r>
       <r>   -6.6580    1.0000 </r>
       <r>   -6.4044    1.0000 </r>
       <r>   -4.9364    1.0000 </r>
       <r>   -3.6041    1.0000 </r>
       <r>   -2.6539    1.0000 </r>
       <r>   -1.5646    0.0000 </r>
       <r>   -0.9810    0.0000 </r>
       <r>   -0.8913    0.0000 </r>
       <r>   -0.1088    0.0000 </r>
       <r>    2.1693    0.0000 </r>
       <r>    2.2147    0.0000 </r>
      </set>
      <set comment="kpoint 14">
       <r>  -16.8068    1.0000 </r>
       <r>  -14.2375    1.0000 </r>
       <r>  -11.8739    1.0000 </r>
       <r>   -7.9276    1.0000 </r>
       <r>   -7.2173    1.0000 </r>
       <r>   -6.9234    1.0000 </r>
       <r>   -6.3284    1.0000 </r>
       <r>   -5.1320    1.0000 </r>
       <r>   -3.6207    1.0000 </r>
       <r>   -2.7072    1.0000 </r>
       <r>   -1.0568    0.0000 </r>
       <r>   -0.9172    0.0000 </r>
       <r>   -0.4971    0.0000 </r>
       <r>   -0.2808    0.0000 </r>
       <r>    2.1792    0.0000 </r>
       <r>    2.2980    0.0000 </r>
      </set>
      <set comment="kpoint 15">
       <r>  -16.6861    1.0000 </r>
       <r>  -14.1102    1.0000 </r>
       <r>  -12.0174    1.0000 </r>
       <r>   -8.0710    1.0000 </r>
       <r>   -7.3644    1.0000 </r>
       <r>   -7.2194    1.0000 </r>
       <r>   -6.2255    1.0000 </r>
       <r>   -5.2849    1.0000 </r>
       <r>   -3.6702    1.0000 </r>
       <r>   -2.8052    1.0000 </r>
       <r>   -0.8416    0.0000 </r>
       <r>   -0.6969    0.0000 </r>
       <r>   -0.3056    0.0000 </r>
       <r>    0.1798    0.0000 </r>
       <r>    1.7723    0.0000 </r>
       <r>    2.3912    0.0000 </r>
      </set>
      <set comment="kpoint 16">
       <r>  -16.5180    1.0000 </r>
       <r>  -13.9338    1.0000 </r>
       <r>  -12.2324    1.0000 </r>
       <r>   -8.4480    1.0000 </r>
       <r>   -7.4683    1.0000 </r>
       <r>   -7.3817    1.0000 </r>
       <r>   -6.0918    1.0000 </r>
       <r>   -5.3428    1.0000 </r>
       <r>   -3.7734    1.0000 </r>
       <r>   -2.9530    1.0000 </r>
       <r>   -0.9330    0.0000 </r>
       <r>   -0.7179    0.0000 </r>
       <r>    0.5027    0.0000 </r>
       <r>    0.5108    0.0000 </r>
       <r>    1.3258    0.0000 </r>
       <r>    2.4064    0.0000 </r>
      </set>
      <set comment="kpoint 17">
       <r>  -16.3039    1.0000 </r>
       <r>  -13.7126    1.0000 </r>
       <r>  -12.5171    1.0000 </r>
       <r>   -8.9756    1.0000 </r>
       <r>   -7.6260    1.0000 </r>
       <r>   -7.3051    1.0000 </r>
       <r>   -5.9310    1.0000 </r>
       <r>   -5.3256    1.0000 </r>
       <r>   -3.9370    1.0000 </r>
       <r>   -3.1506    1.0000 </r>
       <r>   -1.0542    0.0000 </r>
       <r>   -0.5801    0.0000 </r>
       <r>    0.3605    0.0000 </r>
       <r>    0.6989    0.0000 </r>
       <r>    1.4793    0.0000 </r>
       <r>    2.5074    0.0000 </r>
      </set>
      <set comment="kpoint 18">
       <r>  -16.0453    1.0000 </r>
       <r>  -13.4683    1.0000 </r>
       <r>  -12.8399    1.0000 </r>
       <r>   -9.5575    1.0000 </r>
       <r>   -7.6802    1.0000 </r>
       <r>   -7.1994    1.0000 </r>
       <r>   -5.7520    1.0000 </r>
       <r>   -5.2738    1.0000 </r>
       <r>   -4.1322    1.0000 </r>
       <r>   -3.3894    1.0000 </r>
       <r>   -1.0425    0.0000 </r>
       <r>   -0.4900    0.0000 </r>
       <r>   -0.0221    0.0000 </r>
       <r>    0.3929    0.0000 </r>
       <r>    1.6693    0.0000 </r>
       <r>    2.5299    0.0000 </r>
      </set>
      <set comment="kpoint 19">
       <r>  -15.7446    1.0000 </r>
       <r>  -13.4299    1.0000 </r>
       <r>  -12.9538    1.0000 </r>
       <r>  -10.1471    1.0000 </r>
       <r>   -7.6406    1.0000 </r>
       <r>   -7.1063    1.0000 </r>
       <r>   -5.5694    1.0000 </r>
       <r>   -5.2286    1.0000 </r>
       <r>   -4.2971    1.0000 </r>
       <r>   -3.6504    1.0000 </r>
       <r>   -0.9274    0.0000 </r>
       <r>   -0.5866    0.0000 </r>
       <r>   -0.4070    0.0000 </r>
       <r>    0.3257    0.0000 </r>
       <r>    1.3866    0.0000 </r>
       <r>    2.3313    0.0000 </r>
      </set>
      <set comment="kpoint 20">
       <r>  -15.4050    1.0000 </r>
       <r>  -13.7877    1.0000 </r>
       <r>  -12.6478    1.0000 </r>
       <r>  -10.7210    1.0000 </r>
       <r>   -7.5297    1.0000 </r>
       <r>   -7.0648    1.0000 </r>
       <r>   -5.4054    1.0000 </r>
       <r>   -5.2150    1.0000 </r>
       <r>   -4.3744    1.0000 </r>
       <r>   -3.9061    1.0000 </r>
       <r>   -0.8889    0.0000 </r>
       <r>   -0.8201    0.0000 </r>
       <r>   -0.5475    0.0000 </r>
       <r>    0.4610    0.0000 </r>
       <r>    1.0399    0.0000 </r>
       <r>    2.0107    0.0000 </r>
      </set>
      <set comment="kpoint 21">
       <r>  -15.0309    1.0000 </r>
       <r>  -14.2085    1.0000 </r>
       <r>  -12.2375    1.0000 </r>
       <r>  -11.2659    1.0000 </r>
       <r>   -7.3771    1.0000 </r>
       <r>   -7.1042    1.0000 </r>
       <r>   -5.2873    1.0000 </r>
       <r>   -5.2185    1.0000 </r>
       <r>   -4.3602    1.0000 </r>
       <r>   -4.1236    1.0000 </r>
       <r>   -1.0459    0.0000 </r>
       <r>   -1.0187    0.0000 </r>
       <r>   -0.2996    0.0000 </r>
       <r>    0.3875    0.0000 </r>
       <r>    0.9934    0.0000 </r>
       <r>    1.6462    0.0000 </r>
      </set>
      <set comment="kpoint 22">
       <r>  -14.6288    1.0000 </r>
       <r>  -14.6288    1.0000 </r>
       <r>  -11.7737    1.0000 </r>
       <r>  -11.7737    1.0000 </r>
       <r>   -7.2205    1.0000 </r>
       <r>   -7.2205    1.0000 </r>
       <r>   -5.2316    1.0000 </r>
       <r>   -5.2316    1.0000 </r>
       <r>   -4.2763    1.0000 </r>
       <r>   -4.2763    1.0000 </r>
       <r>   -1.1032    0.0000 </r>
       <r>   -1.1031    0.0000 </r>
       <r>    0.0440    0.0000 </r>
       <r>    0.0440    0.0000 </r>
       <r>    1.2859    0.0000 </r>
       <r>    1.2859    0.0000 </r>
      </set>
      <set comment="kpoint 23">
       <r>  -15.0309    1.0000 </r>
       <r>  -14.2085    1.0000 </r>
       <r>  -12.2375    1.0000 </r>
       <r>  -11.2659    1.0000 </r>
       <r>   -7.3771    1.0000 </r>
       <r>   -7.1042    1.0000 </r>
       <r>   -5.2873    1.0000 </r>
       <r>   -5.2185    1.0000 </r>
       <r>   -4.3602    1.0000 </r>
       <r>   -4.1236    1.0000 </r>
       <r>   -1.0459    0.0000 </r>
       <r>   -1.0187    0.0000 </r>
       <r>   -0.2996    0.0000 </r>
       <r>    0.3875    0.0000 </r>
       <r>    0.9934    0.0000 </r>
       <r>    1.6462    0.0000 </r>
      </set>
      <set comment="kpoint 24">
       <r>  -15.4050    1.0000 </r>
       <r>  -13.7877    1.0000 </r>
       <r>  -12.6478    1.0000 </r>
       <r>  -10.7210    1.0000 </r>
       <r>   -7.5297    1.0000 </r>
       <r>   -7.0648    1.0000 </r>
       <r>   -5.4054    1.0000 </r>
       <r>   -5.2150    1.0000 </r>
       <r>   -4.3744    1.0000 </r>
       <r>   -3.9061    1.0000 </r>
       <r>   -0.8889    0.0000 </r>
       <r>   -0.8201    0.0000 </r>
       <r>   -0.5475    0.0000 </r>
       <r>    0.4610    0.0000 </r>
       <r>    1.0399    0.0000 </r>
       <r>    2.0107    0.0000 </r>
      </set>
      <set comment="kpoint 25">
       <r>  -15.7446    1.0000 </r>
       <r>  -13.4299    1.0000 </r>
       <r>  -12.9538    1.0000 </r>
       <r>  -10.1471    1.0000 </r>
       <r>   -7.6406    1.0000 </r>
       <r>   -7.1063    1.0000 </r>
       <r>   -5.5694    1.0000 </r>
       <r>   -5.2286    1.0000 </r>
       <r>   -4.2971    1.0000 </r>
       <r>   -3.6504    1.0000 </r>
       <r>   -0.9274    0.0000 </r>
       <r>   -0.5866    0.0000 </r>
       <r>   -0.4070    0.0000 </r>
       <r>    0.3257    0.0000 </r>
       <r>    1.3866    0.0000 </r>
       <r>    2.3313    0.0000 </r>
      </set>
      <set comment="kpoint 26">
       <r>  -16.0453    1.0000 </r>
       <r>  -13.4683    1.0000 </r>
       <r>  -12.8399    1.0000 </r>
       <r>   -9.5575    1.0000 </r>
       <r>   -7.6802    1.0000 </r>
       <r>   -7.1994    1.0000 </r>
       <r>   -5.7520    1.0000 </r>
       <r>   -5.2738    1.0000 </r>
       <r>   -4.1322    1.0000 </r>
       <r>   -3.3894    1.0000 </r>
       <r>   -1.0425    0.0000 </r>
       <r>   -0.4900    0.0000 </r>
       <r>   -0.0221    0.0000 </r>
       <r>    0.3929    0.0000 </r>
       <r>    1.6693    0.0000 </r>
       <r>    2.5299    0.0000 </r>
      </set>
      <set comment="kpoint 27">
       <r>  -16.3039    1.0000 </r>
       <r>  -13.7126    1.0000 </r>
       <r>  -12.5171    1.0000 </r>
       <r>   -8.9756    1.0000 </r>
       <r>   -7.6260    1.0000 </r>
       <r>   -7.3051    1.0000 </r>
       <r>   -5.9310    1.0000 </r>
       <r>   -5.3256    1.0000 </r>
       <r>   -3.9370    1.0000 </r>
       <r>   -3.1506    1.0000 </r>
       <r>   -1.0542    0.0000 </r>
       <r>   -0.5801    0.0000 </r>
       <r>    0.3605    0.0000 </r>
       <r>    0.6989    0.0000 </r>
       <r>    1.4793    0.0000 </r>
       <r>    2.5074    0.0000 </r>
      </set>
      <set comment="kpoint 28">
       <r>  -16.5180    1.0000 </r>
       <r>  -13.9338    1.0000 </r>
       <r>  -12.2324    1.0000 </r>
       <r>   -8.4480    1.0000 </r>
       <r>   -7.4683    1.0000 </r>
       <r>   -7.3817    1.0000 </r>
       <r>   -6.0918    1.0000 </r>
       <r>   -5.3428    1.0000 </r>
       <r>   -3.7734    1.0000 </r>
       <r>   -2.9530    1.0000 </r>
       <r>   -0.9330    0.0000 </r>
       <r>   -0.7179    0.0000 </r>
       <r>    0.5027    0.0000 </r>
       <r>    0.5108    0.0000 </r>
       <r>    1.3258    0.0000 </r>
       <r>    2.4064    0.0000 </r>
      </set>
      <set comment="kpoint 29">
       <r>  -16.6861    1.0000 </r>
       <r>  -14.1102    1.0000 </r>
       <r>  -12.0174    1.0000 </r>
       <r>   -8.0710    1.0000 </r>
       <r>   -7.3644    1.0000 </r>
       <r>   -7.2194    1.0000 </r>
       <r>   -6.2255    1.0000 </r>
       <r>   -5.2849    1.0000 </r>
       <r>   -3.6702    1.0000 </r>
       <r>   -2.8052    1.0000 </r>
       <r>   -0.8416    0.0000 </r>
       <r>   -0.6969    0.0000 </r>
       <r>   -0.3056    0.0000 </r>
       <r>    0.1798    0.0000 </r>
       <r>    1.7723    0.0000 </r>
       <r>    2.3912    0.0000 </r>
      </set>
      <set comment="kpoint 30">
       <r>  -16.8068    1.0000 </r>
       <r>  -14.2375    1.0000 </r>
       <r>  -11.8739    1.0000 </r>
       <r>   -7.9276    1.0000 </r>
       <r>   -7.2173    1.0000 </r>
       <r>   -6.9234    1.0000 </r>
       <r>   -6.3284    1.0000 </r>
       <r>   -5.1320    1.0000 </r>
       <r>   -3.6207    1.0000 </r>
       <r>   -2.7072    1.0000 </r>
       <r>   -1.0568    0.0000 </r>
       <r>   -0.9172    0.0000 </r>
       <r>   -0.4971    0.0000 </r>
       <r>   -0.2808    0.0000 </r>
       <r>    2.1792    0.0000 </r>
       <r>    2.2981    0.0000 </r>
      </set>
      <set comment="kpoint 31">
       <r>  -16.8796    1.0000 </r>
       <r>  -14.3142    1.0000 </r>
       <r>  -11.7940    1.0000 </r>
       <r>   -7.9075    1.0000 </r>
       <r>   -7.0752    1.0000 </r>
       <r>   -6.6580    1.0000 </r>
       <r>   -6.4044    1.0000 </r>
       <r>   -4.9364    1.0000 </r>
       <r>   -3.6041    1.0000 </r>
       <r>   -2.6539    1.0000 </r>
       <r>   -1.5646    0.0000 </r>
       <r>   -0.9810    0.0000 </r>
       <r>   -0.8913    0.0000 </r>
       <r>   -0.1088    0.0000 </r>
       <r>    2.1693    0.0000 </r>
       <r>    2.2147    0.0000 </r>
      </set>
      <set comment="kpoint 32">
       <r>  -16.8481    1.0000 </r>
       <r>  -14.4411    1.0000 </r>
       <r>  -11.7260    1.0000 </r>
       <r>   -8.2752    1.0000 </r>
       <r>   -6.7634    1.0000 </r>
       <r>   -6.4702    1.0000 </r>
       <r>   -6.2950    1.0000 </r>
       <r>   -4.8852    1.0000 </r>
       <r>   -3.4377    1.0000 </r>
       <r>   -2.9182    1.0000 </r>
       <r>   -1.6928    0.0000 </r>
       <r>   -1.2246    0.0000 </r>
       <r>   -0.7441    0.0000 </r>
       <r>   -0.0372    0.0000 </r>
       <r>    2.2641    0.0000 </r>
       <r>    2.2642    0.0000 </r>
      </set>
      <set comment="kpoint 33">
       <r>  -16.8238    1.0000 </r>
       <r>  -14.4164    1.0000 </r>
       <r>  -11.7476    1.0000 </r>
       <r>   -8.2802    1.0000 </r>
       <r>   -6.8025    1.0000 </r>
       <r>   -6.6577    1.0000 </r>
       <r>   -6.1890    1.0000 </r>
       <r>   -4.9946    1.0000 </r>
       <r>   -3.4489    1.0000 </r>
       <r>   -2.9276    1.0000 </r>
       <r>   -1.5100    0.0000 </r>
       <r>   -1.0333    0.0000 </r>
       <r>   -0.7300    0.0000 </r>
       <r>   -0.1130    0.0000 </r>
       <r>    2.2831    0.0000 </r>
       <r>    2.2924    0.0000 </r>
      </set>
      <set comment="kpoint 34">
       <r>  -16.7514    1.0000 </r>
       <r>  -14.3427    1.0000 </r>
       <r>  -11.8162    1.0000 </r>
       <r>   -8.3105    1.0000 </r>
       <r>   -6.9747    1.0000 </r>
       <r>   -6.9249    1.0000 </r>
       <r>   -6.0660    1.0000 </r>
       <r>   -5.2153    1.0000 </r>
       <r>   -3.4953    1.0000 </r>
       <r>   -2.9599    1.0000 </r>
       <r>   -1.0203    0.0000 </r>
       <r>   -0.6789    0.0000 </r>
       <r>   -0.6231    0.0000 </r>
       <r>   -0.2228    0.0000 </r>
       <r>    1.9415    0.0000 </r>
       <r>    2.3470    0.0000 </r>
      </set>
      <set comment="kpoint 35">
       <r>  -16.6311    1.0000 </r>
       <r>  -14.2214    1.0000 </r>
       <r>  -11.9415    1.0000 </r>
       <r>   -8.4197    1.0000 </r>
       <r>   -7.3019    1.0000 </r>
       <r>   -7.1032    1.0000 </r>
       <r>   -5.9455    1.0000 </r>
       <r>   -5.3846    1.0000 </r>
       <r>   -3.5960    1.0000 </r>
       <r>   -3.0234    1.0000 </r>
       <r>   -0.6598    0.0000 </r>
       <r>   -0.6295    0.0000 </r>
       <r>   -0.2682    0.0000 </r>
[...]
       <r>    1.5602    0.0000 </r>
       <r>    1.5602    0.0000 </r>
      </set>
      <set comment="kpoint 157">
       <r>  -15.2766    1.0000 </r>
       <r>  -15.2766    1.0000 </r>
       <r>  -10.8772    1.0000 </r>
       <r>  -10.8772    1.0000 </r>
       <r>   -7.6730    1.0000 </r>
       <r>   -7.6730    1.0000 </r>
       <r>   -5.2718    1.0000 </r>
       <r>   -5.2718    1.0000 </r>
       <r>   -3.8208    1.0000 </r>
       <r>   -3.8208    1.0000 </r>
       <r>   -0.0473    0.0000 </r>
       <r>   -0.0473    0.0000 </r>
       <r>    1.0698    0.0000 </r>
       <r>    1.0698    0.0000 </r>
       <r>    2.0981    0.0000 </r>
       <r>    2.0981    0.0000 </r>
      </set>
      <set comment="kpoint 158">
       <r>  -15.0571    1.0000 </r>
       <r>  -15.0571    1.0000 </r>
       <r>  -11.1268    1.0000 </r>
       <r>  -11.1268    1.0000 </r>
       <r>   -7.8048    1.0000 </r>
       <r>   -7.8048    1.0000 </r>
       <r>   -5.5378    1.0000 </r>
       <r>   -5.5378    1.0000 </r>
       <r>   -3.8157    1.0000 </r>
       <r>   -3.8157    1.0000 </r>
       <r>    0.1558    0.0000 </r>
       <r>    0.1558    0.0000 </r>
       <r>    0.9442    0.0000 </r>
       <r>    0.9442    0.0000 </r>
       <r>    2.6870    0.0000 </r>
       <r>    2.6870    0.0000 </r>
      </set>
      <set comment="kpoint 159">
       <r>  -14.8206    1.0000 </r>
       <r>  -14.8206    1.0000 </r>
       <r>  -11.4364    1.0000 </r>
       <r>  -11.4364    1.0000 </r>
       <r>   -7.7752    1.0000 </r>
       <r>   -7.7752    1.0000 </r>
       <r>   -5.8888    1.0000 </r>
       <r>   -5.8888    1.0000 </r>
       <r>   -3.7469    1.0000 </r>
       <r>   -3.7469    1.0000 </r>
       <r>    0.2423    0.0000 </r>
       <r>    0.2423    0.0000 </r>
       <r>    0.8804    0.0000 </r>
       <r>    0.8804    0.0000 </r>
       <r>    3.0128    0.0000 </r>
       <r>    3.0128    0.0000 </r>
      </set>
      <set comment="kpoint 160">
       <r>  -14.5911    1.0000 </r>
       <r>  -14.5911    1.0000 </r>
       <r>  -11.7481    1.0000 </r>
       <r>  -11.7481    1.0000 </r>
       <r>   -7.6182    1.0000 </r>
       <r>   -7.6182    1.0000 </r>
       <r>   -6.2761    1.0000 </r>
       <r>   -6.2761    1.0000 </r>
       <r>   -3.6547    1.0000 </r>
       <r>   -3.6547    1.0000 </r>
       <r>    0.1543    0.0000 </r>
       <r>    0.1544    0.0000 </r>
       <r>    0.9980    0.0000 </r>
       <r>    0.9980    0.0000 </r>
       <r>    3.0856    0.0000 </r>
       <r>    3.0856    0.0000 </r>
      </set>
      <set comment="kpoint 161">
       <r>  -14.4113    1.0000 </r>
       <r>  -14.4113    1.0000 </r>
       <r>  -11.9892    1.0000 </r>
       <r>  -11.9892    1.0000 </r>
       <r>   -7.3712    1.0000 </r>
       <r>   -7.3712    1.0000 </r>
       <r>   -6.6604    1.0000 </r>
       <r>   -6.6603    1.0000 </r>
       <r>   -3.5789    1.0000 </r>
       <r>   -3.5789    1.0000 </r>
       <r>    0.0328    0.0000 </r>
       <r>    0.0328    0.0000 </r>
       <r>    1.1697    0.0000 </r>
       <r>    1.1697    0.0000 </r>
       <r>    3.0111    0.0000 </r>
       <r>    3.0111    0.0000 </r>
      </set>
      <set comment="kpoint 162">
       <r>  -14.3402    1.0000 </r>
       <r>  -14.3402    1.0000 </r>
       <r>  -12.0825    1.0000 </r>
       <r>  -12.0825    1.0000 </r>
       <r>   -7.1319    1.0000 </r>
       <r>   -7.1319    1.0000 </r>
       <r>   -6.9452    1.0000 </r>
       <r>   -6.9452    1.0000 </r>
       <r>   -3.5498    1.0000 </r>
       <r>   -3.5498    1.0000 </r>
       <r>   -0.0171    0.0000 </r>
       <r>   -0.0170    0.0000 </r>
       <r>    1.2491    0.0000 </r>
       <r>    1.2491    0.0000 </r>
       <r>    2.9499    0.0000 </r>
       <r>    2.9500    0.0000 </r>
      </set>
     </set>
    </set>
   </array>
  </eigenvalues>
  <separator name="orbital magnetization" >
   <v name="MAGDIPOLOUT">      0.00000000      0.00000000      0.00000000</v>
  </separator>
  <dos>
   <i name="efermi">     -2.37795493 </i>
   <total>
    <array>
     <dimension dim="1">gridpoints</dimension>
     <dimension dim="2">spin</dimension>
     <field>energy</field>
     <field>total</field>
     <field>integrated</field>
     <set>
      <set comment="spin 1">
       <r>   -17.9323     0.0000     0.0000 </r>
       <r>   -17.8582     0.0000     0.0000 </r>
       <r>   -17.7842     0.0000     0.0000 </r>
       <r>   -17.7101     0.0000     0.0000 </r>
       <r>   -17.6361     0.0000     0.0000 </r>
       <r>   -17.5621     0.0000     0.0000 </r>
       <r>   -17.4880     0.0000     0.0000 </r>
       <r>   -17.4140     0.0000     0.0000 </r>
       <r>   -17.3399     0.0000     0.0000 </r>
       <r>   -17.2659     0.0000     0.0000 </r>
       <r>   -17.1918     0.0000     0.0000 </r>
       <r>   -17.1178     0.0000     0.0000 </r>
       <r>   -17.0437     0.0000     0.0000 </r>
       <r>   -16.9697     0.0000     0.0000 </r>
       <r>   -16.8956     0.3436     0.0254 </r>
       <r>   -16.8216     0.9222     0.0937 </r>
       <r>   -16.7475     0.8782     0.1588 </r>
       <r>   -16.6735     0.9698     0.2306 </r>
       <r>   -16.5995     1.0634     0.3093 </r>
       <r>   -16.5254     0.8885     0.3751 </r>
       <r>   -16.4514     0.9511     0.4455 </r>
       <r>   -16.3773     0.9261     0.5141 </r>
       <r>   -16.3033     0.7338     0.5684 </r>
       <r>   -16.2292     1.6272     0.6889 </r>
       <r>   -16.1552     0.6366     0.7361 </r>
       <r>   -16.0811     0.4830     0.7718 </r>
       <r>   -16.0071     1.6973     0.8975 </r>
       <r>   -15.9330     0.6549     0.9460 </r>
       <r>   -15.8590     1.1080     1.0280 </r>
       <r>   -15.7849     0.8998     1.0947 </r>
       <r>   -15.7109     1.2358     1.1862 </r>
       <r>   -15.6369     1.0781     1.2660 </r>
       <r>   -15.5628     0.8424     1.3284 </r>
       <r>   -15.4888     1.0799     1.4083 </r>
       <r>   -15.4147     1.1776     1.4955 </r>
       <r>   -15.3407     1.2755     1.5900 </r>
       <r>   -15.2666     1.3144     1.6873 </r>
       <r>   -15.1926     1.2657     1.7810 </r>
       <r>   -15.1185     0.4192     1.8121 </r>
       <r>   -15.0445     1.1950     1.9006 </r>
       <r>   -14.9704     1.9050     2.0416 </r>
       <r>   -14.8964     1.1805     2.1290 </r>
       <r>   -14.8223     1.0645     2.2079 </r>
       <r>   -14.7483     1.5412     2.3220 </r>
       <r>   -14.6743     0.9656     2.3935 </r>
       <r>   -14.6002     1.7584     2.5237 </r>
       <r>   -14.5262     1.9651     2.6692 </r>
       <r>   -14.4521     1.3783     2.7712 </r>
       <r>   -14.3781     2.3684     2.9466 </r>
       <r>   -14.3040     2.1067     3.1026 </r>
       <r>   -14.2300     1.9440     3.2465 </r>
       <r>   -14.1559     2.7380     3.4493 </r>
       <r>   -14.0819     1.0524     3.5272 </r>
       <r>   -14.0078     0.8774     3.5922 </r>
       <r>   -13.9338     0.7827     3.6501 </r>
       <r>   -13.8597     1.0861     3.7306 </r>
       <r>   -13.7857     0.9301     3.7994 </r>
       <r>   -13.7116     0.6924     3.8507 </r>
       <r>   -13.6376     0.6199     3.8966 </r>
       <r>   -13.5636     0.3781     3.9246 </r>
       <r>   -13.4895     0.0279     3.9267 </r>
       <r>   -13.4155     0.6011     3.9712 </r>
       <r>   -13.3414     0.3040     3.9937 </r>
       <r>   -13.2674     0.0851     4.0000 </r>
       <r>   -13.1933     0.0000     4.0000 </r>
       <r>   -13.1193     0.0000     4.0000 </r>
       <r>   -13.0452     0.0751     4.0056 </r>
       <r>   -12.9712     0.1311     4.0153 </r>
       <r>   -12.8971     0.4680     4.0499 </r>
       <r>   -12.8231     0.3009     4.0722 </r>
       <r>   -12.7490     0.3740     4.0999 </r>
       <r>   -12.6750     0.0661     4.1048 </r>
       <r>   -12.6010     1.0778     4.1846 </r>
       <r>   -12.5269     0.7860     4.2428 </r>
       <r>   -12.4529     0.4822     4.2785 </r>
       <r>   -12.3788     1.0917     4.3593 </r>
       <r>   -12.3048     0.2365     4.3768 </r>
       <r>   -12.2307     1.8268     4.5121 </r>
       <r>   -12.1567     2.0730     4.6656 </r>
       <r>   -12.0826     1.1906     4.7538 </r>
       <r>   -12.0086     1.2067     4.8431 </r>
       <r>   -11.9345     2.3726     5.0188 </r>
       <r>   -11.8605     1.4578     5.1267 </r>
       <r>   -11.7864     2.1414     5.2853 </r>
       <r>   -11.7124     2.6345     5.4804 </r>
       <r>   -11.6384     1.6093     5.5995 </r>
       <r>   -11.5643     0.9093     5.6669 </r>
       <r>   -11.4903     1.1201     5.7498 </r>
       <r>   -11.4162     1.3929     5.8529 </r>
       <r>   -11.3422     1.6098     5.9722 </r>
       <r>   -11.2681     0.9652     6.0436 </r>
       <r>   -11.1941     0.8141     6.1039 </r>
       <r>   -11.1200     1.9433     6.2478 </r>
       <r>   -11.0460     0.1360     6.2579 </r>
       <r>   -10.9719     0.6587     6.3066 </r>
       <r>   -10.8979     1.1606     6.3926 </r>
       <r>   -10.8238     1.3131     6.4898 </r>
       <r>   -10.7498     0.3951     6.5191 </r>
       <r>   -10.6758     1.1702     6.6057 </r>
       <r>   -10.6017     0.7443     6.6608 </r>
       <r>   -10.5277     1.1435     6.7455 </r>
       <r>   -10.4536     0.3140     6.7687 </r>
       <r>   -10.3796     0.2460     6.7870 </r>
       <r>   -10.3055     0.5827     6.8301 </r>
       <r>   -10.2315     1.7113     6.9568 </r>
       <r>   -10.1574     0.4097     6.9872 </r>
       <r>   -10.0834     0.4269     7.0188 </r>
       <r>   -10.0093     0.6565     7.0674 </r>
       <r>    -9.9353     0.3663     7.0945 </r>
       <r>    -9.8612     1.1704     7.1812 </r>
       <r>    -9.7872     0.3363     7.2061 </r>
       <r>    -9.7132     0.0186     7.2075 </r>
       <r>    -9.6391     0.6817     7.2579 </r>
       <r>    -9.5651     0.6199     7.3038 </r>
       <r>    -9.4910     1.3229     7.4018 </r>
       <r>    -9.4170     0.0603     7.4063 </r>
       <r>    -9.3429     0.3526     7.4324 </r>
       <r>    -9.2689     0.3227     7.4562 </r>
       <r>    -9.1948     0.0664     7.4612 </r>
       <r>    -9.1208     0.7033     7.5132 </r>
       <r>    -9.0467     0.7496     7.5688 </r>
       <r>    -8.9727     0.5190     7.6072 </r>
       <r>    -8.8986     0.3158     7.6306 </r>
       <r>    -8.8246     0.0163     7.6318 </r>
       <r>    -8.7506     0.3315     7.6563 </r>
       <r>    -8.6765     0.9784     7.7288 </r>
       <r>    -8.6025     0.2022     7.7437 </r>
       <r>    -8.5284     0.0000     7.7438 </r>
       <r>    -8.4544     0.1127     7.7521 </r>
       <r>    -8.3803     0.5633     7.7938 </r>
       <r>    -8.3063     0.3890     7.8226 </r>
       <r>    -8.2322     0.6227     7.8687 </r>
       <r>    -8.1582     0.0003     7.8688 </r>
       <r>    -8.0841     0.0609     7.8733 </r>
       <r>    -8.0101     1.2962     7.9692 </r>
       <r>    -7.9360     1.6246     8.0895 </r>
       <r>    -7.8620     2.9490     8.3079 </r>
       <r>    -7.7880     2.0979     8.4632 </r>
       <r>    -7.7139     1.8554     8.6006 </r>
       <r>    -7.6399     2.6990     8.8005 </r>
       <r>    -7.5658     3.4547     9.0563 </r>
       <r>    -7.4918     1.9852     9.2033 </r>
       <r>    -7.4177     1.9132     9.3450 </r>
       <r>    -7.3437     3.7046     9.6193 </r>
       <r>    -7.2696     2.6857     9.8181 </r>
       <r>    -7.1956     4.8994    10.1809 </r>
       <r>    -7.1215     4.1072    10.4850 </r>
       <r>    -7.0475     5.2104    10.8709 </r>
       <r>    -6.9734     1.1766    10.9580 </r>
       <r>    -6.8994     1.9846    11.1049 </r>
       <r>    -6.8254     0.9064    11.1720 </r>
       <r>    -6.7513     1.4715    11.2810 </r>
       <r>    -6.6773     1.0044    11.3554 </r>
       <r>    -6.6032     2.1682    11.5159 </r>
       <r>    -6.5292     1.5408    11.6300 </r>
       <r>    -6.4551     2.1113    11.7863 </r>
       <r>    -6.3811     2.3677    11.9617 </r>
       <r>    -6.3070     0.8130    12.0219 </r>
       <r>    -6.2330     2.2060    12.1852 </r>
       <r>    -6.1589     2.1245    12.3425 </r>
       <r>    -6.0849     1.7134    12.4694 </r>
       <r>    -6.0108     2.1989    12.6322 </r>
       <r>    -5.9368     1.2204    12.7226 </r>
       <r>    -5.8628     2.2867    12.8919 </r>
       <r>    -5.7887     1.8568    13.0294 </r>
       <r>    -5.7147     2.7694    13.2345 </r>
       <r>    -5.6406     3.3116    13.4797 </r>
       <r>    -5.5666     2.6166    13.6734 </r>
       <r>    -5.4925     4.2125    13.9853 </r>
       <r>    -5.4185     3.6962    14.2590 </r>
       <r>    -5.3444     4.2046    14.5704 </r>
       <r>    -5.2704     4.0835    14.8727 </r>
       <r>    -5.1963     3.0533    15.0988 </r>
       <r>    -5.1223     2.0921    15.2537 </r>
       <r>    -5.0482     3.7743    15.5332 </r>
       <r>    -4.9742     0.4847    15.5691 </r>
       <r>    -4.9002     1.6155    15.6887 </r>
       <r>    -4.8261     0.9969    15.7625 </r>
       <r>    -4.7521     2.0200    15.9121 </r>
       <r>    -4.6780     0.5118    15.9500 </r>
       <r>    -4.6040     0.5551    15.9911 </r>
       <r>    -4.5299     0.1204    16.0000 </r>
       <r>    -4.4559     0.2739    16.0203 </r>
       <r>    -4.3818     0.6651    16.0695 </r>
       <r>    -4.3078     1.1443    16.1543 </r>
       <r>    -4.2337     1.8457    16.2909 </r>
       <r>    -4.1597     1.4667    16.3995 </r>
       <r>    -4.0856     2.7480    16.6030 </r>
       <r>    -4.0116     2.3410    16.7764 </r>
       <r>    -3.9376     3.7792    17.0562 </r>
       <r>    -3.8635     3.6048    17.3231 </r>
       <r>    -3.7895     2.6115    17.5165 </r>
       <r>    -3.7154     5.2133    17.9025 </r>
       <r>    -3.6414     4.5767    18.2414 </r>
       <r>    -3.5673     5.6419    18.6592 </r>
       <r>    -3.4933     4.5270    18.9944 </r>
       <r>    -3.4192     3.4182    19.2475 </r>
       <r>    -3.3452     1.1147    19.3300 </r>
       <r>    -3.2711     1.3222    19.4279 </r>
       <r>    -3.1971     1.8946    19.5682 </r>
       <r>    -3.1230     1.0645    19.6470 </r>
       <r>    -3.0490     0.7084    19.6995 </r>
       <r>    -2.9750     0.9960    19.7732 </r>
       <r>    -2.9009     1.1243    19.8565 </r>
       <r>    -2.8269     0.1868    19.8703 </r>
       <r>    -2.7528     0.3187    19.8939 </r>
       <r>    -2.6788     0.5102    19.9317 </r>
       <r>    -2.6047     0.5883    19.9753 </r>
       <r>    -2.5307     0.2310    19.9924 </r>
       <r>    -2.4566     0.1032    20.0000 </r>
       <r>    -2.3826     0.0000    20.0000 </r>
       <r>    -2.3085     0.0000    20.0000 </r>
       <r>    -2.2345     0.0000    20.0000 </r>
       <r>    -2.1604     0.0000    20.0000 </r>
       <r>    -2.0864     0.0000    20.0000 </r>
       <r>    -2.0124     0.0000    20.0000 </r>
       <r>    -1.9383     0.0000    20.0000 </r>
       <r>    -1.8643     0.0000    20.0000 </r>
       <r>    -1.7902     0.0120    20.0009 </r>
       <r>    -1.7162     0.3529    20.0270 </r>
       <r>    -1.6421     0.3140    20.0503 </r>
       <r>    -1.5681     0.6982    20.1020 </r>
       <r>    -1.4940     0.8704    20.1664 </r>
       <r>    -1.4200     1.1671    20.2528 </r>
       <r>    -1.3459     0.9018    20.3196 </r>
       <r>    -1.2719     0.7907    20.3782 </r>
       <r>    -1.1978     1.3119    20.4753 </r>
       <r>    -1.1238     1.2034    20.5644 </r>
       <r>    -1.0498     2.5168    20.7508 </r>
       <r>    -0.9757     4.8532    21.1101 </r>
       <r>    -0.9017     3.7331    21.3866 </r>
       <r>    -0.8276     2.5263    21.5736 </r>
       <r>    -0.7536     2.8977    21.7882 </r>
       <r>    -0.6795     3.3326    22.0350 </r>
       <r>    -0.6055     3.1932    22.2714 </r>
       <r>    -0.5314     2.3771    22.4474 </r>
       <r>    -0.4574     4.5494    22.7843 </r>
       <r>    -0.3833     4.2825    23.1014 </r>
       <r>    -0.3093     2.8035    23.3090 </r>
       <r>    -0.2352     2.7945    23.5159 </r>
       <r>    -0.1612     1.8034    23.6494 </r>
       <r>    -0.0872     5.0308    24.0219 </r>
       <r>    -0.0131     4.6157    24.3637 </r>
       <r>     0.0609     3.2377    24.6035 </r>
       <r>     0.1350     2.8818    24.8168 </r>
       <r>     0.2090     4.4721    25.1480 </r>
       <r>     0.2831     3.9271    25.4388 </r>
       <r>     0.3571     3.4736    25.6960 </r>
       <r>     0.4312     3.6936    25.9695 </r>
       <r>     0.5052     4.3674    26.2929 </r>
       <r>     0.5793     4.1164    26.5977 </r>
       <r>     0.6533     3.5533    26.8608 </r>
       <r>     0.7274     3.6371    27.1301 </r>
       <r>     0.8014     1.6227    27.2502 </r>
       <r>     0.8754     1.3420    27.3496 </r>
       <r>     0.9495     2.3770    27.5256 </r>
       <r>     1.0235     2.7379    27.7283 </r>
       <r>     1.0976     3.0656    27.9553 </r>
       <r>     1.1716     2.0898    28.1101 </r>
       <r>     1.2457     3.3861    28.3608 </r>
       <r>     1.3197     2.3804    28.5371 </r>
       <r>     1.3938     2.3573    28.7116 </r>
       <r>     1.4678     1.0402    28.7886 </r>
       <r>     1.5419     1.7447    28.9178 </r>
       <r>     1.6159     2.5612    29.1075 </r>
       <r>     1.6900     2.2329    29.2728 </r>
       <r>     1.7640     1.1218    29.3559 </r>
       <r>     1.8380     1.5996    29.4743 </r>
       <r>     1.9121     1.5186    29.5868 </r>
       <r>     1.9861     3.4392    29.8414 </r>
       <r>     2.0602     1.8231    29.9764 </r>
       <r>     2.1342     1.9462    30.1205 </r>
       <r>     2.2083     3.3307    30.3672 </r>
       <r>     2.2823     2.7821    30.5732 </r>
       <r>     2.3564     3.0351    30.7979 </r>
       <r>     2.4304     3.2037    31.0351 </r>
       <r>     2.5045     3.0456    31.2606 </r>
       <r>     2.5785     1.6433    31.3823 </r>
       <r>     2.6526     0.4473    31.4154 </r>
       <r>     2.7266     1.2315    31.5066 </r>
       <r>     2.8007     0.5146    31.5447 </r>
       <r>     2.8747     1.3831    31.6471 </r>
       <r>     2.9487     0.8207    31.7079 </r>
       <r>     3.0228     1.0939    31.7889 </r>
       <r>     3.0968     1.0779    31.8687 </r>
       <r>     3.1709     0.4221    31.9000 </r>
       <r>     3.2449     0.2986    31.9221 </r>
       <r>     3.3190     1.0519    32.0000 </r>
       <r>     3.3930     0.0003    32.0000 </r>
       <r>     3.4671     0.0000    32.0000 </r>
       <r>     3.5411     0.0000    32.0000 </r>
       <r>     3.6152     0.0000    32.0000 </r>
       <r>     3.6892     0.0000    32.0000 </r>
       <r>     3.7633     0.0000    32.0000 </r>
       <r>     3.8373     0.0000    32.0000 </r>
       <r>     3.9113     0.0000    32.0000 </r>
       <r>     3.9854     0.0000    32.0000 </r>
       <r>     4.0594     0.0000    32.0000 </r>
       <r>     4.1335     0.0000    32.0000 </r>
       <r>     4.2075     0.0000    32.0000 </r>
       <r>     4.2816     0.0000    32.0000 </r>
      </set>
     </set>
    </array>
   </total>
  </dos>
 </calculation>
 <structure name="finalpos" >
  <crystal>
   <varray name="basis" >
    <v>       3.58168000       0.00000000       0.00000000 </v>
    <v>       0.00000000       4.62335100      -0.00005300 </v>
    <v>       0.00000000       0.00000000      20.02439000 </v>
   </varray>
   <i name="volume">    331.59115908 </i>
   <varray name="rec_basis" >
    <v>       0.27919859       0.00000000       0.00000000 </v>
    <v>       0.00000000       0.21629333       0.00000000 </v>
    <v>       0.00000000       0.00000057       0.04993910 </v>
   </varray>
  </crystal>
  <varray name="positions" >
   <v>       0.50000000       0.90783891       0.55195310 </v>
   <v>       0.50000000       0.09216109       0.44804690 </v>
   <v>       0.00000000       0.40783429       0.44804690 </v>
   <v>      -0.00000000       0.59216571       0.55195310 </v>
  </varray>
 </structure>
</modeling>
