<?xml version="1.0" encoding="ISO-8859-1"?>
<modeling>
 <generator>
  <i name="program" type="string">vasp </i>
  <i name="version" type="string">5.4.1  </i>
  <i name="subversion" type="string">24Jun15 (build Nov 20 2020 10:29:34) complex                          parallel </i>
  <i name="platform" type="string">IFC91_ompi </i>
  <i name="date" type="string">2021 09 09 </i>
  <i name="time" type="string">13:44:12 </i>
 </generator>
 <incar>
  <i type="string" name="PREC">a</i>
  <i type="string" name="ALGO"> Normal</i>
  <i type="int" name="ISPIN">     1</i>
  <i type="int" name="ICHARG">     2</i>
  <i type="int" name="NELM">   250</i>
  <i type="int" name="NELMDL">    -5</i>
  <i type="int" name="NELMIN">     6</i>
  <i type="int" name="IBRION">     2</i>
  <i name="EDIFF">      0.00001000</i>
  <i name="EDIFFG">     -0.01000000</i>
  <i type="int" name="NSW">   200</i>
  <i type="int" name="ISIF">     2</i>
  <i name="ENCUT">    520.00000000</i>
  <i name="POTIM">      0.30000000</i>
  <i type="logical" name="LREAL"> F  </i>
  <i type="int" name="ISMEAR">     0</i>
  <i name="SIGMA">      0.02000000</i>
  <i type="logical" name="LWAVE"> F  </i>
  <i type="logical" name="LCHARG"> F  </i>
  <i type="logical" name="LAECHG"> F  </i>
  <v type="int" name="KPOINT_BSE">    -1     0     0     0</v>
  <i type="int" name="NELM">   250</i>
 </incar>
 <kpoints>
  <generation param="Gamma">
   <v type="int" name="divisions">      21       15        1 </v>
   <v name="usershift">      0.00000000       0.00000000       0.00000000 </v>
   <v name="genvec1">      0.04761905       0.00000000       0.00000000 </v>
   <v name="genvec2">     -0.00000000       0.06666667       0.00000000 </v>
   <v name="genvec3">      0.00000000       0.00000000       1.00000000 </v>
   <v name="shift">      0.00000000       0.00000000       0.00000000 </v>
  </generation>
  <varray name="kpointlist" >
   <v>       0.00000000       0.00000000       0.00000000 </v>
   <v>       0.04761905       0.00000000       0.00000000 </v>
   <v>       0.09523810       0.00000000       0.00000000 </v>
   <v>       0.14285714      -0.00000000       0.00000000 </v>
   <v>       0.19047619      -0.00000000       0.00000000 </v>
   <v>       0.23809524      -0.00000000       0.00000000 </v>
   <v>       0.28571429      -0.00000000       0.00000000 </v>
   <v>       0.33333333      -0.00000000       0.00000000 </v>
   <v>       0.38095238      -0.00000000       0.00000000 </v>
   <v>       0.42857143      -0.00000000       0.00000000 </v>
   <v>       0.47619048      -0.00000000       0.00000000 </v>
   <v>      -0.00000000       0.06666667       0.00000000 </v>
   <v>       0.04761905       0.06666667       0.00000000 </v>
   <v>       0.09523810       0.06666667       0.00000000 </v>
   <v>       0.14285714       0.06666667       0.00000000 </v>
   <v>       0.19047619       0.06666667       0.00000000 </v>
   <v>       0.23809524       0.06666667       0.00000000 </v>
   <v>       0.28571429       0.06666667       0.00000000 </v>
   <v>       0.33333333       0.06666667       0.00000000 </v>
   <v>       0.38095238       0.06666667       0.00000000 </v>
   <v>       0.42857143       0.06666667       0.00000000 </v>
   <v>       0.47619048       0.06666667       0.00000000 </v>
   <v>      -0.47619048       0.06666667       0.00000000 </v>
   <v>      -0.42857143       0.06666667       0.00000000 </v>
   <v>      -0.38095238       0.06666667       0.00000000 </v>
   <v>      -0.33333333       0.06666667       0.00000000 </v>
   <v>      -0.28571429       0.06666667       0.00000000 </v>
   <v>      -0.23809524       0.06666667       0.00000000 </v>
   <v>      -0.19047619       0.06666667       0.00000000 </v>
   <v>      -0.14285714       0.06666667       0.00000000 </v>
   <v>      -0.09523810       0.06666667       0.00000000 </v>
   <v>      -0.04761905       0.06666667       0.00000000 </v>
   <v>      -0.00000000       0.13333333       0.00000000 </v>
   <v>       0.04761905       0.13333333       0.00000000 </v>
   <v>       0.09523810       0.13333333       0.00000000 </v>
   <v>       0.14285714       0.13333333       0.00000000 </v>
   <v>       0.19047619       0.13333333       0.00000000 </v>
   <v>       0.23809524       0.13333333       0.00000000 </v>
   <v>       0.28571429       0.13333333       0.00000000 </v>
   <v>       0.33333333       0.13333333       0.00000000 </v>
   <v>       0.38095238       0.13333333       0.00000000 </v>
   <v>       0.42857143       0.13333333       0.00000000 </v>
   <v>       0.47619048       0.13333333       0.00000000 </v>
   <v>      -0.47619048       0.13333333       0.00000000 </v>
   <v>      -0.42857143       0.13333333       0.00000000 </v>
   <v>      -0.38095238       0.13333333       0.00000000 </v>
   <v>      -0.33333333       0.13333333       0.00000000 </v>
   <v>      -0.28571429       0.13333333       0.00000000 </v>
   <v>      -0.23809524       0.13333333       0.00000000 </v>
   <v>      -0.19047619       0.13333333       0.00000000 </v>
   <v>      -0.14285714       0.13333333       0.00000000 </v>
   <v>      -0.09523810       0.13333333       0.00000000 </v>
   <v>      -0.04761905       0.13333333       0.00000000 </v>
   <v>      -0.00000000       0.20000000       0.00000000 </v>
   <v>       0.04761905       0.20000000       0.00000000 </v>
   <v>       0.09523810       0.20000000       0.00000000 </v>
   <v>       0.14285714       0.20000000       0.00000000 </v>
   <v>       0.19047619       0.20000000       0.00000000 </v>
   <v>       0.23809524       0.20000000       0.00000000 </v>
   <v>       0.28571429       0.20000000       0.00000000 </v>
   <v>       0.33333333       0.20000000       0.00000000 </v>
   <v>       0.38095238       0.20000000       0.00000000 </v>
   <v>       0.42857143       0.20000000       0.00000000 </v>
   <v>       0.47619048       0.20000000       0.00000000 </v>
   <v>      -0.47619048       0.20000000       0.00000000 </v>
   <v>      -0.42857143       0.20000000       0.00000000 </v>
   <v>      -0.38095238       0.20000000       0.00000000 </v>
   <v>      -0.33333333       0.20000000       0.00000000 </v>
   <v>      -0.28571429       0.20000000       0.00000000 </v>
   <v>      -0.23809524       0.20000000       0.00000000 </v>
   <v>      -0.19047619       0.20000000       0.00000000 </v>
   <v>      -0.14285714       0.20000000       0.00000000 </v>
   <v>      -0.09523810       0.20000000       0.00000000 </v>
   <v>      -0.04761905       0.20000000       0.00000000 </v>
   <v>      -0.00000000       0.26666667       0.00000000 </v>
   <v>       0.04761905       0.26666667       0.00000000 </v>
   <v>       0.09523810       0.26666667       0.00000000 </v>
   <v>       0.14285714       0.26666667       0.00000000 </v>
   <v>       0.19047619       0.26666667       0.00000000 </v>
   <v>       0.23809524       0.26666667       0.00000000 </v>
   <v>       0.28571429       0.26666667       0.00000000 </v>
   <v>       0.33333333       0.26666667       0.00000000 </v>
   <v>       0.38095238       0.26666667       0.00000000 </v>
   <v>       0.42857143       0.26666667       0.00000000 </v>
   <v>       0.47619048       0.26666667       0.00000000 </v>
   <v>      -0.47619048       0.26666667       0.00000000 </v>
   <v>      -0.42857143       0.26666667       0.00000000 </v>
   <v>      -0.38095238       0.26666667       0.00000000 </v>
   <v>      -0.33333333       0.26666667       0.00000000 </v>
   <v>      -0.28571429       0.26666667       0.00000000 </v>
   <v>      -0.23809524       0.26666667       0.00000000 </v>
   <v>      -0.19047619       0.26666667       0.00000000 </v>
   <v>      -0.14285714       0.26666667       0.00000000 </v>
   <v>      -0.09523810       0.26666667       0.00000000 </v>
   <v>      -0.04761905       0.26666667       0.00000000 </v>
   <v>      -0.00000000       0.33333333       0.00000000 </v>
   <v>       0.04761905       0.33333333       0.00000000 </v>
   <v>       0.09523810       0.33333333       0.00000000 </v>
   <v>       0.14285714       0.33333333       0.00000000 </v>
   <v>       0.19047619       0.33333333       0.00000000 </v>
   <v>       0.23809524       0.33333333       0.00000000 </v>
   <v>       0.28571429       0.33333333       0.00000000 </v>
   <v>       0.33333333       0.33333333       0.00000000 </v>
   <v>       0.38095238       0.33333333       0.00000000 </v>
   <v>       0.42857143       0.33333333       0.00000000 </v>
   <v>       0.47619048       0.33333333       0.00000000 </v>
   <v>      -0.47619048       0.33333333       0.00000000 </v>
   <v>      -0.42857143       0.33333333       0.00000000 </v>
   <v>      -0.38095238       0.33333333       0.00000000 </v>
   <v>      -0.33333333       0.33333333       0.00000000 </v>
   <v>      -0.28571429       0.33333333       0.00000000 </v>
   <v>      -0.23809524       0.33333333       0.00000000 </v>
   <v>      -0.19047619       0.33333333       0.00000000 </v>
   <v>      -0.14285714       0.33333333       0.00000000 </v>
   <v>      -0.09523810       0.33333333       0.00000000 </v>
   <v>      -0.04761905       0.33333333       0.00000000 </v>
   <v>      -0.00000000       0.40000000       0.00000000 </v>
   <v>       0.04761905       0.40000000       0.00000000 </v>
   <v>       0.09523810       0.40000000       0.00000000 </v>
   <v>       0.14285714       0.40000000       0.00000000 </v>
   <v>       0.19047619       0.40000000       0.00000000 </v>
   <v>       0.23809524       0.40000000       0.00000000 </v>
   <v>       0.28571429       0.40000000       0.00000000 </v>
   <v>       0.33333333       0.40000000       0.00000000 </v>
   <v>       0.38095238       0.40000000       0.00000000 </v>
   <v>       0.42857143       0.40000000       0.00000000 </v>
   <v>       0.47619048       0.40000000       0.00000000 </v>
   <v>      -0.47619048       0.40000000       0.00000000 </v>
   <v>      -0.42857143       0.40000000       0.00000000 </v>
   <v>      -0.38095238       0.40000000       0.00000000 </v>
   <v>      -0.33333333       0.40000000       0.00000000 </v>
   <v>      -0.28571429       0.40000000       0.00000000 </v>
   <v>      -0.23809524       0.40000000       0.00000000 </v>
   <v>      -0.19047619       0.40000000       0.00000000 </v>
   <v>      -0.14285714       0.40000000       0.00000000 </v>
   <v>      -0.09523810       0.40000000       0.00000000 </v>
   <v>      -0.04761905       0.40000000       0.00000000 </v>
   <v>      -0.00000000       0.46666667       0.00000000 </v>
   <v>       0.04761905       0.46666667       0.00000000 </v>
   <v>       0.09523810       0.46666667       0.00000000 </v>
   <v>       0.14285714       0.46666667       0.00000000 </v>
   <v>       0.19047619       0.46666667       0.00000000 </v>
   <v>       0.23809524       0.46666667       0.00000000 </v>
   <v>       0.28571429       0.46666667       0.00000000 </v>
   <v>       0.33333333       0.46666667       0.00000000 </v>
   <v>       0.38095238       0.46666667       0.00000000 </v>
   <v>       0.42857143       0.46666667       0.00000000 </v>
   <v>       0.47619048       0.46666667       0.00000000 </v>
   <v>      -0.47619048       0.46666667       0.00000000 </v>
   <v>      -0.42857143       0.46666667       0.00000000 </v>
   <v>      -0.38095238       0.46666667       0.00000000 </v>
   <v>      -0.33333333       0.46666667       0.00000000 </v>
   <v>      -0.28571429       0.46666667       0.00000000 </v>
   <v>      -0.23809524       0.46666667       0.00000000 </v>
   <v>      -0.19047619       0.46666667       0.00000000 </v>
   <v>      -0.14285714       0.46666667       0.00000000 </v>
   <v>      -0.09523810       0.46666667       0.00000000 </v>
   <v>      -0.04761905       0.46666667       0.00000000 </v>
  </varray>
  <varray name="weights" >
   <v>       0.00317460 </v>
   <v>       0.00634921 </v>
   <v>       0.00634921 </v>
   <v>       0.00634921 </v>
   <v>       0.00634921 </v>
   <v>       0.00634921 </v>
   <v>       0.00634921 </v>
   <v>       0.00634921 </v>
   <v>       0.00634921 </v>
   <v>       0.00634921 </v>
   <v>       0.00634921 </v>
   <v>       0.00634921 </v>
   <v>       0.00634921 </v>
   <v>       0.00634921 </v>
   <v>       0.00634921 </v>
   <v>       0.00634921 </v>
   <v>       0.00634921 </v>
   <v>       0.00634921 </v>
   <v>       0.00634921 </v>
   <v>       0.00634921 </v>
   <v>       0.00634921 </v>
   <v>       0.00634921 </v>
   <v>       0.00634921 </v>
   <v>       0.00634921 </v>
   <v>       0.00634921 </v>
   <v>       0.00634921 </v>
   <v>       0.00634921 </v>
   <v>       0.00634921 </v>
   <v>       0.00634921 </v>
   <v>       0.00634921 </v>
   <v>       0.00634921 </v>
   <v>       0.00634921 </v>
   <v>       0.00634921 </v>
   <v>       0.00634921 </v>
   <v>       0.00634921 </v>
   <v>       0.00634921 </v>
   <v>       0.00634921 </v>
   <v>       0.00634921 </v>
   <v>       0.00634921 </v>
   <v>       0.00634921 </v>
   <v>       0.00634921 </v>
   <v>       0.00634921 </v>
   <v>       0.00634921 </v>
   <v>       0.00634921 </v>
   <v>       0.00634921 </v>
   <v>       0.00634921 </v>
   <v>       0.00634921 </v>
   <v>       0.00634921 </v>
   <v>       0.00634921 </v>
   <v>       0.00634921 </v>
   <v>       0.00634921 </v>
   <v>       0.00634921 </v>
   <v>       0.00634921 </v>
   <v>       0.00634921 </v>
   <v>       0.00634921 </v>
   <v>       0.00634921 </v>
   <v>       0.00634921 </v>
   <v>       0.00634921 </v>
   <v>       0.00634921 </v>
   <v>       0.00634921 </v>
   <v>       0.00634921 </v>
   <v>       0.00634921 </v>
   <v>       0.00634921 </v>
   <v>       0.00634921 </v>
   <v>       0.00634921 </v>
   <v>       0.00634921 </v>
   <v>       0.00634921 </v>
   <v>       0.00634921 </v>
   <v>       0.00634921 </v>
   <v>       0.00634921 </v>
   <v>       0.00634921 </v>
   <v>       0.00634921 </v>
   <v>       0.00634921 </v>
   <v>       0.00634921 </v>
   <v>       0.00634921 </v>
   <v>       0.00634921 </v>
   <v>       0.00634921 </v>
   <v>       0.00634921 </v>
   <v>       0.00634921 </v>
   <v>       0.00634921 </v>
   <v>       0.00634921 </v>
   <v>       0.00634921 </v>
   <v>       0.00634921 </v>
   <v>       0.00634921 </v>
   <v>       0.00634921 </v>
   <v>       0.00634921 </v>
   <v>       0.00634921 </v>
   <v>       0.00634921 </v>
   <v>       0.00634921 </v>
   <v>       0.00634921 </v>
   <v>       0.00634921 </v>
   <v>       0.00634921 </v>
   <v>       0.00634921 </v>
   <v>       0.00634921 </v>
   <v>       0.00634921 </v>
   <v>       0.00634921 </v>
   <v>       0.00634921 </v>
   <v>       0.00634921 </v>
   <v>       0.00634921 </v>
   <v>       0.00634921 </v>
   <v>       0.00634921 </v>
   <v>       0.00634921 </v>
   <v>       0.00634921 </v>
   <v>       0.00634921 </v>
   <v>       0.00634921 </v>
   <v>       0.00634921 </v>
   <v>       0.00634921 </v>
   <v>       0.00634921 </v>
   <v>       0.00634921 </v>
   <v>       0.00634921 </v>
   <v>       0.00634921 </v>
   <v>       0.00634921 </v>
   <v>       0.00634921 </v>
   <v>       0.00634921 </v>
   <v>       0.00634921 </v>
   <v>       0.00634921 </v>
   <v>       0.00634921 </v>
   <v>       0.00634921 </v>
   <v>       0.00634921 </v>
   <v>       0.00634921 </v>
   <v>       0.00634921 </v>
   <v>       0.00634921 </v>
   <v>       0.00634921 </v>
   <v>       0.00634921 </v>
   <v>       0.00634921 </v>
   <v>       0.00634921 </v>
   <v>       0.00634921 </v>
   <v>       0.00634921 </v>
   <v>       0.00634921 </v>
   <v>       0.00634921 </v>
   <v>       0.00634921 </v>
   <v>       0.00634921 </v>
   <v>       0.00634921 </v>
   <v>       0.00634921 </v>
   <v>       0.00634921 </v>
   <v>       0.00634921 </v>
   <v>       0.00634921 </v>
   <v>       0.00634921 </v>
   <v>       0.00634921 </v>
   <v>       0.00634921 </v>
   <v>       0.00634921 </v>
   <v>       0.00634921 </v>
   <v>       0.00634921 </v>
   <v>       0.00634921 </v>
   <v>       0.00634921 </v>
   <v>       0.00634921 </v>
   <v>       0.00634921 </v>
   <v>       0.00634921 </v>
   <v>       0.00634921 </v>
   <v>       0.00634921 </v>
   <v>       0.00634921 </v>
   <v>       0.00634921 </v>
   <v>       0.00634921 </v>
   <v>       0.00634921 </v>
   <v>       0.00634921 </v>
   <v>       0.00634921 </v>
   <v>       0.00634921 </v>
   <v>       0.00634921 </v>
  </varray>
 </kpoints>
 <parameters>
  <separator name="general" >
   <i type="string" name="SYSTEM">unknown system</i>
   <i type="logical" name="LCOMPAT"> F  </i>
  </separator>
  <separator name="electronic" >
   <i type="string" name="PREC">a</i>
   <i name="ENMAX">    520.00000000</i>
   <i name="ENAUG">    342.92400000</i>
   <i name="EDIFF">      0.00001000</i>
   <i type="int" name="IALGO">    38</i>
   <i type="int" name="IWAVPR">    11</i>
   <i type="int" name="NBANDS">    16</i>
   <i name="NELECT">     20.00000000</i>
   <i type="int" name="TURBO">     0</i>
   <i type="int" name="IRESTART">     0</i>
   <i type="int" name="NREBOOT">     0</i>
   <i type="int" name="NMIN">     0</i>
   <i name="EREF">      0.00000000</i>
   <separator name="electronic smearing" >
    <i type="int" name="ISMEAR">     0</i>
    <i name="SIGMA">      0.02000000</i>
    <i name="KSPACING">      0.50000000</i>
    <i type="logical" name="KGAMMA"> T  </i>
   </separator>
   <separator name="electronic projectors" >
    <i type="logical" name="LREAL"> F  </i>
    <v name="ROPT">      0.00000000</v>
    <i type="int" name="LMAXPAW">  -100</i>
    <i type="int" name="LMAXMIX">     2</i>
    <i type="logical" name="NLSPLINE"> F  </i>
   </separator>
   <separator name="electronic startup" >
    <i type="int" name="ISTART">     0</i>
    <i type="int" name="ICHARG">     2</i>
    <i type="int" name="INIWAV">     1</i>
   </separator>
   <separator name="electronic spin" >
    <i type="int" name="ISPIN">     1</i>
    <i type="logical" name="LNONCOLLINEAR"> F  </i>
    <v name="MAGMOM">      1.00000000      1.00000000      1.00000000      1.00000000</v>
    <i name="NUPDOWN">     -1.00000000</i>
    <i type="logical" name="LSORBIT"> F  </i>
    <v name="SAXIS">      0.00000000      0.00000000      1.00000000</v>
    <i type="logical" name="LSPIRAL"> F  </i>
    <v name="QSPIRAL">      0.00000000      0.00000000      0.00000000</v>
    <i type="logical" name="LZEROZ"> F  </i>
   </separator>
   <separator name="electronic exchange-correlation" >
    <i type="logical" name="LASPH"> F  </i>
    <i type="logical" name="LMETAGGA"> F  </i>
   </separator>
   <separator name="electronic convergence" >
    <i type="int" name="NELM">   250</i>
    <i type="int" name="NELMDL">    -5</i>
    <i type="int" name="NELMIN">     6</i>
    <i name="ENINI">    520.00000000</i>
    <separator name="electronic convergence detail" >
     <i type="logical" name="LDIAG"> T  </i>
     <i type="logical" name="LSUBROT"> F  </i>
     <i name="WEIMIN">      0.00100000</i>
     <i name="EBREAK">      0.00000016</i>
     <i name="DEPER">      0.30000000</i>
     <i type="int" name="NRMM">     4</i>
     <i name="TIME">      0.40000000</i>
    </separator>
   </separator>
   <separator name="electronic mixer" >
    <i name="AMIX">      0.40000000</i>
    <i name="BMIX">      1.00000000</i>
    <i name="AMIN">      0.10000000</i>
    <i name="AMIX_MAG">      1.60000000</i>
    <i name="BMIX_MAG">      1.00000000</i>
    <separator name="electronic mixer details" >
     <i type="int" name="IMIX">     4</i>
     <i type="logical" name="MIXFIRST"> F  </i>
     <i type="int" name="MAXMIX">   -45</i>
     <i name="WC">    100.00000000</i>
     <i type="int" name="INIMIX">     1</i>
     <i type="int" name="MIXPRE">     1</i>
     <i type="int" name="MREMOVE">     5</i>
    </separator>
   </separator>
   <separator name="electronic dipolcorrection" >
    <i type="logical" name="LDIPOL"> F  </i>
    <i type="logical" name="LMONO"> F  </i>
    <i type="int" name="IDIPOL">     0</i>
    <i name="EPSILON">      1.00000000</i>
    <v name="DIPOL">   -100.00000000   -100.00000000   -100.00000000</v>
    <i name="EFIELD">      0.00000000</i>
   </separator>
  </separator>
  <separator name="grids" >
   <i type="int" name="NGX">    28</i>
   <i type="int" name="NGY">    36</i>
   <i type="int" name="NGZ">   150</i>
   <i type="int" name="NGXF">    56</i>
   <i type="int" name="NGYF">    72</i>
   <i type="int" name="NGZF">   300</i>
   <i type="logical" name="ADDGRID"> F  </i>
  </separator>
  <separator name="ionic" >
   <i type="int" name="NSW">   200</i>
   <i type="int" name="IBRION">     2</i>
   <i type="int" name="ISIF">     2</i>
   <i name="PSTRESS">      0.00000000</i>
   <i name="EDIFFG">     -0.01000000</i>
   <i type="int" name="NFREE">     1</i>
   <i name="POTIM">      0.30000000</i>
   <i name="SMASS">     -3.00000000</i>
   <i name="SCALEE">      1.00000000</i>
  </separator>
  <separator name="ionic md" >
   <i name="TEBEG">      0.00010000</i>
   <i name="TEEND">      0.00010000</i>
   <i type="int" name="NBLOCK">     1</i>
   <i type="int" name="KBLOCK">   200</i>
   <i type="int" name="NPACO">   256</i>
   <i name="APACO">     16.00000000</i>
  </separator>
  <separator name="symmetry" >
   <i type="int" name="ISYM">     2</i>
   <i name="SYMPREC">      0.00001000</i>
  </separator>
  <separator name="dos" >
   <i type="logical" name="LORBIT"> F  </i>
   <v name="RWIGS">     -1.00000000</v>
   <i type="int" name="NEDOS">   301</i>
   <i name="EMIN">     10.00000000</i>
   <i name="EMAX">    -10.00000000</i>
   <i name="EFERMI">      0.00000000</i>
  </separator>
  <separator name="writing" >
   <i type="int" name="NWRITE">     2</i>
   <i type="logical" name="LWAVE"> F  </i>
   <i type="logical" name="LCHARG"> F  </i>
   <i type="logical" name="LPARD"> F  </i>
   <i type="logical" name="LVTOT"> F  </i>
   <i type="logical" name="LVHAR"> F  </i>
   <i type="logical" name="LELF"> F  </i>
   <i type="logical" name="LOPTICS"> F  </i>
   <v name="STM">      0.00000000      0.00000000      0.00000000      0.00000000      0.00000000      0.00000000      0.00000000</v>
  </separator>
  <separator name="performance" >
   <i type="int" name="NPAR">     4</i>
   <i type="int" name="NSIM">     4</i>
   <i type="int" name="NBLK">    -1</i>
   <i type="logical" name="LPLANE"> T  </i>
   <i type="logical" name="LSCALAPACK"> T  </i>
   <i type="logical" name="LSCAAWARE"> F  </i>
   <i type="logical" name="LSCALU"> F  </i>
   <i type="logical" name="LASYNC"> F  </i>
   <i type="logical" name="LORBITALREAL"> F  </i>
  </separator>
  <separator name="miscellaneous" >
   <i type="int" name="IDIOT">     3</i>
   <i type="logical" name="LMUSIC"> F  </i>
   <v name="POMASS">     30.97400000</v>
   <v name="DARWINR">      0.00000000</v>
   <v name="DARWINV">      1.00000000</v>
   <i type="logical" name="LCORR"> T  </i>
  </separator>
  <i type="logical" name="GGA_COMPAT"> T  </i>
  <i type="logical" name="LBERRY"> F  </i>
  <i type="int" name="ICORELEVEL">     0</i>
  <i type="logical" name="LDAU"> F  </i>
  <i type="int" name="I_CONSTRAINED_M">     0</i>
  <separator name="electronic exchange-correlation" >
   <i type="string" name="GGA">--</i>
   <i type="int" name="VOSKOWN">     0</i>
   <i type="logical" name="LHFCALC"> F  </i>
   <i type="string" name="PRECFOCK"></i>
   <i type="logical" name="LSYMGRAD"> F  </i>
   <i type="logical" name="LHFONE"> F  </i>
   <i type="logical" name="LRHFCALC"> F  </i>
   <i type="logical" name="LTHOMAS"> F  </i>
   <i type="logical" name="LMODELHF"> F  </i>
   <i name="ENCUT4O">     -1.00000000</i>
   <i type="int" name="EXXOEP">     0</i>
   <i type="int" name="FOURORBIT">     0</i>
   <i name="AEXX">      0.00000000</i>
   <i name="HFALPHA">      0.00000000</i>
   <i name="MCALPHA">      0.00000000</i>
   <i name="ALDAX">      1.00000000</i>
   <i name="AGGAX">      1.00000000</i>
   <i name="ALDAC">      1.00000000</i>
   <i name="AGGAC">      1.00000000</i>
   <i type="int" name="NKREDX">     1</i>
   <i type="int" name="NKREDY">     1</i>
   <i type="int" name="NKREDZ">     1</i>
   <i type="logical" name="SHIFTRED"> F  </i>
   <i type="logical" name="ODDONLY"> F  </i>
   <i type="logical" name="EVENONLY"> F  </i>
   <i type="int" name="LMAXFOCK">     0</i>
   <i type="int" name="NMAXFOCKAE">     0</i>
   <i type="logical" name="LFOCKAEDFT"> F  </i>
   <i name="HFSCREEN">      0.00000000</i>
   <i name="HFSCREENC">      0.00000000</i>
   <i type="int" name="NBANDSGWLOW">     0</i>
  </separator>
  <separator name="vdW DFT" >
   <i type="logical" name="LUSE_VDW"> F  </i>
   <i name="Zab_VDW">     -0.84910000</i>
   <i name="PARAM1">      0.12340000</i>
   <i name="PARAM2">      1.00000000</i>
   <i name="PARAM3">      0.00000000</i>
  </separator>
  <separator name="model GW" >
   <i type="int" name="MODEL_GW">     0</i>
   <i name="MODEL_EPS0">     46.28895506</i>
   <i name="MODEL_ALPHA">      1.00000000</i>
  </separator>
  <separator name="linear response parameters" >
   <i type="logical" name="LEPSILON"> F  </i>
   <i type="logical" name="LRPA"> F  </i>
   <i type="logical" name="LNABLA"> F  </i>
   <i type="logical" name="LVEL"> F  </i>
   <i type="int" name="KINTER">     0</i>
   <i name="CSHIFT">      0.10000000</i>
   <i name="OMEGAMAX">     -1.00000000</i>
   <i name="DEG_THRESHOLD">      0.00200000</i>
  </separator>
  <separator name="orbital magnetization" >
   <i type="logical" name="NUCIND"> F  </i>
   <v name="MAGPOS">      0.00000000      0.00000000      0.00000000</v>
   <i type="logical" name="LNICSALL"> T  </i>
   <i type="logical" name="ORBITALMAG"> F  </i>
   <i type="logical" name="LMAGBLOCH"> F  </i>
   <i type="logical" name="LCHIMAG"> F  </i>
   <i type="logical" name="LGAUGE"> T  </i>
   <i type="int" name="MAGATOM">     0</i>
   <v name="MAGDIPOL">      0.00000000      0.00000000      0.00000000</v>
   <v name="AVECCONST">      0.00000000      0.00000000      0.00000000</v>
  </separator>
  <separator name="response functions" >
   <i type="logical" name="LADDER"> F  </i>
   <i type="logical" name="LFXC"> F  </i>
   <i type="logical" name="LHARTREE"> T  </i>
   <i type="int" name="IBSE">     0</i>
   <v type="int" name="KPOINT">    -1     0     0     0</v>
   <i type="logical" name="LTCTE"> F  </i>
   <i type="logical" name="LTETE"> F  </i>
   <i type="logical" name="LTRIPLET"> F  </i>
   <i type="logical" name="LFXCEPS"> F  </i>
   <i type="logical" name="LFXHEG"> F  </i>
   <i type="int" name="NATURALO">     0</i>
   <i type="logical" name="L2ORDER"> F  </i>
   <i type="logical" name="LUSEW"> F  </i>
   <i name="ENCUTGW">     -2.00000000</i>
   <i name="ENCUTGWSOFT">     -2.00000000</i>
   <i name="ENCUTLF">     -1.00000000</i>
   <i type="int" name="LMAXMP2">    -1</i>
   <i name="SCISSOR">      0.00000000</i>
   <i type="int" name="NOMEGA">     0</i>
   <i type="int" name="NOMEGAR">     0</i>
   <i type="int" name="NBANDSGW">    -1</i>
   <i type="int" name="NBANDSO">    -1</i>
   <i type="int" name="NBANDSV">    -1</i>
   <i type="int" name="NELM">   250</i>
   <i type="int" name="NELMHF">     1</i>
   <i type="int" name="DIM">     3</i>
   <i type="int" name="ANTIRES">     0</i>
   <i name="OMEGAMAX">    -30.00000000</i>
   <i name="OMEGAMIN">    -30.00000000</i>
   <i name="OMEGATL">   -200.00000000</i>
   <i type="int" name="OMEGAGRID">     0</i>
   <i name="CSHIFT">     -0.10000000</i>
   <i type="logical" name="SELFENERGY"> F  </i>
   <i type="logical" name="LSPECTRAL"> F  </i>
   <i type="logical" name="LSPECTRALGW"> F  </i>
   <i type="logical" name="LSINGLES"> F  </i>
   <i type="logical" name="LFERMIGW"> F  </i>
   <i type="logical" name="ODDONLYGW"> F  </i>
   <i type="logical" name="EVENONLYGW"> F  </i>
   <i type="int" name="NKREDLFX">     1</i>
   <i type="int" name="NKREDLFY">     1</i>
   <i type="int" name="NKREDLFZ">     1</i>
   <i type="int" name="MAXMEM">  1800</i>
   <i type="int" name="TELESCOPE">     0</i>
   <i type="int" name="TAUPAR">     1</i>
   <i type="int" name="OMEGAPAR">    -1</i>
   <i name="LAMBDA">      1.00000000</i>
  </separator>
  <separator name="External order field" >
   <i name="OFIELD_KAPPA">      0.00000000</i>
   <v name="OFIELD_K">      0.00000000      0.00000000      0.00000000</v>
   <i name="OFIELD_Q6_NEAR">      0.00000000</i>
   <i name="OFIELD_Q6_FAR">      0.00000000</i>
   <i name="OFIELD_A">      0.00000000</i>
  </separator>
 </parameters>
 <atominfo>
  <atoms>       4 </atoms>
  <types>       1 </types>
  <array name="atoms" >
   <dimension dim="1">ion</dimension>
   <field type="string">element</field>
   <field type="int">atomtype</field>
   <set>
    <rc><c>P </c><c>   1</c></rc>
    <rc><c>P </c><c>   1</c></rc>
    <rc><c>P </c><c>   1</c></rc>
    <rc><c>P </c><c>   1</c></rc>
   </set>
  </array>
  <array name="atomtypes" >
   <dimension dim="1">type</dimension>
   <field type="int">atomspertype</field>
   <field type="string">element</field>
   <field>mass</field>
   <field>valence</field>
   <field type="string">pseudopotential</field>
   <set>
    <rc><c>   4</c><c>P </c><c>     30.97400000</c><c>      5.00000000</c><c>  PAW_PBE P 06Sep2000                   </c></rc>
   </set>
  </array>
 </atominfo>
 <structure name="initialpos" >
  <crystal>
   <varray name="basis" >
    <v>       3.33388700       0.03688900       0.00000000 </v>
    <v>       0.05172700       4.62306200      -0.00005300 </v>
    <v>       0.00000000       0.00000000      20.02439000 </v>
   </varray>
   <i name="volume">    308.59303372 </i>
   <varray name="rec_basis" >
    <v>       0.29998732      -0.00335653       0.00000000 </v>
    <v>      -0.00239370       0.21633364       0.00000000 </v>
    <v>      -0.00000001       0.00000057       0.04993910 </v>
   </varray>
  </crystal>
  <varray name="positions" >
   <v>       0.50000000       0.91077300       0.55252100 </v>
   <v>       0.50000000       0.08922700       0.44747900 </v>
   <v>       0.00000000       0.41076900       0.44747900 </v>
   <v>       0.00000000       0.58923100       0.55252100 </v>
  </varray>
 </structure>
 <calculation>
  <scstep>
   <time name="dav">    1.49    1.49</time>
   <time name="total">    1.51    1.52</time>
   <energy>
    <i name="alphaZ">      5.19830607 </i>
    <i name="ewald">   1837.19143508 </i>
    <i name="hartreedc">  -2431.14947410 </i>
    <i name="XCdc">     12.92482374 </i>
    <i name="pawpsdc">    559.04011960 </i>
    <i name="pawaedc">   -526.39432044 </i>
    <i name="eentropy">     -0.00068703 </i>
    <i name="bandstr">    -28.17326168 </i>
    <i name="atom">    704.16778566 </i>
    <i name="e_fr_energy">    132.80472690 </i>
    <i name="e_wo_entrp">    132.80541393 </i>
    <i name="e_0_energy">    132.80507042 </i>
   </energy>
  </scstep>
  <scstep>
   <time name="dav">    1.99    1.99</time>
   <time name="total">    1.99    2.00</time>
   <energy>
    <i name="e_fr_energy">     -6.13928539 </i>
    <i name="e_wo_entrp">     -6.13928539 </i>
    <i name="e_0_energy">     -6.13928539 </i>
   </energy>
  </scstep>
  <scstep>
   <time name="dav">    1.82    1.83</time>
   <time name="total">    1.83    1.83</time>
   <energy>
    <i name="e_fr_energy">    -21.32067879 </i>
    <i name="e_wo_entrp">    -21.32067879 </i>
    <i name="e_0_energy">    -21.32067879 </i>
   </energy>
  </scstep>
  <scstep>
   <time name="dav">    1.87    1.87</time>
   <time name="total">    1.87    1.87</time>
   <energy>
    <i name="e_fr_energy">    -21.63089143 </i>
    <i name="e_wo_entrp">    -21.63089143 </i>
    <i name="e_0_energy">    -21.63089143 </i>
   </energy>
  </scstep>
  <scstep>
   <time name="dav">    1.97    1.97</time>
   <time name="total">    2.06    2.06</time>
   <energy>
    <i name="e_fr_energy">    -21.64072705 </i>
    <i name="e_wo_entrp">    -21.64072705 </i>
    <i name="e_0_energy">    -21.64072705 </i>
   </energy>
  </scstep>
  <scstep>
   <time name="dav">    1.81    1.81</time>
   <time name="total">    1.93    1.93</time>
   <energy>
    <i name="e_fr_energy">    -21.50478245 </i>
    <i name="e_wo_entrp">    -21.50478245 </i>
    <i name="e_0_energy">    -21.50478245 </i>
   </energy>
  </scstep>
  <scstep>
   <time name="dav">    1.73    1.73</time>
   <time name="total">    1.85    1.85</time>
   <energy>
    <i name="e_fr_energy">    -21.43897486 </i>
    <i name="e_wo_entrp">    -21.43897486 </i>
    <i name="e_0_energy">    -21.43897486 </i>
   </energy>
  </scstep>
  <scstep>
   <time name="dav">    1.81    1.81</time>
   <time name="total">    1.92    1.92</time>
   <energy>
    <i name="e_fr_energy">    -21.43853137 </i>
    <i name="e_wo_entrp">    -21.43853137 </i>
    <i name="e_0_energy">    -21.43853137 </i>
   </energy>
  </scstep>
  <scstep>
   <time name="dav">    2.11    2.11</time>
   <time name="total">    2.22    2.22</time>
   <energy>
    <i name="e_fr_energy">    -21.43839173 </i>
    <i name="e_wo_entrp">    -21.43839173 </i>
    <i name="e_0_energy">    -21.43839173 </i>
   </energy>
  </scstep>
  <scstep>
   <time name="dav">    1.81    1.81</time>
   <time name="total">    1.93    1.93</time>
   <energy>
    <i name="e_fr_energy">    -21.43824805 </i>
    <i name="e_wo_entrp">    -21.43824805 </i>
    <i name="e_0_energy">    -21.43824805 </i>
   </energy>
  </scstep>
  <scstep>
   <time name="dav">    1.81    1.81</time>
   <time name="total">    1.92    1.92</time>
   <energy>
    <i name="e_fr_energy">    -21.43817090 </i>
    <i name="e_wo_entrp">    -21.43817090 </i>
    <i name="e_0_energy">    -21.43817090 </i>
   </energy>
  </scstep>
  <scstep>
   <time name="dav">    1.62    1.62</time>
   <time name="total">    1.73    1.73</time>
   <energy>
    <i name="e_fr_energy">    -21.43855164 </i>
    <i name="e_wo_entrp">    -21.43855164 </i>
    <i name="e_0_energy">    -21.43855164 </i>
   </energy>
  </scstep>
  <scstep>
   <time name="dav">    1.61    1.61</time>
   <time name="total">    1.72    1.73</time>
   <energy>
    <i name="e_fr_energy">    -21.43864318 </i>
    <i name="e_wo_entrp">    -21.43864318 </i>
    <i name="e_0_energy">    -21.43864318 </i>
   </energy>
  </scstep>
  <scstep>
   <time name="dav">    1.49    1.49</time>
   <time name="total">    1.61    1.61</time>
   <energy>
    <i name="e_fr_energy">    -21.43876976 </i>
    <i name="e_wo_entrp">    -21.43876976 </i>
    <i name="e_0_energy">    -21.43876976 </i>
   </energy>
  </scstep>
  <scstep>
   <time name="dav">    1.55    1.55</time>
   <time name="total">    1.66    1.67</time>
   <energy>
    <i name="e_fr_energy">    -21.43880219 </i>
    <i name="e_wo_entrp">    -21.43880219 </i>
    <i name="e_0_energy">    -21.43880219 </i>
   </energy>
  </scstep>
  <scstep>
   <time name="dav">    1.46    1.46</time>
   <time name="total">    1.57    1.58</time>
   <energy>
    <i name="e_fr_energy">    -21.43883099 </i>
    <i name="e_wo_entrp">    -21.43883099 </i>
    <i name="e_0_energy">    -21.43883099 </i>
   </energy>
  </scstep>
  <scstep>
   <time name="dav">    1.47    1.47</time>
   <time name="total">    1.49    1.49</time>
   <energy>
    <i name="alphaZ">      5.19830607 </i>
    <i name="ewald">   1837.19143508 </i>
    <i name="hartreedc">  -2446.00530106 </i>
    <i name="XCdc">     13.97490026 </i>
    <i name="pawpsdc">   2055.99232589 </i>
    <i name="pawaedc">  -2023.66900093 </i>
    <i name="eentropy">     -0.00000000 </i>
    <i name="bandstr">   -168.28928473 </i>
    <i name="atom">    704.16778566 </i>
    <i name="e_fr_energy">    -21.43883377 </i>
    <i name="e_wo_entrp">    -21.43883377 </i>
    <i name="e_0_energy">    -21.43883377 </i>
   </energy>
  </scstep>
  <structure>
   <crystal>
    <varray name="basis" >
     <v>       3.33388700       0.03688900       0.00000000 </v>
     <v>       0.05172700       4.62306200      -0.00005300 </v>
     <v>       0.00000000       0.00000000      20.02439000 </v>
    </varray>
    <i name="volume">    308.59303372 </i>
    <varray name="rec_basis" >
     <v>       0.29998732      -0.00335653       0.00000000 </v>
     <v>      -0.00239370       0.21633364       0.00000000 </v>
     <v>      -0.00000001       0.00000057       0.04993910 </v>
    </varray>
   </crystal>
   <varray name="positions" >
    <v>       0.50000000       0.91077300       0.55252100 </v>
    <v>       0.50000000       0.08922700       0.44747900 </v>
    <v>       0.00000000       0.41076900       0.44747900 </v>
    <v>       0.00000000       0.58923100       0.55252100 </v>
   </varray>
  </structure>
  <varray name="forces" >
   <v>      -0.26863052      -0.02310383      -0.01773373 </v>
   <v>       0.26863052       0.02310383       0.01773373 </v>
   <v>      -0.26862793      -0.02313538       0.01773624 </v>
   <v>       0.26862793       0.02313538      -0.01773624 </v>
  </varray>
  <varray name="stress" >
   <v>      -5.28280048      -6.00454860       0.00003898 </v>
   <v>      -6.00454860      -1.31002444       0.00036239 </v>
   <v>       0.00003897       0.00036244      -0.45114252 </v>
  </varray>
  <energy>
   <i name="e_fr_energy">    -21.43883377 </i>
   <i name="e_wo_entrp">    -21.43883377 </i>
   <i name="e_0_energy">     -0.00000000 </i>
  </energy>
  <time name="totalsc">   31.59   31.64</time>
 </calculation>
 <calculation>
  <scstep>
   <time name="dav">    1.54    1.54</time>
   <time name="total">    1.66    1.66</time>
   <energy>
    <i name="alphaZ">      5.19830607 </i>
    <i name="ewald">   1837.69474467 </i>
    <i name="hartreedc">  -2446.49306217 </i>
    <i name="XCdc">     13.97968699 </i>
    <i name="pawpsdc">   2055.70550329 </i>
    <i name="pawaedc">  -2023.38222133 </i>
    <i name="eentropy">     -0.00000000 </i>
    <i name="bandstr">   -168.31498247 </i>
    <i name="atom">    704.16778566 </i>
    <i name="e_fr_energy">    -21.44423929 </i>
    <i name="e_wo_entrp">    -21.44423929 </i>
    <i name="e_0_energy">    -21.44423929 </i>
   </energy>
  </scstep>
  <scstep>
   <time name="dav">    1.85    1.85</time>
   <time name="total">    1.96    1.96</time>
   <energy>
    <i name="e_fr_energy">    -21.44501575 </i>
    <i name="e_wo_entrp">    -21.44501575 </i>
    <i name="e_0_energy">    -21.44501575 </i>
   </energy>
  </scstep>
  <scstep>
   <time name="dav">    1.95    1.95</time>
   <time name="total">    2.06    2.06</time>
   <energy>
    <i name="e_fr_energy">    -21.44497510 </i>
    <i name="e_wo_entrp">    -21.44497510 </i>
    <i name="e_0_energy">    -21.44497510 </i>
   </energy>
  </scstep>
  <scstep>
   <time name="dav">    1.79    1.79</time>
   <time name="total">    1.90    1.91</time>
   <energy>
    <i name="e_fr_energy">    -21.44496709 </i>
    <i name="e_wo_entrp">    -21.44496709 </i>
    <i name="e_0_energy">    -21.44496709 </i>
   </energy>
  </scstep>
  <scstep>
   <time name="dav">    1.29    1.30</time>
   <time name="total">    1.41    1.41</time>
   <energy>
    <i name="e_fr_energy">    -21.44496882 </i>
    <i name="e_wo_entrp">    -21.44496882 </i>
    <i name="e_0_energy">    -21.44496882 </i>
   </energy>
  </scstep>
  <scstep>
   <time name="dav">    1.23    1.23</time>
   <time name="total">    1.25    1.25</time>
   <energy>
    <i name="alphaZ">      5.19830607 </i>
    <i name="ewald">   1837.69474467 </i>
    <i name="hartreedc">  -2446.49190355 </i>
    <i name="XCdc">     13.97944067 </i>
    <i name="pawpsdc">   2057.15041603 </i>
    <i name="pawaedc">  -2024.82745024 </i>
    <i name="eentropy">     -0.00000000 </i>
    <i name="bandstr">   -168.31630887 </i>
    <i name="atom">    704.16778566 </i>
    <i name="e_fr_energy">    -21.44496956 </i>
    <i name="e_wo_entrp">    -21.44496956 </i>
    <i name="e_0_energy">    -21.44496956 </i>
   </energy>
  </scstep>
  <structure>
   <crystal>
    <varray name="basis" >
     <v>       3.33388700       0.03688900       0.00000000 </v>
     <v>       0.05172700       4.62306200      -0.00005300 </v>
     <v>       0.00000000       0.00000000      20.02439000 </v>
    </varray>
    <i name="volume">    308.59303372 </i>
    <varray name="rec_basis" >
     <v>       0.29998732      -0.00335653       0.00000000 </v>
     <v>      -0.00239370       0.21633364       0.00000000 </v>
     <v>      -0.00000001       0.00000057       0.04993910 </v>
    </varray>
   </crystal>
   <varray name="positions" >
    <v>       0.49766964       0.91064694       0.55249537 </v>
    <v>       0.50233036       0.08935306       0.44750463 </v>
    <v>      -0.00233033       0.41064274       0.44750464 </v>
    <v>       0.00233033       0.58935726       0.55249536 </v>
   </varray>
  </structure>
  <varray name="forces" >
   <v>      -0.11850945      -0.02205716      -0.01333518 </v>
   <v>       0.11850945       0.02205716       0.01333518 </v>
   <v>      -0.11850763      -0.02208366       0.01333700 </v>
   <v>       0.11850763       0.02208366      -0.01333700 </v>
  </varray>
  <varray name="stress" >
   <v>      -5.41894355      -4.05330689       0.00002405 </v>
   <v>      -4.05330688      -1.22858421       0.00030278 </v>
   <v>       0.00002409       0.00030282      -0.36558239 </v>
  </varray>
  <energy>
   <i name="e_fr_energy">    -21.44496956 </i>
   <i name="e_wo_entrp">    -21.44496956 </i>
   <i name="e_0_energy">     -0.00000000 </i>
  </energy>
  <time name="totalsc">   11.02   11.04</time>
 </calculation>
 <calculation>
  <scstep>
   <time name="dav">    1.53    1.53</time>
   <time name="total">    1.65    1.65</time>
   <energy>
    <i name="alphaZ">      5.19830607 </i>
    <i name="ewald">   1838.11618810 </i>
    <i name="hartreedc">  -2446.88166808 </i>
    <i name="XCdc">     13.98349313 </i>
    <i name="pawpsdc">   2057.16257126 </i>
    <i name="pawaedc">  -2024.83960034 </i>
    <i name="eentropy">     -0.00000000 </i>
    <i name="bandstr">   -168.35309051 </i>
    <i name="atom">    704.16778566 </i>
    <i name="e_fr_energy">    -21.44601472 </i>
    <i name="e_wo_entrp">    -21.44601472 </i>
    <i name="e_0_energy">    -21.44601472 </i>
   </energy>
  </scstep>
  <scstep>
   <time name="dav">    1.82    1.82</time>
   <time name="total">    1.93    1.93</time>
   <energy>
    <i name="e_fr_energy">    -21.44652294 </i>
    <i name="e_wo_entrp">    -21.44652294 </i>
    <i name="e_0_energy">    -21.44652294 </i>
   </energy>
  </scstep>
  <scstep>
   <time name="dav">    1.97    1.97</time>
   <time name="total">    2.08    2.08</time>
   <energy>
    <i name="e_fr_energy">    -21.44649576 </i>
    <i name="e_wo_entrp">    -21.44649576 </i>
    <i name="e_0_energy">    -21.44649576 </i>
   </energy>
  </scstep>
  <scstep>
   <time name="dav">    1.74    1.75</time>
   <time name="total">    1.86    1.86</time>
   <energy>
    <i name="e_fr_energy">    -21.44649016 </i>
    <i name="e_wo_entrp">    -21.44649016 </i>
    <i name="e_0_energy">    -21.44649016 </i>
   </energy>
  </scstep>
  <scstep>
   <time name="dav">    1.23    1.23</time>
   <time name="total">    1.34    1.35</time>
   <energy>
    <i name="e_fr_energy">    -21.44649082 </i>
    <i name="e_wo_entrp">    -21.44649082 </i>
    <i name="e_0_energy">    -21.44649082 </i>
   </energy>
  </scstep>
  <scstep>
   <time name="dav">    1.18    1.18</time>
   <time name="total">    1.20    1.20</time>
   <energy>
    <i name="alphaZ">      5.19830607 </i>
    <i name="ewald">   1838.11618810 </i>
    <i name="hartreedc">  -2446.88092011 </i>
    <i name="XCdc">     13.98354066 </i>
    <i name="pawpsdc">   2058.94895725 </i>
    <i name="pawaedc">  -2026.62653701 </i>
    <i name="eentropy">     -0.00000000 </i>
    <i name="bandstr">   -168.35381167 </i>
    <i name="atom">    704.16778566 </i>
    <i name="e_fr_energy">    -21.44649104 </i>
    <i name="e_wo_entrp">    -21.44649104 </i>
    <i name="e_0_energy">    -21.44649104 </i>
   </energy>
  </scstep>
  <structure>
   <crystal>
    <varray name="basis" >
     <v>       3.33388700       0.03688900       0.00000000 </v>
     <v>       0.05172700       4.62306200      -0.00005300 </v>
     <v>       0.00000000       0.00000000      20.02439000 </v>
    </varray>
    <i name="volume">    308.59303372 </i>
    <varray name="rec_basis" >
     <v>       0.29998732      -0.00335653       0.00000000 </v>
     <v>      -0.00239370       0.21633364       0.00000000 </v>
     <v>      -0.00000001       0.00000057       0.04993910 </v>
    </varray>
   </crystal>
   <varray name="positions" >
    <v>       0.49579162       0.91054535       0.55247471 </v>
    <v>       0.50420838       0.08945465       0.44752529 </v>
    <v>      -0.00420834       0.41054099       0.44752530 </v>
    <v>       0.00420834       0.58945901       0.55247470 </v>
   </varray>
  </structure>
  <varray name="forces" >
   <v>       0.00281734      -0.01656257      -0.01001787 </v>
   <v>      -0.00281734       0.01656257       0.01001787 </v>
   <v>       0.00281878      -0.01658476       0.01001823 </v>
   <v>      -0.00281878       0.01658476      -0.01001823 </v>
  </varray>
  <varray name="stress" >
   <v>      -5.47001800      -2.48092392       0.00001156 </v>
   <v>      -2.48092389      -1.08667907       0.00025539 </v>
   <v>       0.00001157       0.00025541      -0.29256057 </v>
  </varray>
  <energy>
   <i name="e_fr_energy">    -21.44649104 </i>
   <i name="e_wo_entrp">    -21.44649104 </i>
   <i name="e_0_energy">     -0.00000000 </i>
  </energy>
  <time name="totalsc">   10.83   10.85</time>
 </calculation>
 <calculation>
  <scstep>
   <time name="dav">    1.18    1.18</time>
   <time name="total">    1.29    1.29</time>
   <energy>
    <i name="alphaZ">      5.19830607 </i>
    <i name="ewald">   1838.11362365 </i>
    <i name="hartreedc">  -2446.87760532 </i>
    <i name="XCdc">     13.98349939 </i>
    <i name="pawpsdc">   2058.96304279 </i>
    <i name="pawaedc">  -2026.64061773 </i>
    <i name="eentropy">     -0.00000000 </i>
    <i name="bandstr">   -168.35452569 </i>
    <i name="atom">    704.16778566 </i>
    <i name="e_fr_energy">    -21.44649118 </i>
    <i name="e_wo_entrp">    -21.44649118 </i>
    <i name="e_0_energy">    -21.44649118 </i>
   </energy>
  </scstep>
  <scstep>
   <time name="dav">    1.15    1.15</time>
   <time name="total">    1.26    1.26</time>
   <energy>
    <i name="e_fr_energy">    -21.44649128 </i>
    <i name="e_wo_entrp">    -21.44649128 </i>
    <i name="e_0_energy">    -21.44649128 </i>
   </energy>
  </scstep>
  <scstep>
   <time name="dav">    1.10    1.10</time>
   <time name="total">    1.21    1.21</time>
   <energy>
    <i name="e_fr_energy">    -21.44649130 </i>
    <i name="e_wo_entrp">    -21.44649130 </i>
    <i name="e_0_energy">    -21.44649130 </i>
   </energy>
  </scstep>
  <scstep>
   <time name="dav">    1.14    1.14</time>
   <time name="total">    1.25    1.25</time>
   <energy>
    <i name="e_fr_energy">    -21.44649140 </i>
    <i name="e_wo_entrp">    -21.44649140 </i>
    <i name="e_0_energy">    -21.44649140 </i>
   </energy>
  </scstep>
  <scstep>
   <time name="dav">    1.17    1.17</time>
   <time name="total">    1.28    1.28</time>
   <energy>
    <i name="e_fr_energy">    -21.44649150 </i>
    <i name="e_wo_entrp">    -21.44649150 </i>
    <i name="e_0_energy">    -21.44649150 </i>
   </energy>
  </scstep>
  <scstep>
   <time name="dav">    1.12    1.12</time>
   <time name="total">    1.14    1.14</time>
   <energy>
    <i name="alphaZ">      5.19830607 </i>
    <i name="ewald">   1838.11362365 </i>
    <i name="hartreedc">  -2446.87626555 </i>
    <i name="XCdc">     13.98347910 </i>
    <i name="pawpsdc">   2058.95530287 </i>
    <i name="pawaedc">  -2026.63287362 </i>
    <i name="eentropy">     -0.00000000 </i>
    <i name="bandstr">   -168.35584970 </i>
    <i name="atom">    704.16778566 </i>
    <i name="e_fr_energy">    -21.44649153 </i>
    <i name="e_wo_entrp">    -21.44649153 </i>
    <i name="e_0_energy">    -21.44649153 </i>
   </energy>
  </scstep>
  <structure>
   <crystal>
    <varray name="basis" >
     <v>       3.33388700       0.03688900       0.00000000 </v>
     <v>       0.05172700       4.62306200      -0.00005300 </v>
     <v>       0.00000000       0.00000000      20.02439000 </v>
    </varray>
    <i name="volume">    308.59303372 </i>
    <varray name="rec_basis" >
     <v>       0.29998732      -0.00335653       0.00000000 </v>
     <v>      -0.00239370       0.21633364       0.00000000 </v>
     <v>      -0.00000001       0.00000057       0.04993910 </v>
    </varray>
   </crystal>
   <varray name="positions" >
    <v>       0.49580286       0.91054595       0.55247483 </v>
    <v>       0.50419714       0.08945405       0.44752517 </v>
    <v>      -0.00419710       0.41054160       0.44752518 </v>
    <v>       0.00419710       0.58945840       0.55247482 </v>
   </varray>
  </structure>
  <varray name="forces" >
   <v>       0.00181438      -0.01661874      -0.01007521 </v>
   <v>      -0.00181438       0.01661874       0.01007521 </v>
   <v>       0.00181584      -0.01664096       0.01007562 </v>
   <v>      -0.00181584       0.01664096      -0.01007562 </v>
  </varray>
  <varray name="stress" >
   <v>      -5.46979555      -2.49925371       0.00001165 </v>
   <v>      -2.49925366      -1.08721962       0.00025525 </v>
   <v>       0.00001156       0.00025533      -0.29006152 </v>
  </varray>
  <energy>
   <i name="e_fr_energy">    -21.44649153 </i>
   <i name="e_wo_entrp">    -21.44649153 </i>
   <i name="e_0_energy">     -0.00000000 </i>
  </energy>
  <time name="totalsc">    8.21    8.23</time>
 </calculation>
 <calculation>
  <scstep>
   <time name="dav">    1.52    1.52</time>
   <time name="total">    1.63    1.63</time>
   <energy>
    <i name="alphaZ">      5.19830607 </i>
    <i name="ewald">   1838.50652283 </i>
    <i name="hartreedc">  -2447.22472116 </i>
    <i name="XCdc">     13.98813276 </i>
    <i name="pawpsdc">   2058.95489439 </i>
    <i name="pawaedc">  -2026.63246536 </i>
    <i name="eentropy">     -0.00000000 </i>
    <i name="bandstr">   -168.40497795 </i>
    <i name="atom">    704.16778566 </i>
    <i name="e_fr_energy">    -21.44652276 </i>
    <i name="e_wo_entrp">    -21.44652276 </i>
    <i name="e_0_energy">    -21.44652276 </i>
   </energy>
  </scstep>
  <scstep>
   <time name="dav">    1.80    1.80</time>
   <time name="total">    1.91    1.91</time>
   <energy>
    <i name="e_fr_energy">    -21.44652903 </i>
    <i name="e_wo_entrp">    -21.44652903 </i>
    <i name="e_0_energy">    -21.44652903 </i>
   </energy>
  </scstep>
  <scstep>
   <time name="dav">    1.12    1.12</time>
   <time name="total">    1.23    1.23</time>
   <energy>
    <i name="e_fr_energy">    -21.44652920 </i>
    <i name="e_wo_entrp">    -21.44652920 </i>
    <i name="e_0_energy">    -21.44652920 </i>
   </energy>
  </scstep>
  <scstep>
   <time name="dav">    1.15    1.15</time>
   <time name="total">    1.26    1.26</time>
   <energy>
    <i name="e_fr_energy">    -21.44652962 </i>
    <i name="e_wo_entrp">    -21.44652962 </i>
    <i name="e_0_energy">    -21.44652962 </i>
   </energy>
  </scstep>
  <scstep>
   <time name="dav">    1.11    1.11</time>
   <time name="total">    1.22    1.23</time>
   <energy>
    <i name="e_fr_energy">    -21.44652951 </i>
    <i name="e_wo_entrp">    -21.44652951 </i>
    <i name="e_0_energy">    -21.44652951 </i>
   </energy>
  </scstep>
  <scstep>
   <time name="dav">    1.06    1.06</time>
   <time name="total">    1.08    1.08</time>
   <energy>
    <i name="alphaZ">      5.19830607 </i>
    <i name="ewald">   1838.50652283 </i>
    <i name="hartreedc">  -2447.22514087 </i>
    <i name="XCdc">     13.98856114 </i>
    <i name="pawpsdc">   2061.53970694 </i>
    <i name="pawaedc">  -2029.21827350 </i>
    <i name="eentropy">     -0.00000000 </i>
    <i name="bandstr">   -168.40399779 </i>
    <i name="atom">    704.16778566 </i>
    <i name="e_fr_energy">    -21.44652951 </i>
    <i name="e_wo_entrp">    -21.44652951 </i>
    <i name="e_0_energy">    -21.44652951 </i>
   </energy>
  </scstep>
  <structure>
   <crystal>
    <varray name="basis" >
     <v>       3.33388700       0.03688900       0.00000000 </v>
     <v>       0.05172700       4.62306200      -0.00005300 </v>
     <v>       0.00000000       0.00000000      20.02439000 </v>
    </varray>
    <i name="volume">    308.59303372 </i>
    <varray name="rec_basis" >
     <v>       0.29998732      -0.00335653       0.00000000 </v>
     <v>      -0.00239370       0.21633364       0.00000000 </v>
     <v>      -0.00000001       0.00000057       0.04993910 </v>
    </varray>
   </crystal>
   <varray name="positions" >
    <v>       0.49581168       0.91042446       0.55245781 </v>
    <v>       0.50418832       0.08957554       0.44754219 </v>
    <v>      -0.00418825       0.41041994       0.44754220 </v>
    <v>       0.00418825       0.58958006       0.55245780 </v>
   </varray>
  </structure>
  <varray name="forces" >
   <v>       0.00110654      -0.00566562      -0.00682192 </v>
   <v>      -0.00110654       0.00566562       0.00682192 </v>
   <v>       0.00110779      -0.00568356       0.00682169 </v>
   <v>      -0.00110779       0.00568356      -0.00682169 </v>
  </varray>
  <varray name="stress" >
   <v>      -5.41429075      -2.50801112       0.00001421 </v>
   <v>      -2.50801105      -0.90819944       0.00020781 </v>
   <v>       0.00001422       0.00020783      -0.22283581 </v>
  </varray>
  <energy>
   <i name="e_fr_energy">    -21.44652951 </i>
   <i name="e_wo_entrp">    -21.44652951 </i>
   <i name="e_0_energy">     -0.00000000 </i>
  </energy>
  <time name="totalsc">    9.06    9.08</time>
  <eigenvalues>
   <array>
    <dimension dim="1">band</dimension>
    <dimension dim="2">kpoint</dimension>
    <dimension dim="3">spin</dimension>
    <field>eigene</field>
    <field>occ</field>
    <set>
     <set comment="spin 1">
      <set comment="kpoint 1">
       <r>  -17.1879    1.0000 </r>
       <r>  -14.7127    1.0000 </r>
       <r>  -11.4735    1.0000 </r>
       <r>   -7.9056    1.0000 </r>
       <r>   -6.9927    1.0000 </r>
       <r>   -6.7356    1.0000 </r>
       <r>   -5.7313    1.0000 </r>
       <r>   -4.1475    1.0000 </r>
       <r>   -3.8939    1.0000 </r>
       <r>   -2.3040    1.0000 </r>
       <r>   -1.3426    0.0000 </r>
       <r>   -0.7940    0.0000 </r>
       <r>    0.1764    0.0000 </r>
       <r>    0.9066    0.0000 </r>
       <r>    2.1321    0.0000 </r>
       <r>    2.2816    0.0000 </r>
      </set>
      <set comment="kpoint 2">
       <r>  -17.1616    1.0000 </r>
       <r>  -14.6852    1.0000 </r>
       <r>  -11.4849    1.0000 </r>
       <r>   -7.8858    1.0000 </r>
       <r>   -7.0166    1.0000 </r>
       <r>   -6.7125    1.0000 </r>
       <r>   -5.8941    1.0000 </r>
       <r>   -4.3177    1.0000 </r>
       <r>   -3.8843    1.0000 </r>
       <r>   -2.3064    1.0000 </r>
       <r>   -1.3181    0.0000 </r>
       <r>   -0.5610    0.0000 </r>
       <r>    0.3887    0.0000 </r>
       <r>    0.7699    0.0000 </r>
       <r>    2.1594    0.0000 </r>
       <r>    2.3110    0.0000 </r>
      </set>
      <set comment="kpoint 3">
       <r>  -17.0827    1.0000 </r>
       <r>  -14.6026    1.0000 </r>
       <r>  -11.5246    1.0000 </r>
       <r>   -7.8271    1.0000 </r>
       <r>   -7.1087    1.0000 </r>
       <r>   -6.6446    1.0000 </r>
       <r>   -6.2916    1.0000 </r>
       <r>   -4.7060    1.0000 </r>
       <r>   -3.8590    1.0000 </r>
       <r>   -2.3314    1.0000 </r>
       <r>   -1.2450    0.0000 </r>
       <r>    0.0662    0.0000 </r>
       <r>    0.3210    0.0000 </r>
       <r>    1.0190    0.0000 </r>
       <r>    2.2361    0.0000 </r>
       <r>    2.3991    0.0000 </r>
      </set>
      <set comment="kpoint 4">
       <r>  -16.9516    1.0000 </r>
       <r>  -14.4651    1.0000 </r>
       <r>  -11.6080    1.0000 </r>
       <r>   -7.7319    1.0000 </r>
       <r>   -7.3284    1.0000 </r>
       <r>   -6.7722    1.0000 </r>
       <r>   -6.5252    1.0000 </r>
       <r>   -5.0913    1.0000 </r>
       <r>   -3.8301    1.0000 </r>
       <r>   -2.3984    1.0000 </r>
       <r>   -1.1248    0.0000 </r>
       <r>   -0.1487    0.0000 </r>
       <r>    0.9461    0.0000 </r>
       <r>    1.6237    0.0000 </r>
       <r>    2.2859    0.0000 </r>
       <r>    2.5455    0.0000 </r>
      </set>
      <set comment="kpoint 5">
       <r>  -16.7690    1.0000 </r>
       <r>  -14.2731    1.0000 </r>
       <r>  -11.7583    1.0000 </r>
       <r>   -7.7303    1.0000 </r>
       <r>   -7.6048    1.0000 </r>
       <r>   -7.2020    1.0000 </r>
       <r>   -6.3714    1.0000 </r>
       <r>   -5.3209    1.0000 </r>
       <r>   -3.8207    1.0000 </r>
       <r>   -2.5173    1.0000 </r>
       <r>   -0.9606    0.0000 </r>
       <r>   -0.6061    0.0000 </r>
       <r>    1.6987    0.0000 </r>
       <r>    1.8702    0.0000 </r>
       <r>    1.9411    0.0000 </r>
       <r>    2.6672    0.0000 </r>
      </set>
      <set comment="kpoint 6">
       <r>  -16.5359    1.0000 </r>
       <r>  -14.0269    1.0000 </r>
       <r>  -11.9974    1.0000 </r>
       <r>   -8.2885    1.0000 </r>
       <r>   -7.5191    1.0000 </r>
       <r>   -7.4542    1.0000 </r>
       <r>   -6.1777    1.0000 </r>
       <r>   -5.3756    1.0000 </r>
       <r>   -3.8636    1.0000 </r>
       <r>   -2.6954    1.0000 </r>
       <r>   -0.9565    0.0000 </r>
       <r>   -0.7606    0.0000 </r>
       <r>    1.1809    0.0000 </r>
       <r>    1.3126    0.0000 </r>
       <r>    2.4789    0.0000 </r>
       <r>    2.9173    0.0000 </r>
      </set>
      <set comment="kpoint 7">
       <r>  -16.2535    1.0000 </r>
       <r>  -13.7272    1.0000 </r>
       <r>  -12.3324    1.0000 </r>
       <r>   -8.9278    1.0000 </r>
       <r>   -7.6910    1.0000 </r>
       <r>   -7.2939    1.0000 </r>
       <r>   -5.9524    1.0000 </r>
       <r>   -5.3149    1.0000 </r>
       <r>   -3.9833    1.0000 </r>
       <r>   -2.9337    1.0000 </r>
       <r>   -1.1365    0.0000 </r>
       <r>   -0.5494    0.0000 </r>
       <r>    0.5634    0.0000 </r>
       <r>    0.7959    0.0000 </r>
       <r>    2.0937    0.0000 </r>
       <r>    3.2344    0.0000 </r>
      </set>
      <set comment="kpoint 8">
       <r>  -15.9240    1.0000 </r>
       <r>  -13.3751    1.0000 </r>
       <r>  -12.7484    1.0000 </r>
       <r>   -9.5903    1.0000 </r>
       <r>   -7.7225    1.0000 </r>
       <r>   -7.1474    1.0000 </r>
       <r>   -5.7062    1.0000 </r>
       <r>   -5.1978    1.0000 </r>
       <r>   -4.1607    1.0000 </r>
       <r>   -3.2227    1.0000 </r>
       <r>   -1.1292    0.0000 </r>
       <r>   -0.4271    0.0000 </r>
       <r>   -0.0127    0.0000 </r>
       <r>    0.4566    0.0000 </r>
       <r>    1.6047    0.0000 </r>
       <r>    2.9476    0.0000 </r>
      </set>
      <set comment="kpoint 9">
       <r>  -15.5498    1.0000 </r>
       <r>  -13.2215    1.0000 </r>
       <r>  -12.9672    1.0000 </r>
       <r>  -10.2438    1.0000 </r>
       <r>   -7.6416    1.0000 </r>
       <r>   -7.0501    1.0000 </r>
       <r>   -5.4559    1.0000 </r>
       <r>   -5.0715    1.0000 </r>
       <r>   -4.3264    1.0000 </r>
       <r>   -3.5410    1.0000 </r>
       <r>   -0.9656    0.0000 </r>
       <r>   -0.5781    0.0000 </r>
       <r>   -0.4919    0.0000 </r>
       <r>    0.5041    0.0000 </r>
       <r>    1.1081    0.0000 </r>
       <r>    2.5484    0.0000 </r>
      </set>
      <set comment="kpoint 10">
       <r>  -15.1349    1.0000 </r>
       <r>  -13.7131    1.0000 </r>
       <r>  -12.5144    1.0000 </r>
       <r>  -10.8710    1.0000 </r>
       <r>   -7.4865    1.0000 </r>
       <r>   -7.0411    1.0000 </r>
       <r>   -5.2271    1.0000 </r>
       <r>   -4.9810    1.0000 </r>
       <r>   -4.3986    1.0000 </r>
       <r>   -3.8584    1.0000 </r>
       <r>   -0.8682    0.0000 </r>
       <r>   -0.8411    0.0000 </r>
       <r>   -0.6510    0.0000 </r>
       <r>    0.5984    0.0000 </r>
       <r>    0.8260    0.0000 </r>
       <r>    2.1030    0.0000 </r>
      </set>
      <set comment="kpoint 11">
       <r>  -14.6847    1.0000 </r>
       <r>  -14.2069    1.0000 </r>
       <r>  -12.0113    1.0000 </r>
       <r>  -11.4622    1.0000 </r>
       <r>   -7.3006    1.0000 </r>
       <r>   -7.1345    1.0000 </r>
       <r>   -5.0535    1.0000 </r>
       <r>   -4.9677    1.0000 </r>
       <r>   -4.3315    1.0000 </r>
       <r>   -4.1369    1.0000 </r>
       <r>   -1.0304    0.0000 </r>
       <r>   -1.0169    0.0000 </r>
       <r>   -0.2934    0.0000 </r>
       <r>    0.1360    0.0000 </r>
       <r>    1.2127    0.0000 </r>
       <r>    1.6491    0.0000 </r>
      </set>
      <set comment="kpoint 12">
       <r>  -17.1665    1.0000 </r>
       <r>  -14.7437    1.0000 </r>
       <r>  -11.4790    1.0000 </r>
       <r>   -8.0672    1.0000 </r>
       <r>   -6.8894    1.0000 </r>
       <r>   -6.6459    1.0000 </r>
       <r>   -5.7148    1.0000 </r>
       <r>   -4.1630    1.0000 </r>
       <r>   -3.8019    1.0000 </r>
       <r>   -2.4947    1.0000 </r>
       <r>   -1.1659    0.0000 </r>
       <r>   -0.7765    0.0000 </r>
       <r>    0.1304    0.0000 </r>
       <r>    0.8921    0.0000 </r>
       <r>    2.1887    0.0000 </r>
       <r>    2.3118    0.0000 </r>
      </set>
      <set comment="kpoint 13">
       <r>  -17.1412    1.0000 </r>
       <r>  -14.7152    1.0000 </r>
       <r>  -11.4861    1.0000 </r>
       <r>   -8.0486    1.0000 </r>
       <r>   -6.9053    1.0000 </r>
       <r>   -6.6480    1.0000 </r>
       <r>   -5.8551    1.0000 </r>
       <r>   -4.3479    1.0000 </r>
       <r>   -3.7991    1.0000 </r>
       <r>   -2.4880    1.0000 </r>
       <r>   -1.1489    0.0000 </r>
       <r>   -0.5504    0.0000 </r>
       <r>    0.3218    0.0000 </r>
       <r>    0.7890    0.0000 </r>
       <r>    2.2128    0.0000 </r>
       <r>    2.3395    0.0000 </r>
      </set>
      <set comment="kpoint 14">
       <r>  -17.0635    1.0000 </r>
       <r>  -14.6320    1.0000 </r>
       <r>  -11.5187    1.0000 </r>
       <r>   -8.0049    1.0000 </r>
       <r>   -6.9720    1.0000 </r>
       <r>   -6.6660    1.0000 </r>
       <r>   -6.1738    1.0000 </r>
       <r>   -4.7511    1.0000 </r>
       <r>   -3.7885    1.0000 </r>
       <r>   -2.4938    1.0000 </r>
       <r>   -1.0926    0.0000 </r>
       <r>    0.0708    0.0000 </r>
       <r>    0.2710    0.0000 </r>
       <r>    1.0468    0.0000 </r>
       <r>    2.2836    0.0000 </r>
       <r>    2.4257    0.0000 </r>
      </set>
      <set comment="kpoint 15">
       <r>  -16.9336    1.0000 </r>
       <r>  -14.4944    1.0000 </r>
       <r>  -11.5927    1.0000 </r>
       <r>   -7.9607    1.0000 </r>
       <r>   -7.1306    1.0000 </r>
       <r>   -6.8988    1.0000 </r>
       <r>   -6.3146    1.0000 </r>
       <r>   -5.1463    1.0000 </r>
       <r>   -3.7830    1.0000 </r>
       <r>   -2.5328    1.0000 </r>
       <r>   -0.9969    0.0000 </r>
       <r>   -0.1616    0.0000 </r>
       <r>    0.9443    0.0000 </r>
       <r>    1.6728    0.0000 </r>
       <r>    2.2098    0.0000 </r>
       <r>    2.4855    0.0000 </r>
      </set>
      <set comment="kpoint 16">
       <r>  -16.7523    1.0000 </r>
       <r>  -14.3030    1.0000 </r>
       <r>  -11.7320    1.0000 </r>
       <r>   -8.0247    1.0000 </r>
       <r>   -7.3381    1.0000 </r>
       <r>   -7.2784    1.0000 </r>
       <r>   -6.2275    1.0000 </r>
       <r>   -5.3768    1.0000 </r>
       <r>   -3.8045    1.0000 </r>
       <r>   -2.6203    1.0000 </r>
       <r>   -0.8599    0.0000 </r>
       <r>   -0.5853    0.0000 </r>
       <r>    1.5983    0.0000 </r>
       <r>    1.8406    0.0000 </r>
       <r>    2.0035    0.0000 </r>
       <r>    2.6289    0.0000 </r>
      </set>
      <set comment="kpoint 17">
       <r>  -16.5206    1.0000 </r>
       <r>  -14.0586    1.0000 </r>
       <r>  -11.9596    1.0000 </r>
       <r>   -8.4019    1.0000 </r>
       <r>   -7.5815    1.0000 </r>
       <r>   -7.3701    1.0000 </r>
       <r>   -6.0672    1.0000 </r>
       <r>   -5.4286    1.0000 </r>
       <r>   -3.8805    1.0000 </r>
       <r>   -2.7681    1.0000 </r>
       <r>   -0.8985    0.0000 </r>
       <r>   -0.6860    0.0000 </r>
       <r>    1.0589    0.0000 </r>
       <r>    1.3543    0.0000 </r>
       <r>    2.6113    0.0000 </r>
       <r>    2.9660    0.0000 </r>
      </set>
      <set comment="kpoint 18">
       <r>  -16.2398    1.0000 </r>
       <r>  -13.7640    1.0000 </r>
       <r>  -12.2824    1.0000 </r>
       <r>   -8.9877    1.0000 </r>
       <r>   -7.7460    1.0000 </r>
       <r>   -7.2634    1.0000 </r>
       <r>   -5.8709    1.0000 </r>
       <r>   -5.3721    1.0000 </r>
       <r>   -4.0199    1.0000 </r>
       <r>   -2.9790    1.0000 </r>
       <r>   -1.0463    0.0000 </r>
       <r>   -0.5029    0.0000 </r>
       <r>    0.5598    0.0000 </r>
       <r>    0.7343    0.0000 </r>
       <r>    2.3472    0.0000 </r>
       <r>    3.1469    0.0000 </r>
      </set>
      <set comment="kpoint 19">
       <r>  -15.9121    1.0000 </r>
       <r>  -13.4305    1.0000 </r>
       <r>  -12.6756    1.0000 </r>
       <r>   -9.6308    1.0000 </r>
       <r>   -7.7701    1.0000 </r>
       <r>   -7.1339    1.0000 </r>
       <r>   -5.6583    1.0000 </r>
       <r>   -5.2770    1.0000 </r>
       <r>   -4.1830    1.0000 </r>
       <r>   -3.2412    1.0000 </r>
       <r>   -1.0221    0.0000 </r>
       <r>   -0.4497    0.0000 </r>
       <r>    0.1449    0.0000 </r>
       <r>    0.2881    0.0000 </r>
       <r>    1.9026    0.0000 </r>
       <r>    2.8792    0.0000 </r>
      </set>
      <set comment="kpoint 20">
       <r>  -15.5403    1.0000 </r>
       <r>  -13.2768    1.0000 </r>
       <r>  -12.8928    1.0000 </r>
       <r>  -10.2747    1.0000 </r>
       <r>   -7.6802    1.0000 </r>
       <r>   -7.0453    1.0000 </r>
       <r>   -5.4531    1.0000 </r>
       <r>   -5.1963    1.0000 </r>
       <r>   -4.2885    1.0000 </r>
       <r>   -3.5282    1.0000 </r>
       <r>   -0.8628    0.0000 </r>
       <r>   -0.6846    0.0000 </r>
       <r>   -0.3514    0.0000 </r>
       <r>    0.4192    0.0000 </r>
       <r>    1.4291    0.0000 </r>
       <r>    2.4894    0.0000 </r>
      </set>
      <set comment="kpoint 21">
       <r>  -15.1284    1.0000 </r>
       <r>  -13.6989    1.0000 </r>
       <r>  -12.5093    1.0000 </r>
       <r>  -10.8954    1.0000 </r>
       <r>   -7.5145    1.0000 </r>
       <r>   -7.0486    1.0000 </r>
       <r>   -5.2878    1.0000 </r>
       <r>   -5.1427    1.0000 </r>
       <r>   -4.2852    1.0000 </r>
       <r>   -3.8033    1.0000 </r>
       <r>   -0.9601    0.0000 </r>
       <r>   -0.8029    0.0000 </r>
       <r>   -0.5153    0.0000 </r>
       <r>    0.6669    0.0000 </r>
       <r>    1.0224    0.0000 </r>
       <r>    2.0568    0.0000 </r>
      </set>
      <set comment="kpoint 22">
       <r>  -14.6827    1.0000 </r>
       <r>  -14.1829    1.0000 </r>
       <r>  -12.0171    1.0000 </r>
       <r>  -11.4801    1.0000 </r>
       <r>   -7.3177    1.0000 </r>
       <r>   -7.1603    1.0000 </r>
       <r>   -5.1945    1.0000 </r>
       <r>   -5.0967    1.0000 </r>
       <r>   -4.1964    1.0000 </r>
       <r>   -4.0299    1.0000 </r>
       <r>   -1.1227    0.0000 </r>
       <r>   -0.9874    0.0000 </r>
       <r>   -0.1946    0.0000 </r>
       <r>    0.3999    0.0000 </r>
       <r>    1.2170    0.0000 </r>
       <r>    1.6245    0.0000 </r>
      </set>
      <set comment="kpoint 23">
       <r>  -14.6577    1.0000 </r>
       <r>  -14.2129    1.0000 </r>
       <r>  -12.0204    1.0000 </r>
       <r>  -11.4730    1.0000 </r>
       <r>   -7.3443    1.0000 </r>
       <r>   -7.1435    1.0000 </r>
       <r>   -5.1719    1.0000 </r>
       <r>   -5.0901    1.0000 </r>
       <r>   -4.1914    1.0000 </r>
       <r>   -4.0423    1.0000 </r>
       <r>   -1.1182    0.0000 </r>
       <r>   -1.0054    0.0000 </r>
       <r>   -0.0130    0.0000 </r>
       <r>    0.1845    0.0000 </r>
       <r>    1.2358    0.0000 </r>
       <r>    1.6366    0.0000 </r>
      </set>
      <set comment="kpoint 24">
       <r>  -15.1070    1.0000 </r>
       <r>  -13.7382    1.0000 </r>
       <r>  -12.5043    1.0000 </r>
       <r>  -10.8859    1.0000 </r>
       <r>   -7.5433    1.0000 </r>
       <r>   -7.0494    1.0000 </r>
       <r>   -5.1777    1.0000 </r>
       <r>   -5.1755    1.0000 </r>
       <r>   -4.2849    1.0000 </r>
       <r>   -3.8170    1.0000 </r>
       <r>   -0.9553    0.0000 </r>
       <r>   -0.8474    0.0000 </r>
       <r>   -0.3520    0.0000 </r>
       <r>    0.4523    0.0000 </r>
       <r>    1.0391    0.0000 </r>
       <r>    2.0836    0.0000 </r>
      </set>
      <set comment="kpoint 25">
       <r>  -15.5218    1.0000 </r>
       <r>  -13.3435    1.0000 </r>
       <r>  -12.8611    1.0000 </r>
       <r>  -10.2640    1.0000 </r>
       <r>   -7.7064    1.0000 </r>
       <r>   -7.0640    1.0000 </r>
       <r>   -5.3481    1.0000 </r>
       <r>   -5.2013    1.0000 </r>
       <r>   -4.2790    1.0000 </r>
       <r>   -3.5403    1.0000 </r>
       <r>   -0.8559    0.0000 </r>
       <r>   -0.5783    0.0000 </r>
       <r>   -0.3855    0.0000 </r>
       <r>    0.3501    0.0000 </r>
       <r>    1.3114    0.0000 </r>
       <r>    2.5229    0.0000 </r>
      </set>
      <set comment="kpoint 26">
       <r>  -15.8963    1.0000 </r>
       <r>  -13.4651    1.0000 </r>
       <r>  -12.6763    1.0000 </r>
       <r>   -9.6198    1.0000 </r>
       <r>   -7.7909    1.0000 </r>
       <r>   -7.1632    1.0000 </r>
       <r>   -5.5674    1.0000 </r>
       <r>   -5.2709    1.0000 </r>
       <r>   -4.1521    1.0000 </r>
       <r>   -3.2534    1.0000 </r>
       <r>   -0.9737    0.0000 </r>
       <r>   -0.3964    0.0000 </r>
       <r>    0.0330    0.0000 </r>
       <r>    0.3272    0.0000 </r>
       <r>    1.7447    0.0000 </r>
       <r>    2.9152    0.0000 </r>
      </set>
      <set comment="kpoint 27">
       <r>  -16.2265    1.0000 </r>
       <r>  -13.7837    1.0000 </r>
       <r>  -12.2976    1.0000 </r>
       <r>   -8.9782    1.0000 </r>
       <r>   -7.7597    1.0000 </r>
       <r>   -7.2951    1.0000 </r>
       <r>   -5.7972    1.0000 </r>
       <r>   -5.3626    1.0000 </r>
       <r>   -3.9696    1.0000 </r>
       <r>   -2.9940    1.0000 </r>
       <r>   -1.0027    0.0000 </r>
       <r>   -0.4994    0.0000 </r>
       <r>    0.5949    0.0000 </r>
       <r>    0.6861    0.0000 </r>
       <r>    2.1810    0.0000 </r>
       <r>    3.1965    0.0000 </r>
      </set>
      <set comment="kpoint 28">
       <r>  -16.5096    1.0000 </r>
       <r>  -14.0724    1.0000 </r>
       <r>  -11.9789    1.0000 </r>
       <r>   -8.3979    1.0000 </r>
       <r>   -7.5864    1.0000 </r>
       <r>   -7.3968    1.0000 </r>
       <r>   -6.0132    1.0000 </r>
       <r>   -5.4158    1.0000 </r>
       <r>   -3.8212    1.0000 </r>
       <r>   -2.7872    1.0000 </r>
       <r>   -0.8616    0.0000 </r>
       <r>   -0.6850    0.0000 </r>
       <r>    1.1973    0.0000 </r>
       <r>    1.2128    0.0000 </r>
       <r>    2.5073    0.0000 </r>
       <r>    3.0022    0.0000 </r>
      </set>
      <set comment="kpoint 29">
       <r>  -16.7437    1.0000 </r>
       <r>  -14.3131    1.0000 </r>
       <r>  -11.7511    1.0000 </r>
       <r>   -8.0345    1.0000 </r>
       <r>   -7.3507    1.0000 </r>
       <r>   -7.2706    1.0000 </r>
       <r>   -6.1984    1.0000 </r>
       <r>   -5.3589    1.0000 </r>
       <r>   -3.7479    1.0000 </r>
       <r>   -2.6423    1.0000 </r>
       <r>   -0.8542    0.0000 </r>
       <r>   -0.5488    0.0000 </r>
       <r>    1.6811    0.0000 </r>
       <r>    1.7078    0.0000 </r>
       <r>    2.0954    0.0000 </r>
       <r>    2.6395    0.0000 </r>
      </set>
      <set comment="kpoint 30">
       <r>  -16.9272    1.0000 </r>
       <r>  -14.5016    1.0000 </r>
       <r>  -11.6089    1.0000 </r>
       <r>   -7.9772    1.0000 </r>
       <r>   -7.1352    1.0000 </r>
       <r>   -6.8619    1.0000 </r>
       <r>   -6.3272    1.0000 </r>
       <r>   -5.1236    1.0000 </r>
       <r>   -3.7371    1.0000 </r>
       <r>   -2.5548    1.0000 </r>
       <r>   -0.9878    0.0000 </r>
       <r>   -0.1173    0.0000 </r>
       <r>    0.9687    0.0000 </r>
       <r>    1.5623    0.0000 </r>
       <r>    2.3205    0.0000 </r>
       <r>    2.5712    0.0000 </r>
      </set>
      <set comment="kpoint 31">
       <r>  -17.0592    1.0000 </r>
       <r>  -14.6367    1.0000 </r>
       <r>  -11.5303    1.0000 </r>
       <r>   -8.0178    1.0000 </r>
       <r>   -6.9754    1.0000 </r>
       <r>   -6.6003    1.0000 </r>
       <r>   -6.2270    1.0000 </r>
       <r>   -4.7282    1.0000 </r>
       <r>   -3.7576    1.0000 </r>
       <r>   -2.5118    1.0000 </r>
       <r>   -1.0831    0.0000 </r>
       <r>    0.0932    0.0000 </r>
       <r>    0.3457    0.0000 </r>
       <r>    0.9401    0.0000 </r>
       <r>    2.2914    0.0000 </r>
       <r>    2.4323    0.0000 </r>
      </set>
      <set comment="kpoint 32">
       <r>  -17.1391    1.0000 </r>
       <r>  -14.7175    1.0000 </r>
       <r>  -11.4921    1.0000 </r>
       <r>   -8.0554    1.0000 </r>
       <r>   -6.9072    1.0000 </r>
       <r>   -6.6192    1.0000 </r>
       <r>   -5.8798    1.0000 </r>
       <r>   -4.3319    1.0000 </r>
       <r>   -3.7847    1.0000 </r>
       <r>   -2.4983    1.0000 </r>
       <r>   -1.1420    0.0000 </r>
       <r>   -0.5377    0.0000 </r>
       <r>    0.3625    0.0000 </r>
       <r>    0.7336    0.0000 </r>
       <r>    2.2167    0.0000 </r>
       <r>    2.3427    0.0000 </r>
      </set>
      <set comment="kpoint 33">
       <r>  -17.1025    1.0000 </r>
       <r>  -14.8363    1.0000 </r>
       <r>  -11.4844    1.0000 </r>
       <r>   -8.4253    1.0000 </r>
       <r>   -6.6855    1.0000 </r>
       <r>   -6.3901    1.0000 </r>
       <r>   -5.6660    1.0000 </r>
       <r>   -4.2097    1.0000 </r>
       <r>   -3.5546    1.0000 </r>
       <r>   -2.8815    1.0000 </r>
       <r>   -0.8162    0.0000 </r>
       <r>   -0.7246    0.0000 </r>
       <r>   -0.0029    0.0000 </r>
       <r>    0.8575    0.0000 </r>
       <r>    2.3516    0.0000 </r>
       <r>    2.4017    0.0000 </r>
      </set>
      <set comment="kpoint 34">
       <r>  -17.0784    1.0000 </r>
       <r>  -14.8070    1.0000 </r>
       <r>  -11.4860    1.0000 </r>
       <r>   -8.4088    1.0000 </r>
       <r>   -6.6910    1.0000 </r>
       <r>   -6.4443    1.0000 </r>
       <r>   -5.7568    1.0000 </r>
       <r>   -4.4128    1.0000 </r>
       <r>   -3.5651    1.0000 </r>
       <r>   -2.8689    1.0000 </r>
       <r>   -0.8052    0.0000 </r>
       <r>   -0.5054    0.0000 </r>
       <r>    0.1927    0.0000 </r>
       <r>    0.7805    0.0000 </r>
       <r>    2.3707    0.0000 </r>
       <r>    2.4277    0.0000 </r>
      </set>
      <set comment="kpoint 35">
       <r>  -17.0019    1.0000 </r>
       <r>  -14.7241    1.0000 </r>
       <r>  -11.5058    1.0000 </r>
       <r>   -8.3763    1.0000 </r>
       <r>   -6.7276    1.0000 </r>
       <r>   -6.6266    1.0000 </r>
       <r>   -5.9221    1.0000 </r>
       <r>   -4.8462    1.0000 </r>
       <r>   -3.5841    1.0000 </r>
       <r>   -2.8553    1.0000 </r>
       <r>   -0.7671    0.0000 </r>
       <r>    0.1074    0.0000 </r>
       <r>    0.2323    0.0000 </r>
       <r>    1.0099    0.0000 </r>
       <r>    2.4213    0.0000 </r>
       <r>    2.4749    0.0000 </r>
      </set>
      <set comment="kpoint 36">
       <r>  -16.8735    1.0000 </r>
       <r>  -14.5882    1.0000 </r>
       <r>  -11.5597    1.0000 </r>
       <r>   -8.3527    1.0000 </r>
       <r>   -6.9934    1.0000 </r>
       <r>   -6.8453    1.0000 </r>
       <r>   -5.9522    1.0000 </r>
       <r>   -5.2674    1.0000 </r>
       <r>   -3.6298    1.0000 </r>
       <r>   -2.8574    1.0000 </r>
       <r>   -0.7017    0.0000 </r>
       <r>   -0.1189    0.0000 </r>
       <r>    0.9562    0.0000 </r>
       <r>    1.6730    0.0000 </r>
       <r>    1.9078    0.0000 </r>
       <r>    2.5385    0.0000 </r>
      </set>
      <set comment="kpoint 37">
       <r>  -16.6938    1.0000 </r>
       <r>  -14.4003    1.0000 </r>
       <r>  -11.6725    1.0000 </r>
       <r>   -8.4066    1.0000 </r>
       <r>   -7.3964    1.0000 </r>
       <r>   -7.0616    1.0000 </r>
       <r>   -5.8775    1.0000 </r>
       <r>   -5.5012    1.0000 </r>
       <r>   -3.7230    1.0000 </r>
       <r>   -2.8919    1.0000 </r>
       <r>   -0.6080    0.0000 </r>
       <r>   -0.4575    0.0000 </r>
       <r>    1.2103    0.0000 </r>
       <r>    2.0349    0.0000 </r>
       <r>    2.0770    0.0000 </r>
       <r>    2.6608    0.0000 </r>
      </set>
      <set comment="kpoint 38">
       <r>  -16.4640    1.0000 </r>
       <r>  -14.1630    1.0000 </r>
       <r>  -11.8696    1.0000 </r>
       <r>   -8.6632    1.0000 </r>
       <r>   -7.7100    1.0000 </r>
       <r>   -7.2243    1.0000 </r>
       <r>   -5.7531    1.0000 </r>
       <r>   -5.5461    1.0000 </r>
       <r>   -3.8759    1.0000 </r>
       <r>   -2.9751    1.0000 </r>
       <r>   -0.6790    0.0000 </r>
       <r>   -0.4871    0.0000 </r>
       <r>    0.6802    0.0000 </r>
       <r>    1.6694    0.0000 </r>
       <r>    2.7120    0.0000 </r>
       <r>    3.0283    0.0000 </r>
      </set>
      <set comment="kpoint 39">
       <r>  -16.1857    1.0000 </r>
       <r>  -13.8830    1.0000 </r>
       <r>  -12.1588    1.0000 </r>
       <r>   -9.1465    1.0000 </r>
       <r>   -7.8798    1.0000 </r>
       <r>   -7.2210    1.0000 </r>
       <r>   -5.6084    1.0000 </r>
       <r>   -5.5039    1.0000 </r>
       <r>   -4.0637    1.0000 </r>
       <r>   -3.1141    1.0000 </r>
       <r>   -0.7492    0.0000 </r>
       <r>   -0.3733    0.0000 </r>
       <r>    0.2197    0.0000 </r>
       <r>    1.0705    0.0000 </r>
       <r>    2.6286    0.0000 </r>
       <r>    2.9944    0.0000 </r>
      </set>
      <set comment="kpoint 40">
       <r>  -15.8610    1.0000 </r>
       <r>  -13.5858    1.0000 </r>
       <r>  -12.5041    1.0000 </r>
       <r>   -9.7395    1.0000 </r>
       <r>   -7.9008    1.0000 </r>
       <r>   -7.1290    1.0000 </r>
       <r>   -5.4720    1.0000 </r>
       <r>   -5.4659    1.0000 </r>
       <r>   -4.2098    1.0000 </r>
       <r>   -3.2968    1.0000 </r>
       <r>   -0.6820    0.0000 </r>
       <r>   -0.4997    0.0000 </r>
       <r>    0.1076    0.0000 </r>
       <r>    0.4748    0.0000 </r>
       <r>    2.3506    0.0000 </r>
       <r>    2.7290    0.0000 </r>
      </set>
      <set comment="kpoint 41">
       <r>  -15.4934    1.0000 </r>
       <r>  -13.4268    1.0000 </r>
       <r>  -12.7213    1.0000 </r>
       <r>  -10.3569    1.0000 </r>
       <r>   -7.7989    1.0000 </r>
       <r>   -7.0485    1.0000 </r>
       <r>   -5.4740    1.0000 </r>
       <r>   -5.3798    1.0000 </r>
       <r>   -4.2313    1.0000 </r>
       <r>   -3.4912    1.0000 </r>
       <r>   -0.8234    0.0000 </r>
       <r>   -0.5421    0.0000 </r>
       <r>   -0.0185    0.0000 </r>
       <r>    0.3226    0.0000 </r>
       <r>    1.9631    0.0000 </r>
       <r>    2.3601    0.0000 </r>
      </set>
      <set comment="kpoint 42">
       <r>  -15.0879    1.0000 </r>
       <r>  -13.7001    1.0000 </r>
       <r>  -12.4859    1.0000 </r>
       <r>  -10.9594    1.0000 </r>
       <r>   -7.6125    1.0000 </r>
       <r>   -7.0643    1.0000 </r>
       <r>   -5.4699    1.0000 </r>
       <r>   -5.3657    1.0000 </r>
       <r>   -4.1322    1.0000 </r>
       <r>   -3.6649    1.0000 </r>
       <r>   -1.0747    0.0000 </r>
       <r>   -0.6432    0.0000 </r>
       <r>   -0.0890    0.0000 </r>
       <r>    0.6034    0.0000 </r>
       <r>    1.5514    0.0000 </r>
       <r>    1.9599    0.0000 </r>
[...]
       <r>    3.2011    0.0000 </r>
       <r>    3.4385    0.0000 </r>
      </set>
      <set comment="kpoint 153">
       <r>  -15.2937    1.0000 </r>
       <r>  -15.1258    1.0000 </r>
       <r>  -10.9759    1.0000 </r>
       <r>  -10.6185    1.0000 </r>
       <r>   -7.9241    1.0000 </r>
       <r>   -7.7833    1.0000 </r>
       <r>   -5.3439    1.0000 </r>
       <r>   -5.0287    1.0000 </r>
       <r>   -3.8354    1.0000 </r>
       <r>   -3.7752    1.0000 </r>
       <r>    0.3208    0.0000 </r>
       <r>    0.5780    0.0000 </r>
       <r>    1.0321    0.0000 </r>
       <r>    1.4330    0.0000 </r>
       <r>    3.1799    0.0000 </r>
       <r>    3.3572    0.0000 </r>
      </set>
      <set comment="kpoint 154">
       <r>  -15.5630    1.0000 </r>
       <r>  -15.3748    1.0000 </r>
       <r>  -10.8021    1.0000 </r>
       <r>  -10.4549    1.0000 </r>
       <r>   -7.6440    1.0000 </r>
       <r>   -7.4605    1.0000 </r>
       <r>   -5.1813    1.0000 </r>
       <r>   -4.8721    1.0000 </r>
       <r>   -3.7497    1.0000 </r>
       <r>   -3.7284    1.0000 </r>
       <r>    0.3059    0.0000 </r>
       <r>    0.4947    0.0000 </r>
       <r>    1.1522    0.0000 </r>
       <r>    1.5523    0.0000 </r>
       <r>    2.8766    0.0000 </r>
       <r>    3.1809    0.0000 </r>
      </set>
      <set comment="kpoint 155">
       <r>  -15.7900    1.0000 </r>
       <r>  -15.5852    1.0000 </r>
       <r>  -10.7398    1.0000 </r>
       <r>  -10.4093    1.0000 </r>
       <r>   -7.1705    1.0000 </r>
       <r>   -6.9440    1.0000 </r>
       <r>   -5.1641    1.0000 </r>
       <r>   -4.8552    1.0000 </r>
       <r>   -3.6198    1.0000 </r>
       <r>   -3.5605    1.0000 </r>
       <r>    0.3733    0.0000 </r>
       <r>    0.4547    0.0000 </r>
       <r>    1.1814    0.0000 </r>
       <r>    1.5595    0.0000 </r>
       <r>    2.2575    0.0000 </r>
       <r>    2.5201    0.0000 </r>
      </set>
      <set comment="kpoint 156">
       <r>  -15.9709    1.0000 </r>
       <r>  -15.7513    1.0000 </r>
       <r>  -10.7442    1.0000 </r>
       <r>  -10.4257    1.0000 </r>
       <r>   -6.5701    1.0000 </r>
       <r>   -6.3129    1.0000 </r>
       <r>   -5.2135    1.0000 </r>
       <r>   -4.9000    1.0000 </r>
       <r>   -3.5466    1.0000 </r>
       <r>   -3.3777    1.0000 </r>
       <r>    0.4090    0.0000 </r>
       <r>    0.4683    0.0000 </r>
       <r>    1.1152    0.0000 </r>
       <r>    1.3506    0.0000 </r>
       <r>    1.7509    0.0000 </r>
       <r>    1.7965    0.0000 </r>
      </set>
      <set comment="kpoint 157">
       <r>  -16.1031    1.0000 </r>
       <r>  -15.8699    1.0000 </r>
       <r>  -10.7727    1.0000 </r>
       <r>  -10.4599    1.0000 </r>
       <r>   -5.9225    1.0000 </r>
       <r>   -5.6603    1.0000 </r>
       <r>   -5.2671    1.0000 </r>
       <r>   -4.9525    1.0000 </r>
       <r>   -3.5726    1.0000 </r>
       <r>   -3.2881    1.0000 </r>
       <r>    0.1437    0.0000 </r>
       <r>    0.2884    0.0000 </r>
       <r>    1.0872    0.0000 </r>
       <r>    1.0889    0.0000 </r>
       <r>    1.4208    0.0000 </r>
       <r>    1.6165    0.0000 </r>
      </set>
      <set comment="kpoint 158">
       <r>  -16.1854    1.0000 </r>
       <r>  -15.9391    1.0000 </r>
       <r>  -10.7990    1.0000 </r>
       <r>  -10.4868    1.0000 </r>
       <r>   -5.3435    1.0000 </r>
       <r>   -5.3339    1.0000 </r>
       <r>   -5.0673    1.0000 </r>
       <r>   -4.9884    1.0000 </r>
       <r>   -3.7110    1.0000 </r>
       <r>   -3.3171    1.0000 </r>
       <r>   -0.2444    0.0000 </r>
       <r>   -0.1258    0.0000 </r>
       <r>    1.1031    0.0000 </r>
       <r>    1.1850    0.0000 </r>
       <r>    1.3445    0.0000 </r>
       <r>    1.5547    0.0000 </r>
      </set>
     </set>
    </set>
   </array>
  </eigenvalues>
  <separator name="orbital magnetization" >
   <v name="MAGDIPOLOUT">      0.00000000      0.00000000      0.00000000</v>
  </separator>
  <dos>
   <i name="efermi">     -2.21931374 </i>
   <total>
    <array>
     <dimension dim="1">gridpoints</dimension>
     <dimension dim="2">spin</dimension>
     <field>energy</field>
     <field>total</field>
     <field>integrated</field>
     <set>
      <set comment="spin 1">
       <r>   -18.2314     0.0000     0.0000 </r>
       <r>   -18.1548     0.0000     0.0000 </r>
       <r>   -18.0783     0.0000     0.0000 </r>
       <r>   -18.0018     0.0000     0.0000 </r>
       <r>   -17.9253     0.0000     0.0000 </r>
       <r>   -17.8488     0.0000     0.0000 </r>
       <r>   -17.7722     0.0000     0.0000 </r>
       <r>   -17.6957     0.0000     0.0000 </r>
       <r>   -17.6192     0.0000     0.0000 </r>
       <r>   -17.5427     0.0000     0.0000 </r>
       <r>   -17.4661     0.0000     0.0000 </r>
       <r>   -17.3896     0.0000     0.0000 </r>
       <r>   -17.3131     0.0000     0.0000 </r>
       <r>   -17.2366     0.0000     0.0000 </r>
       <r>   -17.1601     0.3095     0.0237 </r>
       <r>   -17.0835     0.7889     0.0841 </r>
       <r>   -17.0070     0.7743     0.1433 </r>
       <r>   -16.9305     1.0208     0.2214 </r>
       <r>   -16.8540     0.8575     0.2870 </r>
       <r>   -16.7775     0.6128     0.3339 </r>
       <r>   -16.7009     1.0898     0.4173 </r>
       <r>   -16.6244     0.8782     0.4845 </r>
       <r>   -16.5479     0.8712     0.5512 </r>
       <r>   -16.4714     0.6369     0.5999 </r>
       <r>   -16.3949     1.3685     0.7046 </r>
       <r>   -16.3183     0.6404     0.7536 </r>
       <r>   -16.2418     0.6468     0.8031 </r>
       <r>   -16.1653     1.5580     0.9224 </r>
       <r>   -16.0888     0.5772     0.9665 </r>
       <r>   -16.0122     0.8426     1.0310 </r>
       <r>   -15.9357     0.8869     1.0989 </r>
       <r>   -15.8592     1.1569     1.1874 </r>
       <r>   -15.7827     1.0934     1.2711 </r>
       <r>   -15.7062     0.8501     1.3361 </r>
       <r>   -15.6296     0.7604     1.3943 </r>
       <r>   -15.5531     1.1784     1.4845 </r>
       <r>   -15.4766     1.1714     1.5741 </r>
       <r>   -15.4001     1.0632     1.6555 </r>
       <r>   -15.3236     0.9853     1.7309 </r>
       <r>   -15.2470     1.0307     1.8097 </r>
       <r>   -15.1705     0.9109     1.8794 </r>
       <r>   -15.0940     1.4031     1.9868 </r>
       <r>   -15.0175     1.4385     2.0969 </r>
       <r>   -14.9409     1.4291     2.2062 </r>
       <r>   -14.8644     0.8376     2.2703 </r>
       <r>   -14.7879     1.4991     2.3850 </r>
       <r>   -14.7114     1.8346     2.5254 </r>
       <r>   -14.6349     1.5817     2.6465 </r>
       <r>   -14.5583     1.9634     2.7967 </r>
       <r>   -14.4818     1.4752     2.9096 </r>
       <r>   -14.4053     0.9880     2.9852 </r>
       <r>   -14.3288     1.1891     3.0762 </r>
       <r>   -14.2523     1.2657     3.1730 </r>
       <r>   -14.1757     1.6386     3.2984 </r>
       <r>   -14.0992     1.7460     3.4320 </r>
       <r>   -14.0227     1.3617     3.5362 </r>
       <r>   -13.9462     0.9265     3.6071 </r>
       <r>   -13.8697     0.8158     3.6695 </r>
       <r>   -13.7931     0.5912     3.7148 </r>
       <r>   -13.7166     1.2934     3.8137 </r>
       <r>   -13.6401     0.7132     3.8683 </r>
       <r>   -13.5636     0.3833     3.8976 </r>
       <r>   -13.4870     0.1832     3.9117 </r>
       <r>   -13.4105     0.4579     3.9467 </r>
       <r>   -13.3340     0.3226     3.9714 </r>
       <r>   -13.2575     0.1946     3.9863 </r>
       <r>   -13.1810     0.1790     4.0000 </r>
       <r>   -13.1044     0.0003     4.0000 </r>
       <r>   -13.0279     0.0000     4.0000 </r>
       <r>   -12.9514     0.1440     4.0110 </r>
       <r>   -12.8749     0.1982     4.0262 </r>
       <r>   -12.7984     0.1556     4.0381 </r>
       <r>   -12.7218     0.2514     4.0573 </r>
       <r>   -12.6453     0.5733     4.1012 </r>
       <r>   -12.5688     0.0052     4.1016 </r>
       <r>   -12.4923     1.1262     4.1878 </r>
       <r>   -12.4158     0.6609     4.2384 </r>
       <r>   -12.3392     0.3904     4.2682 </r>
       <r>   -12.2627     1.1454     4.3559 </r>
       <r>   -12.1862     0.4178     4.3878 </r>
       <r>   -12.1097     1.2206     4.4813 </r>
       <r>   -12.0331     2.0668     4.6394 </r>
       <r>   -11.9566     1.5416     4.7574 </r>
       <r>   -11.8801     0.9278     4.8284 </r>
       <r>   -11.8036     0.8705     4.8950 </r>
       <r>   -11.7271     1.4819     5.0084 </r>
       <r>   -11.6505     0.9123     5.0782 </r>
       <r>   -11.5740     1.6476     5.2043 </r>
       <r>   -11.4975     3.1102     5.4423 </r>
       <r>   -11.4210     2.8694     5.6618 </r>
       <r>   -11.3445     1.6306     5.7866 </r>
       <r>   -11.2679     1.0006     5.8632 </r>
       <r>   -11.1914     1.7527     5.9973 </r>
       <r>   -11.1149     0.3293     6.0225 </r>
       <r>   -11.0384     1.4775     6.1356 </r>
       <r>   -10.9619     1.2391     6.2304 </r>
       <r>   -10.8853     0.9297     6.3015 </r>
       <r>   -10.8088     0.7586     6.3596 </r>
       <r>   -10.7323     1.4053     6.4671 </r>
       <r>   -10.6558     0.5628     6.5102 </r>
       <r>   -10.5792     0.6339     6.5587 </r>
       <r>   -10.5027     0.1109     6.5672 </r>
       <r>   -10.4262     1.5254     6.6839 </r>
       <r>   -10.3497     0.8976     6.7526 </r>
       <r>   -10.2732     0.7358     6.8089 </r>
       <r>   -10.1966     0.3817     6.8381 </r>
       <r>   -10.1201     0.5082     6.8770 </r>
       <r>   -10.0436     1.4116     6.9850 </r>
       <r>    -9.9671     0.4459     7.0191 </r>
       <r>    -9.8906     0.3078     7.0427 </r>
       <r>    -9.8140     0.1476     7.0540 </r>
       <r>    -9.7375     0.3310     7.0793 </r>
       <r>    -9.6610     1.5216     7.1957 </r>
       <r>    -9.5845     1.0768     7.2781 </r>
       <r>    -9.5080     0.0577     7.2825 </r>
       <r>    -9.4314     0.0000     7.2825 </r>
       <r>    -9.3549     0.4896     7.3200 </r>
       <r>    -9.2784     0.5989     7.3658 </r>
       <r>    -9.2019     1.0429     7.4456 </r>
       <r>    -9.1253     0.2852     7.4675 </r>
       <r>    -9.0488     0.0726     7.4730 </r>
       <r>    -8.9723     0.5679     7.5165 </r>
       <r>    -8.8958     0.2601     7.5364 </r>
       <r>    -8.8193     0.8679     7.6028 </r>
       <r>    -8.7427     0.6268     7.6508 </r>
       <r>    -8.6662     0.1330     7.6609 </r>
       <r>    -8.5897     0.1995     7.6762 </r>
       <r>    -8.5132     0.0000     7.6762 </r>
       <r>    -8.4367     0.0956     7.6835 </r>
       <r>    -8.3601     1.5714     7.8037 </r>
       <r>    -8.2836     0.2640     7.8239 </r>
       <r>    -8.2071     0.0625     7.8287 </r>
       <r>    -8.1306     0.7021     7.8825 </r>
       <r>    -8.0540     1.7893     8.0194 </r>
       <r>    -7.9775     2.7011     8.2261 </r>
       <r>    -7.9010     1.4866     8.3398 </r>
       <r>    -7.8245     2.3061     8.5163 </r>
       <r>    -7.7480     2.6430     8.7185 </r>
       <r>    -7.6714     2.1350     8.8819 </r>
       <r>    -7.5949     1.5689     9.0020 </r>
       <r>    -7.5184     1.8175     9.1410 </r>
       <r>    -7.4419     2.5441     9.3357 </r>
       <r>    -7.3654     2.2176     9.5054 </r>
       <r>    -7.2888     2.5257     9.6987 </r>
       <r>    -7.2123     3.8278     9.9916 </r>
       <r>    -7.1358     3.2882    10.2432 </r>
       <r>    -7.0593     3.4202    10.5049 </r>
       <r>    -6.9828     2.0046    10.6583 </r>
       <r>    -6.9062     1.2738    10.7558 </r>
       <r>    -6.8297     1.7236    10.8877 </r>
       <r>    -6.7532     0.7987    10.9488 </r>
       <r>    -6.6767     2.1260    11.1115 </r>
       <r>    -6.6001     1.4963    11.2260 </r>
       <r>    -6.5236     1.5755    11.3465 </r>
       <r>    -6.4471     1.7225    11.4783 </r>
       <r>    -6.3706     1.4025    11.5856 </r>
       <r>    -6.2941     1.4946    11.7000 </r>
       <r>    -6.2175     1.7982    11.8376 </r>
       <r>    -6.1410     2.3333    12.0162 </r>
       <r>    -6.0645     1.1875    12.1070 </r>
       <r>    -5.9880     1.1477    12.1949 </r>
       <r>    -5.9115     2.4869    12.3852 </r>
       <r>    -5.8349     1.9739    12.5362 </r>
       <r>    -5.7584     1.9355    12.6843 </r>
       <r>    -5.6819     2.8341    12.9012 </r>
       <r>    -5.6054     4.1607    13.2196 </r>
       <r>    -5.5289     2.7169    13.4275 </r>
       <r>    -5.4523     4.7303    13.7894 </r>
       <r>    -5.3758     2.6797    13.9945 </r>
       <r>    -5.2993     3.8451    14.2887 </r>
       <r>    -5.2228     2.8165    14.5042 </r>
       <r>    -5.1462     3.5988    14.7796 </r>
       <r>    -5.0697     2.2911    14.9549 </r>
       <r>    -4.9932     1.5988    15.0773 </r>
       <r>    -4.9167     2.5586    15.2731 </r>
       <r>    -4.8402     1.6556    15.3998 </r>
       <r>    -4.7636     1.2495    15.4954 </r>
       <r>    -4.6871     1.2404    15.5903 </r>
       <r>    -4.6106     0.7599    15.6484 </r>
       <r>    -4.5341     1.9612    15.7985 </r>
       <r>    -4.4576     0.8345    15.8624 </r>
       <r>    -4.3810     0.9233    15.9330 </r>
       <r>    -4.3045     0.9949    16.0091 </r>
       <r>    -4.2280     1.2390    16.1040 </r>
       <r>    -4.1515     2.7046    16.3109 </r>
       <r>    -4.0750     2.3991    16.4945 </r>
       <r>    -3.9984     2.4722    16.6837 </r>
       <r>    -3.9219     2.2892    16.8588 </r>
       <r>    -3.8454     2.6980    17.0653 </r>
       <r>    -3.7689     4.8465    17.4362 </r>
       <r>    -3.6923     4.3264    17.7672 </r>
       <r>    -3.6158     3.0943    18.0040 </r>
       <r>    -3.5393     3.0897    18.2404 </r>
       <r>    -3.4628     4.3109    18.5703 </r>
       <r>    -3.3863     2.5126    18.7626 </r>
       <r>    -3.3097     3.2657    19.0125 </r>
       <r>    -3.2332     3.5886    19.2871 </r>
       <r>    -3.1567     1.4249    19.3961 </r>
       <r>    -3.0802     0.4808    19.4329 </r>
       <r>    -3.0037     0.5936    19.4783 </r>
       <r>    -2.9271     2.0544    19.6355 </r>
       <r>    -2.8506     1.5343    19.7529 </r>
       <r>    -2.7741     0.6831    19.8052 </r>
       <r>    -2.6976     0.2123    19.8214 </r>
       <r>    -2.6210     0.3277    19.8465 </r>
       <r>    -2.5445     0.2646    19.8668 </r>
       <r>    -2.4680     1.1339    19.9535 </r>
       <r>    -2.3915     0.1407    19.9643 </r>
       <r>    -2.3150     0.2610    19.9843 </r>
       <r>    -2.2384     0.2057    20.0000 </r>
       <r>    -2.1619     0.0000    20.0000 </r>
       <r>    -2.0854     0.0000    20.0000 </r>
       <r>    -2.0089     0.0000    20.0000 </r>
       <r>    -1.9324     0.0000    20.0000 </r>
       <r>    -1.8558     0.0000    20.0000 </r>
       <r>    -1.7793     0.0000    20.0000 </r>
       <r>    -1.7028     0.0000    20.0000 </r>
       <r>    -1.6263     0.0000    20.0000 </r>
       <r>    -1.5498     0.0000    20.0000 </r>
       <r>    -1.4732     0.0000    20.0000 </r>
       <r>    -1.3967     0.0000    20.0000 </r>
       <r>    -1.3202     0.1515    20.0116 </r>
       <r>    -1.2437     0.1868    20.0259 </r>
       <r>    -1.1671     0.2878    20.0479 </r>
       <r>    -1.0906     1.5076    20.1633 </r>
       <r>    -1.0141     1.4674    20.2756 </r>
       <r>    -0.9376     1.9364    20.4237 </r>
       <r>    -0.8611     1.7163    20.5551 </r>
       <r>    -0.7845     2.2174    20.7248 </r>
       <r>    -0.7080     1.4850    20.8384 </r>
       <r>    -0.6315     2.3130    21.0154 </r>
       <r>    -0.5550     2.3873    21.1981 </r>
       <r>    -0.4785     3.4057    21.4587 </r>
       <r>    -0.4019     2.1530    21.6234 </r>
       <r>    -0.3254     3.4698    21.8889 </r>
       <r>    -0.2489     1.9421    22.0375 </r>
       <r>    -0.1724     3.4630    22.3025 </r>
       <r>    -0.0959     2.3246    22.4804 </r>
       <r>    -0.0193     2.7360    22.6898 </r>
       <r>     0.0572     3.0860    22.9259 </r>
       <r>     0.1337     3.5284    23.1959 </r>
       <r>     0.2102     4.4663    23.5377 </r>
       <r>     0.2868     3.4453    23.8013 </r>
       <r>     0.3633     5.2496    24.2030 </r>
       <r>     0.4398     4.3722    24.5376 </r>
       <r>     0.5163     3.5479    24.8091 </r>
       <r>     0.5928     3.3131    25.0626 </r>
       <r>     0.6694     2.7080    25.2698 </r>
       <r>     0.7459     3.6087    25.5460 </r>
       <r>     0.8224     5.3372    25.9544 </r>
       <r>     0.8989     2.7968    26.1684 </r>
       <r>     0.9754     3.5840    26.4426 </r>
       <r>     1.0520     2.5484    26.6376 </r>
       <r>     1.1285     3.0434    26.8705 </r>
       <r>     1.2050     2.2594    27.0434 </r>
       <r>     1.2815     2.1229    27.2059 </r>
       <r>     1.3580     2.1230    27.3683 </r>
       <r>     1.4346     2.9822    27.5965 </r>
       <r>     1.5111     2.0546    27.7537 </r>
       <r>     1.5876     2.5146    27.9462 </r>
       <r>     1.6641     2.7131    28.1538 </r>
       <r>     1.7407     2.3546    28.3339 </r>
       <r>     1.8172     2.1278    28.4968 </r>
       <r>     1.8937     2.6763    28.7016 </r>
       <r>     1.9702     2.0950    28.8619 </r>
       <r>     2.0467     1.6514    28.9882 </r>
       <r>     2.1233     1.7135    29.1194 </r>
       <r>     2.1998     2.8390    29.3366 </r>
       <r>     2.2763     2.7509    29.5471 </r>
       <r>     2.3528     2.4127    29.7317 </r>
       <r>     2.4293     2.8936    29.9532 </r>
       <r>     2.5059     2.8831    30.1738 </r>
       <r>     2.5824     3.5738    30.4472 </r>
       <r>     2.6589     3.4269    30.7095 </r>
       <r>     2.7354     1.9141    30.8559 </r>
       <r>     2.8119     1.8567    30.9980 </r>
       <r>     2.8885     2.1660    31.1638 </r>
       <r>     2.9650     2.1303    31.3268 </r>
       <r>     3.0415     1.2299    31.4209 </r>
       <r>     3.1180     1.5813    31.5419 </r>
       <r>     3.1946     1.6516    31.6683 </r>
       <r>     3.2711     1.6571    31.7951 </r>
       <r>     3.3476     1.1132    31.8803 </r>
       <r>     3.4241     0.5386    31.9215 </r>
       <r>     3.5006     0.3868    31.9511 </r>
       <r>     3.5772     0.4622    31.9864 </r>
       <r>     3.6537     0.0152    31.9876 </r>
       <r>     3.7302     0.1618    32.0000 </r>
       <r>     3.8067     0.0000    32.0000 </r>
       <r>     3.8832     0.0000    32.0000 </r>
       <r>     3.9598     0.0000    32.0000 </r>
       <r>     4.0363     0.0000    32.0000 </r>
       <r>     4.1128     0.0000    32.0000 </r>
       <r>     4.1893     0.0000    32.0000 </r>
       <r>     4.2659     0.0000    32.0000 </r>
       <r>     4.3424     0.0000    32.0000 </r>
       <r>     4.4189     0.0000    32.0000 </r>
       <r>     4.4954     0.0000    32.0000 </r>
       <r>     4.5719     0.0000    32.0000 </r>
       <r>     4.6485     0.0000    32.0000 </r>
       <r>     4.7250     0.0000    32.0000 </r>
      </set>
     </set>
    </array>
   </total>
  </dos>
 </calculation>
 <structure name="finalpos" >
  <crystal>
   <varray name="basis" >
    <v>       3.33388700       0.03688900       0.00000000 </v>
    <v>       0.05172700       4.62306200      -0.00005300 </v>
    <v>       0.00000000       0.00000000      20.02439000 </v>
   </varray>
   <i name="volume">    308.59303372 </i>
   <varray name="rec_basis" >
    <v>       0.29998732      -0.00335653       0.00000000 </v>
    <v>      -0.00239370       0.21633364       0.00000000 </v>
    <v>      -0.00000001       0.00000057       0.04993910 </v>
   </varray>
  </crystal>
  <varray name="positions" >
   <v>       0.49581168       0.91042446       0.55245781 </v>
   <v>       0.50418832       0.08957554       0.44754219 </v>
   <v>      -0.00418825       0.41041994       0.44754220 </v>
   <v>       0.00418825       0.58958006       0.55245780 </v>
  </varray>
 </structure>
</modeling>
