<?xml version="1.0" encoding="ISO-8859-1"?>
<modeling>
 <generator>
  <i name="program" type="string">vasp </i>
  <i name="version" type="string">5.4.1  </i>
  <i name="subversion" type="string">24Jun15 (build Nov 20 2020 10:29:34) complex                          parallel </i>
  <i name="platform" type="string">IFC91_ompi </i>
  <i name="date" type="string">2021 09 09 </i>
  <i name="time" type="string">14:58:17 </i>
 </generator>
 <incar>
  <i type="string" name="PREC">a</i>
  <i type="string" name="ALGO"> Normal</i>
  <i type="int" name="ISPIN">     1</i>
  <i type="int" name="ICHARG">     2</i>
  <i type="int" name="NELM">   250</i>
  <i type="int" name="NELMDL">    -5</i>
  <i type="int" name="NELMIN">     6</i>
  <i type="int" name="IBRION">     2</i>
  <i name="EDIFF">      0.00001000</i>
  <i name="EDIFFG">     -0.01000000</i>
  <i type="int" name="NSW">   200</i>
  <i type="int" name="ISIF">     2</i>
  <i name="ENCUT">    520.00000000</i>
  <i name="POTIM">      0.30000000</i>
  <i type="logical" name="LREAL"> F  </i>
  <i type="int" name="ISMEAR">     0</i>
  <i name="SIGMA">      0.02000000</i>
  <i type="logical" name="LWAVE"> F  </i>
  <i type="logical" name="LCHARG"> F  </i>
  <i type="logical" name="LAECHG"> F  </i>
  <v type="int" name="KPOINT_BSE">    -1     0     0     0</v>
  <i type="int" name="NELM">   250</i>
 </incar>
 <kpoints>
  <generation param="Gamma">
   <v type="int" name="divisions">      15       13        1 </v>
   <v name="usershift">      0.00000000       0.00000000       0.00000000 </v>
   <v name="genvec1">      0.06666667       0.00000000       0.00000000 </v>
   <v name="genvec2">      0.00000000       0.07692308       0.00000000 </v>
   <v name="genvec3">      0.00000000       0.00000000       1.00000000 </v>
   <v name="shift">      0.00000000       0.00000000       0.00000000 </v>
  </generation>
  <varray name="kpointlist" >
   <v>       0.00000000       0.00000000       0.00000000 </v>
   <v>       0.06666667       0.00000000       0.00000000 </v>
   <v>       0.13333333       0.00000000       0.00000000 </v>
   <v>       0.20000000       0.00000000       0.00000000 </v>
   <v>       0.26666667       0.00000000       0.00000000 </v>
   <v>       0.33333333       0.00000000       0.00000000 </v>
   <v>       0.40000000       0.00000000       0.00000000 </v>
   <v>       0.46666667       0.00000000       0.00000000 </v>
   <v>       0.00000000       0.07692308       0.00000000 </v>
   <v>       0.06666667       0.07692308       0.00000000 </v>
   <v>       0.13333333       0.07692308       0.00000000 </v>
   <v>       0.20000000       0.07692308       0.00000000 </v>
   <v>       0.26666667       0.07692308       0.00000000 </v>
   <v>       0.33333333       0.07692308       0.00000000 </v>
   <v>       0.40000000       0.07692308       0.00000000 </v>
   <v>       0.46666667       0.07692308       0.00000000 </v>
   <v>       0.00000000       0.15384615       0.00000000 </v>
   <v>       0.06666667       0.15384615       0.00000000 </v>
   <v>       0.13333333       0.15384615       0.00000000 </v>
   <v>       0.20000000       0.15384615       0.00000000 </v>
   <v>       0.26666667       0.15384615       0.00000000 </v>
   <v>       0.33333333       0.15384615       0.00000000 </v>
   <v>       0.40000000       0.15384615       0.00000000 </v>
   <v>       0.46666667       0.15384615       0.00000000 </v>
   <v>       0.00000000       0.23076923       0.00000000 </v>
   <v>       0.06666667       0.23076923       0.00000000 </v>
   <v>       0.13333333       0.23076923       0.00000000 </v>
   <v>       0.20000000       0.23076923       0.00000000 </v>
   <v>       0.26666667       0.23076923       0.00000000 </v>
   <v>       0.33333333       0.23076923       0.00000000 </v>
   <v>       0.40000000       0.23076923       0.00000000 </v>
   <v>       0.46666667       0.23076923       0.00000000 </v>
   <v>       0.00000000       0.30769231       0.00000000 </v>
   <v>       0.06666667       0.30769231       0.00000000 </v>
   <v>       0.13333333       0.30769231       0.00000000 </v>
   <v>       0.20000000       0.30769231       0.00000000 </v>
   <v>       0.26666667       0.30769231       0.00000000 </v>
   <v>       0.33333333       0.30769231       0.00000000 </v>
   <v>       0.40000000       0.30769231       0.00000000 </v>
   <v>       0.46666667       0.30769231       0.00000000 </v>
   <v>       0.00000000       0.38461538       0.00000000 </v>
   <v>       0.06666667       0.38461538       0.00000000 </v>
   <v>       0.13333333       0.38461538       0.00000000 </v>
   <v>       0.20000000       0.38461538       0.00000000 </v>
   <v>       0.26666667       0.38461538       0.00000000 </v>
   <v>       0.33333333       0.38461538       0.00000000 </v>
   <v>       0.40000000       0.38461538       0.00000000 </v>
   <v>       0.46666667       0.38461538       0.00000000 </v>
   <v>       0.00000000       0.46153846       0.00000000 </v>
   <v>       0.06666667       0.46153846       0.00000000 </v>
   <v>       0.13333333       0.46153846       0.00000000 </v>
   <v>       0.20000000       0.46153846       0.00000000 </v>
   <v>       0.26666667       0.46153846       0.00000000 </v>
   <v>       0.33333333       0.46153846       0.00000000 </v>
   <v>       0.40000000       0.46153846       0.00000000 </v>
   <v>       0.46666667       0.46153846       0.00000000 </v>
  </varray>
  <varray name="weights" >
   <v>       0.00512821 </v>
   <v>       0.01025641 </v>
   <v>       0.01025641 </v>
   <v>       0.01025641 </v>
   <v>       0.01025641 </v>
   <v>       0.01025641 </v>
   <v>       0.01025641 </v>
   <v>       0.01025641 </v>
   <v>       0.01025641 </v>
   <v>       0.02051282 </v>
   <v>       0.02051282 </v>
   <v>       0.02051282 </v>
   <v>       0.02051282 </v>
   <v>       0.02051282 </v>
   <v>       0.02051282 </v>
   <v>       0.02051282 </v>
   <v>       0.01025641 </v>
   <v>       0.02051282 </v>
   <v>       0.02051282 </v>
   <v>       0.02051282 </v>
   <v>       0.02051282 </v>
   <v>       0.02051282 </v>
   <v>       0.02051282 </v>
   <v>       0.02051282 </v>
   <v>       0.01025641 </v>
   <v>       0.02051282 </v>
   <v>       0.02051282 </v>
   <v>       0.02051282 </v>
   <v>       0.02051282 </v>
   <v>       0.02051282 </v>
   <v>       0.02051282 </v>
   <v>       0.02051282 </v>
   <v>       0.01025641 </v>
   <v>       0.02051282 </v>
   <v>       0.02051282 </v>
   <v>       0.02051282 </v>
   <v>       0.02051282 </v>
   <v>       0.02051282 </v>
   <v>       0.02051282 </v>
   <v>       0.02051282 </v>
   <v>       0.01025641 </v>
   <v>       0.02051282 </v>
   <v>       0.02051282 </v>
   <v>       0.02051282 </v>
   <v>       0.02051282 </v>
   <v>       0.02051282 </v>
   <v>       0.02051282 </v>
   <v>       0.02051282 </v>
   <v>       0.01025641 </v>
   <v>       0.02051282 </v>
   <v>       0.02051282 </v>
   <v>       0.02051282 </v>
   <v>       0.02051282 </v>
   <v>       0.02051282 </v>
   <v>       0.02051282 </v>
   <v>       0.02051282 </v>
  </varray>
 </kpoints>
 <parameters>
  <separator name="general" >
   <i type="string" name="SYSTEM">unknown system</i>
   <i type="logical" name="LCOMPAT"> F  </i>
  </separator>
  <separator name="electronic" >
   <i type="string" name="PREC">a</i>
   <i name="ENMAX">    520.00000000</i>
   <i name="ENAUG">    531.35600000</i>
   <i name="EDIFF">      0.00001000</i>
   <i type="int" name="IALGO">    38</i>
   <i type="int" name="IWAVPR">    11</i>
   <i type="int" name="NBANDS">    32</i>
   <i name="NELECT">     52.00000000</i>
   <i type="int" name="TURBO">     0</i>
   <i type="int" name="IRESTART">     0</i>
   <i type="int" name="NREBOOT">     0</i>
   <i type="int" name="NMIN">     0</i>
   <i name="EREF">      0.00000000</i>
   <separator name="electronic smearing" >
    <i type="int" name="ISMEAR">     0</i>
    <i name="SIGMA">      0.02000000</i>
    <i name="KSPACING">      0.50000000</i>
    <i type="logical" name="KGAMMA"> T  </i>
   </separator>
   <separator name="electronic projectors" >
    <i type="logical" name="LREAL"> F  </i>
    <v name="ROPT">      0.00000000      0.00000000</v>
    <i type="int" name="LMAXPAW">  -100</i>
    <i type="int" name="LMAXMIX">     2</i>
    <i type="logical" name="NLSPLINE"> F  </i>
   </separator>
   <separator name="electronic startup" >
    <i type="int" name="ISTART">     0</i>
    <i type="int" name="ICHARG">     2</i>
    <i type="int" name="INIWAV">     1</i>
   </separator>
   <separator name="electronic spin" >
    <i type="int" name="ISPIN">     1</i>
    <i type="logical" name="LNONCOLLINEAR"> F  </i>
    <v name="MAGMOM">      1.00000000      1.00000000      1.00000000      1.00000000      1.00000000      1.00000000</v>
    <i name="NUPDOWN">     -1.00000000</i>
    <i type="logical" name="LSORBIT"> F  </i>
    <v name="SAXIS">      0.00000000      0.00000000      1.00000000</v>
    <i type="logical" name="LSPIRAL"> F  </i>
    <v name="QSPIRAL">      0.00000000      0.00000000      0.00000000</v>
    <i type="logical" name="LZEROZ"> F  </i>
   </separator>
   <separator name="electronic exchange-correlation" >
    <i type="logical" name="LASPH"> F  </i>
    <i type="logical" name="LMETAGGA"> F  </i>
   </separator>
   <separator name="electronic convergence" >
    <i type="int" name="NELM">   250</i>
    <i type="int" name="NELMDL">    -5</i>
    <i type="int" name="NELMIN">     6</i>
    <i name="ENINI">    520.00000000</i>
    <separator name="electronic convergence detail" >
     <i type="logical" name="LDIAG"> T  </i>
     <i type="logical" name="LSUBROT"> F  </i>
     <i name="WEIMIN">      0.00100000</i>
     <i name="EBREAK">      0.00000008</i>
     <i name="DEPER">      0.30000000</i>
     <i type="int" name="NRMM">     4</i>
     <i name="TIME">      0.40000000</i>
    </separator>
   </separator>
   <separator name="electronic mixer" >
    <i name="AMIX">      0.40000000</i>
    <i name="BMIX">      1.00000000</i>
    <i name="AMIN">      0.10000000</i>
    <i name="AMIX_MAG">      1.60000000</i>
    <i name="BMIX_MAG">      1.00000000</i>
    <separator name="electronic mixer details" >
     <i type="int" name="IMIX">     4</i>
     <i type="logical" name="MIXFIRST"> F  </i>
     <i type="int" name="MAXMIX">   -45</i>
     <i name="WC">    100.00000000</i>
     <i type="int" name="INIMIX">     1</i>
     <i type="int" name="MIXPRE">     1</i>
     <i type="int" name="MREMOVE">     5</i>
    </separator>
   </separator>
   <separator name="electronic dipolcorrection" >
    <i type="logical" name="LDIPOL"> F  </i>
    <i type="logical" name="LMONO"> F  </i>
    <i type="int" name="IDIPOL">     0</i>
    <i name="EPSILON">      1.00000000</i>
    <v name="DIPOL">   -100.00000000   -100.00000000   -100.00000000</v>
    <i name="EFIELD">      0.00000000</i>
   </separator>
  </separator>
  <separator name="grids" >
   <i type="int" name="NGX">    36</i>
   <i type="int" name="NGY">    42</i>
   <i type="int" name="NGZ">   140</i>
   <i type="int" name="NGXF">    72</i>
   <i type="int" name="NGYF">    84</i>
   <i type="int" name="NGZF">   280</i>
   <i type="logical" name="ADDGRID"> F  </i>
  </separator>
  <separator name="ionic" >
   <i type="int" name="NSW">   200</i>
   <i type="int" name="IBRION">     2</i>
   <i type="int" name="ISIF">     2</i>
   <i name="PSTRESS">      0.00000000</i>
   <i name="EDIFFG">     -0.01000000</i>
   <i type="int" name="NFREE">     1</i>
   <i name="POTIM">      0.30000000</i>
   <i name="SMASS">     -3.00000000</i>
   <i name="SCALEE">      1.00000000</i>
  </separator>
  <separator name="ionic md" >
   <i name="TEBEG">      0.00010000</i>
   <i name="TEEND">      0.00010000</i>
   <i type="int" name="NBLOCK">     1</i>
   <i type="int" name="KBLOCK">   200</i>
   <i type="int" name="NPACO">   256</i>
   <i name="APACO">     16.00000000</i>
  </separator>
  <separator name="symmetry" >
   <i type="int" name="ISYM">     2</i>
   <i name="SYMPREC">      0.00001000</i>
  </separator>
  <separator name="dos" >
   <i type="logical" name="LORBIT"> F  </i>
   <v name="RWIGS">     -1.00000000     -1.00000000</v>
   <i type="int" name="NEDOS">   301</i>
   <i name="EMIN">     10.00000000</i>
   <i name="EMAX">    -10.00000000</i>
   <i name="EFERMI">      0.00000000</i>
  </separator>
  <separator name="writing" >
   <i type="int" name="NWRITE">     2</i>
   <i type="logical" name="LWAVE"> F  </i>
   <i type="logical" name="LCHARG"> F  </i>
   <i type="logical" name="LPARD"> F  </i>
   <i type="logical" name="LVTOT"> F  </i>
   <i type="logical" name="LVHAR"> F  </i>
   <i type="logical" name="LELF"> F  </i>
   <i type="logical" name="LOPTICS"> F  </i>
   <v name="STM">      0.00000000      0.00000000      0.00000000      0.00000000      0.00000000      0.00000000      0.00000000</v>
  </separator>
  <separator name="performance" >
   <i type="int" name="NPAR">     4</i>
   <i type="int" name="NSIM">     4</i>
   <i type="int" name="NBLK">    -1</i>
   <i type="logical" name="LPLANE"> T  </i>
   <i type="logical" name="LSCALAPACK"> T  </i>
   <i type="logical" name="LSCAAWARE"> F  </i>
   <i type="logical" name="LSCALU"> F  </i>
   <i type="logical" name="LASYNC"> F  </i>
   <i type="logical" name="LORBITALREAL"> F  </i>
  </separator>
  <separator name="miscellaneous" >
   <i type="int" name="IDIOT">     3</i>
   <i type="logical" name="LMUSIC"> F  </i>
   <v name="POMASS">     72.61000000     78.96000000</v>
   <v name="DARWINR">      0.00000000      0.00000000</v>
   <v name="DARWINV">      1.00000000      1.00000000</v>
   <i type="logical" name="LCORR"> T  </i>
  </separator>
  <i type="logical" name="GGA_COMPAT"> T  </i>
  <i type="logical" name="LBERRY"> F  </i>
  <i type="int" name="ICORELEVEL">     0</i>
  <i type="logical" name="LDAU"> F  </i>
  <i type="int" name="I_CONSTRAINED_M">     0</i>
  <separator name="electronic exchange-correlation" >
   <i type="string" name="GGA">--</i>
   <i type="int" name="VOSKOWN">     0</i>
   <i type="logical" name="LHFCALC"> F  </i>
   <i type="string" name="PRECFOCK"></i>
   <i type="logical" name="LSYMGRAD"> F  </i>
   <i type="logical" name="LHFONE"> F  </i>
   <i type="logical" name="LRHFCALC"> F  </i>
   <i type="logical" name="LTHOMAS"> F  </i>
   <i type="logical" name="LMODELHF"> F  </i>
   <i name="ENCUT4O">     -1.00000000</i>
   <i type="int" name="EXXOEP">     0</i>
   <i type="int" name="FOURORBIT">     0</i>
   <i name="AEXX">      0.00000000</i>
   <i name="HFALPHA">      0.00000000</i>
   <i name="MCALPHA">      0.00000000</i>
   <i name="ALDAX">      1.00000000</i>
   <i name="AGGAX">      1.00000000</i>
   <i name="ALDAC">      1.00000000</i>
   <i name="AGGAC">      1.00000000</i>
   <i type="int" name="NKREDX">     1</i>
   <i type="int" name="NKREDY">     1</i>
   <i type="int" name="NKREDZ">     1</i>
   <i type="logical" name="SHIFTRED"> F  </i>
   <i type="logical" name="ODDONLY"> F  </i>
   <i type="logical" name="EVENONLY"> F  </i>
   <i type="int" name="LMAXFOCK">     0</i>
   <i type="int" name="NMAXFOCKAE">     0</i>
   <i type="logical" name="LFOCKAEDFT"> F  </i>
   <i name="HFSCREEN">      0.00000000</i>
   <i name="HFSCREENC">      0.00000000</i>
   <i type="int" name="NBANDSGWLOW">     0</i>
  </separator>
  <separator name="vdW DFT" >
   <i type="logical" name="LUSE_VDW"> F  </i>
   <i name="Zab_VDW">     -0.84910000</i>
   <i name="PARAM1">      0.12340000</i>
   <i name="PARAM2">      1.00000000</i>
   <i name="PARAM3">      0.00000000</i>
  </separator>
  <separator name="model GW" >
   <i type="int" name="MODEL_GW">     0</i>
   <i name="MODEL_EPS0">     49.66213309</i>
   <i name="MODEL_ALPHA">      1.00000000</i>
  </separator>
  <separator name="linear response parameters" >
   <i type="logical" name="LEPSILON"> F  </i>
   <i type="logical" name="LRPA"> F  </i>
   <i type="logical" name="LNABLA"> F  </i>
   <i type="logical" name="LVEL"> F  </i>
   <i type="int" name="KINTER">     0</i>
   <i name="CSHIFT">      0.10000000</i>
   <i name="OMEGAMAX">     -1.00000000</i>
   <i name="DEG_THRESHOLD">      0.00200000</i>
  </separator>
  <separator name="orbital magnetization" >
   <i type="logical" name="NUCIND"> F  </i>
   <v name="MAGPOS">      0.00000000      0.00000000      0.00000000</v>
   <i type="logical" name="LNICSALL"> T  </i>
   <i type="logical" name="ORBITALMAG"> F  </i>
   <i type="logical" name="LMAGBLOCH"> F  </i>
   <i type="logical" name="LCHIMAG"> F  </i>
   <i type="logical" name="LGAUGE"> T  </i>
   <i type="int" name="MAGATOM">     0</i>
   <v name="MAGDIPOL">      0.00000000      0.00000000      0.00000000</v>
   <v name="AVECCONST">      0.00000000      0.00000000      0.00000000</v>
  </separator>
  <separator name="response functions" >
   <i type="logical" name="LADDER"> F  </i>
   <i type="logical" name="LFXC"> F  </i>
   <i type="logical" name="LHARTREE"> T  </i>
   <i type="int" name="IBSE">     0</i>
   <v type="int" name="KPOINT">    -1     0     0     0</v>
   <i type="logical" name="LTCTE"> F  </i>
   <i type="logical" name="LTETE"> F  </i>
   <i type="logical" name="LTRIPLET"> F  </i>
   <i type="logical" name="LFXCEPS"> F  </i>
   <i type="logical" name="LFXHEG"> F  </i>
   <i type="int" name="NATURALO">     0</i>
   <i type="logical" name="L2ORDER"> F  </i>
   <i type="logical" name="LUSEW"> F  </i>
   <i name="ENCUTGW">     -2.00000000</i>
   <i name="ENCUTGWSOFT">     -2.00000000</i>
   <i name="ENCUTLF">     -1.00000000</i>
   <i type="int" name="LMAXMP2">    -1</i>
   <i name="SCISSOR">      0.00000000</i>
   <i type="int" name="NOMEGA">     0</i>
   <i type="int" name="NOMEGAR">     0</i>
   <i type="int" name="NBANDSGW">    -1</i>
   <i type="int" name="NBANDSO">    -1</i>
   <i type="int" name="NBANDSV">    -1</i>
   <i type="int" name="NELM">   250</i>
   <i type="int" name="NELMHF">     1</i>
   <i type="int" name="DIM">     3</i>
   <i type="int" name="ANTIRES">     0</i>
   <i name="OMEGAMAX">    -30.00000000</i>
   <i name="OMEGAMIN">    -30.00000000</i>
   <i name="OMEGATL">   -200.00000000</i>
   <i type="int" name="OMEGAGRID">     0</i>
   <i name="CSHIFT">     -0.10000000</i>
   <i type="logical" name="SELFENERGY"> F  </i>
   <i type="logical" name="LSPECTRAL"> F  </i>
   <i type="logical" name="LSPECTRALGW"> F  </i>
   <i type="logical" name="LSINGLES"> F  </i>
   <i type="logical" name="LFERMIGW"> F  </i>
   <i type="logical" name="ODDONLYGW"> F  </i>
   <i type="logical" name="EVENONLYGW"> F  </i>
   <i type="int" name="NKREDLFX">     1</i>
   <i type="int" name="NKREDLFY">     1</i>
   <i type="int" name="NKREDLFZ">     1</i>
   <i type="int" name="MAXMEM">  1800</i>
   <i type="int" name="TELESCOPE">     0</i>
   <i type="int" name="TAUPAR">     1</i>
   <i type="int" name="OMEGAPAR">    -1</i>
   <i name="LAMBDA">      1.00000000</i>
  </separator>
  <separator name="External order field" >
   <i name="OFIELD_KAPPA">      0.00000000</i>
   <v name="OFIELD_K">      0.00000000      0.00000000      0.00000000</v>
   <i name="OFIELD_Q6_NEAR">      0.00000000</i>
   <i name="OFIELD_Q6_FAR">      0.00000000</i>
   <i name="OFIELD_A">      0.00000000</i>
  </separator>
 </parameters>
 <atominfo>
  <atoms>       6 </atoms>
  <types>       2 </types>
  <array name="atoms" >
   <dimension dim="1">ion</dimension>
   <field type="string">element</field>
   <field type="int">atomtype</field>
   <set>
    <rc><c>Ge</c><c>   1</c></rc>
    <rc><c>Ge</c><c>   1</c></rc>
    <rc><c>Se</c><c>   2</c></rc>
    <rc><c>Se</c><c>   2</c></rc>
    <rc><c>Se</c><c>   2</c></rc>
    <rc><c>Se</c><c>   2</c></rc>
   </set>
  </array>
  <array name="atomtypes" >
   <dimension dim="1">type</dimension>
   <field type="int">atomspertype</field>
   <field type="string">element</field>
   <field>mass</field>
   <field>valence</field>
   <field type="string">pseudopotential</field>
   <set>
    <rc><c>   2</c><c>Ge</c><c>     72.61000000</c><c>     14.00000000</c><c>  PAW_PBE Ge_d 03Jul2007                </c></rc>
    <rc><c>   4</c><c>Se</c><c>     78.96000000</c><c>      6.00000000</c><c>  PAW_PBE Se 06Sep2000                  </c></rc>
   </set>
  </array>
 </atominfo>
 <structure name="initialpos" >
  <crystal>
   <varray name="basis" >
    <v>       4.90607700       0.00000000       0.00000000 </v>
    <v>       0.00000000       5.59898900       0.00000000 </v>
    <v>       0.00000000       0.00000000      18.07929100 </v>
   </varray>
   <i name="volume">    496.62133093 </i>
   <varray name="rec_basis" >
    <v>       0.20382884       0.00000000       0.00000000 </v>
    <v>       0.00000000       0.17860367       0.00000000 </v>
    <v>       0.00000000       0.00000000       0.05531190 </v>
   </varray>
  </crystal>
  <varray name="positions" >
   <v>       0.50000000       0.50000000       0.50000000 </v>
   <v>       0.00000000       0.00000000       0.50000000 </v>
   <v>       0.25000000       0.25000000       0.41502600 </v>
   <v>       0.75000000       0.75000000       0.41502600 </v>
   <v>       0.75000000       0.25000000       0.58497400 </v>
   <v>       0.25000000       0.75000000       0.58497400 </v>
  </varray>
 </structure>
 <calculation>
  <scstep>
   <time name="dav">    1.65    1.65</time>
   <time name="total">    1.68    1.69</time>
   <energy>
    <i name="alphaZ">     46.25463308 </i>
    <i name="ewald">   4945.71224611 </i>
    <i name="hartreedc">  -9732.63738308 </i>
    <i name="XCdc">    142.38760078 </i>
    <i name="pawpsdc">   4514.43351212 </i>
    <i name="pawaedc">  -5329.26418529 </i>
    <i name="eentropy">     -0.00089978 </i>
    <i name="bandstr">   -369.53598675 </i>
    <i name="atom">   6220.98622430 </i>
    <i name="e_fr_energy">    438.33576149 </i>
    <i name="e_wo_entrp">    438.33666127 </i>
    <i name="e_0_energy">    438.33621138 </i>
   </energy>
  </scstep>
  <scstep>
   <time name="dav">    1.75    1.75</time>
   <time name="total">    1.75    1.75</time>
   <energy>
    <i name="e_fr_energy">     45.51079404 </i>
    <i name="e_wo_entrp">     45.51113499 </i>
    <i name="e_0_energy">     45.51096451 </i>
   </energy>
  </scstep>
  <scstep>
   <time name="dav">    1.86    1.86</time>
   <time name="total">    1.86    1.87</time>
   <energy>
    <i name="e_fr_energy">    -21.51501186 </i>
    <i name="e_wo_entrp">    -21.51501186 </i>
    <i name="e_0_energy">    -21.51501186 </i>
   </energy>
  </scstep>
  <scstep>
   <time name="dav">    1.70    1.71</time>
   <time name="total">    1.71    1.71</time>
   <energy>
    <i name="e_fr_energy">    -24.75715441 </i>
    <i name="e_wo_entrp">    -24.75715441 </i>
    <i name="e_0_energy">    -24.75715441 </i>
   </energy>
  </scstep>
  <scstep>
   <time name="dav">    1.96    1.96</time>
   <time name="total">    2.05    2.06</time>
   <energy>
    <i name="e_fr_energy">    -24.86419875 </i>
    <i name="e_wo_entrp">    -24.86419875 </i>
    <i name="e_0_energy">    -24.86419875 </i>
   </energy>
  </scstep>
  <scstep>
   <time name="dav">    1.91    1.91</time>
   <time name="total">    2.03    2.04</time>
   <energy>
    <i name="e_fr_energy">    -24.36332270 </i>
    <i name="e_wo_entrp">    -24.36332270 </i>
    <i name="e_0_energy">    -24.36332270 </i>
   </energy>
  </scstep>
  <scstep>
   <time name="dav">    1.72    1.72</time>
   <time name="total">    1.84    1.84</time>
   <energy>
    <i name="e_fr_energy">    -24.26911310 </i>
    <i name="e_wo_entrp">    -24.26911310 </i>
    <i name="e_0_energy">    -24.26911310 </i>
   </energy>
  </scstep>
  <scstep>
   <time name="dav">    1.83    1.83</time>
   <time name="total">    1.95    1.96</time>
   <energy>
    <i name="e_fr_energy">    -24.26309766 </i>
    <i name="e_wo_entrp">    -24.26309766 </i>
    <i name="e_0_energy">    -24.26309766 </i>
   </energy>
  </scstep>
  <scstep>
   <time name="dav">    1.83    1.83</time>
   <time name="total">    1.95    1.95</time>
   <energy>
    <i name="e_fr_energy">    -24.26261028 </i>
    <i name="e_wo_entrp">    -24.26261028 </i>
    <i name="e_0_energy">    -24.26261028 </i>
   </energy>
  </scstep>
  <scstep>
   <time name="dav">    1.94    1.94</time>
   <time name="total">    2.06    2.07</time>
   <energy>
    <i name="e_fr_energy">    -24.26239394 </i>
    <i name="e_wo_entrp">    -24.26239394 </i>
    <i name="e_0_energy">    -24.26239394 </i>
   </energy>
  </scstep>
  <scstep>
   <time name="dav">    1.58    1.58</time>
   <time name="total">    1.70    1.70</time>
   <energy>
    <i name="e_fr_energy">    -24.26219878 </i>
    <i name="e_wo_entrp">    -24.26219878 </i>
    <i name="e_0_energy">    -24.26219878 </i>
   </energy>
  </scstep>
  <scstep>
   <time name="dav">    1.54    1.54</time>
   <time name="total">    1.66    1.67</time>
   <energy>
    <i name="e_fr_energy">    -24.26233176 </i>
    <i name="e_wo_entrp">    -24.26233176 </i>
    <i name="e_0_energy">    -24.26233176 </i>
   </energy>
  </scstep>
  <scstep>
   <time name="dav">    1.52    1.52</time>
   <time name="total">    1.64    1.64</time>
   <energy>
    <i name="e_fr_energy">    -24.26259510 </i>
    <i name="e_wo_entrp">    -24.26259510 </i>
    <i name="e_0_energy">    -24.26259510 </i>
   </energy>
  </scstep>
  <scstep>
   <time name="dav">    1.43    1.43</time>
   <time name="total">    1.55    1.55</time>
   <energy>
    <i name="e_fr_energy">    -24.26269680 </i>
    <i name="e_wo_entrp">    -24.26269680 </i>
    <i name="e_0_energy">    -24.26269680 </i>
   </energy>
  </scstep>
  <scstep>
   <time name="dav">    1.41    1.41</time>
   <time name="total">    1.53    1.53</time>
   <energy>
    <i name="e_fr_energy">    -24.26275237 </i>
    <i name="e_wo_entrp">    -24.26275237 </i>
    <i name="e_0_energy">    -24.26275237 </i>
   </energy>
  </scstep>
  <scstep>
   <time name="dav">    1.36    1.36</time>
   <time name="total">    1.48    1.48</time>
   <energy>
    <i name="e_fr_energy">    -24.26281518 </i>
    <i name="e_wo_entrp">    -24.26281518 </i>
    <i name="e_0_energy">    -24.26281518 </i>
   </energy>
  </scstep>
  <scstep>
   <time name="dav">    1.26    1.26</time>
   <time name="total">    1.38    1.39</time>
   <energy>
    <i name="e_fr_energy">    -24.26286089 </i>
    <i name="e_wo_entrp">    -24.26286089 </i>
    <i name="e_0_energy">    -24.26286089 </i>
   </energy>
  </scstep>
  <scstep>
   <time name="dav">    1.32    1.32</time>
   <time name="total">    1.44    1.44</time>
   <energy>
    <i name="e_fr_energy">    -24.26289095 </i>
    <i name="e_wo_entrp">    -24.26289095 </i>
    <i name="e_0_energy">    -24.26289095 </i>
   </energy>
  </scstep>
  <scstep>
   <time name="dav">    1.34    1.34</time>
   <time name="total">    1.37    1.37</time>
   <energy>
    <i name="alphaZ">     46.25463308 </i>
    <i name="ewald">   4945.71224611 </i>
    <i name="hartreedc">  -9736.69524648 </i>
    <i name="XCdc">    142.92108920 </i>
    <i name="pawpsdc">   5744.93088674 </i>
    <i name="pawaedc">  -6564.94094768 </i>
    <i name="eentropy">     -0.00000000 </i>
    <i name="bandstr">   -823.43178134 </i>
    <i name="atom">   6220.98622430 </i>
    <i name="e_fr_energy">    -24.26289607 </i>
    <i name="e_wo_entrp">    -24.26289607 </i>
    <i name="e_0_energy">    -24.26289607 </i>
   </energy>
  </scstep>
  <structure>
   <crystal>
    <varray name="basis" >
     <v>       4.90607700       0.00000000       0.00000000 </v>
     <v>       0.00000000       5.59898900       0.00000000 </v>
     <v>       0.00000000       0.00000000      18.07929100 </v>
    </varray>
    <i name="volume">    496.62133093 </i>
    <varray name="rec_basis" >
     <v>       0.20382884       0.00000000       0.00000000 </v>
     <v>       0.00000000       0.17860367       0.00000000 </v>
     <v>       0.00000000       0.00000000       0.05531190 </v>
    </varray>
   </crystal>
   <varray name="positions" >
    <v>       0.50000000       0.50000000       0.50000000 </v>
    <v>       0.00000000       0.00000000       0.50000000 </v>
    <v>       0.25000000       0.25000000       0.41502600 </v>
    <v>       0.75000000       0.75000000       0.41502600 </v>
    <v>       0.75000000       0.25000000       0.58497400 </v>
    <v>       0.25000000       0.75000000       0.58497400 </v>
   </varray>
  </structure>
  <varray name="forces" >
   <v>       0.00000000      -0.00000000      -0.00000000 </v>
   <v>       0.00000000      -0.00000000      -0.00000000 </v>
   <v>       0.00000000      -0.00000000       0.02812025 </v>
   <v>       0.00000000       0.00000000       0.02812025 </v>
   <v>       0.00000000      -0.00000000      -0.02812025 </v>
   <v>       0.00000000       0.00000000      -0.02812025 </v>
  </varray>
  <varray name="stress" >
   <v>      -0.72891372       0.00000000       0.00000000 </v>
   <v>       0.00000000      -1.19283236       0.00000000 </v>
   <v>       0.00000000       0.00000000      -0.60703130 </v>
  </varray>
  <energy>
   <i name="e_fr_energy">    -24.26289607 </i>
   <i name="e_wo_entrp">    -24.26289607 </i>
   <i name="e_0_energy">     -0.00000000 </i>
  </energy>
  <time name="totalsc">   33.82   33.86</time>
 </calculation>
 <calculation>
  <scstep>
   <time name="dav">    1.41    1.41</time>
   <time name="total">    1.53    1.53</time>
   <energy>
    <i name="alphaZ">     46.25463308 </i>
    <i name="ewald">   4947.55781461 </i>
    <i name="hartreedc">  -9738.48218989 </i>
    <i name="XCdc">    142.92852259 </i>
    <i name="pawpsdc">   5744.91436182 </i>
    <i name="pawaedc">  -6564.92443193 </i>
    <i name="eentropy">     -0.00000000 </i>
    <i name="bandstr">   -823.49789745 </i>
    <i name="atom">   6220.98622430 </i>
    <i name="e_fr_energy">    -24.26296289 </i>
    <i name="e_wo_entrp">    -24.26296289 </i>
    <i name="e_0_energy">    -24.26296289 </i>
   </energy>
  </scstep>
  <scstep>
   <time name="dav">    1.59    1.59</time>
   <time name="total">    1.71    1.72</time>
   <energy>
    <i name="e_fr_energy">    -24.26297507 </i>
    <i name="e_wo_entrp">    -24.26297507 </i>
    <i name="e_0_energy">    -24.26297507 </i>
   </energy>
  </scstep>
  <scstep>
   <time name="dav">    1.21    1.21</time>
   <time name="total">    1.33    1.34</time>
   <energy>
    <i name="e_fr_energy">    -24.26297538 </i>
    <i name="e_wo_entrp">    -24.26297538 </i>
    <i name="e_0_energy">    -24.26297538 </i>
   </energy>
  </scstep>
  <scstep>
   <time name="dav">    1.14    1.14</time>
   <time name="total">    1.26    1.27</time>
   <energy>
    <i name="e_fr_energy">    -24.26297607 </i>
    <i name="e_wo_entrp">    -24.26297607 </i>
    <i name="e_0_energy">    -24.26297607 </i>
   </energy>
  </scstep>
  <scstep>
   <time name="dav">    1.17    1.17</time>
   <time name="total">    1.29    1.30</time>
   <energy>
    <i name="e_fr_energy">    -24.26297646 </i>
    <i name="e_wo_entrp">    -24.26297646 </i>
    <i name="e_0_energy">    -24.26297646 </i>
   </energy>
  </scstep>
  <scstep>
   <time name="dav">    1.11    1.11</time>
   <time name="total">    1.14    1.14</time>
   <energy>
    <i name="alphaZ">     46.25463308 </i>
    <i name="ewald">   4947.55781461 </i>
    <i name="hartreedc">  -9738.48122474 </i>
    <i name="XCdc">    142.92756928 </i>
    <i name="pawpsdc">   5746.80963828 </i>
    <i name="pawaedc">  -6566.83241476 </i>
    <i name="eentropy">     -0.00000000 </i>
    <i name="bandstr">   -823.48521658 </i>
    <i name="atom">   6220.98622430 </i>
    <i name="e_fr_energy">    -24.26297654 </i>
    <i name="e_wo_entrp">    -24.26297654 </i>
    <i name="e_0_energy">    -24.26297654 </i>
   </energy>
  </scstep>
  <structure>
   <crystal>
    <varray name="basis" >
     <v>       4.90607700       0.00000000       0.00000000 </v>
     <v>       0.00000000       5.59898900       0.00000000 </v>
     <v>       0.00000000       0.00000000      18.07929100 </v>
    </varray>
    <i name="volume">    496.62133093 </i>
    <varray name="rec_basis" >
     <v>       0.20382884       0.00000000       0.00000000 </v>
     <v>       0.00000000       0.17860367       0.00000000 </v>
     <v>       0.00000000       0.00000000       0.05531190 </v>
    </varray>
   </crystal>
   <varray name="positions" >
    <v>       0.50000000       0.50000000       0.50000000 </v>
    <v>       0.00000000      -0.00000000       0.50000000 </v>
    <v>       0.25000000       0.25000000       0.41507102 </v>
    <v>       0.75000000       0.75000000       0.41507102 </v>
    <v>       0.75000000       0.25000000       0.58492898 </v>
    <v>       0.25000000       0.75000000       0.58492898 </v>
   </varray>
  </structure>
  <varray name="forces" >
   <v>      -0.00000000       0.00000000       0.00000000 </v>
   <v>      -0.00000000       0.00000000       0.00000000 </v>
   <v>      -0.00000000       0.00000000       0.01887899 </v>
   <v>       0.00000000      -0.00000000       0.01887899 </v>
   <v>      -0.00000000       0.00000000      -0.01887899 </v>
   <v>      -0.00000000      -0.00000000      -0.01887899 </v>
  </varray>
  <varray name="stress" >
   <v>      -0.68585935       0.00000000       0.00000000 </v>
   <v>       0.00000000      -1.14215560       0.00000000 </v>
   <v>       0.00000000       0.00000000      -0.43484362 </v>
  </varray>
  <energy>
   <i name="e_fr_energy">    -24.26297654 </i>
   <i name="e_wo_entrp">    -24.26297654 </i>
   <i name="e_0_energy">     -0.00000000 </i>
  </energy>
  <time name="totalsc">    9.45    9.47</time>
 </calculation>
 <calculation>
  <scstep>
   <time name="dav">    1.37    1.38</time>
   <time name="total">    1.50    1.50</time>
   <energy>
    <i name="alphaZ">     46.25463308 </i>
    <i name="ewald">   4951.32818402 </i>
    <i name="hartreedc">  -9742.12745970 </i>
    <i name="XCdc">    142.94275241 </i>
    <i name="pawpsdc">   5746.82321985 </i>
    <i name="pawaedc">  -6566.84603583 </i>
    <i name="eentropy">     -0.00000000 </i>
    <i name="bandstr">   -823.62450998 </i>
    <i name="atom">   6220.98622430 </i>
    <i name="e_fr_energy">    -24.26299186 </i>
    <i name="e_wo_entrp">    -24.26299186 </i>
    <i name="e_0_energy">    -24.26299186 </i>
   </energy>
  </scstep>
  <scstep>
   <time name="dav">    1.58    1.58</time>
   <time name="total">    1.70    1.70</time>
   <energy>
    <i name="e_fr_energy">    -24.26304131 </i>
    <i name="e_wo_entrp">    -24.26304131 </i>
    <i name="e_0_energy">    -24.26304131 </i>
   </energy>
  </scstep>
  <scstep>
   <time name="dav">    1.30    1.30</time>
   <time name="total">    1.42    1.42</time>
   <energy>
    <i name="e_fr_energy">    -24.26304101 </i>
    <i name="e_wo_entrp">    -24.26304101 </i>
    <i name="e_0_energy">    -24.26304101 </i>
   </energy>
  </scstep>
  <scstep>
   <time name="dav">    1.21    1.21</time>
   <time name="total">    1.33    1.33</time>
   <energy>
    <i name="e_fr_energy">    -24.26304200 </i>
    <i name="e_wo_entrp">    -24.26304200 </i>
    <i name="e_0_energy">    -24.26304200 </i>
   </energy>
  </scstep>
  <scstep>
   <time name="dav">    1.13    1.13</time>
   <time name="total">    1.25    1.25</time>
   <energy>
    <i name="e_fr_energy">    -24.26304269 </i>
    <i name="e_wo_entrp">    -24.26304269 </i>
    <i name="e_0_energy">    -24.26304269 </i>
   </energy>
  </scstep>
  <scstep>
   <time name="dav">    1.08    1.08</time>
   <time name="total">    1.11    1.11</time>
   <energy>
    <i name="alphaZ">     46.25463308 </i>
    <i name="ewald">   4951.32818402 </i>
    <i name="hartreedc">  -9742.12464189 </i>
    <i name="XCdc">    142.94078329 </i>
    <i name="pawpsdc">   5750.73374654 </i>
    <i name="pawaedc">  -6570.78217511 </i>
    <i name="eentropy">     -0.00000000 </i>
    <i name="bandstr">   -823.59979704 </i>
    <i name="atom">   6220.98622430 </i>
    <i name="e_fr_energy">    -24.26304281 </i>
    <i name="e_wo_entrp">    -24.26304281 </i>
    <i name="e_0_energy">    -24.26304281 </i>
   </energy>
  </scstep>
  <structure>
   <crystal>
    <varray name="basis" >
     <v>       4.90607700       0.00000000       0.00000000 </v>
     <v>       0.00000000       5.59898900       0.00000000 </v>
     <v>       0.00000000       0.00000000      18.07929100 </v>
    </varray>
    <i name="volume">    496.62133093 </i>
    <varray name="rec_basis" >
     <v>       0.20382884       0.00000000       0.00000000 </v>
     <v>       0.00000000       0.17860367       0.00000000 </v>
     <v>       0.00000000       0.00000000       0.05531190 </v>
    </varray>
   </crystal>
   <varray name="positions" >
    <v>       0.50000000       0.50000000       0.50000000 </v>
    <v>       0.00000000      -0.00000000       0.50000000 </v>
    <v>       0.25000000       0.25000000       0.41516300 </v>
    <v>       0.75000000       0.75000000       0.41516300 </v>
    <v>       0.75000000       0.25000000       0.58483700 </v>
    <v>       0.25000000       0.75000000       0.58483700 </v>
   </varray>
  </structure>
  <varray name="forces" >
   <v>      -0.00000000       0.00000000       0.00000000 </v>
   <v>       0.00000000       0.00000000       0.00000000 </v>
   <v>       0.00000000      -0.00000000      -0.00004853 </v>
   <v>       0.00000000       0.00000000      -0.00004853 </v>
   <v>      -0.00000000      -0.00000000       0.00004853 </v>
   <v>      -0.00000000       0.00000000       0.00004853 </v>
  </varray>
  <varray name="stress" >
   <v>      -0.58673199       0.00000000       0.00000000 </v>
   <v>       0.00000000      -1.02732772       0.00000000 </v>
   <v>       0.00000000       0.00000000      -0.06534576 </v>
  </varray>
  <energy>
   <i name="e_fr_energy">    -24.26304281 </i>
   <i name="e_wo_entrp">    -24.26304281 </i>
   <i name="e_0_energy">     -0.00000000 </i>
  </energy>
  <time name="totalsc">    9.41    9.43</time>
  <eigenvalues>
   <array>
    <dimension dim="1">band</dimension>
    <dimension dim="2">kpoint</dimension>
    <dimension dim="3">spin</dimension>
    <field>eigene</field>
    <field>occ</field>
    <set>
     <set comment="spin 1">
      <set comment="kpoint 1">
       <r>  -27.8147    1.0000 </r>
       <r>  -27.8107    1.0000 </r>
       <r>  -27.8082    1.0000 </r>
       <r>  -27.8026    1.0000 </r>
       <r>  -27.8017    1.0000 </r>
       <r>  -27.7891    1.0000 </r>
       <r>  -27.7843    1.0000 </r>
       <r>  -27.7819    1.0000 </r>
       <r>  -27.7688    1.0000 </r>
       <r>  -27.7635    1.0000 </r>
       <r>  -16.9035    1.0000 </r>
       <r>  -15.3965    1.0000 </r>
       <r>  -14.9936    1.0000 </r>
       <r>  -14.7774    1.0000 </r>
       <r>  -11.8105    1.0000 </r>
       <r>   -9.2217    1.0000 </r>
       <r>   -7.4621    1.0000 </r>
       <r>   -5.9087    1.0000 </r>
       <r>   -5.5011    1.0000 </r>
       <r>   -5.4801    1.0000 </r>
       <r>   -5.2463    1.0000 </r>
       <r>   -5.1369    1.0000 </r>
       <r>   -4.6488    1.0000 </r>
       <r>   -4.1559    1.0000 </r>
       <r>   -2.8671    1.0000 </r>
       <r>   -2.8225    1.0000 </r>
       <r>   -1.8811    0.0000 </r>
       <r>   -1.3879    0.0000 </r>
       <r>   -0.9472    0.0000 </r>
       <r>    0.1237    0.0000 </r>
       <r>    0.6722    0.0000 </r>
       <r>    1.9377    0.0000 </r>
      </set>
      <set comment="kpoint 2">
       <r>  -27.8146    1.0000 </r>
       <r>  -27.8107    1.0000 </r>
       <r>  -27.8080    1.0000 </r>
       <r>  -27.8028    1.0000 </r>
       <r>  -27.8017    1.0000 </r>
       <r>  -27.7890    1.0000 </r>
       <r>  -27.7844    1.0000 </r>
       <r>  -27.7821    1.0000 </r>
       <r>  -27.7687    1.0000 </r>
       <r>  -27.7635    1.0000 </r>
       <r>  -16.8870    1.0000 </r>
       <r>  -15.3904    1.0000 </r>
       <r>  -14.9959    1.0000 </r>
       <r>  -14.8160    1.0000 </r>
       <r>  -11.7680    1.0000 </r>
       <r>   -9.2376    1.0000 </r>
       <r>   -7.4608    1.0000 </r>
       <r>   -5.9021    1.0000 </r>
       <r>   -5.5942    1.0000 </r>
       <r>   -5.5570    1.0000 </r>
       <r>   -5.3062    1.0000 </r>
       <r>   -5.0357    1.0000 </r>
       <r>   -4.6458    1.0000 </r>
       <r>   -4.1420    1.0000 </r>
       <r>   -2.9261    1.0000 </r>
       <r>   -2.8520    1.0000 </r>
       <r>   -1.7825    0.0000 </r>
       <r>   -1.3838    0.0000 </r>
       <r>   -0.8378    0.0000 </r>
       <r>    0.1718    0.0000 </r>
       <r>    0.7200    0.0000 </r>
       <r>    1.9655    0.0000 </r>
      </set>
      <set comment="kpoint 3">
       <r>  -27.8142    1.0000 </r>
       <r>  -27.8105    1.0000 </r>
       <r>  -27.8077    1.0000 </r>
       <r>  -27.8032    1.0000 </r>
       <r>  -27.8015    1.0000 </r>
       <r>  -27.7888    1.0000 </r>
       <r>  -27.7845    1.0000 </r>
       <r>  -27.7829    1.0000 </r>
       <r>  -27.7685    1.0000 </r>
       <r>  -27.7637    1.0000 </r>
       <r>  -16.8376    1.0000 </r>
       <r>  -15.3726    1.0000 </r>
       <r>  -15.0028    1.0000 </r>
       <r>  -14.9250    1.0000 </r>
       <r>  -11.6471    1.0000 </r>
       <r>   -9.2872    1.0000 </r>
       <r>   -7.4557    1.0000 </r>
       <r>   -5.8798    1.0000 </r>
       <r>   -5.7557    1.0000 </r>
       <r>   -5.7516    1.0000 </r>
       <r>   -5.4605    1.0000 </r>
       <r>   -4.8581    1.0000 </r>
       <r>   -4.6532    1.0000 </r>
       <r>   -4.1015    1.0000 </r>
       <r>   -3.0789    1.0000 </r>
       <r>   -2.9324    1.0000 </r>
       <r>   -1.5275    0.0000 </r>
       <r>   -1.3603    0.0000 </r>
       <r>   -0.5299    0.0000 </r>
       <r>    0.3063    0.0000 </r>
       <r>    0.8523    0.0000 </r>
       <r>    1.9944    0.0000 </r>
      </set>
      <set comment="kpoint 4">
       <r>  -27.8136    1.0000 </r>
       <r>  -27.8102    1.0000 </r>
       <r>  -27.8074    1.0000 </r>
       <r>  -27.8038    1.0000 </r>
       <r>  -27.8010    1.0000 </r>
       <r>  -27.7885    1.0000 </r>
       <r>  -27.7847    1.0000 </r>
       <r>  -27.7842    1.0000 </r>
       <r>  -27.7683    1.0000 </r>
       <r>  -27.7640    1.0000 </r>
       <r>  -16.7562    1.0000 </r>
       <r>  -15.3442    1.0000 </r>
       <r>  -15.0877    1.0000 </r>
       <r>  -15.0151    1.0000 </r>
       <r>  -11.4633    1.0000 </r>
       <r>   -9.3749    1.0000 </r>
       <r>   -7.4434    1.0000 </r>
       <r>   -6.0183    1.0000 </r>
       <r>   -5.8973    1.0000 </r>
       <r>   -5.8352    1.0000 </r>
       <r>   -5.6563    1.0000 </r>
       <r>   -4.6931    1.0000 </r>
       <r>   -4.6887    1.0000 </r>
       <r>   -4.0380    1.0000 </r>
       <r>   -3.2850    1.0000 </r>
       <r>   -3.0455    1.0000 </r>
       <r>   -1.2940    0.0000 </r>
       <r>   -1.1920    0.0000 </r>
       <r>   -0.0686    0.0000 </r>
       <r>    0.5033    0.0000 </r>
       <r>    1.0351    0.0000 </r>
       <r>    1.8334    0.0000 </r>
      </set>
      <set comment="kpoint 5">
       <r>  -27.8127    1.0000 </r>
       <r>  -27.8099    1.0000 </r>
       <r>  -27.8072    1.0000 </r>
       <r>  -27.8047    1.0000 </r>
       <r>  -27.8001    1.0000 </r>
       <r>  -27.7881    1.0000 </r>
       <r>  -27.7858    1.0000 </r>
       <r>  -27.7849    1.0000 </r>
       <r>  -27.7679    1.0000 </r>
       <r>  -27.7643    1.0000 </r>
       <r>  -16.6442    1.0000 </r>
       <r>  -15.3073    1.0000 </r>
       <r>  -15.2854    1.0000 </r>
       <r>  -15.0335    1.0000 </r>
       <r>  -11.2341    1.0000 </r>
       <r>   -9.5055    1.0000 </r>
       <r>   -7.4176    1.0000 </r>
       <r>   -6.2995    1.0000 </r>
       <r>   -6.0153    1.0000 </r>
       <r>   -5.8460    1.0000 </r>
       <r>   -5.7624    1.0000 </r>
       <r>   -4.7738    1.0000 </r>
       <r>   -4.5489    1.0000 </r>
       <r>   -3.9563    1.0000 </r>
       <r>   -3.5114    1.0000 </r>
       <r>   -3.1722    1.0000 </r>
       <r>   -1.1690    0.0000 </r>
       <r>   -0.8488    0.0000 </r>
       <r>    0.5000    0.0000 </r>
       <r>    0.7331    0.0000 </r>
       <r>    1.2138    0.0000 </r>
       <r>    1.6716    0.0000 </r>
      </set>
      <set comment="kpoint 6">
       <r>  -27.8117    1.0000 </r>
       <r>  -27.8094    1.0000 </r>
       <r>  -27.8072    1.0000 </r>
       <r>  -27.8057    1.0000 </r>
       <r>  -27.7987    1.0000 </r>
       <r>  -27.7878    1.0000 </r>
       <r>  -27.7876    1.0000 </r>
       <r>  -27.7852    1.0000 </r>
       <r>  -27.7674    1.0000 </r>
       <r>  -27.7647    1.0000 </r>
       <r>  -16.5036    1.0000 </r>
       <r>  -15.5018    1.0000 </r>
       <r>  -15.2644    1.0000 </r>
       <r>  -15.0586    1.0000 </r>
       <r>  -10.9751    1.0000 </r>
       <r>   -9.6812    1.0000 </r>
       <r>   -7.3698    1.0000 </r>
       <r>   -6.5699    1.0000 </r>
       <r>   -6.1019    1.0000 </r>
       <r>   -5.9999    1.0000 </r>
       <r>   -5.6588    1.0000 </r>
       <r>   -4.8931    1.0000 </r>
       <r>   -4.4372    1.0000 </r>
       <r>   -3.8614    1.0000 </r>
       <r>   -3.7327    1.0000 </r>
       <r>   -3.2993    1.0000 </r>
       <r>   -0.9882    0.0000 </r>
       <r>   -0.5690    0.0000 </r>
       <r>    0.9616    0.0000 </r>
       <r>    1.1337    0.0000 </r>
       <r>    1.3344    0.0000 </r>
       <r>    1.5505    0.0000 </r>
      </set>
      <set comment="kpoint 7">
       <r>  -27.8106    1.0000 </r>
       <r>  -27.8089    1.0000 </r>
       <r>  -27.8075    1.0000 </r>
       <r>  -27.8069    1.0000 </r>
       <r>  -27.7968    1.0000 </r>
       <r>  -27.7900    1.0000 </r>
       <r>  -27.7871    1.0000 </r>
       <r>  -27.7856    1.0000 </r>
       <r>  -27.7669    1.0000 </r>
       <r>  -27.7652    1.0000 </r>
       <r>  -16.3371    1.0000 </r>
       <r>  -15.7240    1.0000 </r>
       <r>  -15.2185    1.0000 </r>
       <r>  -15.0907    1.0000 </r>
       <r>  -10.6996    1.0000 </r>
       <r>   -9.8986    1.0000 </r>
       <r>   -7.2911    1.0000 </r>
       <r>   -6.8116    1.0000 </r>
       <r>   -6.1566    1.0000 </r>
       <r>   -6.1058    1.0000 </r>
       <r>   -5.5268    1.0000 </r>
       <r>   -5.0419    1.0000 </r>
       <r>   -4.3376    1.0000 </r>
       <r>   -3.9311    1.0000 </r>
       <r>   -3.7578    1.0000 </r>
       <r>   -3.4208    1.0000 </r>
       <r>   -0.7753    0.0000 </r>
       <r>   -0.4192    0.0000 </r>
       <r>    1.1528    0.0000 </r>
       <r>    1.3826    0.0000 </r>
       <r>    1.4376    0.0000 </r>
       <r>    1.4421    0.0000 </r>
      </set>
      <set comment="kpoint 8">
       <r>  -27.8094    1.0000 </r>
       <r>  -27.8084    1.0000 </r>
       <r>  -27.8081    1.0000 </r>
       <r>  -27.8079    1.0000 </r>
       <r>  -27.7946    1.0000 </r>
       <r>  -27.7923    1.0000 </r>
       <r>  -27.7866    1.0000 </r>
       <r>  -27.7861    1.0000 </r>
       <r>  -27.7664    1.0000 </r>
       <r>  -27.7658    1.0000 </r>
       <r>  -16.1484    1.0000 </r>
       <r>  -15.9421    1.0000 </r>
       <r>  -15.1724    1.0000 </r>
       <r>  -15.1291    1.0000 </r>
       <r>  -10.4201    1.0000 </r>
       <r>  -10.1488    1.0000 </r>
       <r>   -7.1741    1.0000 </r>
       <r>   -7.0144    1.0000 </r>
       <r>   -6.1783    1.0000 </r>
       <r>   -6.1634    1.0000 </r>
       <r>   -5.3726    1.0000 </r>
       <r>   -5.2067    1.0000 </r>
       <r>   -4.2298    1.0000 </r>
       <r>   -4.0971    1.0000 </r>
       <r>   -3.6490    1.0000 </r>
       <r>   -3.5368    1.0000 </r>
       <r>   -0.5707    0.0000 </r>
       <r>   -0.4306    0.0000 </r>
       <r>    1.2825    0.0000 </r>
       <r>    1.3618    0.0000 </r>
       <r>    1.3909    0.0000 </r>
       <r>    1.4013    0.0000 </r>
      </set>
      <set comment="kpoint 9">
       <r>  -27.8146    1.0000 </r>
       <r>  -27.8106    1.0000 </r>
       <r>  -27.8081    1.0000 </r>
       <r>  -27.8025    1.0000 </r>
       <r>  -27.8019    1.0000 </r>
       <r>  -27.7890    1.0000 </r>
       <r>  -27.7844    1.0000 </r>
       <r>  -27.7822    1.0000 </r>
       <r>  -27.7687    1.0000 </r>
       <r>  -27.7636    1.0000 </r>
       <r>  -16.8850    1.0000 </r>
       <r>  -15.3879    1.0000 </r>
       <r>  -15.0432    1.0000 </r>
       <r>  -14.7867    1.0000 </r>
       <r>  -11.7480    1.0000 </r>
       <r>   -9.2404    1.0000 </r>
       <r>   -7.4484    1.0000 </r>
       <r>   -5.9320    1.0000 </r>
       <r>   -5.5381    1.0000 </r>
       <r>   -5.4923    1.0000 </r>
       <r>   -5.3291    1.0000 </r>
       <r>   -5.1027    1.0000 </r>
       <r>   -4.6452    1.0000 </r>
       <r>   -4.1262    1.0000 </r>
       <r>   -2.8959    1.0000 </r>
       <r>   -2.8921    1.0000 </r>
       <r>   -1.7651    0.0000 </r>
       <r>   -1.3646    0.0000 </r>
       <r>   -0.8188    0.0000 </r>
       <r>    0.1412    0.0000 </r>
       <r>    0.7052    0.0000 </r>
       <r>    1.9637    0.0000 </r>
      </set>
      <set comment="kpoint 10">
       <r>  -27.8145    1.0000 </r>
       <r>  -27.8105    1.0000 </r>
       <r>  -27.8080    1.0000 </r>
       <r>  -27.8026    1.0000 </r>
       <r>  -27.8018    1.0000 </r>
       <r>  -27.7889    1.0000 </r>
       <r>  -27.7844    1.0000 </r>
       <r>  -27.7824    1.0000 </r>
       <r>  -27.7686    1.0000 </r>
       <r>  -27.7636    1.0000 </r>
       <r>  -16.8686    1.0000 </r>
       <r>  -15.3820    1.0000 </r>
       <r>  -15.0487    1.0000 </r>
       <r>  -14.8192    1.0000 </r>
       <r>  -11.7095    1.0000 </r>
       <r>   -9.2578    1.0000 </r>
       <r>   -7.4441    1.0000 </r>
       <r>   -5.9374    1.0000 </r>
       <r>   -5.6697    1.0000 </r>
       <r>   -5.5690    1.0000 </r>
       <r>   -5.3051    1.0000 </r>
       <r>   -5.0073    1.0000 </r>
       <r>   -4.6498    1.0000 </r>
       <r>   -4.1133    1.0000 </r>
       <r>   -3.0295    1.0000 </r>
       <r>   -2.8300    1.0000 </r>
       <r>   -1.7233    0.0000 </r>
       <r>   -1.3594    0.0000 </r>
       <r>   -0.6869    0.0000 </r>
       <r>    0.1876    0.0000 </r>
       <r>    0.7519    0.0000 </r>
       <r>    1.9344    0.0000 </r>
      </set>
      <set comment="kpoint 11">
       <r>  -27.8142    1.0000 </r>
       <r>  -27.8103    1.0000 </r>
       <r>  -27.8078    1.0000 </r>
       <r>  -27.8030    1.0000 </r>
       <r>  -27.8016    1.0000 </r>
       <r>  -27.7887    1.0000 </r>
       <r>  -27.7846    1.0000 </r>
       <r>  -27.7831    1.0000 </r>
       <r>  -27.7685    1.0000 </r>
       <r>  -27.7638    1.0000 </r>
       <r>  -16.8198    1.0000 </r>
       <r>  -15.3647    1.0000 </r>
       <r>  -15.0723    1.0000 </r>
       <r>  -14.9038    1.0000 </r>
       <r>  -11.5994    1.0000 </r>
       <r>   -9.3117    1.0000 </r>
       <r>   -7.4306    1.0000 </r>
       <r>   -5.9641    1.0000 </r>
       <r>   -5.9135    1.0000 </r>
       <r>   -5.6769    1.0000 </r>
       <r>   -5.3561    1.0000 </r>
       <r>   -4.8344    1.0000 </r>
       <r>   -4.6686    1.0000 </r>
       <r>   -4.0745    1.0000 </r>
       <r>   -3.2121    1.0000 </r>
       <r>   -2.8472    1.0000 </r>
       <r>   -1.5737    0.0000 </r>
       <r>   -1.3335    0.0000 </r>
       <r>   -0.3436    0.0000 </r>
       <r>    0.3165    0.0000 </r>
       <r>    0.8821    0.0000 </r>
       <r>    1.8108    0.0000 </r>
      </set>
      <set comment="kpoint 12">
       <r>  -27.8136    1.0000 </r>
       <r>  -27.8100    1.0000 </r>
       <r>  -27.8076    1.0000 </r>
       <r>  -27.8035    1.0000 </r>
       <r>  -27.8011    1.0000 </r>
       <r>  -27.7884    1.0000 </r>
       <r>  -27.7852    1.0000 </r>
       <r>  -27.7840    1.0000 </r>
       <r>  -27.7682    1.0000 </r>
       <r>  -27.7640    1.0000 </r>
       <r>  -16.7394    1.0000 </r>
       <r>  -15.3373    1.0000 </r>
       <r>  -15.1529    1.0000 </r>
       <r>  -14.9882    1.0000 </r>
       <r>  -11.4308    1.0000 </r>
       <r>   -9.4059    1.0000 </r>
       <r>   -7.4061    1.0000 </r>
       <r>   -6.1745    1.0000 </r>
       <r>   -6.0297    1.0000 </r>
       <r>   -5.7164    1.0000 </r>
       <r>   -5.5012    1.0000 </r>
       <r>   -4.7181    1.0000 </r>
       <r>   -4.6691    1.0000 </r>
       <r>   -4.0107    1.0000 </r>
       <r>   -3.4153    1.0000 </r>
       <r>   -2.9298    1.0000 </r>
       <r>   -1.3160    0.0000 </r>
       <r>   -1.2661    0.0000 </r>
       <r>    0.1272    0.0000 </r>
       <r>    0.5033    0.0000 </r>
       <r>    1.0651    0.0000 </r>
       <r>    1.6526    0.0000 </r>
      </set>
      <set comment="kpoint 13">
       <r>  -27.8129    1.0000 </r>
       <r>  -27.8095    1.0000 </r>
       <r>  -27.8076    1.0000 </r>
       <r>  -27.8042    1.0000 </r>
       <r>  -27.8002    1.0000 </r>
       <r>  -27.7880    1.0000 </r>
       <r>  -27.7864    1.0000 </r>
       <r>  -27.7846    1.0000 </r>
       <r>  -27.7678    1.0000 </r>
       <r>  -27.7643    1.0000 </r>
       <r>  -16.6288    1.0000 </r>
       <r>  -15.3156    1.0000 </r>
       <r>  -15.3018    1.0000 </r>
       <r>  -15.0309    1.0000 </r>
       <r>  -11.2188    1.0000 </r>
       <r>   -9.5437    1.0000 </r>
       <r>   -7.3672    1.0000 </r>
       <r>   -6.4191    1.0000 </r>
       <r>   -6.1088    1.0000 </r>
       <r>   -5.6893    1.0000 </r>
       <r>   -5.6884    1.0000 </r>
       <r>   -4.8096    1.0000 </r>
       <r>   -4.5343    1.0000 </r>
       <r>   -3.9249    1.0000 </r>
       <r>   -3.6166    1.0000 </r>
       <r>   -3.0510    1.0000 </r>
       <r>   -1.1435    0.0000 </r>
       <r>   -1.0046    0.0000 </r>
       <r>    0.6646    0.0000 </r>
       <r>    0.7172    0.0000 </r>
       <r>    1.2501    0.0000 </r>
       <r>    1.5118    0.0000 </r>
      </set>
      <set comment="kpoint 14">
       <r>  -27.8121    1.0000 </r>
       <r>  -27.8089    1.0000 </r>
       <r>  -27.8079    1.0000 </r>
       <r>  -27.8050    1.0000 </r>
       <r>  -27.7987    1.0000 </r>
       <r>  -27.7883    1.0000 </r>
       <r>  -27.7875    1.0000 </r>
       <r>  -27.7850    1.0000 </r>
       <r>  -27.7674    1.0000 </r>
       <r>  -27.7648    1.0000 </r>
       <r>  -16.4902    1.0000 </r>
       <r>  -15.5163    1.0000 </r>
       <r>  -15.2606    1.0000 </r>
       <r>  -15.0616    1.0000 </r>
       <r>  -10.9772    1.0000 </r>
       <r>   -9.7247    1.0000 </r>
       <r>   -7.3095    1.0000 </r>
       <r>   -6.6355    1.0000 </r>
       <r>   -6.1675    1.0000 </r>
       <r>   -5.8735    1.0000 </r>
       <r>   -5.6181    1.0000 </r>
       <r>   -4.9383    1.0000 </r>
       <r>   -4.4273    1.0000 </r>
       <r>   -3.8224    1.0000 </r>
       <r>   -3.8026    1.0000 </r>
       <r>   -3.1880    1.0000 </r>
       <r>   -0.9715    0.0000 </r>
       <r>   -0.7177    0.0000 </r>
       <r>    0.9255    0.0000 </r>
       <r>    1.1976    0.0000 </r>
       <r>    1.3832    0.0000 </r>
       <r>    1.4432    0.0000 </r>
      </set>
      <set comment="kpoint 15">
       <r>  -27.8112    1.0000 </r>
       <r>  -27.8085    1.0000 </r>
       <r>  -27.8083    1.0000 </r>
       <r>  -27.8058    1.0000 </r>
       <r>  -27.7969    1.0000 </r>
       <r>  -27.7904    1.0000 </r>
       <r>  -27.7870    1.0000 </r>
       <r>  -27.7855    1.0000 </r>
       <r>  -27.7669    1.0000 </r>
       <r>  -27.7652    1.0000 </r>
       <r>  -16.3265    1.0000 </r>
       <r>  -15.7288    1.0000 </r>
       <r>  -15.2166    1.0000 </r>
       <r>  -15.0942    1.0000 </r>
       <r>  -10.7179    1.0000 </r>
       <r>   -9.9434    1.0000 </r>
       <r>   -7.2282    1.0000 </r>
       <r>   -6.8233    1.0000 </r>
       <r>   -6.1930    1.0000 </r>
       <r>   -6.0233    1.0000 </r>
       <r>   -5.5167    1.0000 </r>
       <r>   -5.0890    1.0000 </r>
       <r>   -4.3319    1.0000 </r>
       <r>   -3.9679    1.0000 </r>
       <r>   -3.7088    1.0000 </r>
       <r>   -3.3264    1.0000 </r>
       <r>   -0.7762    0.0000 </r>
       <r>   -0.5347    0.0000 </r>
       <r>    1.0989    0.0000 </r>
       <r>    1.3324    0.0000 </r>
       <r>    1.4426    0.0000 </r>
       <r>    1.5122    0.0000 </r>
      </set>
      <set comment="kpoint 16">
       <r>  -27.8102    1.0000 </r>
       <r>  -27.8093    1.0000 </r>
       <r>  -27.8075    1.0000 </r>
       <r>  -27.8067    1.0000 </r>
       <r>  -27.7948    1.0000 </r>
       <r>  -27.7926    1.0000 </r>
       <r>  -27.7865    1.0000 </r>
       <r>  -27.7859    1.0000 </r>
       <r>  -27.7663    1.0000 </r>
       <r>  -27.7658    1.0000 </r>
       <r>  -16.1414    1.0000 </r>
       <r>  -15.9401    1.0000 </r>
       <r>  -15.1726    1.0000 </r>
       <r>  -15.1313    1.0000 </r>
       <r>  -10.4518    1.0000 </r>
       <r>  -10.1897    1.0000 </r>
       <r>   -7.1202    1.0000 </r>
       <r>   -6.9849    1.0000 </r>
       <r>   -6.1806    1.0000 </r>
       <r>   -6.1257    1.0000 </r>
       <r>   -5.3900    1.0000 </r>
       <r>   -5.2443    1.0000 </r>
       <r>   -4.2303    1.0000 </r>
       <r>   -4.1104    1.0000 </r>
       <r>   -3.5876    1.0000 </r>
       <r>   -3.4601    1.0000 </r>
       <r>   -0.6007    0.0000 </r>
       <r>   -0.5014    0.0000 </r>
       <r>    1.2266    0.0000 </r>
       <r>    1.3126    0.0000 </r>
       <r>    1.4408    0.0000 </r>
       <r>    1.4460    0.0000 </r>
      </set>
      <set comment="kpoint 17">
       <r>  -27.8142    1.0000 </r>
       <r>  -27.8102    1.0000 </r>
       <r>  -27.8080    1.0000 </r>
       <r>  -27.8023    1.0000 </r>
       <r>  -27.8020    1.0000 </r>
       <r>  -27.7887    1.0000 </r>
       <r>  -27.7846    1.0000 </r>
       <r>  -27.7832    1.0000 </r>
       <r>  -27.7685    1.0000 </r>
       <r>  -27.7638    1.0000 </r>
       <r>  -16.8297    1.0000 </r>
       <r>  -15.3623    1.0000 </r>
       <r>  -15.1795    1.0000 </r>
       <r>  -14.8138    1.0000 </r>
       <r>  -11.5736    1.0000 </r>
       <r>   -9.2992    1.0000 </r>
       <r>   -7.4063    1.0000 </r>
       <r>   -5.9918    1.0000 </r>
       <r>   -5.6868    1.0000 </r>
       <r>   -5.5391    1.0000 </r>
       <r>   -5.4644    1.0000 </r>
       <r>   -5.0095    1.0000 </r>
       <r>   -4.6545    1.0000 </r>
       <r>   -4.0429    1.0000 </r>
       <r>   -3.0630    1.0000 </r>
       <r>   -2.9685    1.0000 </r>
       <r>   -1.4746    0.0000 </r>
       <r>   -1.2922    0.0000 </r>
       <r>   -0.4633    0.0000 </r>
       <r>    0.1924    0.0000 </r>
       <r>    0.7958    0.0000 </r>
       <r>    1.8708    0.0000 </r>
      </set>
      <set comment="kpoint 18">
       <r>  -27.8142    1.0000 </r>
       <r>  -27.8101    1.0000 </r>
       <r>  -27.8080    1.0000 </r>
       <r>  -27.8022    1.0000 </r>
       <r>  -27.8021    1.0000 </r>
       <r>  -27.7887    1.0000 </r>
       <r>  -27.7847    1.0000 </r>
       <r>  -27.7833    1.0000 </r>
       <r>  -27.7684    1.0000 </r>
       <r>  -27.7638    1.0000 </r>
       <r>  -16.8139    1.0000 </r>
       <r>  -15.3570    1.0000 </r>
       <r>  -15.1871    1.0000 </r>
       <r>  -14.8369    1.0000 </r>
       <r>  -11.5456    1.0000 </r>
       <r>   -9.3209    1.0000 </r>
       <r>   -7.3937    1.0000 </r>
       <r>   -6.0142    1.0000 </r>
       <r>   -5.8915    1.0000 </r>
       <r>   -5.5162    1.0000 </r>
       <r>   -5.3859    1.0000 </r>
       <r>   -4.9263    1.0000 </r>
       <r>   -4.6694    1.0000 </r>
       <r>   -4.0313    1.0000 </r>
       <r>   -3.2094    1.0000 </r>
       <r>   -2.8667    1.0000 </r>
       <r>   -1.5270    0.0000 </r>
       <r>   -1.2844    0.0000 </r>
       <r>   -0.3000    0.0000 </r>
       <r>    0.2333    0.0000 </r>
       <r>    0.8400    0.0000 </r>
       <r>    1.7516    0.0000 </r>
      </set>
      <set comment="kpoint 19">
       <r>  -27.8140    1.0000 </r>
       <r>  -27.8098    1.0000 </r>
       <r>  -27.8080    1.0000 </r>
       <r>  -27.8023    1.0000 </r>
       <r>  -27.8019    1.0000 </r>
       <r>  -27.7885    1.0000 </r>
       <r>  -27.7852    1.0000 </r>
       <r>  -27.7836    1.0000 </r>
       <r>  -27.7683    1.0000 </r>
       <r>  -27.7640    1.0000 </r>
       <r>  -16.7668    1.0000 </r>
       <r>  -15.3415    1.0000 </r>
       <r>  -15.2153    1.0000 </r>
       <r>  -14.8976    1.0000 </r>
       <r>  -11.4643    1.0000 </r>
       <r>   -9.3868    1.0000 </r>
       <r>   -7.3567    1.0000 </r>
       <r>   -6.1573    1.0000 </r>
       <r>   -6.0831    1.0000 </r>
       <r>   -5.5833    1.0000 </r>
       <r>   -5.2800    1.0000 </r>
       <r>   -4.7669    1.0000 </r>
       <r>   -4.7134    1.0000 </r>
       <r>   -3.9937    1.0000 </r>
       <r>   -3.4106    1.0000 </r>
       <r>   -2.7940    1.0000 </r>
       <r>   -1.5699    0.0000 </r>
       <r>   -1.2536    0.0000 </r>
       <r>    0.0754    0.0000 </r>
       <r>    0.3454    0.0000 </r>
       <r>    0.9659    0.0000 </r>
       <r>    1.5926    0.0000 </r>
      </set>
      <set comment="kpoint 20">
       <r>  -27.8137    1.0000 </r>
       <r>  -27.8093    1.0000 </r>
       <r>  -27.8081    1.0000 </r>
       <r>  -27.8027    1.0000 </r>
       <r>  -27.8013    1.0000 </r>
       <r>  -27.7881    1.0000 </r>
       <r>  -27.7862    1.0000 </r>
       <r>  -27.7839    1.0000 </r>
       <r>  -27.7680    1.0000 </r>
       <r>  -27.7642    1.0000 </r>
       <r>  -16.6893    1.0000 </r>
       <r>  -15.3170    1.0000 </r>
       <r>  -15.2803    1.0000 </r>
       <r>  -14.9707    1.0000 </r>
       <r>  -11.3370    1.0000 </r>
       <r>   -9.4980    1.0000 </r>
       <r>   -7.2974    1.0000 </r>
       <r>   -6.3969    1.0000 </r>
       <r>   -6.1805    1.0000 </r>
       <r>   -5.6037    1.0000 </r>
       <r>   -5.3013    1.0000 </r>
       <r>   -4.7909    1.0000 </r>
       <r>   -4.6166    1.0000 </r>
       <r>   -3.9243    1.0000 </r>
       <r>   -3.6045    1.0000 </r>
       <r>   -2.7956    1.0000 </r>
       <r>   -1.4909    0.0000 </r>
       <r>   -1.1854    0.0000 </r>
       <r>    0.5038    0.0000 </r>
       <r>    0.5252    0.0000 </r>
       <r>    1.1497    0.0000 </r>
       <r>    1.4547    0.0000 </r>
      </set>
      <set comment="kpoint 21">
       <r>  -27.8132    1.0000 </r>
       <r>  -27.8087    1.0000 </r>
       <r>  -27.8085    1.0000 </r>
       <r>  -27.8032    1.0000 </r>
       <r>  -27.8003    1.0000 </r>
       <r>  -27.7877    1.0000 </r>
       <r>  -27.7877    1.0000 </r>
       <r>  -27.7843    1.0000 </r>
       <r>  -27.7676    1.0000 </r>
       <r>  -27.7645    1.0000 </r>
       <r>  -16.5830    1.0000 </r>
       <r>  -15.3978    1.0000 </r>
       <r>  -15.2855    1.0000 </r>
       <r>  -15.0292    1.0000 </r>
       <r>  -11.1723    1.0000 </r>
       <r>   -9.6531    1.0000 </r>
       <r>   -7.2209    1.0000 </r>
       <r>   -6.5913    1.0000 </r>
       <r>   -6.2660    1.0000 </r>
       <r>   -5.5861    1.0000 </r>
       <r>   -5.4264    1.0000 </r>
       <r>   -4.9093    1.0000 </r>
       <r>   -4.5010    1.0000 </r>
       <r>   -3.8229    1.0000 </r>
       <r>   -3.7730    1.0000 </r>
       <r>   -2.8638    1.0000 </r>
       <r>   -1.2916    0.0000 </r>
       <r>   -1.0734    0.0000 </r>
       <r>    0.6807    0.0000 </r>
       <r>    0.9414    0.0000 </r>
       <r>    1.3459    0.0000 </r>
       <r>    1.4048    0.0000 </r>
      </set>
      <set comment="kpoint 22">
       <r>  -27.8127    1.0000 </r>
       <r>  -27.8090    1.0000 </r>
       <r>  -27.8079    1.0000 </r>
       <r>  -27.8038    1.0000 </r>
       <r>  -27.7990    1.0000 </r>
       <r>  -27.7894    1.0000 </r>
       <r>  -27.7872    1.0000 </r>
       <r>  -27.7846    1.0000 </r>
       <r>  -27.7672    1.0000 </r>
       <r>  -27.7648    1.0000 </r>
       <r>  -16.4506    1.0000 </r>
       <r>  -15.5594    1.0000 </r>
       <r>  -15.2493    1.0000 </r>
       <r>  -15.0700    1.0000 </r>
       <r>  -10.9787    1.0000 </r>
       <r>   -9.8456    1.0000 </r>
       <r>   -7.1368    1.0000 </r>
       <r>   -6.7374    1.0000 </r>
       <r>   -6.3055    1.0000 </r>
       <r>   -5.6105    1.0000 </r>
       <r>   -5.5462    1.0000 </r>
       <r>   -5.0545    1.0000 </r>
       <r>   -4.4127    1.0000 </r>
       <r>   -3.9152    1.0000 </r>
       <r>   -3.6982    1.0000 </r>
       <r>   -2.9773    1.0000 </r>
       <r>   -1.0393    0.0000 </r>
       <r>   -0.9303    0.0000 </r>
       <r>    0.8534    0.0000 </r>
       <r>    1.1198    0.0000 </r>
       <r>    1.4948    0.0000 </r>
       <r>    1.6238    0.0000 </r>
      </set>
      <set comment="kpoint 23">
       <r>  -27.8120    1.0000 </r>
       <r>  -27.8097    1.0000 </r>
       <r>  -27.8071    1.0000 </r>
       <r>  -27.8045    1.0000 </r>
       <r>  -27.7973    1.0000 </r>
       <r>  -27.7913    1.0000 </r>
       <r>  -27.7867    1.0000 </r>
       <r>  -27.7851    1.0000 </r>
       <r>  -27.7667    1.0000 </r>
       <r>  -27.7653    1.0000 </r>
       <r>  -16.2952    1.0000 </r>
       <r>  -15.7440    1.0000 </r>
       <r>  -15.2111    1.0000 </r>
       <r>  -15.1037    1.0000 </r>
       <r>  -10.7636    1.0000 </r>
       <r>  -10.0646    1.0000 </r>
       <r>   -7.0570    1.0000 </r>
       <r>   -6.8429    1.0000 </r>
       <r>   -6.2770    1.0000 </r>
       <r>   -5.8162    1.0000 </r>
       <r>   -5.4903    1.0000 </r>
       <r>   -5.1985    1.0000 </r>
       <r>   -4.3328    1.0000 </r>
       <r>   -4.0388    1.0000 </r>
       <r>   -3.5602    1.0000 </r>
       <r>   -3.1158    1.0000 </r>
       <r>   -0.8186    0.0000 </r>
       <r>   -0.7889    0.0000 </r>
       <r>    1.0085    0.0000 </r>
       <r>    1.1678    0.0000 </r>
       <r>    1.5543    0.0000 </r>
       <r>    1.6470    0.0000 </r>
      </set>
      <set comment="kpoint 24">
       <r>  -27.8113    1.0000 </r>
       <r>  -27.8105    1.0000 </r>
       <r>  -27.8062    1.0000 </r>
       <r>  -27.8054    1.0000 </r>
       <r>  -27.7954    1.0000 </r>
       <r>  -27.7933    1.0000 </r>
       <r>  -27.7861    1.0000 </r>
       <r>  -27.7856    1.0000 </r>
       <r>  -27.7662    1.0000 </r>
       <r>  -27.7657    1.0000 </r>
       <r>  -16.1214    1.0000 </r>
       <r>  -15.9350    1.0000 </r>
       <r>  -15.1732    1.0000 </r>
       <r>  -15.1373    1.0000 </r>
       <r>  -10.5341    1.0000 </r>
       <r>  -10.2980    1.0000 </r>
       <r>   -6.9876    1.0000 </r>
       <r>   -6.9211    1.0000 </r>
       <r>   -6.1752    1.0000 </r>
       <r>   -6.0135    1.0000 </r>
       <r>   -5.4173    1.0000 </r>
       <r>   -5.3213    1.0000 </r>
       <r>   -4.2470    1.0000 </r>
       <r>   -4.1492    1.0000 </r>
       <r>   -3.4145    1.0000 </r>
       <r>   -3.2646    1.0000 </r>
       <r>   -0.6970    0.0000 </r>
       <r>   -0.6955    0.0000 </r>
       <r>    1.1386    0.0000 </r>
       <r>    1.2020    0.0000 </r>
       <r>    1.5304    0.0000 </r>
       <r>    1.5340    0.0000 </r>
      </set>
      <set comment="kpoint 25">
       <r>  -27.8137    1.0000 </r>
       <r>  -27.8096    1.0000 </r>
       <r>  -27.8081    1.0000 </r>
       <r>  -27.8029    1.0000 </r>
       <r>  -27.8010    1.0000 </r>
       <r>  -27.7884    1.0000 </r>
       <r>  -27.7848    1.0000 </r>
       <r>  -27.7848    1.0000 </r>
       <r>  -27.7681    1.0000 </r>
       <r>  -27.7642    1.0000 </r>
       <r>  -16.7386    1.0000 </r>
       <r>  -15.3742    1.0000 </r>
       <r>  -15.3212    1.0000 </r>
       <r>  -14.8573    1.0000 </r>
       <r>  -11.3175    1.0000 </r>
       <r>   -9.4047    1.0000 </r>
       <r>   -7.3325    1.0000 </r>
       <r>   -6.0686    1.0000 </r>
       <r>   -5.8713    1.0000 </r>
       <r>   -5.8141    1.0000 </r>
       <r>   -5.4139    1.0000 </r>
       <r>   -4.8734    1.0000 </r>
       <r>   -4.6971    1.0000 </r>
       <r>   -3.9207    1.0000 </r>
       <r>   -3.2882    1.0000 </r>
       <r>   -3.0614    1.0000 </r>
       <r>   -1.1663    0.0000 </r>
       <r>   -1.1023    0.0000 </r>
       <r>    0.0609    0.0000 </r>
       <r>    0.2739    0.0000 </r>
       <r>    0.9209    0.0000 </r>
       <r>    1.6107    0.0000 </r>
      </set>
      <set comment="kpoint 26">
       <r>  -27.8137    1.0000 </r>
       <r>  -27.8095    1.0000 </r>
       <r>  -27.8082    1.0000 </r>
       <r>  -27.8028    1.0000 </r>
       <r>  -27.8010    1.0000 </r>
       <r>  -27.7883    1.0000 </r>
       <r>  -27.7855    1.0000 </r>
       <r>  -27.7843    1.0000 </r>
       <r>  -27.7681    1.0000 </r>
       <r>  -27.7642    1.0000 </r>
       <r>  -16.7237    1.0000 </r>
       <r>  -15.3799    1.0000 </r>
       <r>  -15.3169    1.0000 </r>
       <r>  -14.8733    1.0000 </r>
       <r>  -11.3035    1.0000 </r>
       <r>   -9.4324    1.0000 </r>
       <r>   -7.3088    1.0000 </r>
       <r>   -6.1250    1.0000 </r>
       <r>   -6.0981    1.0000 </r>
       <r>   -5.5638    1.0000 </r>
       <r>   -5.4540    1.0000 </r>
       <r>   -4.8031    1.0000 </r>
       <r>   -4.7208    1.0000 </r>
       <r>   -3.9078    1.0000 </r>
       <r>   -3.4159    1.0000 </r>
       <r>   -2.9529    1.0000 </r>
       <r>   -1.2147    0.0000 </r>
       <r>   -1.1565    0.0000 </r>
       <r>    0.2252    0.0000 </r>
       <r>    0.3053    0.0000 </r>
       <r>    0.9631    0.0000 </r>
       <r>    1.5165    0.0000 </r>
      </set>
      <set comment="kpoint 27">
       <r>  -27.8137    1.0000 </r>
       <r>  -27.8090    1.0000 </r>
       <r>  -27.8084    1.0000 </r>
       <r>  -27.8024    1.0000 </r>
       <r>  -27.8012    1.0000 </r>
       <r>  -27.7881    1.0000 </r>
       <r>  -27.7865    1.0000 </r>
       <r>  -27.7841    1.0000 </r>
       <r>  -27.7679    1.0000 </r>
       <r>  -27.7643    1.0000 </r>
       <r>  -16.6794    1.0000 </r>
       <r>  -15.3998    1.0000 </r>
       <r>  -15.3043    1.0000 </r>
       <r>  -14.9172    1.0000 </r>
       <r>  -11.2616    1.0000 </r>
       <r>   -9.5145    1.0000 </r>
       <r>   -7.2392    1.0000 </r>
       <r>   -6.3742    1.0000 </r>
       <r>   -6.1840    1.0000 </r>
       <r>   -5.5092    1.0000 </r>
       <r>   -5.3380    1.0000 </r>
       <r>   -4.7911    1.0000 </r>
       <r>   -4.6656    1.0000 </r>
       <r>   -3.8631    1.0000 </r>
       <r>   -3.6051    1.0000 </r>
       <r>   -2.8195    1.0000 </r>
       <r>   -1.4069    0.0000 </r>
       <r>   -1.1239    0.0000 </r>
       <r>    0.3906    0.0000 </r>
       <r>    0.5705    0.0000 </r>
       <r>    1.0856    0.0000 </r>
       <r>    1.3916    0.0000 </r>
      </set>
      <set comment="kpoint 28">
       <r>  -27.8136    1.0000 </r>
       <r>  -27.8089    1.0000 </r>
       <r>  -27.8084    1.0000 </r>
       <r>  -27.8019    1.0000 </r>
       <r>  -27.8012    1.0000 </r>
       <r>  -27.7877    1.0000 </r>
       <r>  -27.7877    1.0000 </r>
       <r>  -27.7841    1.0000 </r>
       <r>  -27.7676    1.0000 </r>
       <r>  -27.7645    1.0000 </r>
       <r>  -16.6070    1.0000 </r>
       <r>  -15.4421    1.0000 </r>
       <r>  -15.2847    1.0000 </r>
       <r>  -14.9768    1.0000 </r>
       <r>  -11.1915    1.0000 </r>
       <r>   -9.6467    1.0000 </r>
       <r>   -7.1292    1.0000 </r>
       <r>   -6.5734    1.0000 </r>
       <r>   -6.3036    1.0000 </r>
       <r>   -5.5277    1.0000 </r>
       <r>   -5.2134    1.0000 </r>
       <r>   -4.9044    1.0000 </r>
       <r>   -4.5443    1.0000 </r>
       <r>   -3.7757    1.0000 </r>
       <r>   -3.7723    1.0000 </r>
       <r>   -2.7411    1.0000 </r>
       <r>   -1.5202    0.0000 </r>
       <r>   -1.0630    0.0000 </r>
       <r>    0.5100    0.0000 </r>
       <r>    0.8939    0.0000 </r>
       <r>    1.2700    0.0000 </r>
       <r>    1.3539    0.0000 </r>
      </set>
      <set comment="kpoint 29">
       <r>  -27.8134    1.0000 </r>
       <r>  -27.8095    1.0000 </r>
       <r>  -27.8076    1.0000 </r>
       <r>  -27.8022    1.0000 </r>
       <r>  -27.8004    1.0000 </r>
       <r>  -27.7892    1.0000 </r>
       <r>  -27.7872    1.0000 </r>
       <r>  -27.7841    1.0000 </r>
       <r>  -27.7673    1.0000 </r>
       <r>  -27.7647    1.0000 </r>
       <r>  -16.5083    1.0000 </r>
       <r>  -15.5174    1.0000 </r>
       <r>  -15.2598    1.0000 </r>
       <r>  -15.0355    1.0000 </r>
       <r>  -11.0934    1.0000 </r>
       <r>   -9.8196    1.0000 </r>
       <r>   -6.9934    1.0000 </r>
       <r>   -6.7163    1.0000 </r>
       <r>   -6.4131    1.0000 </r>
       <r>   -5.5152    1.0000 </r>
       <r>   -5.2167    1.0000 </r>
       <r>   -5.0507    1.0000 </r>
       <r>   -4.4632    1.0000 </r>
       <r>   -3.9059    1.0000 </r>
       <r>   -3.6471    1.0000 </r>
       <r>   -2.7304    1.0000 </r>
       <r>   -1.4974    0.0000 </r>
       <r>   -0.9784    0.0000 </r>
       <r>    0.6469    0.0000 </r>
       <r>    0.9977    0.0000 </r>
       <r>    1.4727    0.0000 </r>
       <r>    1.5550    0.0000 </r>
      </set>
      <set comment="kpoint 30">
       <r>  -27.8131    1.0000 </r>
       <r>  -27.8101    1.0000 </r>
       <r>  -27.8067    1.0000 </r>
       <r>  -27.8027    1.0000 </r>
       <r>  -27.7992    1.0000 </r>
       <r>  -27.7908    1.0000 </r>
       <r>  -27.7867    1.0000 </r>
       <r>  -27.7844    1.0000 </r>
       <r>  -27.7669    1.0000 </r>
       <r>  -27.7650    1.0000 </r>
       <r>  -16.3864    1.0000 </r>
       <r>  -15.6300    1.0000 </r>
       <r>  -15.2318    1.0000 </r>
       <r>  -15.0822    1.0000 </r>
       <r>  -10.9674    1.0000 </r>
       <r>  -10.0196    1.0000 </r>
       <r>   -6.8748    1.0000 </r>
       <r>   -6.8070    1.0000 </r>
       <r>   -6.4495    1.0000 </r>
       <r>   -5.4874    1.0000 </r>
       <r>   -5.3534    1.0000 </r>
       <r>   -5.1876    1.0000 </r>
       <r>   -4.4069    1.0000 </r>
       <r>   -4.0161    1.0000 </r>
       <r>   -3.4942    1.0000 </r>
       <r>   -2.7835    1.0000 </r>
       <r>   -1.3545    0.0000 </r>
       <r>   -0.8923    0.0000 </r>
       <r>    0.7925    0.0000 </r>
       <r>    1.0045    0.0000 </r>
       <r>    1.6276    0.0000 </r>
       <r>    1.8359    0.0000 </r>
      </set>
      <set comment="kpoint 31">
       <r>  -27.8127    1.0000 </r>
       <r>  -27.8108    1.0000 </r>
       <r>  -27.8058    1.0000 </r>
       <r>  -27.8033    1.0000 </r>
       <r>  -27.7977    1.0000 </r>
       <r>  -27.7925    1.0000 </r>
       <r>  -27.7862    1.0000 </r>
       <r>  -27.7847    1.0000 </r>
       <r>  -27.7665    1.0000 </r>
       <r>  -27.7653    1.0000 </r>
       <r>  -16.2453    1.0000 </r>
       <r>  -15.7719    1.0000 </r>
       <r>  -15.2028    1.0000 </r>
       <r>  -15.1172    1.0000 </r>
       <r>  -10.8148    1.0000 </r>
       <r>  -10.2312    1.0000 </r>
       <r>   -6.8546    1.0000 </r>
       <r>   -6.8407    1.0000 </r>
       <r>   -6.3392    1.0000 </r>
       <r>   -5.5895    1.0000 </r>
       <r>   -5.4531    1.0000 </r>
       <r>   -5.2856    1.0000 </r>
       <r>   -4.3527    1.0000 </r>
       <r>   -4.1152    1.0000 </r>
       <r>   -3.3330    1.0000 </r>
       <r>   -2.8859    1.0000 </r>
       <r>   -1.1556    0.0000 </r>
       <r>   -0.8417    0.0000 </r>
       <r>    0.9399    0.0000 </r>
       <r>    1.0405    0.0000 </r>
       <r>    1.6732    0.0000 </r>
       <r>    1.7411    0.0000 </r>
      </set>
      <set comment="kpoint 32">
       <r>  -27.8122    1.0000 </r>
       <r>  -27.8115    1.0000 </r>
       <r>  -27.8049    1.0000 </r>
       <r>  -27.8041    1.0000 </r>
       <r>  -27.7961    1.0000 </r>
       <r>  -27.7943    1.0000 </r>
       <r>  -27.7856    1.0000 </r>
       <r>  -27.7851    1.0000 </r>
       <r>  -27.7661    1.0000 </r>
       <r>  -27.7657    1.0000 </r>
       <r>  -16.0906    1.0000 </r>
       <r>  -15.9295    1.0000 </r>
       <r>  -15.1742    1.0000 </r>
       <r>  -15.1464    1.0000 </r>
       <r>  -10.6378    1.0000 </r>
       <r>  -10.4408    1.0000 </r>
       <r>   -6.8682    1.0000 </r>
       <r>   -6.8572    1.0000 </r>
       <r>   -6.1196    1.0000 </r>
       <r>   -5.8576    1.0000 </r>
       <r>   -5.4125    1.0000 </r>
       <r>   -5.3590    1.0000 </r>
       <r>   -4.2868    1.0000 </r>
       <r>   -4.2065    1.0000 </r>
       <r>   -3.1727    1.0000 </r>
       <r>   -3.0203    1.0000 </r>
       <r>   -0.9741    0.0000 </r>
       <r>   -0.8634    0.0000 </r>
       <r>    1.0637    0.0000 </r>
       <r>    1.0933    0.0000 </r>
       <r>    1.6202    0.0000 </r>
       <r>    1.6204    0.0000 </r>
      </set>
      <set comment="kpoint 33">
       <r>  -27.8129    1.0000 </r>
       <r>  -27.8088    1.0000 </r>
       <r>  -27.8085    1.0000 </r>
       <r>  -27.8037    1.0000 </r>
       <r>  -27.7993    1.0000 </r>
       <r>  -27.7879    1.0000 </r>
       <r>  -27.7868    1.0000 </r>
       <r>  -27.7852    1.0000 </r>
       <r>  -27.7677    1.0000 </r>
       <r>  -27.7647    1.0000 </r>
       <r>  -16.6131    1.0000 </r>
       <r>  -15.5992    1.0000 </r>
       <r>  -15.2666    1.0000 </r>
       <r>  -14.9144    1.0000 </r>
       <r>  -11.0115    1.0000 </r>
       <r>   -9.5642    1.0000 </r>
       <r>   -7.2234    1.0000 </r>
       <r>   -6.1452    1.0000 </r>
       <r>   -6.1095    1.0000 </r>
       <r>   -6.0409    1.0000 </r>
       <r>   -5.3391    1.0000 </r>
       <r>   -4.7750    1.0000 </r>
       <r>   -4.7055    1.0000 </r>
       <r>   -3.7783    1.0000 </r>
       <r>   -3.5402    1.0000 </r>
       <r>   -3.1609    1.0000 </r>
       <r>   -0.9872    0.0000 </r>
       <r>   -0.7355    0.0000 </r>
       <r>    0.3820    0.0000 </r>
       <r>    0.7029    0.0000 </r>
       <r>    1.0460    0.0000 </r>
       <r>    1.3467    0.0000 </r>
      </set>
      <set comment="kpoint 34">
       <r>  -27.8130    1.0000 </r>
       <r>  -27.8087    1.0000 </r>
       <r>  -27.8086    1.0000 </r>
       <r>  -27.8035    1.0000 </r>
       <r>  -27.7994    1.0000 </r>
       <r>  -27.7878    1.0000 </r>
       <r>  -27.7873    1.0000 </r>
       <r>  -27.7850    1.0000 </r>
       <r>  -27.7676    1.0000 </r>
       <r>  -27.7647    1.0000 </r>
       <r>  -16.5996    1.0000 </r>
       <r>  -15.6010    1.0000 </r>
       <r>  -15.2637    1.0000 </r>
       <r>  -14.9253    1.0000 </r>
       <r>  -11.0127    1.0000 </r>
       <r>   -9.5978    1.0000 </r>
       <r>   -7.1893    1.0000 </r>
       <r>   -6.3332    1.0000 </r>
       <r>   -6.1710    1.0000 </r>
       <r>   -5.7883    1.0000 </r>
       <r>   -5.3796    1.0000 </r>
       <r>   -4.8087    1.0000 </r>
       <r>   -4.6489    1.0000 </r>
       <r>   -3.7594    1.0000 </r>
       <r>   -3.6329    1.0000 </r>
       <r>   -3.0616    1.0000 </r>
       <r>   -0.9793    0.0000 </r>
       <r>   -0.8639    0.0000 </r>
       <r>    0.4014    0.0000 </r>
       <r>    0.8240    0.0000 </r>
       <r>    1.0873    0.0000 </r>
       <r>    1.2960    0.0000 </r>
      </set>
      <set comment="kpoint 35">
       <r>  -27.8132    1.0000 </r>
       <r>  -27.8091    1.0000 </r>
       <r>  -27.8081    1.0000 </r>
       <r>  -27.8031    1.0000 </r>
       <r>  -27.7995    1.0000 </r>
       <r>  -27.7882    1.0000 </r>
       <r>  -27.7876    1.0000 </r>
       <r>  -27.7846    1.0000 </r>
       <r>  -27.7675    1.0000 </r>
       <r>  -27.7647    1.0000 </r>
       <r>  -16.5595    1.0000 </r>
       <r>  -15.6081    1.0000 </r>
       <r>  -15.2553    1.0000 </r>
       <r>  -14.9564    1.0000 </r>
       <r>  -11.0134    1.0000 </r>
       <r>   -9.6942    1.0000 </r>
       <r>   -7.0900    1.0000 </r>
       <r>   -6.5387    1.0000 </r>
       <r>   -6.2488    1.0000 </r>
       <r>   -5.5093    1.0000 </r>
       <r>   -5.4453    1.0000 </r>
       <r>   -4.9047    1.0000 </r>
       <r>   -4.5418    1.0000 </r>
       <r>   -3.7832    1.0000 </r>
       <r>   -3.6956    1.0000 </r>
       <r>   -2.8973    1.0000 </r>
       <r>   -1.1293    0.0000 </r>
       <r>   -0.9564    0.0000 </r>
       <r>    0.4553    0.0000 </r>
       <r>    1.0008    0.0000 </r>
       <r>    1.2070    0.0000 </r>
       <r>    1.3080    0.0000 </r>
[...]
       <r>    1.2234    0.0000 </r>
       <r>    1.3619    0.0000 </r>
      </set>
      <set comment="kpoint 54">
       <r>  -27.8132    1.0000 </r>
       <r>  -27.8127    1.0000 </r>
       <r>  -27.8033    1.0000 </r>
       <r>  -27.8025    1.0000 </r>
       <r>  -27.7971    1.0000 </r>
       <r>  -27.7956    1.0000 </r>
       <r>  -27.7851    1.0000 </r>
       <r>  -27.7847    1.0000 </r>
       <r>  -27.7659    1.0000 </r>
       <r>  -27.7656    1.0000 </r>
       <r>  -16.0797    1.0000 </r>
       <r>  -15.9570    1.0000 </r>
       <r>  -15.1603    1.0000 </r>
       <r>  -15.1367    1.0000 </r>
       <r>  -10.7470    1.0000 </r>
       <r>  -10.5977    1.0000 </r>
       <r>   -6.8169    1.0000 </r>
       <r>   -6.7707    1.0000 </r>
       <r>   -5.8639    1.0000 </r>
       <r>   -5.6484    1.0000 </r>
       <r>   -5.3351    1.0000 </r>
       <r>   -5.2031    1.0000 </r>
       <r>   -4.3288    1.0000 </r>
       <r>   -4.2644    1.0000 </r>
       <r>   -2.8022    1.0000 </r>
       <r>   -2.6803    1.0000 </r>
       <r>   -1.4053    0.0000 </r>
       <r>   -1.1968    0.0000 </r>
       <r>    1.0426    0.0000 </r>
       <r>    1.1117    0.0000 </r>
       <r>    1.2969    0.0000 </r>
       <r>    1.3675    0.0000 </r>
      </set>
      <set comment="kpoint 55">
       <r>  -27.8134    1.0000 </r>
       <r>  -27.8131    1.0000 </r>
       <r>  -27.8025    1.0000 </r>
       <r>  -27.8019    1.0000 </r>
       <r>  -27.7976    1.0000 </r>
       <r>  -27.7965    1.0000 </r>
       <r>  -27.7848    1.0000 </r>
       <r>  -27.7845    1.0000 </r>
       <r>  -27.7658    1.0000 </r>
       <r>  -27.7656    1.0000 </r>
       <r>  -16.0233    1.0000 </r>
       <r>  -15.9441    1.0000 </r>
       <r>  -15.1705    1.0000 </r>
       <r>  -15.1588    1.0000 </r>
       <r>  -10.8022    1.0000 </r>
       <r>  -10.7103    1.0000 </r>
       <r>   -6.8354    1.0000 </r>
       <r>   -6.8043    1.0000 </r>
       <r>   -5.8051    1.0000 </r>
       <r>   -5.6953    1.0000 </r>
       <r>   -5.2075    1.0000 </r>
       <r>   -5.0807    1.0000 </r>
       <r>   -4.3573    1.0000 </r>
       <r>   -4.3131    1.0000 </r>
       <r>   -2.6824    1.0000 </r>
       <r>   -2.6131    1.0000 </r>
       <r>   -1.5461    0.0000 </r>
       <r>   -1.3896    0.0000 </r>
       <r>    1.1374    0.0000 </r>
       <r>    1.1468    0.0000 </r>
       <r>    1.3463    0.0000 </r>
       <r>    1.3570    0.0000 </r>
      </set>
      <set comment="kpoint 56">
       <r>  -27.8135    1.0000 </r>
       <r>  -27.8134    1.0000 </r>
       <r>  -27.8019    1.0000 </r>
       <r>  -27.8017    1.0000 </r>
       <r>  -27.7976    1.0000 </r>
       <r>  -27.7973    1.0000 </r>
       <r>  -27.7846    1.0000 </r>
       <r>  -27.7845    1.0000 </r>
       <r>  -27.7657    1.0000 </r>
       <r>  -27.7656    1.0000 </r>
       <r>  -15.9776    1.0000 </r>
       <r>  -15.9501    1.0000 </r>
       <r>  -15.1760    1.0000 </r>
       <r>  -15.1727    1.0000 </r>
       <r>  -10.8163    1.0000 </r>
       <r>  -10.7852    1.0000 </r>
       <r>   -6.8423    1.0000 </r>
       <r>   -6.8317    1.0000 </r>
       <r>   -5.7648    1.0000 </r>
       <r>   -5.7317    1.0000 </r>
       <r>   -5.0916    1.0000 </r>
       <r>   -5.0407    1.0000 </r>
       <r>   -4.3644    1.0000 </r>
       <r>   -4.3479    1.0000 </r>
       <r>   -2.6150    1.0000 </r>
       <r>   -2.5943    1.0000 </r>
       <r>   -1.5861    0.0000 </r>
       <r>   -1.5289    0.0000 </r>
       <r>    1.1737    0.0000 </r>
       <r>    1.1916    0.0000 </r>
       <r>    1.3534    0.0000 </r>
       <r>    1.3599    0.0000 </r>
      </set>
     </set>
    </set>
   </array>
  </eigenvalues>
  <separator name="orbital magnetization" >
   <v name="MAGDIPOLOUT">      0.00000000      0.00000000      0.00000000</v>
  </separator>
  <dos>
   <i name="efermi">     -2.49936059 </i>
   <total>
    <array>
     <dimension dim="1">gridpoints</dimension>
     <dimension dim="2">spin</dimension>
     <field>energy</field>
     <field>total</field>
     <field>integrated</field>
     <set>
      <set comment="spin 1">
       <r>   -29.3052     0.0000     0.0000 </r>
       <r>   -29.1959     0.0000     0.0000 </r>
       <r>   -29.0866     0.0000     0.0000 </r>
       <r>   -28.9773     0.0000     0.0000 </r>
       <r>   -28.8680     0.0000     0.0000 </r>
       <r>   -28.7587     0.0000     0.0000 </r>
       <r>   -28.6494     0.0000     0.0000 </r>
       <r>   -28.5401     0.0000     0.0000 </r>
       <r>   -28.4308     0.0000     0.0000 </r>
       <r>   -28.3215     0.0000     0.0000 </r>
       <r>   -28.2122     0.0000     0.0000 </r>
       <r>   -28.1029     0.0000     0.0000 </r>
       <r>   -27.9936     0.0000     0.0000 </r>
       <r>   -27.8843     0.0000     0.0000 </r>
       <r>   -27.7750   143.3277    15.6657 </r>
       <r>   -27.6657    39.6549    20.0000 </r>
       <r>   -27.5564     0.0000    20.0000 </r>
       <r>   -27.4471     0.0000    20.0000 </r>
       <r>   -27.3378     0.0000    20.0000 </r>
       <r>   -27.2285     0.0000    20.0000 </r>
       <r>   -27.1192     0.0000    20.0000 </r>
       <r>   -27.0099     0.0000    20.0000 </r>
       <r>   -26.9006     0.0000    20.0000 </r>
       <r>   -26.7913     0.0000    20.0000 </r>
       <r>   -26.6820     0.0000    20.0000 </r>
       <r>   -26.5727     0.0000    20.0000 </r>
       <r>   -26.4634     0.0000    20.0000 </r>
       <r>   -26.3541     0.0000    20.0000 </r>
       <r>   -26.2448     0.0000    20.0000 </r>
       <r>   -26.1355     0.0000    20.0000 </r>
       <r>   -26.0262     0.0000    20.0000 </r>
       <r>   -25.9169     0.0000    20.0000 </r>
       <r>   -25.8076     0.0000    20.0000 </r>
       <r>   -25.6983     0.0000    20.0000 </r>
       <r>   -25.5890     0.0000    20.0000 </r>
       <r>   -25.4797     0.0000    20.0000 </r>
       <r>   -25.3704     0.0000    20.0000 </r>
       <r>   -25.2611     0.0000    20.0000 </r>
       <r>   -25.1518     0.0000    20.0000 </r>
       <r>   -25.0425     0.0000    20.0000 </r>
       <r>   -24.9332     0.0000    20.0000 </r>
       <r>   -24.8239     0.0000    20.0000 </r>
       <r>   -24.7146     0.0000    20.0000 </r>
       <r>   -24.6053     0.0000    20.0000 </r>
       <r>   -24.4960     0.0000    20.0000 </r>
       <r>   -24.3867     0.0000    20.0000 </r>
       <r>   -24.2774     0.0000    20.0000 </r>
       <r>   -24.1681     0.0000    20.0000 </r>
       <r>   -24.0588     0.0000    20.0000 </r>
       <r>   -23.9495     0.0000    20.0000 </r>
       <r>   -23.8402     0.0000    20.0000 </r>
       <r>   -23.7309     0.0000    20.0000 </r>
       <r>   -23.6216     0.0000    20.0000 </r>
       <r>   -23.5123     0.0000    20.0000 </r>
       <r>   -23.4030     0.0000    20.0000 </r>
       <r>   -23.2937     0.0000    20.0000 </r>
       <r>   -23.1844     0.0000    20.0000 </r>
       <r>   -23.0751     0.0000    20.0000 </r>
       <r>   -22.9658     0.0000    20.0000 </r>
       <r>   -22.8565     0.0000    20.0000 </r>
       <r>   -22.7472     0.0000    20.0000 </r>
       <r>   -22.6379     0.0000    20.0000 </r>
       <r>   -22.5286     0.0000    20.0000 </r>
       <r>   -22.4193     0.0000    20.0000 </r>
       <r>   -22.3100     0.0000    20.0000 </r>
       <r>   -22.2007     0.0000    20.0000 </r>
       <r>   -22.0914     0.0000    20.0000 </r>
       <r>   -21.9821     0.0000    20.0000 </r>
       <r>   -21.8728     0.0000    20.0000 </r>
       <r>   -21.7635     0.0000    20.0000 </r>
       <r>   -21.6542     0.0000    20.0000 </r>
       <r>   -21.5449     0.0000    20.0000 </r>
       <r>   -21.4356     0.0000    20.0000 </r>
       <r>   -21.3263     0.0000    20.0000 </r>
       <r>   -21.2170     0.0000    20.0000 </r>
       <r>   -21.1077     0.0000    20.0000 </r>
       <r>   -20.9984     0.0000    20.0000 </r>
       <r>   -20.8891     0.0000    20.0000 </r>
       <r>   -20.7798     0.0000    20.0000 </r>
       <r>   -20.6705     0.0000    20.0000 </r>
       <r>   -20.5612     0.0000    20.0000 </r>
       <r>   -20.4519     0.0000    20.0000 </r>
       <r>   -20.3426     0.0000    20.0000 </r>
       <r>   -20.2333     0.0000    20.0000 </r>
       <r>   -20.1240     0.0000    20.0000 </r>
       <r>   -20.0147     0.0000    20.0000 </r>
       <r>   -19.9054     0.0000    20.0000 </r>
       <r>   -19.7961     0.0000    20.0000 </r>
       <r>   -19.6868     0.0000    20.0000 </r>
       <r>   -19.5775     0.0000    20.0000 </r>
       <r>   -19.4682     0.0000    20.0000 </r>
       <r>   -19.3589     0.0000    20.0000 </r>
       <r>   -19.2496     0.0000    20.0000 </r>
       <r>   -19.1403     0.0000    20.0000 </r>
       <r>   -19.0310     0.0000    20.0000 </r>
       <r>   -18.9217     0.0000    20.0000 </r>
       <r>   -18.8124     0.0000    20.0000 </r>
       <r>   -18.7031     0.0000    20.0000 </r>
       <r>   -18.5938     0.0000    20.0000 </r>
       <r>   -18.4845     0.0000    20.0000 </r>
       <r>   -18.3752     0.0000    20.0000 </r>
       <r>   -18.2659     0.0000    20.0000 </r>
       <r>   -18.1566     0.0000    20.0000 </r>
       <r>   -18.0473     0.0000    20.0000 </r>
       <r>   -17.9380     0.0000    20.0000 </r>
       <r>   -17.8287     0.0000    20.0000 </r>
       <r>   -17.7194     0.0000    20.0000 </r>
       <r>   -17.6101     0.0000    20.0000 </r>
       <r>   -17.5008     0.0000    20.0000 </r>
       <r>   -17.3915     0.0000    20.0000 </r>
       <r>   -17.2822     0.0000    20.0000 </r>
       <r>   -17.1729     0.0000    20.0000 </r>
       <r>   -17.0636     0.0000    20.0000 </r>
       <r>   -16.9543     0.0000    20.0000 </r>
       <r>   -16.8450     0.9280    20.1014 </r>
       <r>   -16.7357     1.9965    20.3196 </r>
       <r>   -16.6264     1.7549    20.5115 </r>
       <r>   -16.5171     1.9582    20.7255 </r>
       <r>   -16.4078     2.4958    20.9983 </r>
       <r>   -16.2985     2.0584    21.2233 </r>
       <r>   -16.1892     2.6085    21.5084 </r>
       <r>   -16.0799     2.7417    21.8080 </r>
       <r>   -15.9706     3.3650    22.1758 </r>
       <r>   -15.8613     3.5947    22.5687 </r>
       <r>   -15.7520     2.9762    22.8940 </r>
       <r>   -15.6427     1.6629    23.0758 </r>
       <r>   -15.5334     2.0622    23.3012 </r>
       <r>   -15.4241     1.2284    23.4355 </r>
       <r>   -15.3148     5.1646    24.0000 </r>
       <r>   -15.2055     7.9700    24.8711 </r>
       <r>   -15.0962    14.6771    26.4753 </r>
       <r>   -14.9869     8.4682    27.4009 </r>
       <r>   -14.8776     3.6257    27.7972 </r>
       <r>   -14.7683     1.8131    27.9953 </r>
       <r>   -14.6590     0.0427    28.0000 </r>
       <r>   -14.5497     0.0000    28.0000 </r>
       <r>   -14.4404     0.0000    28.0000 </r>
       <r>   -14.3311     0.0000    28.0000 </r>
       <r>   -14.2218     0.0000    28.0000 </r>
       <r>   -14.1125     0.0000    28.0000 </r>
       <r>   -14.0032     0.0000    28.0000 </r>
       <r>   -13.8939     0.0000    28.0000 </r>
       <r>   -13.7846     0.0000    28.0000 </r>
       <r>   -13.6753     0.0000    28.0000 </r>
       <r>   -13.5660     0.0000    28.0000 </r>
       <r>   -13.4567     0.0000    28.0000 </r>
       <r>   -13.3474     0.0000    28.0000 </r>
       <r>   -13.2381     0.0000    28.0000 </r>
       <r>   -13.1288     0.0000    28.0000 </r>
       <r>   -13.0195     0.0000    28.0000 </r>
       <r>   -12.9102     0.0000    28.0000 </r>
       <r>   -12.8009     0.0000    28.0000 </r>
       <r>   -12.6916     0.0000    28.0000 </r>
       <r>   -12.5823     0.0000    28.0000 </r>
       <r>   -12.4730     0.0000    28.0000 </r>
       <r>   -12.3637     0.0000    28.0000 </r>
       <r>   -12.2544     0.0000    28.0000 </r>
       <r>   -12.1451     0.0000    28.0000 </r>
       <r>   -12.0358     0.0000    28.0000 </r>
       <r>   -11.9265     0.0000    28.0000 </r>
       <r>   -11.8172     0.0299    28.0033 </r>
       <r>   -11.7079     0.6436    28.0736 </r>
       <r>   -11.5986     0.5621    28.1351 </r>
       <r>   -11.4893     0.7557    28.2177 </r>
       <r>   -11.3800     0.9180    28.3180 </r>
       <r>   -11.2707     1.0324    28.4308 </r>
       <r>   -11.1614     1.5057    28.5954 </r>
       <r>   -11.0521     0.4664    28.6464 </r>
       <r>   -10.9428     3.0492    28.9797 </r>
       <r>   -10.8335     1.6192    29.1566 </r>
       <r>   -10.7242     4.0276    29.5969 </r>
       <r>   -10.6149     2.5921    29.8802 </r>
       <r>   -10.5056     1.8389    30.0812 </r>
       <r>   -10.3963     2.4167    30.3453 </r>
       <r>   -10.2870     1.2478    30.4817 </r>
       <r>   -10.1777     1.7178    30.6695 </r>
       <r>   -10.0684     1.1199    30.7919 </r>
       <r>    -9.9591     1.4392    30.9492 </r>
       <r>    -9.8498     1.1488    31.0748 </r>
       <r>    -9.7405     1.4770    31.2362 </r>
       <r>    -9.6312     1.5689    31.4077 </r>
       <r>    -9.5219     1.1392    31.5322 </r>
       <r>    -9.4126     1.3403    31.6787 </r>
       <r>    -9.3033     1.6730    31.8615 </r>
       <r>    -9.1940     1.2641    31.9997 </r>
       <r>    -9.0847     0.0026    32.0000 </r>
       <r>    -8.9754     0.0000    32.0000 </r>
       <r>    -8.8661     0.0000    32.0000 </r>
       <r>    -8.7568     0.0000    32.0000 </r>
       <r>    -8.6475     0.0000    32.0000 </r>
       <r>    -8.5382     0.0000    32.0000 </r>
       <r>    -8.4289     0.0000    32.0000 </r>
       <r>    -8.3196     0.0000    32.0000 </r>
       <r>    -8.2103     0.0000    32.0000 </r>
       <r>    -8.1010     0.0000    32.0000 </r>
       <r>    -7.9917     0.0000    32.0000 </r>
       <r>    -7.8824     0.0000    32.0000 </r>
       <r>    -7.7731     0.0000    32.0000 </r>
       <r>    -7.6638     0.0000    32.0000 </r>
       <r>    -7.5545     0.0000    32.0000 </r>
       <r>    -7.4452     0.8256    32.0902 </r>
       <r>    -7.3359     2.9007    32.4073 </r>
       <r>    -7.2266     2.1526    32.6426 </r>
       <r>    -7.1173     2.0321    32.8647 </r>
       <r>    -7.0080     1.7911    33.0604 </r>
       <r>    -6.8987     2.2559    33.3070 </r>
       <r>    -6.7894     9.7684    34.3747 </r>
       <r>    -6.6801     5.9910    35.0295 </r>
       <r>    -6.5708     2.3099    35.2820 </r>
       <r>    -6.4615     1.8546    35.4847 </r>
       <r>    -6.3522     2.4005    35.7471 </r>
       <r>    -6.2429     4.0017    36.1845 </r>
       <r>    -6.1336     7.2334    36.9751 </r>
       <r>    -6.0243     4.1145    37.4248 </r>
       <r>    -5.9150     4.5577    37.9230 </r>
       <r>    -5.8057     3.8854    38.3476 </r>
       <r>    -5.6964     4.3096    38.8187 </r>
       <r>    -5.5871     4.8992    39.3542 </r>
       <r>    -5.4778     7.4270    40.1659 </r>
       <r>    -5.3685     8.3340    41.0768 </r>
       <r>    -5.2592     7.5520    41.9023 </r>
       <r>    -5.1499     5.8759    42.5445 </r>
       <r>    -5.0406     5.0156    43.0927 </r>
       <r>    -4.9313     2.2849    43.3425 </r>
       <r>    -4.8220     2.9342    43.6632 </r>
       <r>    -4.7127     3.3348    44.0277 </r>
       <r>    -4.6034     4.4656    44.5158 </r>
       <r>    -4.4941     1.8317    44.7160 </r>
       <r>    -4.3848     4.0072    45.1540 </r>
       <r>    -4.2755     7.1997    45.9409 </r>
       <r>    -4.1662     4.3912    46.4209 </r>
       <r>    -4.0569     4.5868    46.9222 </r>
       <r>    -3.9476     3.8483    47.3428 </r>
       <r>    -3.8383     3.7780    47.7558 </r>
       <r>    -3.7290     3.6882    48.1589 </r>
       <r>    -3.6197     2.5024    48.4324 </r>
       <r>    -3.5104     3.1546    48.7772 </r>
       <r>    -3.4011     3.2719    49.1348 </r>
       <r>    -3.2918     2.6202    49.4212 </r>
       <r>    -3.1825     2.7506    49.7219 </r>
       <r>    -3.0732     2.7943    50.0273 </r>
       <r>    -2.9639     3.8352    50.4465 </r>
       <r>    -2.8546     3.9632    50.8797 </r>
       <r>    -2.7453     4.8040    51.4047 </r>
       <r>    -2.6360     3.8008    51.8202 </r>
       <r>    -2.5267     1.6453    52.0000 </r>
       <r>    -2.4174     0.0000    52.0000 </r>
       <r>    -2.3081     0.0000    52.0000 </r>
       <r>    -2.1988     0.0000    52.0000 </r>
       <r>    -2.0895     0.0000    52.0000 </r>
       <r>    -1.9802     0.0000    52.0000 </r>
       <r>    -1.8709     0.0718    52.0078 </r>
       <r>    -1.7616     0.3104    52.0418 </r>
       <r>    -1.6523     0.4624    52.0923 </r>
       <r>    -1.5430     2.2407    52.3372 </r>
       <r>    -1.4337     3.6282    52.7338 </r>
       <r>    -1.3244     4.1502    53.1874 </r>
       <r>    -1.2151     2.8885    53.5031 </r>
       <r>    -1.1058     4.5651    54.0021 </r>
       <r>    -0.9965     2.4690    54.2720 </r>
       <r>    -0.8872     5.1626    54.8362 </r>
       <r>    -0.7779     4.5277    55.3311 </r>
       <r>    -0.6686     2.8627    55.6440 </r>
       <r>    -0.5593     1.9640    55.8587 </r>
       <r>    -0.4500     1.9268    56.0693 </r>
       <r>    -0.3407     0.8048    56.1572 </r>
       <r>    -0.2314     0.5320    56.2154 </r>
       <r>    -0.1221     0.0000    56.2154 </r>
       <r>    -0.0128     0.1877    56.2359 </r>
       <r>     0.0965     0.5449    56.2955 </r>
       <r>     0.2058     1.3965    56.4481 </r>
       <r>     0.3151     1.5672    56.6194 </r>
       <r>     0.4244     1.6350    56.7981 </r>
       <r>     0.5337     2.7436    57.0980 </r>
       <r>     0.6430     1.8714    57.3025 </r>
       <r>     0.7523     3.9070    57.7296 </r>
       <r>     0.8616     2.9110    58.0477 </r>
       <r>     0.9709     5.6255    58.6626 </r>
       <r>     1.0802     8.5055    59.5923 </r>
       <r>     1.1895     7.9020    60.4560 </r>
       <r>     1.2988     5.4309    61.0496 </r>
       <r>     1.4081     7.5240    61.8719 </r>
       <r>     1.5174     5.1887    62.4391 </r>
       <r>     1.6267     6.1541    63.1117 </r>
       <r>     1.7360     4.3500    63.5872 </r>
       <r>     1.8453     2.4289    63.8527 </r>
       <r>     1.9546     0.8363    63.9441 </r>
       <r>     2.0639     0.5117    64.0000 </r>
       <r>     2.1732     0.0000    64.0000 </r>
       <r>     2.2825     0.0000    64.0000 </r>
       <r>     2.3918     0.0000    64.0000 </r>
       <r>     2.5011     0.0000    64.0000 </r>
       <r>     2.6104     0.0000    64.0000 </r>
       <r>     2.7197     0.0000    64.0000 </r>
       <r>     2.8290     0.0000    64.0000 </r>
       <r>     2.9383     0.0000    64.0000 </r>
       <r>     3.0476     0.0000    64.0000 </r>
       <r>     3.1569     0.0000    64.0000 </r>
       <r>     3.2662     0.0000    64.0000 </r>
       <r>     3.3755     0.0000    64.0000 </r>
       <r>     3.4848     0.0000    64.0000 </r>
      </set>
     </set>
    </array>
   </total>
  </dos>
 </calculation>
 <structure name="finalpos" >
  <crystal>
   <varray name="basis" >
    <v>       4.90607700       0.00000000       0.00000000 </v>
    <v>       0.00000000       5.59898900       0.00000000 </v>
    <v>       0.00000000       0.00000000      18.07929100 </v>
   </varray>
   <i name="volume">    496.62133093 </i>
   <varray name="rec_basis" >
    <v>       0.20382884       0.00000000       0.00000000 </v>
    <v>       0.00000000       0.17860367       0.00000000 </v>
    <v>       0.00000000       0.00000000       0.05531190 </v>
   </varray>
  </crystal>
  <varray name="positions" >
   <v>       0.50000000       0.50000000       0.50000000 </v>
   <v>       0.00000000      -0.00000000       0.50000000 </v>
   <v>       0.25000000       0.25000000       0.41516300 </v>
   <v>       0.75000000       0.75000000       0.41516300 </v>
   <v>       0.75000000       0.25000000       0.58483700 </v>
   <v>       0.25000000       0.75000000       0.58483700 </v>
  </varray>
 </structure>
</modeling>
