<?xml version="1.0" encoding="ISO-8859-1"?>
<modeling>
 <generator>
  <i name="program" type="string">vasp </i>
  <i name="version" type="string">5.4.1  </i>
  <i name="subversion" type="string">24Jun15 (build Nov 20 2020 10:29:34) complex                          parallel </i>
  <i name="platform" type="string">IFC91_ompi </i>
  <i name="date" type="string">2021 09 09 </i>
  <i name="time" type="string">15:18:50 </i>
 </generator>
 <incar>
  <i type="string" name="PREC">a</i>
  <i type="string" name="ALGO"> Normal</i>
  <i type="int" name="ISPIN">     1</i>
  <i type="int" name="ICHARG">     2</i>
  <i type="int" name="NELM">   250</i>
  <i type="int" name="NELMDL">    -5</i>
  <i type="int" name="NELMIN">     6</i>
  <i type="int" name="IBRION">     2</i>
  <i name="EDIFF">      0.00001000</i>
  <i name="EDIFFG">     -0.01000000</i>
  <i type="int" name="NSW">   200</i>
  <i type="int" name="ISIF">     2</i>
  <i name="ENCUT">    520.00000000</i>
  <i name="POTIM">      0.30000000</i>
  <i type="logical" name="LREAL"> F  </i>
  <i type="int" name="ISMEAR">     0</i>
  <i name="SIGMA">      0.02000000</i>
  <i type="logical" name="LWAVE"> F  </i>
  <i type="logical" name="LCHARG"> F  </i>
  <i type="logical" name="LAECHG"> F  </i>
  <v type="int" name="KPOINT_BSE">    -1     0     0     0</v>
  <i type="int" name="NELM">   250</i>
 </incar>
 <kpoints>
  <generation param="Gamma">
   <v type="int" name="divisions">      21       15        1 </v>
   <v name="usershift">      0.00000000       0.00000000       0.00000000 </v>
   <v name="genvec1">      0.04761905      -0.00000000       0.00000000 </v>
   <v name="genvec2">      0.00000000       0.06666667       0.00000000 </v>
   <v name="genvec3">      0.00000000       0.00000000       1.00000000 </v>
   <v name="shift">      0.00000000       0.00000000       0.00000000 </v>
  </generation>
  <varray name="kpointlist" >
   <v>       0.00000000       0.00000000       0.00000000 </v>
   <v>       0.04761905      -0.00000000       0.00000000 </v>
   <v>       0.09523810      -0.00000000       0.00000000 </v>
   <v>       0.14285714       0.00000000       0.00000000 </v>
   <v>       0.19047619      -0.00000000       0.00000000 </v>
   <v>       0.23809524       0.00000000       0.00000000 </v>
   <v>       0.28571429       0.00000000       0.00000000 </v>
   <v>       0.33333333       0.00000000       0.00000000 </v>
   <v>       0.38095238      -0.00000000       0.00000000 </v>
   <v>       0.42857143      -0.00000000       0.00000000 </v>
   <v>       0.47619048       0.00000000       0.00000000 </v>
   <v>      -0.00000000       0.06666667       0.00000000 </v>
   <v>       0.04761905       0.06666667       0.00000000 </v>
   <v>       0.09523810       0.06666667       0.00000000 </v>
   <v>       0.14285714       0.06666667       0.00000000 </v>
   <v>       0.19047619       0.06666667       0.00000000 </v>
   <v>       0.23809524       0.06666667       0.00000000 </v>
   <v>       0.28571429       0.06666667       0.00000000 </v>
   <v>       0.33333333       0.06666667       0.00000000 </v>
   <v>       0.38095238       0.06666667       0.00000000 </v>
   <v>       0.42857143       0.06666667       0.00000000 </v>
   <v>       0.47619048       0.06666667       0.00000000 </v>
   <v>      -0.47619048       0.06666667       0.00000000 </v>
   <v>      -0.42857143       0.06666667       0.00000000 </v>
   <v>      -0.38095238       0.06666667       0.00000000 </v>
   <v>      -0.33333333       0.06666667       0.00000000 </v>
   <v>      -0.28571429       0.06666667       0.00000000 </v>
   <v>      -0.23809524       0.06666667       0.00000000 </v>
   <v>      -0.19047619       0.06666667       0.00000000 </v>
   <v>      -0.14285714       0.06666667       0.00000000 </v>
   <v>      -0.09523810       0.06666667       0.00000000 </v>
   <v>      -0.04761905       0.06666667       0.00000000 </v>
   <v>      -0.00000000       0.13333333       0.00000000 </v>
   <v>       0.04761905       0.13333333       0.00000000 </v>
   <v>       0.09523810       0.13333333       0.00000000 </v>
   <v>       0.14285714       0.13333333       0.00000000 </v>
   <v>       0.19047619       0.13333333       0.00000000 </v>
   <v>       0.23809524       0.13333333       0.00000000 </v>
   <v>       0.28571429       0.13333333       0.00000000 </v>
   <v>       0.33333333       0.13333333       0.00000000 </v>
   <v>       0.38095238       0.13333333       0.00000000 </v>
   <v>       0.42857143       0.13333333       0.00000000 </v>
   <v>       0.47619048       0.13333333       0.00000000 </v>
   <v>      -0.47619048       0.13333333       0.00000000 </v>
   <v>      -0.42857143       0.13333333       0.00000000 </v>
   <v>      -0.38095238       0.13333333       0.00000000 </v>
   <v>      -0.33333333       0.13333333       0.00000000 </v>
   <v>      -0.28571429       0.13333333       0.00000000 </v>
   <v>      -0.23809524       0.13333333       0.00000000 </v>
   <v>      -0.19047619       0.13333333       0.00000000 </v>
   <v>      -0.14285714       0.13333333       0.00000000 </v>
   <v>      -0.09523810       0.13333333       0.00000000 </v>
   <v>      -0.04761905       0.13333333       0.00000000 </v>
   <v>       0.00000000       0.20000000       0.00000000 </v>
   <v>       0.04761905       0.20000000       0.00000000 </v>
   <v>       0.09523810       0.20000000       0.00000000 </v>
   <v>       0.14285714       0.20000000       0.00000000 </v>
   <v>       0.19047619       0.20000000       0.00000000 </v>
   <v>       0.23809524       0.20000000       0.00000000 </v>
   <v>       0.28571429       0.20000000       0.00000000 </v>
   <v>       0.33333333       0.20000000       0.00000000 </v>
   <v>       0.38095238       0.20000000       0.00000000 </v>
   <v>       0.42857143       0.20000000       0.00000000 </v>
   <v>       0.47619048       0.20000000       0.00000000 </v>
   <v>      -0.47619048       0.20000000       0.00000000 </v>
   <v>      -0.42857143       0.20000000       0.00000000 </v>
   <v>      -0.38095238       0.20000000       0.00000000 </v>
   <v>      -0.33333333       0.20000000       0.00000000 </v>
   <v>      -0.28571429       0.20000000       0.00000000 </v>
   <v>      -0.23809524       0.20000000       0.00000000 </v>
   <v>      -0.19047619       0.20000000       0.00000000 </v>
   <v>      -0.14285714       0.20000000       0.00000000 </v>
   <v>      -0.09523810       0.20000000       0.00000000 </v>
   <v>      -0.04761905       0.20000000       0.00000000 </v>
   <v>       0.00000000       0.26666667       0.00000000 </v>
   <v>       0.04761905       0.26666667       0.00000000 </v>
   <v>       0.09523810       0.26666667       0.00000000 </v>
   <v>       0.14285714       0.26666667       0.00000000 </v>
   <v>       0.19047619       0.26666667       0.00000000 </v>
   <v>       0.23809524       0.26666667       0.00000000 </v>
   <v>       0.28571429       0.26666667       0.00000000 </v>
   <v>       0.33333333       0.26666667       0.00000000 </v>
   <v>       0.38095238       0.26666667       0.00000000 </v>
   <v>       0.42857143       0.26666667       0.00000000 </v>
   <v>       0.47619048       0.26666667       0.00000000 </v>
   <v>      -0.47619048       0.26666667       0.00000000 </v>
   <v>      -0.42857143       0.26666667       0.00000000 </v>
   <v>      -0.38095238       0.26666667       0.00000000 </v>
   <v>      -0.33333333       0.26666667       0.00000000 </v>
   <v>      -0.28571429       0.26666667       0.00000000 </v>
   <v>      -0.23809524       0.26666667       0.00000000 </v>
   <v>      -0.19047619       0.26666667       0.00000000 </v>
   <v>      -0.14285714       0.26666667       0.00000000 </v>
   <v>      -0.09523810       0.26666667       0.00000000 </v>
   <v>      -0.04761905       0.26666667       0.00000000 </v>
   <v>       0.00000000       0.33333333       0.00000000 </v>
   <v>       0.04761905       0.33333333       0.00000000 </v>
   <v>       0.09523810       0.33333333       0.00000000 </v>
   <v>       0.14285714       0.33333333       0.00000000 </v>
   <v>       0.19047619       0.33333333       0.00000000 </v>
   <v>       0.23809524       0.33333333       0.00000000 </v>
   <v>       0.28571429       0.33333333       0.00000000 </v>
   <v>       0.33333333       0.33333333       0.00000000 </v>
   <v>       0.38095238       0.33333333       0.00000000 </v>
   <v>       0.42857143       0.33333333       0.00000000 </v>
   <v>       0.47619048       0.33333333       0.00000000 </v>
   <v>      -0.47619048       0.33333333       0.00000000 </v>
   <v>      -0.42857143       0.33333333       0.00000000 </v>
   <v>      -0.38095238       0.33333333       0.00000000 </v>
   <v>      -0.33333333       0.33333333       0.00000000 </v>
   <v>      -0.28571429       0.33333333       0.00000000 </v>
   <v>      -0.23809524       0.33333333       0.00000000 </v>
   <v>      -0.19047619       0.33333333       0.00000000 </v>
   <v>      -0.14285714       0.33333333       0.00000000 </v>
   <v>      -0.09523810       0.33333333       0.00000000 </v>
   <v>      -0.04761905       0.33333333       0.00000000 </v>
   <v>       0.00000000       0.40000000       0.00000000 </v>
   <v>       0.04761905       0.40000000       0.00000000 </v>
   <v>       0.09523810       0.40000000       0.00000000 </v>
   <v>       0.14285714       0.40000000       0.00000000 </v>
   <v>       0.19047619       0.40000000       0.00000000 </v>
   <v>       0.23809524       0.40000000       0.00000000 </v>
   <v>       0.28571429       0.40000000       0.00000000 </v>
   <v>       0.33333333       0.40000000       0.00000000 </v>
   <v>       0.38095238       0.40000000       0.00000000 </v>
   <v>       0.42857143       0.40000000       0.00000000 </v>
   <v>       0.47619048       0.40000000       0.00000000 </v>
   <v>      -0.47619048       0.40000000       0.00000000 </v>
   <v>      -0.42857143       0.40000000       0.00000000 </v>
   <v>      -0.38095238       0.40000000       0.00000000 </v>
   <v>      -0.33333333       0.40000000       0.00000000 </v>
   <v>      -0.28571429       0.40000000       0.00000000 </v>
   <v>      -0.23809524       0.40000000       0.00000000 </v>
   <v>      -0.19047619       0.40000000       0.00000000 </v>
   <v>      -0.14285714       0.40000000       0.00000000 </v>
   <v>      -0.09523810       0.40000000       0.00000000 </v>
   <v>      -0.04761905       0.40000000       0.00000000 </v>
   <v>      -0.00000000       0.46666667       0.00000000 </v>
   <v>       0.04761905       0.46666667       0.00000000 </v>
   <v>       0.09523810       0.46666667       0.00000000 </v>
   <v>       0.14285714       0.46666667       0.00000000 </v>
   <v>       0.19047619       0.46666667       0.00000000 </v>
   <v>       0.23809524       0.46666667       0.00000000 </v>
   <v>       0.28571429       0.46666667       0.00000000 </v>
   <v>       0.33333333       0.46666667       0.00000000 </v>
   <v>       0.38095238       0.46666667       0.00000000 </v>
   <v>       0.42857143       0.46666667       0.00000000 </v>
   <v>       0.47619048       0.46666667       0.00000000 </v>
   <v>      -0.47619048       0.46666667       0.00000000 </v>
   <v>      -0.42857143       0.46666667       0.00000000 </v>
   <v>      -0.38095238       0.46666667       0.00000000 </v>
   <v>      -0.33333333       0.46666667       0.00000000 </v>
   <v>      -0.28571429       0.46666667       0.00000000 </v>
   <v>      -0.23809524       0.46666667       0.00000000 </v>
   <v>      -0.19047619       0.46666667       0.00000000 </v>
   <v>      -0.14285714       0.46666667       0.00000000 </v>
   <v>      -0.09523810       0.46666667       0.00000000 </v>
   <v>      -0.04761905       0.46666667       0.00000000 </v>
  </varray>
  <varray name="weights" >
   <v>       0.00317460 </v>
   <v>       0.00634921 </v>
   <v>       0.00634921 </v>
   <v>       0.00634921 </v>
   <v>       0.00634921 </v>
   <v>       0.00634921 </v>
   <v>       0.00634921 </v>
   <v>       0.00634921 </v>
   <v>       0.00634921 </v>
   <v>       0.00634921 </v>
   <v>       0.00634921 </v>
   <v>       0.00634921 </v>
   <v>       0.00634921 </v>
   <v>       0.00634921 </v>
   <v>       0.00634921 </v>
   <v>       0.00634921 </v>
   <v>       0.00634921 </v>
   <v>       0.00634921 </v>
   <v>       0.00634921 </v>
   <v>       0.00634921 </v>
   <v>       0.00634921 </v>
   <v>       0.00634921 </v>
   <v>       0.00634921 </v>
   <v>       0.00634921 </v>
   <v>       0.00634921 </v>
   <v>       0.00634921 </v>
   <v>       0.00634921 </v>
   <v>       0.00634921 </v>
   <v>       0.00634921 </v>
   <v>       0.00634921 </v>
   <v>       0.00634921 </v>
   <v>       0.00634921 </v>
   <v>       0.00634921 </v>
   <v>       0.00634921 </v>
   <v>       0.00634921 </v>
   <v>       0.00634921 </v>
   <v>       0.00634921 </v>
   <v>       0.00634921 </v>
   <v>       0.00634921 </v>
   <v>       0.00634921 </v>
   <v>       0.00634921 </v>
   <v>       0.00634921 </v>
   <v>       0.00634921 </v>
   <v>       0.00634921 </v>
   <v>       0.00634921 </v>
   <v>       0.00634921 </v>
   <v>       0.00634921 </v>
   <v>       0.00634921 </v>
   <v>       0.00634921 </v>
   <v>       0.00634921 </v>
   <v>       0.00634921 </v>
   <v>       0.00634921 </v>
   <v>       0.00634921 </v>
   <v>       0.00634921 </v>
   <v>       0.00634921 </v>
   <v>       0.00634921 </v>
   <v>       0.00634921 </v>
   <v>       0.00634921 </v>
   <v>       0.00634921 </v>
   <v>       0.00634921 </v>
   <v>       0.00634921 </v>
   <v>       0.00634921 </v>
   <v>       0.00634921 </v>
   <v>       0.00634921 </v>
   <v>       0.00634921 </v>
   <v>       0.00634921 </v>
   <v>       0.00634921 </v>
   <v>       0.00634921 </v>
   <v>       0.00634921 </v>
   <v>       0.00634921 </v>
   <v>       0.00634921 </v>
   <v>       0.00634921 </v>
   <v>       0.00634921 </v>
   <v>       0.00634921 </v>
   <v>       0.00634921 </v>
   <v>       0.00634921 </v>
   <v>       0.00634921 </v>
   <v>       0.00634921 </v>
   <v>       0.00634921 </v>
   <v>       0.00634921 </v>
   <v>       0.00634921 </v>
   <v>       0.00634921 </v>
   <v>       0.00634921 </v>
   <v>       0.00634921 </v>
   <v>       0.00634921 </v>
   <v>       0.00634921 </v>
   <v>       0.00634921 </v>
   <v>       0.00634921 </v>
   <v>       0.00634921 </v>
   <v>       0.00634921 </v>
   <v>       0.00634921 </v>
   <v>       0.00634921 </v>
   <v>       0.00634921 </v>
   <v>       0.00634921 </v>
   <v>       0.00634921 </v>
   <v>       0.00634921 </v>
   <v>       0.00634921 </v>
   <v>       0.00634921 </v>
   <v>       0.00634921 </v>
   <v>       0.00634921 </v>
   <v>       0.00634921 </v>
   <v>       0.00634921 </v>
   <v>       0.00634921 </v>
   <v>       0.00634921 </v>
   <v>       0.00634921 </v>
   <v>       0.00634921 </v>
   <v>       0.00634921 </v>
   <v>       0.00634921 </v>
   <v>       0.00634921 </v>
   <v>       0.00634921 </v>
   <v>       0.00634921 </v>
   <v>       0.00634921 </v>
   <v>       0.00634921 </v>
   <v>       0.00634921 </v>
   <v>       0.00634921 </v>
   <v>       0.00634921 </v>
   <v>       0.00634921 </v>
   <v>       0.00634921 </v>
   <v>       0.00634921 </v>
   <v>       0.00634921 </v>
   <v>       0.00634921 </v>
   <v>       0.00634921 </v>
   <v>       0.00634921 </v>
   <v>       0.00634921 </v>
   <v>       0.00634921 </v>
   <v>       0.00634921 </v>
   <v>       0.00634921 </v>
   <v>       0.00634921 </v>
   <v>       0.00634921 </v>
   <v>       0.00634921 </v>
   <v>       0.00634921 </v>
   <v>       0.00634921 </v>
   <v>       0.00634921 </v>
   <v>       0.00634921 </v>
   <v>       0.00634921 </v>
   <v>       0.00634921 </v>
   <v>       0.00634921 </v>
   <v>       0.00634921 </v>
   <v>       0.00634921 </v>
   <v>       0.00634921 </v>
   <v>       0.00634921 </v>
   <v>       0.00634921 </v>
   <v>       0.00634921 </v>
   <v>       0.00634921 </v>
   <v>       0.00634921 </v>
   <v>       0.00634921 </v>
   <v>       0.00634921 </v>
   <v>       0.00634921 </v>
   <v>       0.00634921 </v>
   <v>       0.00634921 </v>
   <v>       0.00634921 </v>
   <v>       0.00634921 </v>
   <v>       0.00634921 </v>
   <v>       0.00634921 </v>
   <v>       0.00634921 </v>
   <v>       0.00634921 </v>
   <v>       0.00634921 </v>
   <v>       0.00634921 </v>
  </varray>
 </kpoints>
 <parameters>
  <separator name="general" >
   <i type="string" name="SYSTEM">unknown system</i>
   <i type="logical" name="LCOMPAT"> F  </i>
  </separator>
  <separator name="electronic" >
   <i type="string" name="PREC">a</i>
   <i name="ENMAX">    520.00000000</i>
   <i name="ENAUG">    342.92400000</i>
   <i name="EDIFF">      0.00001000</i>
   <i type="int" name="IALGO">    38</i>
   <i type="int" name="IWAVPR">    11</i>
   <i type="int" name="NBANDS">    16</i>
   <i name="NELECT">     20.00000000</i>
   <i type="int" name="TURBO">     0</i>
   <i type="int" name="IRESTART">     0</i>
   <i type="int" name="NREBOOT">     0</i>
   <i type="int" name="NMIN">     0</i>
   <i name="EREF">      0.00000000</i>
   <separator name="electronic smearing" >
    <i type="int" name="ISMEAR">     0</i>
    <i name="SIGMA">      0.02000000</i>
    <i name="KSPACING">      0.50000000</i>
    <i type="logical" name="KGAMMA"> T  </i>
   </separator>
   <separator name="electronic projectors" >
    <i type="logical" name="LREAL"> F  </i>
    <v name="ROPT">      0.00000000</v>
    <i type="int" name="LMAXPAW">  -100</i>
    <i type="int" name="LMAXMIX">     2</i>
    <i type="logical" name="NLSPLINE"> F  </i>
   </separator>
   <separator name="electronic startup" >
    <i type="int" name="ISTART">     0</i>
    <i type="int" name="ICHARG">     2</i>
    <i type="int" name="INIWAV">     1</i>
   </separator>
   <separator name="electronic spin" >
    <i type="int" name="ISPIN">     1</i>
    <i type="logical" name="LNONCOLLINEAR"> F  </i>
    <v name="MAGMOM">      1.00000000      1.00000000      1.00000000      1.00000000</v>
    <i name="NUPDOWN">     -1.00000000</i>
    <i type="logical" name="LSORBIT"> F  </i>
    <v name="SAXIS">      0.00000000      0.00000000      1.00000000</v>
    <i type="logical" name="LSPIRAL"> F  </i>
    <v name="QSPIRAL">      0.00000000      0.00000000      0.00000000</v>
    <i type="logical" name="LZEROZ"> F  </i>
   </separator>
   <separator name="electronic exchange-correlation" >
    <i type="logical" name="LASPH"> F  </i>
    <i type="logical" name="LMETAGGA"> F  </i>
   </separator>
   <separator name="electronic convergence" >
    <i type="int" name="NELM">   250</i>
    <i type="int" name="NELMDL">    -5</i>
    <i type="int" name="NELMIN">     6</i>
    <i name="ENINI">    520.00000000</i>
    <separator name="electronic convergence detail" >
     <i type="logical" name="LDIAG"> T  </i>
     <i type="logical" name="LSUBROT"> F  </i>
     <i name="WEIMIN">      0.00100000</i>
     <i name="EBREAK">      0.00000016</i>
     <i name="DEPER">      0.30000000</i>
     <i type="int" name="NRMM">     4</i>
     <i name="TIME">      0.40000000</i>
    </separator>
   </separator>
   <separator name="electronic mixer" >
    <i name="AMIX">      0.40000000</i>
    <i name="BMIX">      1.00000000</i>
    <i name="AMIN">      0.10000000</i>
    <i name="AMIX_MAG">      1.60000000</i>
    <i name="BMIX_MAG">      1.00000000</i>
    <separator name="electronic mixer details" >
     <i type="int" name="IMIX">     4</i>
     <i type="logical" name="MIXFIRST"> F  </i>
     <i type="int" name="MAXMIX">   -45</i>
     <i name="WC">    100.00000000</i>
     <i type="int" name="INIMIX">     1</i>
     <i type="int" name="MIXPRE">     1</i>
     <i type="int" name="MREMOVE">     5</i>
    </separator>
   </separator>
   <separator name="electronic dipolcorrection" >
    <i type="logical" name="LDIPOL"> F  </i>
    <i type="logical" name="LMONO"> F  </i>
    <i type="int" name="IDIPOL">     0</i>
    <i name="EPSILON">      1.00000000</i>
    <v name="DIPOL">   -100.00000000   -100.00000000   -100.00000000</v>
    <i name="EFIELD">      0.00000000</i>
   </separator>
  </separator>
  <separator name="grids" >
   <i type="int" name="NGX">    28</i>
   <i type="int" name="NGY">    36</i>
   <i type="int" name="NGZ">   150</i>
   <i type="int" name="NGXF">    56</i>
   <i type="int" name="NGYF">    72</i>
   <i type="int" name="NGZF">   300</i>
   <i type="logical" name="ADDGRID"> F  </i>
  </separator>
  <separator name="ionic" >
   <i type="int" name="NSW">   200</i>
   <i type="int" name="IBRION">     2</i>
   <i type="int" name="ISIF">     2</i>
   <i name="PSTRESS">      0.00000000</i>
   <i name="EDIFFG">     -0.01000000</i>
   <i type="int" name="NFREE">     1</i>
   <i name="POTIM">      0.30000000</i>
   <i name="SMASS">     -3.00000000</i>
   <i name="SCALEE">      1.00000000</i>
  </separator>
  <separator name="ionic md" >
   <i name="TEBEG">      0.00010000</i>
   <i name="TEEND">      0.00010000</i>
   <i type="int" name="NBLOCK">     1</i>
   <i type="int" name="KBLOCK">   200</i>
   <i type="int" name="NPACO">   256</i>
   <i name="APACO">     16.00000000</i>
  </separator>
  <separator name="symmetry" >
   <i type="int" name="ISYM">     2</i>
   <i name="SYMPREC">      0.00001000</i>
  </separator>
  <separator name="dos" >
   <i type="logical" name="LORBIT"> F  </i>
   <v name="RWIGS">     -1.00000000</v>
   <i type="int" name="NEDOS">   301</i>
   <i name="EMIN">     10.00000000</i>
   <i name="EMAX">    -10.00000000</i>
   <i name="EFERMI">      0.00000000</i>
  </separator>
  <separator name="writing" >
   <i type="int" name="NWRITE">     2</i>
   <i type="logical" name="LWAVE"> F  </i>
   <i type="logical" name="LCHARG"> F  </i>
   <i type="logical" name="LPARD"> F  </i>
   <i type="logical" name="LVTOT"> F  </i>
   <i type="logical" name="LVHAR"> F  </i>
   <i type="logical" name="LELF"> F  </i>
   <i type="logical" name="LOPTICS"> F  </i>
   <v name="STM">      0.00000000      0.00000000      0.00000000      0.00000000      0.00000000      0.00000000      0.00000000</v>
  </separator>
  <separator name="performance" >
   <i type="int" name="NPAR">     4</i>
   <i type="int" name="NSIM">     4</i>
   <i type="int" name="NBLK">    -1</i>
   <i type="logical" name="LPLANE"> T  </i>
   <i type="logical" name="LSCALAPACK"> T  </i>
   <i type="logical" name="LSCAAWARE"> F  </i>
   <i type="logical" name="LSCALU"> F  </i>
   <i type="logical" name="LASYNC"> F  </i>
   <i type="logical" name="LORBITALREAL"> F  </i>
  </separator>
  <separator name="miscellaneous" >
   <i type="int" name="IDIOT">     3</i>
   <i type="logical" name="LMUSIC"> F  </i>
   <v name="POMASS">     30.97400000</v>
   <v name="DARWINR">      0.00000000</v>
   <v name="DARWINV">      1.00000000</v>
   <i type="logical" name="LCORR"> T  </i>
  </separator>
  <i type="logical" name="GGA_COMPAT"> T  </i>
  <i type="logical" name="LBERRY"> F  </i>
  <i type="int" name="ICORELEVEL">     0</i>
  <i type="logical" name="LDAU"> F  </i>
  <i type="int" name="I_CONSTRAINED_M">     0</i>
  <separator name="electronic exchange-correlation" >
   <i type="string" name="GGA">--</i>
   <i type="int" name="VOSKOWN">     0</i>
   <i type="logical" name="LHFCALC"> F  </i>
   <i type="string" name="PRECFOCK"></i>
   <i type="logical" name="LSYMGRAD"> F  </i>
   <i type="logical" name="LHFONE"> F  </i>
   <i type="logical" name="LRHFCALC"> F  </i>
   <i type="logical" name="LTHOMAS"> F  </i>
   <i type="logical" name="LMODELHF"> F  </i>
   <i name="ENCUT4O">     -1.00000000</i>
   <i type="int" name="EXXOEP">     0</i>
   <i type="int" name="FOURORBIT">     0</i>
   <i name="AEXX">      0.00000000</i>
   <i name="HFALPHA">      0.00000000</i>
   <i name="MCALPHA">      0.00000000</i>
   <i name="ALDAX">      1.00000000</i>
   <i name="AGGAX">      1.00000000</i>
   <i name="ALDAC">      1.00000000</i>
   <i name="AGGAC">      1.00000000</i>
   <i type="int" name="NKREDX">     1</i>
   <i type="int" name="NKREDY">     1</i>
   <i type="int" name="NKREDZ">     1</i>
   <i type="logical" name="SHIFTRED"> F  </i>
   <i type="logical" name="ODDONLY"> F  </i>
   <i type="logical" name="EVENONLY"> F  </i>
   <i type="int" name="LMAXFOCK">     0</i>
   <i type="int" name="NMAXFOCKAE">     0</i>
   <i type="logical" name="LFOCKAEDFT"> F  </i>
   <i name="HFSCREEN">      0.00000000</i>
   <i name="HFSCREENC">      0.00000000</i>
   <i type="int" name="NBANDSGWLOW">     0</i>
  </separator>
  <separator name="vdW DFT" >
   <i type="logical" name="LUSE_VDW"> F  </i>
   <i name="Zab_VDW">     -0.84910000</i>
   <i name="PARAM1">      0.12340000</i>
   <i name="PARAM2">      1.00000000</i>
   <i name="PARAM3">      0.00000000</i>
  </separator>
  <separator name="model GW" >
   <i type="int" name="MODEL_GW">     0</i>
   <i name="MODEL_EPS0">     45.64140952</i>
   <i name="MODEL_ALPHA">      1.00000000</i>
  </separator>
  <separator name="linear response parameters" >
   <i type="logical" name="LEPSILON"> F  </i>
   <i type="logical" name="LRPA"> F  </i>
   <i type="logical" name="LNABLA"> F  </i>
   <i type="logical" name="LVEL"> F  </i>
   <i type="int" name="KINTER">     0</i>
   <i name="CSHIFT">      0.10000000</i>
   <i name="OMEGAMAX">     -1.00000000</i>
   <i name="DEG_THRESHOLD">      0.00200000</i>
  </separator>
  <separator name="orbital magnetization" >
   <i type="logical" name="NUCIND"> F  </i>
   <v name="MAGPOS">      0.00000000      0.00000000      0.00000000</v>
   <i type="logical" name="LNICSALL"> T  </i>
   <i type="logical" name="ORBITALMAG"> F  </i>
   <i type="logical" name="LMAGBLOCH"> F  </i>
   <i type="logical" name="LCHIMAG"> F  </i>
   <i type="logical" name="LGAUGE"> T  </i>
   <i type="int" name="MAGATOM">     0</i>
   <v name="MAGDIPOL">      0.00000000      0.00000000      0.00000000</v>
   <v name="AVECCONST">      0.00000000      0.00000000      0.00000000</v>
  </separator>
  <separator name="response functions" >
   <i type="logical" name="LADDER"> F  </i>
   <i type="logical" name="LFXC"> F  </i>
   <i type="logical" name="LHARTREE"> T  </i>
   <i type="int" name="IBSE">     0</i>
   <v type="int" name="KPOINT">    -1     0     0     0</v>
   <i type="logical" name="LTCTE"> F  </i>
   <i type="logical" name="LTETE"> F  </i>
   <i type="logical" name="LTRIPLET"> F  </i>
   <i type="logical" name="LFXCEPS"> F  </i>
   <i type="logical" name="LFXHEG"> F  </i>
   <i type="int" name="NATURALO">     0</i>
   <i type="logical" name="L2ORDER"> F  </i>
   <i type="logical" name="LUSEW"> F  </i>
   <i name="ENCUTGW">     -2.00000000</i>
   <i name="ENCUTGWSOFT">     -2.00000000</i>
   <i name="ENCUTLF">     -1.00000000</i>
   <i type="int" name="LMAXMP2">    -1</i>
   <i name="SCISSOR">      0.00000000</i>
   <i type="int" name="NOMEGA">     0</i>
   <i type="int" name="NOMEGAR">     0</i>
   <i type="int" name="NBANDSGW">    -1</i>
   <i type="int" name="NBANDSO">    -1</i>
   <i type="int" name="NBANDSV">    -1</i>
   <i type="int" name="NELM">   250</i>
   <i type="int" name="NELMHF">     1</i>
   <i type="int" name="DIM">     3</i>
   <i type="int" name="ANTIRES">     0</i>
   <i name="OMEGAMAX">    -30.00000000</i>
   <i name="OMEGAMIN">    -30.00000000</i>
   <i name="OMEGATL">   -200.00000000</i>
   <i type="int" name="OMEGAGRID">     0</i>
   <i name="CSHIFT">     -0.10000000</i>
   <i type="logical" name="SELFENERGY"> F  </i>
   <i type="logical" name="LSPECTRAL"> F  </i>
   <i type="logical" name="LSPECTRALGW"> F  </i>
   <i type="logical" name="LSINGLES"> F  </i>
   <i type="logical" name="LFERMIGW"> F  </i>
   <i type="logical" name="ODDONLYGW"> F  </i>
   <i type="logical" name="EVENONLYGW"> F  </i>
   <i type="int" name="NKREDLFX">     1</i>
   <i type="int" name="NKREDLFY">     1</i>
   <i type="int" name="NKREDLFZ">     1</i>
   <i type="int" name="MAXMEM">  1800</i>
   <i type="int" name="TELESCOPE">     0</i>
   <i type="int" name="TAUPAR">     1</i>
   <i type="int" name="OMEGAPAR">    -1</i>
   <i name="LAMBDA">      1.00000000</i>
  </separator>
  <separator name="External order field" >
   <i name="OFIELD_KAPPA">      0.00000000</i>
   <v name="OFIELD_K">      0.00000000      0.00000000      0.00000000</v>
   <i name="OFIELD_Q6_NEAR">      0.00000000</i>
   <i name="OFIELD_Q6_FAR">      0.00000000</i>
   <i name="OFIELD_A">      0.00000000</i>
  </separator>
 </parameters>
 <atominfo>
  <atoms>       4 </atoms>
  <types>       1 </types>
  <array name="atoms" >
   <dimension dim="1">ion</dimension>
   <field type="string">element</field>
   <field type="int">atomtype</field>
   <set>
    <rc><c>P </c><c>   1</c></rc>
    <rc><c>P </c><c>   1</c></rc>
    <rc><c>P </c><c>   1</c></rc>
    <rc><c>P </c><c>   1</c></rc>
   </set>
  </array>
  <array name="atomtypes" >
   <dimension dim="1">type</dimension>
   <field type="int">atomspertype</field>
   <field type="string">element</field>
   <field>mass</field>
   <field>valence</field>
   <field type="string">pseudopotential</field>
   <set>
    <rc><c>   4</c><c>P </c><c>     30.97400000</c><c>      5.00000000</c><c>  PAW_PBE P 06Sep2000                   </c></rc>
   </set>
  </array>
 </atominfo>
 <structure name="initialpos" >
  <crystal>
   <varray name="basis" >
    <v>       3.29456100       0.13199400       0.00000000 </v>
    <v>       0.18508200       4.61964500      -0.00005300 </v>
    <v>       0.00000000       0.00000000      20.02439000 </v>
   </varray>
   <i name="volume">    304.27606344 </i>
   <varray name="rec_basis" >
    <v>       0.30401857      -0.01218024       0.00000000 </v>
    <v>      -0.00868652       0.21681487       0.00000000 </v>
    <v>      -0.00000002       0.00000057       0.04993910 </v>
   </varray>
  </crystal>
  <varray name="positions" >
   <v>       0.50000000       0.91077300       0.55252100 </v>
   <v>       0.50000000       0.08922700       0.44747900 </v>
   <v>       0.00000000       0.41076900       0.44747900 </v>
   <v>       0.00000000       0.58923100       0.55252100 </v>
  </varray>
 </structure>
 <calculation>
  <scstep>
   <time name="dav">    1.49    1.49</time>
   <time name="total">    1.52    1.52</time>
   <energy>
    <i name="alphaZ">      5.27205795 </i>
    <i name="ewald">   1871.51717676 </i>
    <i name="hartreedc">  -2464.71627042 </i>
    <i name="XCdc">     13.07698650 </i>
    <i name="pawpsdc">    559.04011960 </i>
    <i name="pawaedc">   -526.39432044 </i>
    <i name="eentropy">     -0.00039711 </i>
    <i name="bandstr">    -28.24413863 </i>
    <i name="atom">    704.16778566 </i>
    <i name="e_fr_energy">    133.71899988 </i>
    <i name="e_wo_entrp">    133.71939699 </i>
    <i name="e_0_energy">    133.71919844 </i>
   </energy>
  </scstep>
  <scstep>
   <time name="dav">    1.99    1.99</time>
   <time name="total">    1.99    1.99</time>
   <energy>
    <i name="e_fr_energy">     -6.13099388 </i>
    <i name="e_wo_entrp">     -6.13099388 </i>
    <i name="e_0_energy">     -6.13099388 </i>
   </energy>
  </scstep>
  <scstep>
   <time name="dav">    1.81    1.81</time>
   <time name="total">    1.81    1.81</time>
   <energy>
    <i name="e_fr_energy">    -21.20118007 </i>
    <i name="e_wo_entrp">    -21.20118007 </i>
    <i name="e_0_energy">    -21.20118007 </i>
   </energy>
  </scstep>
  <scstep>
   <time name="dav">    1.90    1.90</time>
   <time name="total">    1.90    1.90</time>
   <energy>
    <i name="e_fr_energy">    -21.51077910 </i>
    <i name="e_wo_entrp">    -21.51077910 </i>
    <i name="e_0_energy">    -21.51077910 </i>
   </energy>
  </scstep>
  <scstep>
   <time name="dav">    1.98    1.98</time>
   <time name="total">    2.08    2.08</time>
   <energy>
    <i name="e_fr_energy">    -21.52030036 </i>
    <i name="e_wo_entrp">    -21.52030036 </i>
    <i name="e_0_energy">    -21.52030036 </i>
   </energy>
  </scstep>
  <scstep>
   <time name="dav">    1.80    1.80</time>
   <time name="total">    1.91    1.92</time>
   <energy>
    <i name="e_fr_energy">    -21.35418592 </i>
    <i name="e_wo_entrp">    -21.35418592 </i>
    <i name="e_0_energy">    -21.35418592 </i>
   </energy>
  </scstep>
  <scstep>
   <time name="dav">    1.76    1.76</time>
   <time name="total">    1.87    1.87</time>
   <energy>
    <i name="e_fr_energy">    -21.28125173 </i>
    <i name="e_wo_entrp">    -21.28125173 </i>
    <i name="e_0_energy">    -21.28125173 </i>
   </energy>
  </scstep>
  <scstep>
   <time name="dav">    1.83    1.83</time>
   <time name="total">    1.94    1.94</time>
   <energy>
    <i name="e_fr_energy">    -21.28030895 </i>
    <i name="e_wo_entrp">    -21.28030895 </i>
    <i name="e_0_energy">    -21.28030895 </i>
   </energy>
  </scstep>
  <scstep>
   <time name="dav">    2.11    2.11</time>
   <time name="total">    2.22    2.23</time>
   <energy>
    <i name="e_fr_energy">    -21.28016385 </i>
    <i name="e_wo_entrp">    -21.28016385 </i>
    <i name="e_0_energy">    -21.28016385 </i>
   </energy>
  </scstep>
  <scstep>
   <time name="dav">    1.79    1.79</time>
   <time name="total">    1.90    1.90</time>
   <energy>
    <i name="e_fr_energy">    -21.27978607 </i>
    <i name="e_wo_entrp">    -21.27978607 </i>
    <i name="e_0_energy">    -21.27978607 </i>
   </energy>
  </scstep>
  <scstep>
   <time name="dav">    1.85    1.85</time>
   <time name="total">    1.96    1.96</time>
   <energy>
    <i name="e_fr_energy">    -21.27970495 </i>
    <i name="e_wo_entrp">    -21.27970495 </i>
    <i name="e_0_energy">    -21.27970495 </i>
   </energy>
  </scstep>
  <scstep>
   <time name="dav">    1.59    1.59</time>
   <time name="total">    1.70    1.70</time>
   <energy>
    <i name="e_fr_energy">    -21.28002086 </i>
    <i name="e_wo_entrp">    -21.28002086 </i>
    <i name="e_0_energy">    -21.28002086 </i>
   </energy>
  </scstep>
  <scstep>
   <time name="dav">    1.58    1.58</time>
   <time name="total">    1.69    1.69</time>
   <energy>
    <i name="e_fr_energy">    -21.28011470 </i>
    <i name="e_wo_entrp">    -21.28011470 </i>
    <i name="e_0_energy">    -21.28011470 </i>
   </energy>
  </scstep>
  <scstep>
   <time name="dav">    1.50    1.50</time>
   <time name="total">    1.61    1.61</time>
   <energy>
    <i name="e_fr_energy">    -21.28025947 </i>
    <i name="e_wo_entrp">    -21.28025947 </i>
    <i name="e_0_energy">    -21.28025947 </i>
   </energy>
  </scstep>
  <scstep>
   <time name="dav">    1.51    1.51</time>
   <time name="total">    1.62    1.63</time>
   <energy>
    <i name="e_fr_energy">    -21.28034763 </i>
    <i name="e_wo_entrp">    -21.28034763 </i>
    <i name="e_0_energy">    -21.28034763 </i>
   </energy>
  </scstep>
  <scstep>
   <time name="dav">    1.52    1.52</time>
   <time name="total">    1.63    1.63</time>
   <energy>
    <i name="e_fr_energy">    -21.28039086 </i>
    <i name="e_wo_entrp">    -21.28039086 </i>
    <i name="e_0_energy">    -21.28039086 </i>
   </energy>
  </scstep>
  <scstep>
   <time name="dav">    1.50    1.50</time>
   <time name="total">    1.52    1.53</time>
   <energy>
    <i name="alphaZ">      5.27205795 </i>
    <i name="ewald">   1871.51717676 </i>
    <i name="hartreedc">  -2480.59803718 </i>
    <i name="XCdc">     14.16187217 </i>
    <i name="pawpsdc">   2147.23109549 </i>
    <i name="pawaedc">  -2114.94267982 </i>
    <i name="eentropy">     -0.00000000 </i>
    <i name="bandstr">   -168.08966983 </i>
    <i name="atom">    704.16778566 </i>
    <i name="e_fr_energy">    -21.28039879 </i>
    <i name="e_wo_entrp">    -21.28039879 </i>
    <i name="e_0_energy">    -21.28039879 </i>
   </energy>
  </scstep>
  <structure>
   <crystal>
    <varray name="basis" >
     <v>       3.29456100       0.13199400       0.00000000 </v>
     <v>       0.18508200       4.61964500      -0.00005300 </v>
     <v>       0.00000000       0.00000000      20.02439000 </v>
    </varray>
    <i name="volume">    304.27606344 </i>
    <varray name="rec_basis" >
     <v>       0.30401857      -0.01218024       0.00000000 </v>
     <v>      -0.00868652       0.21681487       0.00000000 </v>
     <v>      -0.00000002       0.00000057       0.04993910 </v>
    </varray>
   </crystal>
   <varray name="positions" >
    <v>       0.50000000       0.91077300       0.55252100 </v>
    <v>       0.50000000       0.08922700       0.44747900 </v>
    <v>       0.00000000       0.41076900       0.44747900 </v>
    <v>       0.00000000       0.58923100       0.55252100 </v>
   </varray>
  </structure>
  <varray name="forces" >
   <v>      -1.06467471       0.25038632      -0.00066295 </v>
   <v>       1.06467471      -0.25038632       0.00066295 </v>
   <v>      -1.06466527       0.25035287       0.00065961 </v>
   <v>       1.06466527      -0.25035287      -0.00065961 </v>
  </varray>
  <varray name="stress" >
   <v>       4.83563238     -23.16745182       0.00016350 </v>
   <v>     -23.16745182       4.68914355       0.00030514 </v>
   <v>       0.00016347       0.00030514      -0.08175387 </v>
  </varray>
  <energy>
   <i name="e_fr_energy">    -21.28039879 </i>
   <i name="e_wo_entrp">    -21.28039879 </i>
   <i name="e_0_energy">     -0.00000000 </i>
  </energy>
  <time name="totalsc">   31.65   31.72</time>
 </calculation>
 <calculation>
  <scstep>
   <time name="dav">    1.53    1.53</time>
   <time name="total">    1.65    1.65</time>
   <energy>
    <i name="alphaZ">      5.27205795 </i>
    <i name="ewald">   1869.57038869 </i>
    <i name="hartreedc">  -2479.47050685 </i>
    <i name="XCdc">     14.10852398 </i>
    <i name="pawpsdc">   2146.68733664 </i>
    <i name="pawaedc">  -2114.39899006 </i>
    <i name="eentropy">     -0.00000000 </i>
    <i name="bandstr">   -167.29538264 </i>
    <i name="atom">    704.16778566 </i>
    <i name="e_fr_energy">    -21.35878663 </i>
    <i name="e_wo_entrp">    -21.35878663 </i>
    <i name="e_0_energy">    -21.35878663 </i>
   </energy>
  </scstep>
  <scstep>
   <time name="dav">    1.85    1.85</time>
   <time name="total">    1.96    1.96</time>
   <energy>
    <i name="e_fr_energy">    -21.37228385 </i>
    <i name="e_wo_entrp">    -21.37228385 </i>
    <i name="e_0_energy">    -21.37228385 </i>
   </energy>
  </scstep>
  <scstep>
   <time name="dav">    1.96    1.97</time>
   <time name="total">    2.07    2.08</time>
   <energy>
    <i name="e_fr_energy">    -21.37141061 </i>
    <i name="e_wo_entrp">    -21.37141061 </i>
    <i name="e_0_energy">    -21.37141061 </i>
   </energy>
  </scstep>
  <scstep>
   <time name="dav">    1.84    1.84</time>
   <time name="total">    1.95    1.95</time>
   <energy>
    <i name="e_fr_energy">    -21.37121061 </i>
    <i name="e_wo_entrp">    -21.37121061 </i>
    <i name="e_0_energy">    -21.37121061 </i>
   </energy>
  </scstep>
  <scstep>
   <time name="dav">    1.75    1.76</time>
   <time name="total">    1.87    1.87</time>
   <energy>
    <i name="e_fr_energy">    -21.37122369 </i>
    <i name="e_wo_entrp">    -21.37122369 </i>
    <i name="e_0_energy">    -21.37122369 </i>
   </energy>
  </scstep>
  <scstep>
   <time name="dav">    1.45    1.45</time>
   <time name="total">    1.47    1.47</time>
   <energy>
    <i name="alphaZ">      5.27205795 </i>
    <i name="ewald">   1869.57038869 </i>
    <i name="hartreedc">  -2479.36710606 </i>
    <i name="XCdc">     14.09263865 </i>
    <i name="pawpsdc">   2091.28921059 </i>
    <i name="pawaedc">  -2058.97807981 </i>
    <i name="eentropy">     -0.00000000 </i>
    <i name="bandstr">   -167.41812149 </i>
    <i name="atom">    704.16778566 </i>
    <i name="e_fr_energy">    -21.37122582 </i>
    <i name="e_wo_entrp">    -21.37122582 </i>
    <i name="e_0_energy">    -21.37122582 </i>
   </energy>
  </scstep>
  <structure>
   <crystal>
    <varray name="basis" >
     <v>       3.29456100       0.13199400       0.00000000 </v>
     <v>       0.18508200       4.61964500      -0.00005300 </v>
     <v>       0.00000000       0.00000000      20.02439000 </v>
    </varray>
    <i name="volume">    304.27606344 </i>
    <varray name="rec_basis" >
     <v>       0.30401857      -0.01218024       0.00000000 </v>
     <v>      -0.00868652       0.21681487       0.00000000 </v>
     <v>      -0.00000002       0.00000057       0.04993910 </v>
    </varray>
   </crystal>
   <varray name="positions" >
    <v>       0.49054259       0.91261208       0.55252005 </v>
    <v>       0.50945741       0.08738792       0.44747995 </v>
    <v>      -0.00945732       0.41260787       0.44747996 </v>
    <v>       0.00945732       0.58739213       0.55252004 </v>
   </varray>
  </structure>
  <varray name="forces" >
   <v>      -0.38463387      -0.08142474       0.00443474 </v>
   <v>       0.38463387       0.08142474      -0.00443474 </v>
   <v>      -0.38462711      -0.08145197      -0.00443281 </v>
   <v>       0.38462711       0.08145197       0.00443281 </v>
  </varray>
  <varray name="stress" >
   <v>       1.16057702     -14.09509174       0.00008546 </v>
   <v>     -14.09509177       0.53907995       0.00028043 </v>
   <v>       0.00008554       0.00028045       0.05849764 </v>
  </varray>
  <energy>
   <i name="e_fr_energy">    -21.37122582 </i>
   <i name="e_wo_entrp">    -21.37122582 </i>
   <i name="e_0_energy">     -0.00000000 </i>
  </energy>
  <time name="totalsc">   11.74   11.77</time>
 </calculation>
 <calculation>
  <scstep>
   <time name="dav">    1.53    1.53</time>
   <time name="total">    1.65    1.65</time>
   <energy>
    <i name="alphaZ">      5.27205795 </i>
    <i name="ewald">   1868.69229126 </i>
    <i name="hartreedc">  -2478.83055240 </i>
    <i name="XCdc">     14.06669697 </i>
    <i name="pawpsdc">   2091.72484916 </i>
    <i name="pawaedc">  -2059.41390860 </i>
    <i name="eentropy">     -0.00000000 </i>
    <i name="bandstr">   -167.05886745 </i>
    <i name="atom">    704.16778566 </i>
    <i name="e_fr_energy">    -21.37964745 </i>
    <i name="e_wo_entrp">    -21.37964745 </i>
    <i name="e_0_energy">    -21.37964745 </i>
   </energy>
  </scstep>
  <scstep>
   <time name="dav">    1.83    1.84</time>
   <time name="total">    1.95    1.95</time>
   <energy>
    <i name="e_fr_energy">    -21.38338719 </i>
    <i name="e_wo_entrp">    -21.38338719 </i>
    <i name="e_0_energy">    -21.38338719 </i>
   </energy>
  </scstep>
  <scstep>
   <time name="dav">    1.98    1.98</time>
   <time name="total">    2.09    2.09</time>
   <energy>
    <i name="e_fr_energy">    -21.38319183 </i>
    <i name="e_wo_entrp">    -21.38319183 </i>
    <i name="e_0_energy">    -21.38319183 </i>
   </energy>
  </scstep>
  <scstep>
   <time name="dav">    1.86    1.86</time>
   <time name="total">    1.97    1.97</time>
   <energy>
    <i name="e_fr_energy">    -21.38314435 </i>
    <i name="e_wo_entrp">    -21.38314435 </i>
    <i name="e_0_energy">    -21.38314435 </i>
   </energy>
  </scstep>
  <scstep>
   <time name="dav">    1.64    1.64</time>
   <time name="total">    1.75    1.75</time>
   <energy>
    <i name="e_fr_energy">    -21.38314766 </i>
    <i name="e_wo_entrp">    -21.38314766 </i>
    <i name="e_0_energy">    -21.38314766 </i>
   </energy>
  </scstep>
  <scstep>
   <time name="dav">    1.29    1.29</time>
   <time name="total">    1.31    1.31</time>
   <energy>
    <i name="alphaZ">      5.27205795 </i>
    <i name="ewald">   1868.69229126 </i>
    <i name="hartreedc">  -2478.82267761 </i>
    <i name="XCdc">     14.06055521 </i>
    <i name="pawpsdc">   2068.54058380 </i>
    <i name="pawaedc">  -2036.22036615 </i>
    <i name="eentropy">     -0.00000000 </i>
    <i name="bandstr">   -167.07337792 </i>
    <i name="atom">    704.16778566 </i>
    <i name="e_fr_energy">    -21.38314780 </i>
    <i name="e_wo_entrp">    -21.38314780 </i>
    <i name="e_0_energy">    -21.38314780 </i>
   </energy>
  </scstep>
  <structure>
   <crystal>
    <varray name="basis" >
     <v>       3.29456100       0.13199400       0.00000000 </v>
     <v>       0.18508200       4.61964500      -0.00005300 </v>
     <v>       0.00000000       0.00000000      20.02439000 </v>
    </varray>
    <i name="volume">    304.27606344 </i>
    <varray name="rec_basis" >
     <v>       0.30401857      -0.01218024       0.00000000 </v>
     <v>      -0.00868652       0.21681487       0.00000000 </v>
     <v>      -0.00000002       0.00000057       0.04993910 </v>
    </varray>
   </crystal>
   <varray name="positions" >
    <v>       0.48551368       0.91359000       0.55251954 </v>
    <v>       0.51448632       0.08641000       0.44748046 </v>
    <v>      -0.01448618       0.41358567       0.44748047 </v>
    <v>       0.01448618       0.58641433       0.55251953 </v>
   </varray>
  </structure>
  <varray name="forces" >
   <v>      -0.05059699      -0.20825243       0.00646825 </v>
   <v>       0.05059699       0.20825243      -0.00646825 </v>
   <v>      -0.05059148      -0.20827668      -0.00646406 </v>
   <v>       0.05059148       0.20827668       0.00646406 </v>
  </varray>
  <varray name="stress" >
   <v>      -0.14779550      -9.66074145       0.00004877 </v>
   <v>      -9.66074147      -0.94017845       0.00026985 </v>
   <v>       0.00004872       0.00026988       0.08944981 </v>
  </varray>
  <energy>
   <i name="e_fr_energy">    -21.38314780 </i>
   <i name="e_wo_entrp">    -21.38314780 </i>
   <i name="e_0_energy">     -0.00000000 </i>
  </energy>
  <time name="totalsc">   11.49   11.51</time>
 </calculation>
 <calculation>
  <scstep>
   <time name="dav">    1.56    1.57</time>
   <time name="total">    1.67    1.68</time>
   <energy>
    <i name="alphaZ">      5.27205795 </i>
    <i name="ewald">   1869.38643622 </i>
    <i name="hartreedc">  -2479.24346171 </i>
    <i name="XCdc">     14.08709162 </i>
    <i name="pawpsdc">   2068.63641254 </i>
    <i name="pawaedc">  -2036.31626011 </i>
    <i name="eentropy">     -0.00000000 </i>
    <i name="bandstr">   -167.37653395 </i>
    <i name="atom">    704.16778566 </i>
    <i name="e_fr_energy">    -21.38647177 </i>
    <i name="e_wo_entrp">    -21.38647177 </i>
    <i name="e_0_energy">    -21.38647177 </i>
   </energy>
  </scstep>
  <scstep>
   <time name="dav">    1.81    1.81</time>
   <time name="total">    1.93    1.93</time>
   <energy>
    <i name="e_fr_energy">    -21.38712864 </i>
    <i name="e_wo_entrp">    -21.38712864 </i>
    <i name="e_0_energy">    -21.38712864 </i>
   </energy>
  </scstep>
  <scstep>
   <time name="dav">    1.99    1.99</time>
   <time name="total">    2.10    2.10</time>
   <energy>
    <i name="e_fr_energy">    -21.38711621 </i>
    <i name="e_wo_entrp">    -21.38711621 </i>
    <i name="e_0_energy">    -21.38711621 </i>
   </energy>
  </scstep>
  <scstep>
   <time name="dav">    1.73    1.73</time>
   <time name="total">    1.84    1.85</time>
   <energy>
    <i name="e_fr_energy">    -21.38711394 </i>
    <i name="e_wo_entrp">    -21.38711394 </i>
    <i name="e_0_energy">    -21.38711394 </i>
   </energy>
  </scstep>
  <scstep>
   <time name="dav">    1.35    1.35</time>
   <time name="total">    1.46    1.46</time>
   <energy>
    <i name="e_fr_energy">    -21.38711473 </i>
    <i name="e_wo_entrp">    -21.38711473 </i>
    <i name="e_0_energy">    -21.38711473 </i>
   </energy>
  </scstep>
  <scstep>
   <time name="dav">    1.31    1.31</time>
   <time name="total">    1.33    1.33</time>
   <energy>
    <i name="alphaZ">      5.27205795 </i>
    <i name="ewald">   1869.38643622 </i>
    <i name="hartreedc">  -2479.24926340 </i>
    <i name="XCdc">     14.09024818 </i>
    <i name="pawpsdc">   2086.89655642 </i>
    <i name="pawaedc">  -2054.58314988 </i>
    <i name="eentropy">     -0.00000000 </i>
    <i name="bandstr">   -167.36778591 </i>
    <i name="atom">    704.16778566 </i>
    <i name="e_fr_energy">    -21.38711475 </i>
    <i name="e_wo_entrp">    -21.38711475 </i>
    <i name="e_0_energy">    -21.38711475 </i>
   </energy>
  </scstep>
  <structure>
   <crystal>
    <varray name="basis" >
     <v>       3.29456100       0.13199400       0.00000000 </v>
     <v>       0.18508200       4.61964500      -0.00005300 </v>
     <v>       0.00000000       0.00000000      20.02439000 </v>
    </varray>
    <i name="volume">    304.27606344 </i>
    <varray name="rec_basis" >
     <v>       0.30401857      -0.01218024       0.00000000 </v>
     <v>      -0.00868652       0.21681487       0.00000000 </v>
     <v>      -0.00000002       0.00000057       0.04993910 </v>
    </varray>
   </crystal>
   <varray name="positions" >
    <v>       0.48471519       0.91223340       0.55252984 </v>
    <v>       0.51528481       0.08776660       0.44747016 </v>
    <v>      -0.01528460       0.41222890       0.44747017 </v>
    <v>       0.01528460       0.58777110       0.55252983 </v>
   </varray>
  </structure>
  <varray name="forces" >
   <v>      -0.00443104      -0.07641336      -0.01673074 </v>
   <v>       0.00443104       0.07641336       0.01673074 </v>
   <v>      -0.00442639      -0.07643240       0.01673210 </v>
   <v>       0.00442639       0.07643240      -0.01673210 </v>
  </varray>
  <varray name="stress" >
   <v>       0.23286862      -9.12034775       0.00005221 </v>
   <v>      -9.12034778       0.88657695       0.00019343 </v>
   <v>       0.00005217       0.00019340      -0.46098300 </v>
  </varray>
  <energy>
   <i name="e_fr_energy">    -21.38711475 </i>
   <i name="e_wo_entrp">    -21.38711475 </i>
   <i name="e_0_energy">     -0.00000000 </i>
  </energy>
  <time name="totalsc">   11.11   11.14</time>
 </calculation>
 <calculation>
  <scstep>
   <time name="dav">    1.57    1.57</time>
   <time name="total">    1.68    1.68</time>
   <energy>
    <i name="alphaZ">      5.27205795 </i>
    <i name="ewald">   1869.74583801 </i>
    <i name="hartreedc">  -2479.45944817 </i>
    <i name="XCdc">     14.10372689 </i>
    <i name="pawpsdc">   2086.89112619 </i>
    <i name="pawaedc">  -2054.57766467 </i>
    <i name="eentropy">     -0.00000000 </i>
    <i name="bandstr">   -167.53086682 </i>
    <i name="atom">    704.16778566 </i>
    <i name="e_fr_energy">    -21.38744497 </i>
    <i name="e_wo_entrp">    -21.38744497 </i>
    <i name="e_0_energy">    -21.38744497 </i>
   </energy>
  </scstep>
  <scstep>
   <time name="dav">    1.83    1.84</time>
   <time name="total">    1.94    1.95</time>
   <energy>
    <i name="e_fr_energy">    -21.38761606 </i>
    <i name="e_wo_entrp">    -21.38761606 </i>
    <i name="e_0_energy">    -21.38761606 </i>
   </energy>
  </scstep>
  <scstep>
   <time name="dav">    1.95    1.95</time>
   <time name="total">    2.06    2.06</time>
   <energy>
    <i name="e_fr_energy">    -21.38761282 </i>
    <i name="e_wo_entrp">    -21.38761282 </i>
    <i name="e_0_energy">    -21.38761282 </i>
   </energy>
  </scstep>
  <scstep>
   <time name="dav">    1.38    1.38</time>
   <time name="total">    1.49    1.49</time>
   <energy>
    <i name="e_fr_energy">    -21.38761247 </i>
    <i name="e_wo_entrp">    -21.38761247 </i>
    <i name="e_0_energy">    -21.38761247 </i>
   </energy>
  </scstep>
  <scstep>
   <time name="dav">    1.25    1.25</time>
   <time name="total">    1.36    1.36</time>
   <energy>
    <i name="e_fr_energy">    -21.38761292 </i>
    <i name="e_wo_entrp">    -21.38761292 </i>
    <i name="e_0_energy">    -21.38761292 </i>
   </energy>
  </scstep>
  <scstep>
   <time name="dav">    1.18    1.19</time>
   <time name="total">    1.20    1.21</time>
   <energy>
    <i name="alphaZ">      5.27205795 </i>
    <i name="ewald">   1869.74583801 </i>
    <i name="hartreedc">  -2479.45552682 </i>
    <i name="XCdc">     14.10527644 </i>
    <i name="pawpsdc">   2096.36496153 </i>
    <i name="pawaedc">  -2064.05501923 </i>
    <i name="eentropy">     -0.00000000 </i>
    <i name="bandstr">   -167.53298664 </i>
    <i name="atom">    704.16778566 </i>
    <i name="e_fr_energy">    -21.38761310 </i>
    <i name="e_wo_entrp">    -21.38761310 </i>
    <i name="e_0_energy">    -21.38761310 </i>
   </energy>
  </scstep>
  <structure>
   <crystal>
    <varray name="basis" >
     <v>       3.29456100       0.13199400       0.00000000 </v>
     <v>       0.18508200       4.61964500      -0.00005300 </v>
     <v>       0.00000000       0.00000000      20.02439000 </v>
    </varray>
    <i name="volume">    304.27606344 </i>
    <varray name="rec_basis" >
     <v>       0.30401857      -0.01218024       0.00000000 </v>
     <v>      -0.00868652       0.21681487       0.00000000 </v>
     <v>      -0.00000002       0.00000057       0.04993910 </v>
    </varray>
   </crystal>
   <varray name="positions" >
    <v>       0.48430996       0.91154494       0.55253507 </v>
    <v>       0.51569004       0.08845506       0.44746493 </v>
    <v>      -0.01568979       0.41154034       0.44746494 </v>
    <v>       0.01568979       0.58845966       0.55253506 </v>
   </varray>
  </structure>
  <varray name="forces" >
   <v>       0.02032384      -0.00817201      -0.02818705 </v>
   <v>      -0.02032384       0.00817201       0.02818705 </v>
   <v>       0.02032808      -0.00818852       0.02818685 </v>
   <v>      -0.02032808       0.00818852      -0.02818685 </v>
  </varray>
  <varray name="stress" >
   <v>       0.44498482      -8.81533268       0.00005365 </v>
   <v>      -8.81533270       1.83329577       0.00015374 </v>
   <v>       0.00005361       0.00015378      -0.71044843 </v>
  </varray>
  <energy>
   <i name="e_fr_energy">    -21.38761310 </i>
   <i name="e_wo_entrp">    -21.38761310 </i>
   <i name="e_0_energy">     -0.00000000 </i>
  </energy>
  <time name="totalsc">   10.51   10.54</time>
 </calculation>
 <calculation>
  <scstep>
   <time name="dav">    1.29    1.29</time>
   <time name="total">    1.40    1.40</time>
   <energy>
    <i name="alphaZ">      5.27205795 </i>
    <i name="ewald">   1869.73712047 </i>
    <i name="hartreedc">  -2479.44692408 </i>
    <i name="XCdc">     14.10491000 </i>
    <i name="pawpsdc">   2096.39896037 </i>
    <i name="pawaedc">  -2064.08898990 </i>
    <i name="eentropy">     -0.00000000 </i>
    <i name="bandstr">   -167.53253386 </i>
    <i name="atom">    704.16778566 </i>
    <i name="e_fr_energy">    -21.38761339 </i>
    <i name="e_wo_entrp">    -21.38761339 </i>
    <i name="e_0_energy">    -21.38761339 </i>
   </energy>
  </scstep>
  <scstep>
   <time name="dav">    1.15    1.16</time>
   <time name="total">    1.27    1.27</time>
   <energy>
    <i name="e_fr_energy">    -21.38761361 </i>
    <i name="e_wo_entrp">    -21.38761361 </i>
    <i name="e_0_energy">    -21.38761361 </i>
   </energy>
  </scstep>
  <scstep>
   <time name="dav">    1.13    1.13</time>
   <time name="total">    1.24    1.24</time>
   <energy>
    <i name="e_fr_energy">    -21.38761371 </i>
    <i name="e_wo_entrp">    -21.38761371 </i>
    <i name="e_0_energy">    -21.38761371 </i>
   </energy>
  </scstep>
  <scstep>
   <time name="dav">    1.16    1.16</time>
   <time name="total">    1.27    1.27</time>
   <energy>
    <i name="e_fr_energy">    -21.38761382 </i>
    <i name="e_wo_entrp">    -21.38761382 </i>
    <i name="e_0_energy">    -21.38761382 </i>
   </energy>
  </scstep>
  <scstep>
   <time name="dav">    1.20    1.20</time>
   <time name="total">    1.31    1.31</time>
   <energy>
    <i name="e_fr_energy">    -21.38761396 </i>
    <i name="e_wo_entrp">    -21.38761396 </i>
    <i name="e_0_energy">    -21.38761396 </i>
   </energy>
  </scstep>
  <scstep>
   <time name="dav">    1.17    1.17</time>
   <time name="total">    1.18    1.19</time>
   <energy>
    <i name="alphaZ">      5.27205795 </i>
    <i name="ewald">   1869.73712047 </i>
    <i name="hartreedc">  -2479.44206372 </i>
    <i name="XCdc">     14.10483047 </i>
    <i name="pawpsdc">   2096.20651429 </i>
    <i name="pawaedc">  -2063.89645823 </i>
    <i name="eentropy">     -0.00000000 </i>
    <i name="bandstr">   -167.53740096 </i>
    <i name="atom">    704.16778566 </i>
    <i name="e_fr_energy">    -21.38761406 </i>
    <i name="e_wo_entrp">    -21.38761406 </i>
    <i name="e_0_energy">    -21.38761406 </i>
   </energy>
  </scstep>
  <structure>
   <crystal>
    <varray name="basis" >
     <v>       3.29456100       0.13199400       0.00000000 </v>
     <v>       0.18508200       4.61964500      -0.00005300 </v>
     <v>       0.00000000       0.00000000      20.02439000 </v>
    </varray>
    <i name="volume">    304.27606344 </i>
    <varray name="rec_basis" >
     <v>       0.30401857      -0.01218024       0.00000000 </v>
     <v>      -0.00868652       0.21681487       0.00000000 </v>
     <v>      -0.00000002       0.00000057       0.04993910 </v>
    </varray>
   </crystal>
   <varray name="positions" >
    <v>       0.48431973       0.91156153       0.55253494 </v>
    <v>       0.51568027       0.08843847       0.44746506 </v>
    <v>      -0.01568003       0.41155693       0.44746506 </v>
    <v>       0.01568003       0.58844307       0.55253494 </v>
   </varray>
  </structure>
  <varray name="forces" >
   <v>       0.01966186      -0.00985014      -0.02785332 </v>
   <v>      -0.01966186       0.00985014       0.02785332 </v>
   <v>       0.01966612      -0.00986674       0.02785314 </v>
   <v>      -0.01966612       0.00986674      -0.02785314 </v>
  </varray>
  <varray name="stress" >
   <v>       0.43570179      -8.82672422       0.00005379 </v>
   <v>      -8.82672423       1.81306707       0.00015518 </v>
   <v>       0.00005379       0.00015512      -0.69167589 </v>
  </varray>
  <energy>
   <i name="e_fr_energy">    -21.38761406 </i>
   <i name="e_wo_entrp">    -21.38761406 </i>
   <i name="e_0_energy">     -0.00000000 </i>
  </energy>
  <time name="totalsc">    8.44    8.45</time>
 </calculation>
 <calculation>
  <scstep>
   <time name="dav">    1.45    1.46</time>
   <time name="total">    1.56    1.57</time>
   <energy>
    <i name="alphaZ">      5.27205795 </i>
    <i name="ewald">   1870.71270742 </i>
    <i name="hartreedc">  -2480.34326949 </i>
    <i name="XCdc">     14.11302837 </i>
    <i name="pawpsdc">   2096.19859482 </i>
    <i name="pawaedc">  -2063.88854009 </i>
    <i name="eentropy">     -0.00000000 </i>
    <i name="bandstr">   -167.62007955 </i>
    <i name="atom">    704.16778566 </i>
    <i name="e_fr_energy">    -21.38771491 </i>
    <i name="e_wo_entrp">    -21.38771491 </i>
    <i name="e_0_energy">    -21.38771491 </i>
   </energy>
  </scstep>
  <scstep>
   <time name="dav">    1.86    1.86</time>
   <time name="total">    1.97    1.97</time>
   <energy>
    <i name="e_fr_energy">    -21.38774245 </i>
    <i name="e_wo_entrp">    -21.38774245 </i>
    <i name="e_0_energy">    -21.38774245 </i>
   </energy>
  </scstep>
  <scstep>
   <time name="dav">    1.25    1.25</time>
   <time name="total">    1.36    1.36</time>
   <energy>
    <i name="e_fr_energy">    -21.38774186 </i>
    <i name="e_wo_entrp">    -21.38774186 </i>
    <i name="e_0_energy">    -21.38774186 </i>
   </energy>
  </scstep>
  <scstep>
   <time name="dav">    1.19    1.19</time>
   <time name="total">    1.30    1.30</time>
   <energy>
    <i name="e_fr_energy">    -21.38774235 </i>
    <i name="e_wo_entrp">    -21.38774235 </i>
    <i name="e_0_energy">    -21.38774235 </i>
   </energy>
  </scstep>
  <scstep>
   <time name="dav">    1.15    1.15</time>
   <time name="total">    1.26    1.26</time>
   <energy>
    <i name="e_fr_energy">    -21.38774225 </i>
    <i name="e_wo_entrp">    -21.38774225 </i>
    <i name="e_0_energy">    -21.38774225 </i>
   </energy>
  </scstep>
  <scstep>
   <time name="dav">    1.11    1.11</time>
   <time name="total">    1.13    1.13</time>
   <energy>
    <i name="alphaZ">      5.27205795 </i>
    <i name="ewald">   1870.71270742 </i>
    <i name="hartreedc">  -2480.34432320 </i>
    <i name="XCdc">     14.11376195 </i>
    <i name="pawpsdc">   2100.56675256 </i>
    <i name="pawaedc">  -2068.25832851 </i>
    <i name="eentropy">     -0.00000000 </i>
    <i name="bandstr">   -167.61815611 </i>
    <i name="atom">    704.16778566 </i>
    <i name="e_fr_energy">    -21.38774228 </i>
    <i name="e_wo_entrp">    -21.38774228 </i>
    <i name="e_0_energy">    -21.38774228 </i>
   </energy>
  </scstep>
  <structure>
   <crystal>
    <varray name="basis" >
     <v>       3.29456100       0.13199400       0.00000000 </v>
     <v>       0.18508200       4.61964500      -0.00005300 </v>
     <v>       0.00000000       0.00000000      20.02439000 </v>
    </varray>
    <i name="volume">    304.27606344 </i>
    <varray name="rec_basis" >
     <v>       0.30401857      -0.01218024       0.00000000 </v>
     <v>      -0.00868652       0.21681487       0.00000000 </v>
     <v>      -0.00000002       0.00000057       0.04993910 </v>
    </varray>
   </crystal>
   <varray name="positions" >
    <v>       0.48452705       0.91146798       0.55248608 </v>
    <v>       0.51547295       0.08853202       0.44751392 </v>
    <v>      -0.01547265       0.41146326       0.44751393 </v>
    <v>       0.01547265       0.58853674       0.55248607 </v>
   </varray>
  </structure>
  <varray name="forces" >
   <v>       0.00485181      -0.00271735      -0.01449487 </v>
   <v>      -0.00485181       0.00271735       0.01449487 </v>
   <v>       0.00485540      -0.00273071       0.01449431 </v>
   <v>      -0.00485540       0.00273071      -0.01449431 </v>
  </varray>
  <varray name="stress" >
   <v>       0.53099671      -9.00931309       0.00006332 </v>
   <v>      -9.00931308       1.98488348       0.00011863 </v>
   <v>       0.00006328       0.00011860      -0.40204870 </v>
  </varray>
  <energy>
   <i name="e_fr_energy">    -21.38774228 </i>
   <i name="e_wo_entrp">    -21.38774228 </i>
   <i name="e_0_energy">     -0.00000000 </i>
  </energy>
  <time name="totalsc">    9.35    9.37</time>
 </calculation>
 <calculation>
  <scstep>
   <time name="dav">    1.46    1.46</time>
   <time name="total">    1.57    1.57</time>
   <energy>
    <i name="alphaZ">      5.27205795 </i>
    <i name="ewald">   1871.41250318 </i>
    <i name="hartreedc">  -2480.98978461 </i>
    <i name="XCdc">     14.11962915 </i>
    <i name="pawpsdc">   2100.68126866 </i>
    <i name="pawaedc">  -2068.37283401 </i>
    <i name="eentropy">     -0.00000000 </i>
    <i name="bandstr">   -167.67838251 </i>
    <i name="atom">    704.16778566 </i>
    <i name="e_fr_energy">    -21.38775652 </i>
    <i name="e_wo_entrp">    -21.38775652 </i>
    <i name="e_0_energy">    -21.38775652 </i>
   </energy>
  </scstep>
  <scstep>
   <time name="dav">    1.89    1.89</time>
   <time name="total">    2.00    2.00</time>
   <energy>
    <i name="e_fr_energy">    -21.38777108 </i>
    <i name="e_wo_entrp">    -21.38777108 </i>
    <i name="e_0_energy">    -21.38777108 </i>
   </energy>
  </scstep>
  <scstep>
   <time name="dav">    1.22    1.22</time>
   <time name="total">    1.33    1.33</time>
   <energy>
    <i name="e_fr_energy">    -21.38777088 </i>
    <i name="e_wo_entrp">    -21.38777088 </i>
    <i name="e_0_energy">    -21.38777088 </i>
   </energy>
  </scstep>
  <scstep>
   <time name="dav">    1.17    1.17</time>
   <time name="total">    1.28    1.28</time>
   <energy>
    <i name="e_fr_energy">    -21.38777126 </i>
    <i name="e_wo_entrp">    -21.38777126 </i>
    <i name="e_0_energy">    -21.38777126 </i>
   </energy>
  </scstep>
  <scstep>
   <time name="dav">    1.11    1.11</time>
   <time name="total">    1.22    1.22</time>
   <energy>
    <i name="e_fr_energy">    -21.38777120 </i>
    <i name="e_wo_entrp">    -21.38777120 </i>
    <i name="e_0_energy">    -21.38777120 </i>
   </energy>
  </scstep>
  <scstep>
   <time name="dav">    1.06    1.06</time>
   <time name="total">    1.08    1.08</time>
   <energy>
    <i name="alphaZ">      5.27205795 </i>
    <i name="ewald">   1871.41250318 </i>
    <i name="hartreedc">  -2480.98843569 </i>
    <i name="XCdc">     14.12014636 </i>
    <i name="pawpsdc">   2103.94915141 </i>
    <i name="pawaedc">  -2071.64188580 </i>
    <i name="eentropy">     -0.00000000 </i>
    <i name="bandstr">   -167.67909431 </i>
    <i name="atom">    704.16778566 </i>
    <i name="e_fr_energy">    -21.38777123 </i>
    <i name="e_wo_entrp">    -21.38777123 </i>
    <i name="e_0_energy">    -21.38777123 </i>
   </energy>
  </scstep>
  <structure>
   <crystal>
    <varray name="basis" >
     <v>       3.29456100       0.13199400       0.00000000 </v>
     <v>       0.18508200       4.61964500      -0.00005300 </v>
     <v>       0.00000000       0.00000000      20.02439000 </v>
    </varray>
    <i name="volume">    304.27606344 </i>
    <varray name="rec_basis" >
     <v>       0.30401857      -0.01218024       0.00000000 </v>
     <v>      -0.00868652       0.21681487       0.00000000 </v>
     <v>      -0.00000002       0.00000057       0.04993910 </v>
    </varray>
   </crystal>
   <varray name="positions" >
    <v>       0.48467573       0.91140089       0.55245104 </v>
    <v>       0.51532427       0.08859911       0.44754896 </v>
    <v>      -0.01532393       0.41139608       0.44754897 </v>
    <v>       0.01532393       0.58860392       0.55245103 </v>
   </varray>
  </structure>
  <varray name="forces" >
   <v>      -0.00575626       0.00230403      -0.00505374 </v>
   <v>       0.00575626      -0.00230403       0.00505374 </v>
   <v>      -0.00575314       0.00229290       0.00505294 </v>
   <v>       0.00575314      -0.00229290      -0.00505294 </v>
  </varray>
  <varray name="stress" >
   <v>       0.60052765      -9.13971078       0.00007005 </v>
   <v>      -9.13971077       2.11044542       0.00009183 </v>
   <v>       0.00007002       0.00009180      -0.19130359 </v>
  </varray>
  <energy>
   <i name="e_fr_energy">    -21.38777123 </i>
   <i name="e_wo_entrp">    -21.38777123 </i>
   <i name="e_0_energy">     -0.00000000 </i>
  </energy>
  <time name="totalsc">    9.18    9.20</time>
  <eigenvalues>
   <array>
    <dimension dim="1">band</dimension>
    <dimension dim="2">kpoint</dimension>
    <dimension dim="3">spin</dimension>
    <field>eigene</field>
    <field>occ</field>
    <set>
     <set comment="spin 1">
      <set comment="kpoint 1">
       <r>  -17.2281    1.0000 </r>
       <r>  -14.7466    1.0000 </r>
       <r>  -11.3915    1.0000 </r>
       <r>   -7.9186    1.0000 </r>
       <r>   -6.9330    1.0000 </r>
       <r>   -6.8056    1.0000 </r>
       <r>   -5.5166    1.0000 </r>
       <r>   -4.0123    1.0000 </r>
       <r>   -3.9411    1.0000 </r>
       <r>   -2.2390    1.0000 </r>
       <r>   -1.3640    0.0000 </r>
       <r>   -0.5932    0.0000 </r>
       <r>    0.1739    0.0000 </r>
       <r>    1.2366    0.0000 </r>
       <r>    2.1504    0.0000 </r>
       <r>    2.3077    0.0000 </r>
      </set>
      <set comment="kpoint 2">
       <r>  -17.2009    1.0000 </r>
       <r>  -14.7185    1.0000 </r>
       <r>  -11.4009    1.0000 </r>
       <r>   -7.8986    1.0000 </r>
       <r>   -6.9525    1.0000 </r>
       <r>   -6.7819    1.0000 </r>
       <r>   -5.6938    1.0000 </r>
       <r>   -4.1895    1.0000 </r>
       <r>   -3.9351    1.0000 </r>
       <r>   -2.2403    1.0000 </r>
       <r>   -1.3399    0.0000 </r>
       <r>   -0.3458    0.0000 </r>
       <r>    0.3126    0.0000 </r>
       <r>    1.1752    0.0000 </r>
       <r>    2.1778    0.0000 </r>
       <r>    2.3380    0.0000 </r>
      </set>
      <set comment="kpoint 3">
       <r>  -17.1195    1.0000 </r>
       <r>  -14.6344    1.0000 </r>
       <r>  -11.4344    1.0000 </r>
       <r>   -7.8392    1.0000 </r>
       <r>   -7.0315    1.0000 </r>
       <r>   -6.7142    1.0000 </r>
       <r>   -6.1214    1.0000 </r>
       <r>   -4.6078    1.0000 </r>
       <r>   -3.9038    1.0000 </r>
       <r>   -2.2629    1.0000 </r>
       <r>   -1.2670    0.0000 </r>
       <r>    0.2785    0.0000 </r>
       <r>    0.3134    0.0000 </r>
       <r>    1.3973    0.0000 </r>
       <r>    2.2520    0.0000 </r>
       <r>    2.4290    0.0000 </r>
      </set>
      <set comment="kpoint 4">
       <r>  -16.9842    1.0000 </r>
       <r>  -14.4943    1.0000 </r>
       <r>  -11.5083    1.0000 </r>
       <r>   -7.7429    1.0000 </r>
       <r>   -7.2328    1.0000 </r>
       <r>   -6.7131    1.0000 </r>
       <r>   -6.5167    1.0000 </r>
       <r>   -5.0295    1.0000 </r>
       <r>   -3.8629    1.0000 </r>
       <r>   -2.3270    1.0000 </r>
       <r>   -1.1470    0.0000 </r>
       <r>   -0.1332    0.0000 </r>
       <r>    1.2274    0.0000 </r>
       <r>    1.9631    0.0000 </r>
       <r>    2.2472    0.0000 </r>
       <r>    2.5824    0.0000 </r>
      </set>
      <set comment="kpoint 5">
       <r>  -16.7957    1.0000 </r>
       <r>  -14.2988    1.0000 </r>
       <r>  -11.6480    1.0000 </r>
       <r>   -7.6247    1.0000 </r>
       <r>   -7.6131    1.0000 </r>
       <r>   -7.1360    1.0000 </r>
       <r>   -6.3985    1.0000 </r>
       <r>   -5.2853    1.0000 </r>
       <r>   -3.8370    1.0000 </r>
       <r>   -2.4437    1.0000 </r>
       <r>   -0.9847    0.0000 </r>
       <r>   -0.5926    0.0000 </r>
       <r>    1.7639    0.0000 </r>
       <r>    2.0257    0.0000 </r>
       <r>    2.2754    0.0000 </r>
       <r>    2.7087    0.0000 </r>
      </set>
      <set comment="kpoint 6">
       <r>  -16.5549    1.0000 </r>
       <r>  -14.0483    1.0000 </r>
       <r>  -11.8792    1.0000 </r>
       <r>   -8.1851    1.0000 </r>
       <r>   -7.4829    1.0000 </r>
       <r>   -7.4617    1.0000 </r>
       <r>   -6.1946    1.0000 </r>
       <r>   -5.3481    1.0000 </r>
       <r>   -3.8617    1.0000 </r>
       <r>   -2.6218    1.0000 </r>
       <r>   -0.9575    0.0000 </r>
       <r>   -0.7903    0.0000 </r>
       <r>    1.2268    0.0000 </r>
       <r>    1.4512    0.0000 </r>
       <r>    2.7899    0.0000 </r>
       <r>    2.9737    0.0000 </r>
      </set>
      <set comment="kpoint 7">
       <r>  -16.2634    1.0000 </r>
       <r>  -13.7440    1.0000 </r>
       <r>  -12.2123    1.0000 </r>
       <r>   -8.8361    1.0000 </r>
       <r>   -7.6779    1.0000 </r>
       <r>   -7.2991    1.0000 </r>
       <r>   -5.9532    1.0000 </r>
       <r>   -5.2831    1.0000 </r>
       <r>   -3.9674    1.0000 </r>
       <r>   -2.8642    1.0000 </r>
       <r>   -1.1504    0.0000 </r>
       <r>   -0.5934    0.0000 </r>
       <r>    0.7416    0.0000 </r>
       <r>    0.7885    0.0000 </r>
       <r>    2.3766    0.0000 </r>
       <r>    3.2507    0.0000 </r>
      </set>
      <set comment="kpoint 8">
       <r>  -15.9229    1.0000 </r>
       <r>  -13.3899    1.0000 </r>
       <r>  -12.6306    1.0000 </r>
       <r>   -9.5128    1.0000 </r>
       <r>   -7.7227    1.0000 </r>
       <r>   -7.1501    1.0000 </r>
       <r>   -5.6878    1.0000 </r>
       <r>   -5.1545    1.0000 </r>
       <r>   -4.1404    1.0000 </r>
       <r>   -3.1614    1.0000 </r>
       <r>   -1.1512    0.0000 </r>
       <r>   -0.4985    0.0000 </r>
       <r>    0.1777    0.0000 </r>
       <r>    0.4443    0.0000 </r>
       <r>    1.8680    0.0000 </r>
       <r>    2.9962    0.0000 </r>
      </set>
      <set comment="kpoint 9">
       <r>  -15.5364    1.0000 </r>
       <r>  -13.1667    1.0000 </r>
       <r>  -12.9240    1.0000 </r>
       <r>  -10.1805    1.0000 </r>
       <r>   -7.6472    1.0000 </r>
       <r>   -7.0508    1.0000 </r>
       <r>   -5.4166    1.0000 </r>
       <r>   -5.0115    1.0000 </r>
       <r>   -4.3106    1.0000 </r>
       <r>   -3.4911    1.0000 </r>
       <r>   -1.0106    0.0000 </r>
       <r>   -0.6517    0.0000 </r>
       <r>   -0.3095    0.0000 </r>
       <r>    0.4934    0.0000 </r>
       <r>    1.3620    0.0000 </r>
       <r>    2.5926    0.0000 </r>
      </set>
      <set comment="kpoint 10">
       <r>  -15.1077    1.0000 </r>
       <r>  -13.6418    1.0000 </r>
       <r>  -12.4944    1.0000 </r>
       <r>  -10.8211    1.0000 </r>
       <r>   -7.4925    1.0000 </r>
       <r>   -7.0412    1.0000 </r>
       <r>   -5.1673    1.0000 </r>
       <r>   -4.9022    1.0000 </r>
       <r>   -4.3904    1.0000 </r>
       <r>   -3.8216    1.0000 </r>
       <r>   -0.9401    0.0000 </r>
       <r>   -0.8968    0.0000 </r>
       <r>   -0.4642    0.0000 </r>
       <r>    0.6221    0.0000 </r>
       <r>    1.0138    0.0000 </r>
       <r>    2.1452    0.0000 </r>
      </set>
      <set comment="kpoint 11">
       <r>  -14.6425    1.0000 </r>
       <r>  -14.1493    1.0000 </r>
       <r>  -11.9840    1.0000 </r>
       <r>  -11.4244    1.0000 </r>
       <r>   -7.3045    1.0000 </r>
       <r>   -7.1360    1.0000 </r>
       <r>   -4.9768    1.0000 </r>
       <r>   -4.8821    1.0000 </r>
       <r>   -4.3211    1.0000 </r>
       <r>   -4.1140    1.0000 </r>
       <r>   -1.0577    0.0000 </r>
       <r>   -1.0556    0.0000 </r>
       <r>   -0.1672    0.0000 </r>
       <r>    0.2574    0.0000 </r>
       <r>    1.2748    0.0000 </r>
       <r>    1.6946    0.0000 </r>
      </set>
      <set comment="kpoint 12">
       <r>  -17.2063    1.0000 </r>
       <r>  -14.7764    1.0000 </r>
       <r>  -11.4034    1.0000 </r>
       <r>   -8.0733    1.0000 </r>
       <r>   -6.8428    1.0000 </r>
       <r>   -6.7082    1.0000 </r>
       <r>   -5.5020    1.0000 </r>
       <r>   -4.0237    1.0000 </r>
       <r>   -3.8446    1.0000 </r>
       <r>   -2.4450    1.0000 </r>
       <r>   -1.1740    0.0000 </r>
       <r>   -0.5764    0.0000 </r>
       <r>    0.1439    0.0000 </r>
       <r>    1.2211    0.0000 </r>
       <r>    2.2099    0.0000 </r>
       <r>    2.3385    0.0000 </r>
      </set>
      <set comment="kpoint 13">
       <r>  -17.1831    1.0000 </r>
       <r>  -14.7444    1.0000 </r>
       <r>  -11.3998    1.0000 </r>
       <r>   -8.0442    1.0000 </r>
       <r>   -6.8526    1.0000 </r>
       <r>   -6.7362    1.0000 </r>
       <r>   -5.6350    1.0000 </r>
       <r>   -4.2423    1.0000 </r>
       <r>   -3.8585    1.0000 </r>
       <r>   -2.4217    1.0000 </r>
       <r>   -1.1687    0.0000 </r>
       <r>   -0.3526    0.0000 </r>
       <r>    0.2676    0.0000 </r>
       <r>    1.2034    0.0000 </r>
       <r>    2.2285    0.0000 </r>
       <r>    2.3627    0.0000 </r>
      </set>
      <set comment="kpoint 14">
       <r>  -17.1057    1.0000 </r>
       <r>  -14.6567    1.0000 </r>
       <r>  -11.4180    1.0000 </r>
       <r>   -7.9877    1.0000 </r>
       <r>   -6.9070    1.0000 </r>
       <r>   -6.7593    1.0000 </r>
       <r>   -5.9904    1.0000 </r>
       <r>   -4.6829    1.0000 </r>
       <r>   -3.8641    1.0000 </r>
       <r>   -2.4122    1.0000 </r>
       <r>   -1.1188    0.0000 </r>
       <r>    0.2165    0.0000 </r>
       <r>    0.2888    0.0000 </r>
       <r>    1.4813    0.0000 </r>
       <r>    2.2893    0.0000 </r>
       <r>    2.4473    0.0000 </r>
      </set>
      <set comment="kpoint 15">
       <r>  -16.9745    1.0000 </r>
       <r>  -14.5132    1.0000 </r>
       <r>  -11.4753    1.0000 </r>
       <r>   -7.9256    1.0000 </r>
       <r>   -7.0557    1.0000 </r>
       <r>   -6.9009    1.0000 </r>
       <r>   -6.2719    1.0000 </r>
       <r>   -5.1133    1.0000 </r>
       <r>   -3.8670    1.0000 </r>
       <r>   -2.4404    1.0000 </r>
       <r>   -1.0249    0.0000 </r>
       <r>   -0.1709    0.0000 </r>
       <r>    1.1968    0.0000 </r>
       <r>    2.0276    0.0000 </r>
       <r>    2.1056    0.0000 </r>
       <r>    2.4828    0.0000 </r>
      </set>
      <set comment="kpoint 16">
       <r>  -16.7902    1.0000 </r>
       <r>  -14.3145    1.0000 </r>
       <r>  -11.5988    1.0000 </r>
       <r>   -7.9577    1.0000 </r>
       <r>   -7.2792    1.0000 </r>
       <r>   -7.2338    1.0000 </r>
       <r>   -6.2782    1.0000 </r>
       <r>   -5.3624    1.0000 </r>
       <r>   -3.8871    1.0000 </r>
       <r>   -2.5236    1.0000 </r>
       <r>   -0.8866    0.0000 </r>
       <r>   -0.6006    0.0000 </r>
       <r>    1.4443    0.0000 </r>
       <r>    2.2370    0.0000 </r>
       <r>    2.3474    0.0000 </r>
       <r>    2.6594    0.0000 </r>
      </set>
      <set comment="kpoint 17">
       <r>  -16.5538    1.0000 </r>
       <r>  -14.0610    1.0000 </r>
       <r>  -11.8169    1.0000 </r>
       <r>   -8.3170    1.0000 </r>
       <r>   -7.5410    1.0000 </r>
       <r>   -7.3296    1.0000 </r>
       <r>   -6.1505    1.0000 </r>
       <r>   -5.4133    1.0000 </r>
       <r>   -3.9507    1.0000 </r>
       <r>   -2.6743    1.0000 </r>
       <r>   -0.9369    0.0000 </r>
       <r>   -0.7120    0.0000 </r>
       <r>    0.8906    0.0000 </r>
       <r>    1.8108    0.0000 </r>
       <r>    2.8579    0.0000 </r>
       <r>    3.0271    0.0000 </r>
      </set>
      <set comment="kpoint 18">
       <r>  -16.2669    1.0000 </r>
       <r>  -13.7538    1.0000 </r>
       <r>  -12.1425    1.0000 </r>
       <r>   -8.9125    1.0000 </r>
       <r>   -7.7133    1.0000 </r>
       <r>   -7.2227    1.0000 </r>
       <r>   -5.9682    1.0000 </r>
       <r>   -5.3461    1.0000 </r>
       <r>   -4.0684    1.0000 </r>
       <r>   -2.8942    1.0000 </r>
       <r>   -1.1123    0.0000 </r>
       <r>   -0.5455    0.0000 </r>
       <r>    0.4399    0.0000 </r>
       <r>    1.1285    0.0000 </r>
       <r>    2.7259    0.0000 </r>
       <r>    3.1393    0.0000 </r>
      </set>
      <set comment="kpoint 19">
       <r>  -15.9316    1.0000 </r>
       <r>  -13.3965    1.0000 </r>
       <r>  -12.5590    1.0000 </r>
       <r>   -9.5698    1.0000 </r>
       <r>   -7.7389    1.0000 </r>
       <r>   -7.0952    1.0000 </r>
       <r>   -5.7610    1.0000 </r>
       <r>   -5.2351    1.0000 </r>
       <r>   -4.2043    1.0000 </r>
       <r>   -3.1683    1.0000 </r>
       <r>   -1.1106    0.0000 </r>
       <r>   -0.5604    0.0000 </r>
       <r>    0.2768    0.0000 </r>
       <r>    0.4784    0.0000 </r>
       <r>    2.2819    0.0000 </r>
       <r>    2.8819    0.0000 </r>
      </set>
      <set comment="kpoint 20">
       <r>  -15.5509    1.0000 </r>
       <r>  -13.1142    1.0000 </r>
       <r>  -12.9103    1.0000 </r>
       <r>  -10.2270    1.0000 </r>
       <r>   -7.6457    1.0000 </r>
       <r>   -7.0184    1.0000 </r>
       <r>   -5.5546    1.0000 </r>
       <r>   -5.1293    1.0000 </r>
       <r>   -4.2826    1.0000 </r>
       <r>   -3.4662    1.0000 </r>
       <r>   -0.9578    0.0000 </r>
       <r>   -0.8221    0.0000 </r>
       <r>   -0.0873    0.0000 </r>
       <r>    0.4797    0.0000 </r>
       <r>    1.7768    0.0000 </r>
       <r>    2.4889    0.0000 </r>
      </set>
      <set comment="kpoint 21">
       <r>  -15.1292    1.0000 </r>
       <r>  -13.5742    1.0000 </r>
       <r>  -12.4968    1.0000 </r>
       <r>  -10.8590    1.0000 </r>
       <r>   -7.4766    1.0000 </r>
       <r>   -7.0436    1.0000 </r>
       <r>   -5.3797    1.0000 </r>
       <r>   -5.0325    1.0000 </r>
       <r>   -4.2631    1.0000 </r>
       <r>   -3.7500    1.0000 </r>
       <r>   -1.0921    0.0000 </r>
       <r>   -0.7002    0.0000 </r>
       <r>   -0.5185    0.0000 </r>
       <r>    0.8326    0.0000 </r>
       <r>    1.2531    0.0000 </r>
       <r>    2.0612    0.0000 </r>
      </set>
      <set comment="kpoint 22">
       <r>  -14.6733    1.0000 </r>
       <r>  -14.0849    1.0000 </r>
       <r>  -11.9856    1.0000 </r>
       <r>  -11.4526    1.0000 </r>
       <r>   -7.2820    1.0000 </r>
       <r>   -7.1781    1.0000 </r>
       <r>   -5.2624    1.0000 </r>
       <r>   -4.9307    1.0000 </r>
       <r>   -4.1767    1.0000 </r>
       <r>   -3.9865    1.0000 </r>
       <r>   -1.2493    0.0000 </r>
       <r>   -0.7989    0.0000 </r>
       <r>   -0.3474    0.0000 </r>
       <r>    0.7382    0.0000 </r>
       <r>    1.2515    0.0000 </r>
       <r>    1.6473    0.0000 </r>
      </set>
      <set comment="kpoint 23">
       <r>  -14.5819    1.0000 </r>
       <r>  -14.1948    1.0000 </r>
       <r>  -11.9979    1.0000 </r>
[...]
       <r>    2.9470    0.0000 </r>
       <r>    3.6790    0.0000 </r>
      </set>
      <set comment="kpoint 153">
       <r>  -15.2275    1.0000 </r>
       <r>  -15.1887    1.0000 </r>
       <r>  -10.9631    1.0000 </r>
       <r>  -10.5215    1.0000 </r>
       <r>   -7.8979    1.0000 </r>
       <r>   -7.7836    1.0000 </r>
       <r>   -5.3805    1.0000 </r>
       <r>   -4.8525    1.0000 </r>
       <r>   -3.7356    1.0000 </r>
       <r>   -3.7208    1.0000 </r>
       <r>    0.4676    0.0000 </r>
       <r>    0.5778    0.0000 </r>
       <r>    0.9680    0.0000 </r>
       <r>    1.6234    0.0000 </r>
       <r>    3.0738    0.0000 </r>
       <r>    3.5337    0.0000 </r>
      </set>
      <set comment="kpoint 154">
       <r>  -15.4861    1.0000 </r>
       <r>  -15.4661    1.0000 </r>
       <r>  -10.7816    1.0000 </r>
       <r>  -10.4074    1.0000 </r>
       <r>   -7.6371    1.0000 </r>
       <r>   -7.3719    1.0000 </r>
       <r>   -5.1724    1.0000 </r>
       <r>   -4.8067    1.0000 </r>
       <r>   -3.7122    1.0000 </r>
       <r>   -3.5501    1.0000 </r>
       <r>    0.4328    0.0000 </r>
       <r>    0.5667    0.0000 </r>
       <r>    1.1296    0.0000 </r>
       <r>    1.6746    0.0000 </r>
       <r>    2.9721    0.0000 </r>
       <r>    3.3722    0.0000 </r>
      </set>
      <set comment="kpoint 155">
       <r>  -15.7383    1.0000 </r>
       <r>  -15.6654    1.0000 </r>
       <r>  -10.7203    1.0000 </r>
       <r>  -10.4007    1.0000 </r>
       <r>   -7.1686    1.0000 </r>
       <r>   -6.7799    1.0000 </r>
       <r>   -5.1283    1.0000 </r>
       <r>   -4.8545    1.0000 </r>
       <r>   -3.5611    1.0000 </r>
       <r>   -3.3826    1.0000 </r>
       <r>    0.4421    0.0000 </r>
       <r>    0.6558    0.0000 </r>
       <r>    1.2095    0.0000 </r>
       <r>    1.6165    0.0000 </r>
       <r>    2.4378    0.0000 </r>
       <r>    2.8069    0.0000 </r>
      </set>
      <set comment="kpoint 156">
       <r>  -15.9419    1.0000 </r>
       <r>  -15.8194    1.0000 </r>
       <r>  -10.7318    1.0000 </r>
       <r>  -10.4385    1.0000 </r>
       <r>   -6.5603    1.0000 </r>
       <r>   -6.0983    1.0000 </r>
       <r>   -5.1717    1.0000 </r>
       <r>   -4.9219    1.0000 </r>
       <r>   -3.3845    1.0000 </r>
       <r>   -3.3070    1.0000 </r>
       <r>    0.4364    0.0000 </r>
       <r>    0.8098    0.0000 </r>
       <r>    1.2061    0.0000 </r>
       <r>    1.3977    0.0000 </r>
       <r>    1.9258    0.0000 </r>
       <r>    2.0145    0.0000 </r>
      </set>
      <set comment="kpoint 157">
       <r>  -16.0947    1.0000 </r>
       <r>  -15.9249    1.0000 </r>
       <r>  -10.7694    1.0000 </r>
       <r>  -10.4807    1.0000 </r>
       <r>   -5.8936    1.0000 </r>
       <r>   -5.4552    1.0000 </r>
       <r>   -5.1969    1.0000 </r>
       <r>   -4.9760    1.0000 </r>
       <r>   -3.3525    1.0000 </r>
       <r>   -3.2773    1.0000 </r>
       <r>    0.2034    0.0000 </r>
       <r>    0.6630    0.0000 </r>
       <r>    1.1932    0.0000 </r>
       <r>    1.2763    0.0000 </r>
       <r>    1.4873    0.0000 </r>
       <r>    1.7416    0.0000 </r>
      </set>
      <set comment="kpoint 158">
       <r>  -16.1957    1.0000 </r>
       <r>  -15.9797    1.0000 </r>
       <r>  -10.8041    1.0000 </r>
       <r>  -10.5068    1.0000 </r>
       <r>   -5.3376    1.0000 </r>
       <r>   -5.2692    1.0000 </r>
       <r>   -5.0024    1.0000 </r>
       <r>   -4.8289    1.0000 </r>
       <r>   -3.5175    1.0000 </r>
       <r>   -3.2621    1.0000 </r>
       <r>   -0.1364    0.0000 </r>
       <r>    0.1658    0.0000 </r>
       <r>    1.2383    0.0000 </r>
       <r>    1.2394    0.0000 </r>
       <r>    1.5534    0.0000 </r>
       <r>    1.6661    0.0000 </r>
      </set>
     </set>
    </set>
   </array>
  </eigenvalues>
  <separator name="orbital magnetization" >
   <v name="MAGDIPOLOUT">      0.00000000      0.00000000      0.00000000</v>
  </separator>
  <dos>
   <i name="efermi">     -2.11110610 </i>
   <total>
    <array>
     <dimension dim="1">gridpoints</dimension>
     <dimension dim="2">spin</dimension>
     <field>energy</field>
     <field>total</field>
     <field>integrated</field>
     <set>
      <set comment="spin 1">
       <r>   -18.2825     0.0000     0.0000 </r>
       <r>   -18.2052     0.0000     0.0000 </r>
       <r>   -18.1279     0.0000     0.0000 </r>
       <r>   -18.0506     0.0000     0.0000 </r>
       <r>   -17.9732     0.0000     0.0000 </r>
       <r>   -17.8959     0.0000     0.0000 </r>
       <r>   -17.8186     0.0000     0.0000 </r>
       <r>   -17.7412     0.0000     0.0000 </r>
       <r>   -17.6639     0.0000     0.0000 </r>
       <r>   -17.5866     0.0000     0.0000 </r>
       <r>   -17.5093     0.0000     0.0000 </r>
       <r>   -17.4319     0.0000     0.0000 </r>
       <r>   -17.3546     0.0000     0.0000 </r>
       <r>   -17.2773     0.0000     0.0000 </r>
       <r>   -17.1999     0.3032     0.0234 </r>
       <r>   -17.1226     0.7746     0.0833 </r>
       <r>   -17.0453     0.7913     0.1445 </r>
       <r>   -16.9680     0.9623     0.2190 </r>
       <r>   -16.8906     0.7843     0.2796 </r>
       <r>   -16.8133     0.8023     0.3416 </r>
       <r>   -16.7360     0.9878     0.4180 </r>
       <r>   -16.6586     0.8825     0.4863 </r>
       <r>   -16.5813     0.5477     0.5286 </r>
       <r>   -16.5040     1.1892     0.6206 </r>
       <r>   -16.4266     0.8435     0.6858 </r>
       <r>   -16.3493     0.7217     0.7416 </r>
       <r>   -16.2720     0.7786     0.8018 </r>
       <r>   -16.1947     1.1863     0.8936 </r>
       <r>   -16.1173     1.1432     0.9820 </r>
       <r>   -16.0400     0.4074     1.0135 </r>
       <r>   -15.9627     0.8084     1.0760 </r>
       <r>   -15.8853     1.4967     1.1917 </r>
       <r>   -15.8080     0.8846     1.2601 </r>
       <r>   -15.7307     0.5042     1.2991 </r>
       <r>   -15.6534     1.5642     1.4201 </r>
       <r>   -15.5760     0.3968     1.4508 </r>
       <r>   -15.4987     1.0156     1.5293 </r>
       <r>   -15.4214     1.5285     1.6475 </r>
       <r>   -15.3440     1.1041     1.7329 </r>
       <r>   -15.2667     0.5687     1.7769 </r>
       <r>   -15.1894     1.3445     1.8808 </r>
       <r>   -15.1121     1.2501     1.9775 </r>
       <r>   -15.0347     1.1679     2.0678 </r>
       <r>   -14.9574     1.2562     2.1649 </r>
       <r>   -14.8801     1.5259     2.2829 </r>
       <r>   -14.8027     1.2351     2.3784 </r>
       <r>   -14.7254     1.3788     2.4851 </r>
       <r>   -14.6481     2.4197     2.6722 </r>
       <r>   -14.5708     1.3594     2.7773 </r>
       <r>   -14.4934     1.1038     2.8627 </r>
       <r>   -14.4161     1.6531     2.9905 </r>
       <r>   -14.3388     0.8950     3.0597 </r>
       <r>   -14.2614     1.3368     3.1631 </r>
       <r>   -14.1841     1.6057     3.2872 </r>
       <r>   -14.1068     1.0647     3.3696 </r>
       <r>   -14.0294     0.8763     3.4373 </r>
       <r>   -13.9521     1.0424     3.5180 </r>
       <r>   -13.8748     0.7458     3.5756 </r>
       <r>   -13.7975     1.0130     3.6540 </r>
       <r>   -13.7201     1.2296     3.7490 </r>
       <r>   -13.6428     0.5652     3.7927 </r>
       <r>   -13.5655     0.6414     3.8423 </r>
       <r>   -13.4881     0.8520     3.9082 </r>
       <r>   -13.4108     0.1854     3.9226 </r>
       <r>   -13.3335     0.5072     3.9618 </r>
       <r>   -13.2562     0.0695     3.9672 </r>
       <r>   -13.1788     0.1282     3.9771 </r>
       <r>   -13.1015     0.2661     3.9977 </r>
       <r>   -13.0242     0.0303     4.0000 </r>
       <r>   -12.9468     0.0096     4.0007 </r>
       <r>   -12.8695     0.3185     4.0254 </r>
       <r>   -12.7922     0.0562     4.0297 </r>
       <r>   -12.7149     0.1464     4.0410 </r>
       <r>   -12.6375     0.2377     4.0594 </r>
       <r>   -12.5602     0.4382     4.0933 </r>
       <r>   -12.4829     0.5633     4.1369 </r>
       <r>   -12.4055     1.0799     4.2204 </r>
       <r>   -12.3282     0.4540     4.2555 </r>
       <r>   -12.2509     0.4500     4.2903 </r>
       <r>   -12.1736     0.8874     4.3589 </r>
       <r>   -12.0962     1.2481     4.4554 </r>
       <r>   -12.0189     1.6852     4.5857 </r>
       <r>   -11.9416     1.6184     4.7109 </r>
       <r>   -11.8642     0.7158     4.7662 </r>
       <r>   -11.7869     1.2946     4.8663 </r>
       <r>   -11.7096     0.8258     4.9302 </r>
       <r>   -11.6322     0.9913     5.0069 </r>
       <r>   -11.5549     1.6825     5.1370 </r>
       <r>   -11.4776     1.6448     5.2642 </r>
       <r>   -11.4003     4.0317     5.5759 </r>
       <r>   -11.3229     2.4295     5.7638 </r>
       <r>   -11.2456     1.2438     5.8600 </r>
       <r>   -11.1683     1.3271     5.9626 </r>
       <r>   -11.0909     0.6279     6.0112 </r>
       <r>   -11.0136     1.5158     6.1284 </r>
       <r>   -10.9363     1.2258     6.2232 </r>
       <r>   -10.8590     0.5935     6.2690 </r>
       <r>   -10.7816     1.4324     6.3798 </r>
       <r>   -10.7043     1.0894     6.4641 </r>
       <r>   -10.6270     0.7008     6.5182 </r>
       <r>   -10.5496     0.0354     6.5210 </r>
       <r>   -10.4723     1.1670     6.6112 </r>
       <r>   -10.3950     1.0475     6.6922 </r>
       <r>   -10.3177     0.7167     6.7476 </r>
       <r>   -10.2403     0.3375     6.7737 </r>
       <r>   -10.1630     0.8471     6.8392 </r>
       <r>   -10.0857     0.9719     6.9144 </r>
       <r>   -10.0083     0.8152     6.9774 </r>
       <r>    -9.9310     0.4955     7.0158 </r>
       <r>    -9.8537     0.3194     7.0405 </r>
       <r>    -9.7763     0.0651     7.0455 </r>
       <r>    -9.6990     1.0394     7.1259 </r>
       <r>    -9.6217     0.9304     7.1978 </r>
       <r>    -9.5444     0.7637     7.2569 </r>
       <r>    -9.4670     0.3318     7.2825 </r>
       <r>    -9.3897     0.0001     7.2825 </r>
       <r>    -9.3124     0.5308     7.3236 </r>
       <r>    -9.2350     1.1204     7.4102 </r>
       <r>    -9.1577     0.4153     7.4423 </r>
       <r>    -9.0804     0.1875     7.4568 </r>
       <r>    -9.0031     0.2058     7.4728 </r>
       <r>    -8.9257     0.3073     7.4965 </r>
       <r>    -8.8484     0.8662     7.5635 </r>
       <r>    -8.7711     0.7195     7.6191 </r>
       <r>    -8.6937     0.4076     7.6507 </r>
       <r>    -8.6164     0.0286     7.6529 </r>
       <r>    -8.5391     0.3016     7.6762 </r>
       <r>    -8.4618     0.0060     7.6767 </r>
       <r>    -8.3844     0.9073     7.7468 </r>
       <r>    -8.3071     0.6543     7.7974 </r>
       <r>    -8.2298     0.2436     7.8162 </r>
       <r>    -8.1524     0.6270     7.8647 </r>
       <r>    -8.0751     1.6819     7.9948 </r>
       <r>    -7.9978     2.4120     8.1813 </r>
       <r>    -7.9205     1.6488     8.3088 </r>
       <r>    -7.8431     1.9028     8.4559 </r>
       <r>    -7.7658     2.5714     8.6548 </r>
       <r>    -7.6885     2.1869     8.8239 </r>
       <r>    -7.6111     1.7341     8.9580 </r>
       <r>    -7.5338     1.6328     9.0843 </r>
       <r>    -7.4565     2.6414     9.2885 </r>
       <r>    -7.3791     1.6344     9.4149 </r>
       <r>    -7.3018     3.1289     9.6568 </r>
       <r>    -7.2245     2.7068     9.8662 </r>
       <r>    -7.1472     2.5991    10.0671 </r>
       <r>    -7.0698     2.9851    10.2980 </r>
       <r>    -6.9925     3.4822    10.5672 </r>
       <r>    -6.9152     1.6792    10.6971 </r>
       <r>    -6.8378     1.4260    10.8074 </r>
       <r>    -6.7605     1.4973    10.9232 </r>
       <r>    -6.6832     1.9736    11.0758 </r>
       <r>    -6.6059     1.7633    11.2121 </r>
       <r>    -6.5285     0.9638    11.2867 </r>
       <r>    -6.4512     1.5179    11.4040 </r>
       <r>    -6.3739     1.3505    11.5085 </r>
       <r>    -6.2965     1.3846    11.6155 </r>
       <r>    -6.2192     1.6524    11.7433 </r>
       <r>    -6.1419     2.2113    11.9143 </r>
       <r>    -6.0646     1.2679    12.0124 </r>
       <r>    -5.9872     1.3876    12.1197 </r>
       <r>    -5.9099     2.8906    12.3432 </r>
       <r>    -5.8326     1.0707    12.4260 </r>
       <r>    -5.7552     1.5182    12.5434 </r>
       <r>    -5.6779     3.1768    12.7890 </r>
       <r>    -5.6006     3.2313    13.0389 </r>
       <r>    -5.5233     3.8014    13.3329 </r>
       <r>    -5.4459     3.9253    13.6364 </r>
       <r>    -5.3686     3.7737    13.9282 </r>
       <r>    -5.2913     2.9207    14.1541 </r>
       <r>    -5.2139     2.0092    14.3095 </r>
       <r>    -5.1366     3.0789    14.5475 </r>
       <r>    -5.0593     2.7752    14.7621 </r>
       <r>    -4.9819     1.9651    14.9141 </r>
       <r>    -4.9046     2.1910    15.0835 </r>
       <r>    -4.8273     2.3274    15.2635 </r>
       <r>    -4.7500     1.3171    15.3654 </r>
       <r>    -4.6726     0.9524    15.4390 </r>
       <r>    -4.5953     2.0297    15.5960 </r>
       <r>    -4.5180     1.5414    15.7152 </r>
       <r>    -4.4406     0.7258    15.7713 </r>
       <r>    -4.3633     0.8872    15.8399 </r>
       <r>    -4.2860     1.1687    15.9303 </r>
       <r>    -4.2087     2.6856    16.1380 </r>
       <r>    -4.1313     2.6471    16.3427 </r>
       <r>    -4.0540     2.1052    16.5054 </r>
       <r>    -3.9767     2.0219    16.6618 </r>
       <r>    -3.8993     2.2493    16.8357 </r>
       <r>    -3.8220     3.8215    17.1313 </r>
       <r>    -3.7447     3.4004    17.3942 </r>
       <r>    -3.6674     4.2330    17.7215 </r>
       <r>    -3.5900     3.4245    17.9863 </r>
       <r>    -3.5127     2.9447    18.2141 </r>
       <r>    -3.4354     2.9576    18.4428 </r>
       <r>    -3.3580     2.2267    18.6150 </r>
       <r>    -3.2807     3.4657    18.8830 </r>
       <r>    -3.2034     2.1235    19.0472 </r>
       <r>    -3.1261     2.6056    19.2486 </r>
       <r>    -3.0487     1.7425    19.3834 </r>
       <r>    -2.9714     0.9611    19.4577 </r>
       <r>    -2.8941     1.0111    19.5359 </r>
       <r>    -2.8167     2.0230    19.6923 </r>
       <r>    -2.7394     1.1348    19.7801 </r>
       <r>    -2.6621     0.4314    19.8135 </r>
       <r>    -2.5847     0.3516    19.8406 </r>
       <r>    -2.5074     0.3069    19.8644 </r>
       <r>    -2.4301     0.8215    19.9279 </r>
       <r>    -2.3528     0.3634    19.9560 </r>
       <r>    -2.2754     0.1909    19.9708 </r>
       <r>    -2.1981     0.3778    20.0000 </r>
       <r>    -2.1208     0.0004    20.0000 </r>
       <r>    -2.0434     0.0000    20.0000 </r>
       <r>    -1.9661     0.0000    20.0000 </r>
       <r>    -1.8888     0.0000    20.0000 </r>
       <r>    -1.8115     0.0000    20.0000 </r>
       <r>    -1.7341     0.0000    20.0000 </r>
       <r>    -1.6568     0.0000    20.0000 </r>
       <r>    -1.5795     0.0000    20.0000 </r>
       <r>    -1.5021     0.0000    20.0000 </r>
       <r>    -1.4248     0.0000    20.0000 </r>
       <r>    -1.3475     0.1403    20.0109 </r>
       <r>    -1.2702     0.4143    20.0429 </r>
       <r>    -1.1928     1.0017    20.1203 </r>
       <r>    -1.1155     1.2226    20.2149 </r>
       <r>    -1.0382     1.3772    20.3214 </r>
       <r>    -0.9608     1.4753    20.4355 </r>
       <r>    -0.8835     1.4231    20.5455 </r>
       <r>    -0.8062     1.3291    20.6483 </r>
       <r>    -0.7288     1.6824    20.7784 </r>
       <r>    -0.6515     2.0956    20.9404 </r>
       <r>    -0.5742     1.9161    21.0886 </r>
       <r>    -0.4969     2.0315    21.2457 </r>
       <r>    -0.4195     2.1789    21.4142 </r>
       <r>    -0.3422     2.6649    21.6203 </r>
       <r>    -0.2649     2.7079    21.8297 </r>
       <r>    -0.1875     2.9930    22.0611 </r>
       <r>    -0.1102     2.6900    22.2691 </r>
       <r>    -0.0329     3.0778    22.5071 </r>
       <r>     0.0444     2.7332    22.7185 </r>
       <r>     0.1218     4.4098    23.0595 </r>
       <r>     0.1991     4.0961    23.3762 </r>
       <r>     0.2764     4.0725    23.6912 </r>
       <r>     0.3538     3.8934    23.9922 </r>
       <r>     0.4311     3.2828    24.2461 </r>
       <r>     0.5084     4.3135    24.5797 </r>
       <r>     0.5857     2.6462    24.7843 </r>
       <r>     0.6631     2.6344    24.9880 </r>
       <r>     0.7404     3.0246    25.2219 </r>
       <r>     0.8177     3.2930    25.4765 </r>
       <r>     0.8951     2.3686    25.6597 </r>
       <r>     0.9724     2.4665    25.8504 </r>
       <r>     1.0497     2.2708    26.0260 </r>
       <r>     1.1270     3.0381    26.2610 </r>
       <r>     1.2044     3.9191    26.5640 </r>
       <r>     1.2817     4.1497    26.8849 </r>
       <r>     1.3590     2.3086    27.0634 </r>
       <r>     1.4364     2.7497    27.2761 </r>
       <r>     1.5137     2.6827    27.4835 </r>
       <r>     1.5910     1.7506    27.6189 </r>
       <r>     1.6684     3.1731    27.8643 </r>
       <r>     1.7457     2.7156    28.0743 </r>
       <r>     1.8230     2.1571    28.2411 </r>
       <r>     1.9003     2.4242    28.4285 </r>
       <r>     1.9777     2.0518    28.5872 </r>
       <r>     2.0550     2.1687    28.7549 </r>
       <r>     2.1323     1.4256    28.8651 </r>
       <r>     2.2097     2.8755    29.0875 </r>
       <r>     2.2870     2.9926    29.3189 </r>
       <r>     2.3643     2.3134    29.4978 </r>
       <r>     2.4416     2.5195    29.6926 </r>
       <r>     2.5190     3.5451    29.9668 </r>
       <r>     2.5963     3.1413    30.2097 </r>
       <r>     2.6736     3.6699    30.4935 </r>
       <r>     2.7510     2.9094    30.7185 </r>
       <r>     2.8283     2.0060    30.8736 </r>
       <r>     2.9056     1.8436    31.0161 </r>
       <r>     2.9829     2.1478    31.1822 </r>
       <r>     3.0603     2.0609    31.3416 </r>
       <r>     3.1376     1.9638    31.4934 </r>
       <r>     3.2149     1.6686    31.6225 </r>
       <r>     3.2923     1.3063    31.7235 </r>
       <r>     3.3696     1.1557    31.8129 </r>
       <r>     3.4469     0.2600    31.8330 </r>
       <r>     3.5242     0.5005    31.8717 </r>
       <r>     3.6016     0.4810    31.9089 </r>
       <r>     3.6789     0.4112    31.9407 </r>
       <r>     3.7562     0.2332    31.9587 </r>
       <r>     3.8336     0.3729    31.9875 </r>
       <r>     3.9109     0.1611    32.0000 </r>
       <r>     3.9882     0.0000    32.0000 </r>
       <r>     4.0656     0.0000    32.0000 </r>
       <r>     4.1429     0.0000    32.0000 </r>
       <r>     4.2202     0.0000    32.0000 </r>
       <r>     4.2975     0.0000    32.0000 </r>
       <r>     4.3749     0.0000    32.0000 </r>
       <r>     4.4522     0.0000    32.0000 </r>
       <r>     4.5295     0.0000    32.0000 </r>
       <r>     4.6069     0.0000    32.0000 </r>
       <r>     4.6842     0.0000    32.0000 </r>
       <r>     4.7615     0.0000    32.0000 </r>
       <r>     4.8388     0.0000    32.0000 </r>
       <r>     4.9162     0.0000    32.0000 </r>
      </set>
     </set>
    </array>
   </total>
  </dos>
 </calculation>
 <structure name="finalpos" >
  <crystal>
   <varray name="basis" >
    <v>       3.29456100       0.13199400       0.00000000 </v>
    <v>       0.18508200       4.61964500      -0.00005300 </v>
    <v>       0.00000000       0.00000000      20.02439000 </v>
   </varray>
   <i name="volume">    304.27606344 </i>
   <varray name="rec_basis" >
    <v>       0.30401857      -0.01218024       0.00000000 </v>
    <v>      -0.00868652       0.21681487       0.00000000 </v>
    <v>      -0.00000002       0.00000057       0.04993910 </v>
   </varray>
  </crystal>
  <varray name="positions" >
   <v>       0.48467573       0.91140089       0.55245104 </v>
   <v>       0.51532427       0.08859911       0.44754896 </v>
   <v>      -0.01532393       0.41139608       0.44754897 </v>
   <v>       0.01532393       0.58860392       0.55245103 </v>
  </varray>
 </structure>
</modeling>
