<?xml version="1.0" encoding="ISO-8859-1"?>
<modeling>
 <generator>
  <i name="program" type="string">vasp </i>
  <i name="version" type="string">5.4.1  </i>
  <i name="subversion" type="string">24Jun15 (build Nov 20 2020 10:29:34) complex                          parallel </i>
  <i name="platform" type="string">IFC91_ompi </i>
  <i name="date" type="string">2021 09 13 </i>
  <i name="time" type="string">23:28:25 </i>
 </generator>
 <incar>
  <i type="int" name="ISTART">     1</i>
  <i type="string" name="PREC">a</i>
  <i type="string" name="ALGO"> Normal</i>
  <i type="int" name="ISPIN">     1</i>
  <i type="int" name="ICHARG">     2</i>
  <i type="int" name="NELM">   250</i>
  <i type="int" name="NELMDL">    -5</i>
  <i type="int" name="NELMIN">     6</i>
  <i type="int" name="IBRION">     2</i>
  <i name="EDIFF">      0.00001000</i>
  <i name="EDIFFG">     -0.00500000</i>
  <i type="int" name="NSW">     0</i>
  <i type="int" name="ISIF">     2</i>
  <i name="ENCUT">    520.00000000</i>
  <i name="POTIM">      0.25000000</i>
  <v name="MAGMOM">      0.60000000      0.60000000</v>
  <i type="string" name="LREAL"> Auto</i>
  <i type="int" name="ISMEAR">     0</i>
  <i name="SIGMA">      0.02000000</i>
  <i type="logical" name="LWAVE"> F  </i>
  <i type="logical" name="LCHARG"> F  </i>
  <i type="logical" name="LVHAR"> F  </i>
  <v type="int" name="KPOINT_BSE">    -1     0     0     0</v>
  <i type="int" name="NELM">   250</i>
 </incar>
 <kpoints>
  <generation param="Gamma">
   <v type="int" name="divisions">      24       24        1 </v>
   <v name="usershift">      0.00000000       0.00000000       0.00000000 </v>
   <v name="genvec1">      0.04166667       0.00000000       0.00000000 </v>
   <v name="genvec2">      0.00000000       0.04166667       0.00000000 </v>
   <v name="genvec3">      0.00000000       0.00000000       1.00000000 </v>
   <v name="shift">      0.00000000       0.00000000       0.00000000 </v>
  </generation>
  <varray name="kpointlist" >
   <v>       0.00000000       0.00000000       0.00000000 </v>
   <v>       0.04166667       0.00000000       0.00000000 </v>
   <v>       0.08333333       0.00000000       0.00000000 </v>
   <v>       0.12500000       0.00000000       0.00000000 </v>
   <v>       0.16666667       0.00000000       0.00000000 </v>
   <v>       0.20833333       0.00000000       0.00000000 </v>
   <v>       0.25000000       0.00000000       0.00000000 </v>
   <v>       0.29166667       0.00000000       0.00000000 </v>
   <v>       0.33333333       0.00000000       0.00000000 </v>
   <v>       0.37500000       0.00000000       0.00000000 </v>
   <v>       0.41666667       0.00000000       0.00000000 </v>
   <v>       0.45833333       0.00000000       0.00000000 </v>
   <v>       0.50000000       0.00000000       0.00000000 </v>
   <v>       0.00000000       0.04166667       0.00000000 </v>
   <v>       0.04166667       0.04166667       0.00000000 </v>
   <v>       0.08333333       0.04166667       0.00000000 </v>
   <v>       0.12500000       0.04166667       0.00000000 </v>
   <v>       0.16666667       0.04166667       0.00000000 </v>
   <v>       0.20833333       0.04166667       0.00000000 </v>
   <v>       0.25000000       0.04166667       0.00000000 </v>
   <v>       0.29166667       0.04166667       0.00000000 </v>
   <v>       0.33333333       0.04166667       0.00000000 </v>
   <v>       0.37500000       0.04166667       0.00000000 </v>
   <v>       0.41666667       0.04166667       0.00000000 </v>
   <v>       0.45833333       0.04166667       0.00000000 </v>
   <v>       0.50000000       0.04166667       0.00000000 </v>
   <v>      -0.45833333       0.04166667       0.00000000 </v>
   <v>      -0.41666667       0.04166667       0.00000000 </v>
   <v>      -0.37500000       0.04166667       0.00000000 </v>
   <v>      -0.33333333       0.04166667       0.00000000 </v>
   <v>      -0.29166667       0.04166667       0.00000000 </v>
   <v>      -0.25000000       0.04166667       0.00000000 </v>
   <v>      -0.20833333       0.04166667       0.00000000 </v>
   <v>      -0.16666667       0.04166667       0.00000000 </v>
   <v>      -0.12500000       0.04166667       0.00000000 </v>
   <v>      -0.08333333       0.04166667       0.00000000 </v>
   <v>      -0.04166667       0.04166667       0.00000000 </v>
   <v>      -0.00000000       0.08333333       0.00000000 </v>
   <v>       0.04166667       0.08333333       0.00000000 </v>
   <v>       0.08333333       0.08333333       0.00000000 </v>
   <v>       0.12500000       0.08333333       0.00000000 </v>
   <v>       0.16666667       0.08333333       0.00000000 </v>
   <v>       0.20833333       0.08333333       0.00000000 </v>
   <v>       0.25000000       0.08333333       0.00000000 </v>
   <v>       0.29166667       0.08333333       0.00000000 </v>
   <v>       0.33333333       0.08333333       0.00000000 </v>
   <v>       0.37500000       0.08333333       0.00000000 </v>
   <v>       0.41666667       0.08333333       0.00000000 </v>
   <v>       0.45833333       0.08333333       0.00000000 </v>
   <v>       0.50000000       0.08333333       0.00000000 </v>
   <v>      -0.45833333       0.08333333       0.00000000 </v>
   <v>      -0.41666667       0.08333333       0.00000000 </v>
   <v>      -0.37500000       0.08333333       0.00000000 </v>
   <v>      -0.33333333       0.08333333       0.00000000 </v>
   <v>      -0.29166667       0.08333333       0.00000000 </v>
   <v>      -0.25000000       0.08333333       0.00000000 </v>
   <v>      -0.20833333       0.08333333       0.00000000 </v>
   <v>      -0.16666667       0.08333333       0.00000000 </v>
   <v>      -0.12500000       0.08333333       0.00000000 </v>
   <v>      -0.08333333       0.08333333       0.00000000 </v>
   <v>      -0.04166667       0.08333333       0.00000000 </v>
   <v>      -0.00000000       0.12500000       0.00000000 </v>
   <v>       0.04166667       0.12500000       0.00000000 </v>
   <v>       0.08333333       0.12500000       0.00000000 </v>
   <v>       0.12500000       0.12500000       0.00000000 </v>
   <v>       0.16666667       0.12500000       0.00000000 </v>
   <v>       0.20833333       0.12500000       0.00000000 </v>
   <v>       0.25000000       0.12500000       0.00000000 </v>
   <v>       0.29166667       0.12500000       0.00000000 </v>
   <v>       0.33333333       0.12500000       0.00000000 </v>
   <v>       0.37500000       0.12500000       0.00000000 </v>
   <v>       0.41666667       0.12500000       0.00000000 </v>
   <v>       0.45833333       0.12500000       0.00000000 </v>
   <v>       0.50000000       0.12500000       0.00000000 </v>
   <v>      -0.45833333       0.12500000       0.00000000 </v>
   <v>      -0.41666667       0.12500000       0.00000000 </v>
   <v>      -0.37500000       0.12500000       0.00000000 </v>
   <v>      -0.33333333       0.12500000       0.00000000 </v>
   <v>      -0.29166667       0.12500000       0.00000000 </v>
   <v>      -0.25000000       0.12500000       0.00000000 </v>
   <v>      -0.20833333       0.12500000       0.00000000 </v>
   <v>      -0.16666667       0.12500000       0.00000000 </v>
   <v>      -0.12500000       0.12500000       0.00000000 </v>
   <v>      -0.08333333       0.12500000       0.00000000 </v>
   <v>      -0.04166667       0.12500000       0.00000000 </v>
   <v>      -0.00000000       0.16666667       0.00000000 </v>
   <v>       0.04166667       0.16666667       0.00000000 </v>
   <v>       0.08333333       0.16666667       0.00000000 </v>
   <v>       0.12500000       0.16666667       0.00000000 </v>
   <v>       0.16666667       0.16666667       0.00000000 </v>
   <v>       0.20833333       0.16666667       0.00000000 </v>
   <v>       0.25000000       0.16666667       0.00000000 </v>
   <v>       0.29166667       0.16666667       0.00000000 </v>
   <v>       0.33333333       0.16666667       0.00000000 </v>
   <v>       0.37500000       0.16666667       0.00000000 </v>
   <v>       0.41666667       0.16666667       0.00000000 </v>
   <v>       0.45833333       0.16666667       0.00000000 </v>
   <v>       0.50000000       0.16666667       0.00000000 </v>
   <v>      -0.45833333       0.16666667       0.00000000 </v>
   <v>      -0.41666667       0.16666667       0.00000000 </v>
   <v>      -0.37500000       0.16666667       0.00000000 </v>
   <v>      -0.33333333       0.16666667       0.00000000 </v>
   <v>      -0.29166667       0.16666667       0.00000000 </v>
   <v>      -0.25000000       0.16666667       0.00000000 </v>
   <v>      -0.20833333       0.16666667       0.00000000 </v>
   <v>      -0.16666667       0.16666667       0.00000000 </v>
   <v>      -0.12500000       0.16666667       0.00000000 </v>
   <v>      -0.08333333       0.16666667       0.00000000 </v>
   <v>      -0.04166667       0.16666667       0.00000000 </v>
   <v>      -0.00000000       0.20833333       0.00000000 </v>
   <v>       0.04166667       0.20833333       0.00000000 </v>
   <v>       0.08333333       0.20833333       0.00000000 </v>
   <v>       0.12500000       0.20833333       0.00000000 </v>
   <v>       0.16666667       0.20833333       0.00000000 </v>
   <v>       0.20833333       0.20833333       0.00000000 </v>
   <v>       0.25000000       0.20833333       0.00000000 </v>
   <v>       0.29166667       0.20833333       0.00000000 </v>
   <v>       0.33333333       0.20833333       0.00000000 </v>
   <v>       0.37500000       0.20833333       0.00000000 </v>
   <v>       0.41666667       0.20833333       0.00000000 </v>
   <v>       0.45833333       0.20833333       0.00000000 </v>
   <v>       0.50000000       0.20833333       0.00000000 </v>
   <v>      -0.45833333       0.20833333       0.00000000 </v>
   <v>      -0.41666667       0.20833333       0.00000000 </v>
   <v>      -0.37500000       0.20833333       0.00000000 </v>
   <v>      -0.33333333       0.20833333       0.00000000 </v>
   <v>      -0.29166667       0.20833333       0.00000000 </v>
   <v>      -0.25000000       0.20833333       0.00000000 </v>
   <v>      -0.20833333       0.20833333       0.00000000 </v>
   <v>      -0.16666667       0.20833333       0.00000000 </v>
   <v>      -0.12500000       0.20833333       0.00000000 </v>
   <v>      -0.08333333       0.20833333       0.00000000 </v>
   <v>      -0.04166667       0.20833333       0.00000000 </v>
   <v>      -0.00000000       0.25000000       0.00000000 </v>
   <v>       0.04166667       0.25000000       0.00000000 </v>
   <v>       0.08333333       0.25000000       0.00000000 </v>
   <v>       0.12500000       0.25000000       0.00000000 </v>
   <v>       0.16666667       0.25000000       0.00000000 </v>
   <v>       0.20833333       0.25000000       0.00000000 </v>
   <v>       0.25000000       0.25000000       0.00000000 </v>
   <v>       0.29166667       0.25000000       0.00000000 </v>
   <v>       0.33333333       0.25000000       0.00000000 </v>
   <v>       0.37500000       0.25000000       0.00000000 </v>
   <v>       0.41666667       0.25000000       0.00000000 </v>
   <v>       0.45833333       0.25000000       0.00000000 </v>
   <v>       0.50000000       0.25000000       0.00000000 </v>
   <v>      -0.45833333       0.25000000       0.00000000 </v>
   <v>      -0.41666667       0.25000000       0.00000000 </v>
   <v>      -0.37500000       0.25000000       0.00000000 </v>
   <v>      -0.33333333       0.25000000       0.00000000 </v>
   <v>      -0.29166667       0.25000000       0.00000000 </v>
   <v>      -0.25000000       0.25000000       0.00000000 </v>
   <v>      -0.20833333       0.25000000       0.00000000 </v>
   <v>      -0.16666667       0.25000000       0.00000000 </v>
   <v>      -0.12500000       0.25000000       0.00000000 </v>
   <v>      -0.08333333       0.25000000       0.00000000 </v>
   <v>      -0.04166667       0.25000000       0.00000000 </v>
   <v>       0.00000000       0.29166667       0.00000000 </v>
   <v>       0.04166667       0.29166667       0.00000000 </v>
   <v>       0.08333333       0.29166667       0.00000000 </v>
   <v>       0.12500000       0.29166667       0.00000000 </v>
   <v>       0.16666667       0.29166667       0.00000000 </v>
   <v>       0.20833333       0.29166667       0.00000000 </v>
   <v>       0.25000000       0.29166667       0.00000000 </v>
   <v>       0.29166667       0.29166667       0.00000000 </v>
   <v>       0.33333333       0.29166667       0.00000000 </v>
   <v>       0.37500000       0.29166667       0.00000000 </v>
   <v>       0.41666667       0.29166667       0.00000000 </v>
   <v>       0.45833333       0.29166667       0.00000000 </v>
   <v>       0.50000000       0.29166667       0.00000000 </v>
   <v>      -0.45833333       0.29166667       0.00000000 </v>
   <v>      -0.41666667       0.29166667       0.00000000 </v>
   <v>      -0.37500000       0.29166667       0.00000000 </v>
   <v>      -0.33333333       0.29166667       0.00000000 </v>
   <v>      -0.29166667       0.29166667       0.00000000 </v>
   <v>      -0.25000000       0.29166667       0.00000000 </v>
   <v>      -0.20833333       0.29166667       0.00000000 </v>
   <v>      -0.16666667       0.29166667       0.00000000 </v>
   <v>      -0.12500000       0.29166667       0.00000000 </v>
   <v>      -0.08333333       0.29166667       0.00000000 </v>
   <v>      -0.04166667       0.29166667       0.00000000 </v>
   <v>       0.00000000       0.33333333       0.00000000 </v>
   <v>       0.04166667       0.33333333       0.00000000 </v>
   <v>       0.08333333       0.33333333       0.00000000 </v>
   <v>       0.12500000       0.33333333       0.00000000 </v>
   <v>       0.16666667       0.33333333       0.00000000 </v>
   <v>       0.20833333       0.33333333       0.00000000 </v>
   <v>       0.25000000       0.33333333       0.00000000 </v>
   <v>       0.29166667       0.33333333       0.00000000 </v>
   <v>       0.33333333       0.33333333       0.00000000 </v>
   <v>       0.37500000       0.33333333       0.00000000 </v>
   <v>       0.41666667       0.33333333       0.00000000 </v>
   <v>       0.45833333       0.33333333       0.00000000 </v>
   <v>       0.50000000       0.33333333       0.00000000 </v>
   <v>      -0.45833333       0.33333333       0.00000000 </v>
   <v>      -0.41666667       0.33333333       0.00000000 </v>
   <v>      -0.37500000       0.33333333       0.00000000 </v>
   <v>      -0.33333333       0.33333333       0.00000000 </v>
   <v>      -0.29166667       0.33333333       0.00000000 </v>
   <v>      -0.25000000       0.33333333       0.00000000 </v>
   <v>      -0.20833333       0.33333333       0.00000000 </v>
   <v>      -0.16666667       0.33333333       0.00000000 </v>
   <v>      -0.12500000       0.33333333       0.00000000 </v>
   <v>      -0.08333333       0.33333333       0.00000000 </v>
   <v>      -0.04166667       0.33333333       0.00000000 </v>
   <v>      -0.00000000       0.37500000       0.00000000 </v>
   <v>       0.04166667       0.37500000       0.00000000 </v>
   <v>       0.08333333       0.37500000       0.00000000 </v>
   <v>       0.12500000       0.37500000       0.00000000 </v>
   <v>       0.16666667       0.37500000       0.00000000 </v>
   <v>       0.20833333       0.37500000       0.00000000 </v>
   <v>       0.25000000       0.37500000       0.00000000 </v>
   <v>       0.29166667       0.37500000       0.00000000 </v>
   <v>       0.33333333       0.37500000       0.00000000 </v>
   <v>       0.37500000       0.37500000       0.00000000 </v>
   <v>       0.41666667       0.37500000       0.00000000 </v>
   <v>       0.45833333       0.37500000       0.00000000 </v>
   <v>       0.50000000       0.37500000       0.00000000 </v>
   <v>      -0.45833333       0.37500000       0.00000000 </v>
   <v>      -0.41666667       0.37500000       0.00000000 </v>
   <v>      -0.37500000       0.37500000       0.00000000 </v>
   <v>      -0.33333333       0.37500000       0.00000000 </v>
   <v>      -0.29166667       0.37500000       0.00000000 </v>
   <v>      -0.25000000       0.37500000       0.00000000 </v>
   <v>      -0.20833333       0.37500000       0.00000000 </v>
   <v>      -0.16666667       0.37500000       0.00000000 </v>
   <v>      -0.12500000       0.37500000       0.00000000 </v>
   <v>      -0.08333333       0.37500000       0.00000000 </v>
   <v>      -0.04166667       0.37500000       0.00000000 </v>
   <v>       0.00000000       0.41666667       0.00000000 </v>
   <v>       0.04166667       0.41666667       0.00000000 </v>
   <v>       0.08333333       0.41666667       0.00000000 </v>
   <v>       0.12500000       0.41666667       0.00000000 </v>
   <v>       0.16666667       0.41666667       0.00000000 </v>
   <v>       0.20833333       0.41666667       0.00000000 </v>
   <v>       0.25000000       0.41666667       0.00000000 </v>
   <v>       0.29166667       0.41666667       0.00000000 </v>
   <v>       0.33333333       0.41666667       0.00000000 </v>
   <v>       0.37500000       0.41666667       0.00000000 </v>
   <v>       0.41666667       0.41666667       0.00000000 </v>
   <v>       0.45833333       0.41666667       0.00000000 </v>
   <v>       0.50000000       0.41666667       0.00000000 </v>
   <v>      -0.45833333       0.41666667       0.00000000 </v>
   <v>      -0.41666667       0.41666667       0.00000000 </v>
   <v>      -0.37500000       0.41666667       0.00000000 </v>
   <v>      -0.33333333       0.41666667       0.00000000 </v>
   <v>      -0.29166667       0.41666667       0.00000000 </v>
   <v>      -0.25000000       0.41666667       0.00000000 </v>
   <v>      -0.20833333       0.41666667       0.00000000 </v>
   <v>      -0.16666667       0.41666667       0.00000000 </v>
   <v>      -0.12500000       0.41666667       0.00000000 </v>
   <v>      -0.08333333       0.41666667       0.00000000 </v>
   <v>      -0.04166667       0.41666667       0.00000000 </v>
   <v>       0.00000000       0.45833333       0.00000000 </v>
   <v>       0.04166667       0.45833333       0.00000000 </v>
   <v>       0.08333333       0.45833333       0.00000000 </v>
   <v>       0.12500000       0.45833333       0.00000000 </v>
   <v>       0.16666667       0.45833333       0.00000000 </v>
   <v>       0.20833333       0.45833333       0.00000000 </v>
   <v>       0.25000000       0.45833333       0.00000000 </v>
   <v>       0.29166667       0.45833333       0.00000000 </v>
   <v>       0.33333333       0.45833333       0.00000000 </v>
   <v>       0.37500000       0.45833333       0.00000000 </v>
   <v>       0.41666667       0.45833333       0.00000000 </v>
   <v>       0.45833333       0.45833333       0.00000000 </v>
   <v>       0.50000000       0.45833333       0.00000000 </v>
   <v>      -0.45833333       0.45833333       0.00000000 </v>
   <v>      -0.41666667       0.45833333       0.00000000 </v>
   <v>      -0.37500000       0.45833333       0.00000000 </v>
   <v>      -0.33333333       0.45833333       0.00000000 </v>
   <v>      -0.29166667       0.45833333       0.00000000 </v>
   <v>      -0.25000000       0.45833333       0.00000000 </v>
   <v>      -0.20833333       0.45833333       0.00000000 </v>
   <v>      -0.16666667       0.45833333       0.00000000 </v>
   <v>      -0.12500000       0.45833333       0.00000000 </v>
   <v>      -0.08333333       0.45833333       0.00000000 </v>
   <v>      -0.04166667       0.45833333       0.00000000 </v>
   <v>      -0.00000000       0.50000000       0.00000000 </v>
   <v>       0.04166667       0.50000000       0.00000000 </v>
   <v>       0.08333333       0.50000000       0.00000000 </v>
   <v>       0.12500000       0.50000000       0.00000000 </v>
   <v>       0.16666667       0.50000000       0.00000000 </v>
   <v>       0.20833333       0.50000000       0.00000000 </v>
   <v>       0.25000000       0.50000000       0.00000000 </v>
   <v>       0.29166667       0.50000000       0.00000000 </v>
   <v>       0.33333333       0.50000000       0.00000000 </v>
   <v>       0.37500000       0.50000000       0.00000000 </v>
   <v>       0.41666667       0.50000000       0.00000000 </v>
   <v>       0.45833333       0.50000000       0.00000000 </v>
   <v>       0.50000000       0.50000000       0.00000000 </v>
  </varray>
  <varray name="weights" >
   <v>       0.00173611 </v>
   <v>       0.00347222 </v>
   <v>       0.00347222 </v>
   <v>       0.00347222 </v>
   <v>       0.00347222 </v>
   <v>       0.00347222 </v>
   <v>       0.00347222 </v>
   <v>       0.00347222 </v>
   <v>       0.00347222 </v>
   <v>       0.00347222 </v>
   <v>       0.00347222 </v>
   <v>       0.00347222 </v>
   <v>       0.00173611 </v>
   <v>       0.00347222 </v>
   <v>       0.00347222 </v>
   <v>       0.00347222 </v>
   <v>       0.00347222 </v>
   <v>       0.00347222 </v>
   <v>       0.00347222 </v>
   <v>       0.00347222 </v>
   <v>       0.00347222 </v>
   <v>       0.00347222 </v>
   <v>       0.00347222 </v>
   <v>       0.00347222 </v>
   <v>       0.00347222 </v>
   <v>       0.00347222 </v>
   <v>       0.00347222 </v>
   <v>       0.00347222 </v>
   <v>       0.00347222 </v>
   <v>       0.00347222 </v>
   <v>       0.00347222 </v>
   <v>       0.00347222 </v>
   <v>       0.00347222 </v>
   <v>       0.00347222 </v>
   <v>       0.00347222 </v>
   <v>       0.00347222 </v>
   <v>       0.00347222 </v>
   <v>       0.00347222 </v>
   <v>       0.00347222 </v>
   <v>       0.00347222 </v>
   <v>       0.00347222 </v>
   <v>       0.00347222 </v>
   <v>       0.00347222 </v>
   <v>       0.00347222 </v>
   <v>       0.00347222 </v>
   <v>       0.00347222 </v>
   <v>       0.00347222 </v>
   <v>       0.00347222 </v>
   <v>       0.00347222 </v>
   <v>       0.00347222 </v>
   <v>       0.00347222 </v>
   <v>       0.00347222 </v>
   <v>       0.00347222 </v>
   <v>       0.00347222 </v>
   <v>       0.00347222 </v>
   <v>       0.00347222 </v>
   <v>       0.00347222 </v>
   <v>       0.00347222 </v>
   <v>       0.00347222 </v>
   <v>       0.00347222 </v>
   <v>       0.00347222 </v>
   <v>       0.00347222 </v>
   <v>       0.00347222 </v>
   <v>       0.00347222 </v>
   <v>       0.00347222 </v>
   <v>       0.00347222 </v>
   <v>       0.00347222 </v>
   <v>       0.00347222 </v>
   <v>       0.00347222 </v>
   <v>       0.00347222 </v>
   <v>       0.00347222 </v>
   <v>       0.00347222 </v>
   <v>       0.00347222 </v>
   <v>       0.00347222 </v>
   <v>       0.00347222 </v>
   <v>       0.00347222 </v>
   <v>       0.00347222 </v>
   <v>       0.00347222 </v>
   <v>       0.00347222 </v>
   <v>       0.00347222 </v>
   <v>       0.00347222 </v>
   <v>       0.00347222 </v>
   <v>       0.00347222 </v>
   <v>       0.00347222 </v>
   <v>       0.00347222 </v>
   <v>       0.00347222 </v>
   <v>       0.00347222 </v>
   <v>       0.00347222 </v>
   <v>       0.00347222 </v>
   <v>       0.00347222 </v>
   <v>       0.00347222 </v>
   <v>       0.00347222 </v>
   <v>       0.00347222 </v>
   <v>       0.00347222 </v>
   <v>       0.00347222 </v>
   <v>       0.00347222 </v>
   <v>       0.00347222 </v>
   <v>       0.00347222 </v>
   <v>       0.00347222 </v>
   <v>       0.00347222 </v>
   <v>       0.00347222 </v>
   <v>       0.00347222 </v>
   <v>       0.00347222 </v>
   <v>       0.00347222 </v>
   <v>       0.00347222 </v>
   <v>       0.00347222 </v>
   <v>       0.00347222 </v>
   <v>       0.00347222 </v>
   <v>       0.00347222 </v>
   <v>       0.00347222 </v>
   <v>       0.00347222 </v>
   <v>       0.00347222 </v>
   <v>       0.00347222 </v>
   <v>       0.00347222 </v>
   <v>       0.00347222 </v>
   <v>       0.00347222 </v>
   <v>       0.00347222 </v>
   <v>       0.00347222 </v>
   <v>       0.00347222 </v>
   <v>       0.00347222 </v>
   <v>       0.00347222 </v>
   <v>       0.00347222 </v>
   <v>       0.00347222 </v>
   <v>       0.00347222 </v>
   <v>       0.00347222 </v>
   <v>       0.00347222 </v>
   <v>       0.00347222 </v>
   <v>       0.00347222 </v>
   <v>       0.00347222 </v>
   <v>       0.00347222 </v>
   <v>       0.00347222 </v>
   <v>       0.00347222 </v>
   <v>       0.00347222 </v>
   <v>       0.00347222 </v>
   <v>       0.00347222 </v>
   <v>       0.00347222 </v>
   <v>       0.00347222 </v>
   <v>       0.00347222 </v>
   <v>       0.00347222 </v>
   <v>       0.00347222 </v>
   <v>       0.00347222 </v>
   <v>       0.00347222 </v>
   <v>       0.00347222 </v>
   <v>       0.00347222 </v>
   <v>       0.00347222 </v>
   <v>       0.00347222 </v>
   <v>       0.00347222 </v>
   <v>       0.00347222 </v>
   <v>       0.00347222 </v>
   <v>       0.00347222 </v>
   <v>       0.00347222 </v>
   <v>       0.00347222 </v>
   <v>       0.00347222 </v>
   <v>       0.00347222 </v>
   <v>       0.00347222 </v>
   <v>       0.00347222 </v>
   <v>       0.00347222 </v>
   <v>       0.00347222 </v>
   <v>       0.00347222 </v>
   <v>       0.00347222 </v>
   <v>       0.00347222 </v>
   <v>       0.00347222 </v>
   <v>       0.00347222 </v>
   <v>       0.00347222 </v>
   <v>       0.00347222 </v>
   <v>       0.00347222 </v>
   <v>       0.00347222 </v>
   <v>       0.00347222 </v>
   <v>       0.00347222 </v>
   <v>       0.00347222 </v>
   <v>       0.00347222 </v>
   <v>       0.00347222 </v>
   <v>       0.00347222 </v>
   <v>       0.00347222 </v>
   <v>       0.00347222 </v>
   <v>       0.00347222 </v>
   <v>       0.00347222 </v>
   <v>       0.00347222 </v>
   <v>       0.00347222 </v>
   <v>       0.00347222 </v>
   <v>       0.00347222 </v>
   <v>       0.00347222 </v>
   <v>       0.00347222 </v>
   <v>       0.00347222 </v>
   <v>       0.00347222 </v>
   <v>       0.00347222 </v>
   <v>       0.00347222 </v>
   <v>       0.00347222 </v>
   <v>       0.00347222 </v>
   <v>       0.00347222 </v>
   <v>       0.00347222 </v>
   <v>       0.00347222 </v>
   <v>       0.00347222 </v>
   <v>       0.00347222 </v>
   <v>       0.00347222 </v>
   <v>       0.00347222 </v>
   <v>       0.00347222 </v>
   <v>       0.00347222 </v>
   <v>       0.00347222 </v>
   <v>       0.00347222 </v>
   <v>       0.00347222 </v>
   <v>       0.00347222 </v>
   <v>       0.00347222 </v>
   <v>       0.00347222 </v>
   <v>       0.00347222 </v>
   <v>       0.00347222 </v>
   <v>       0.00347222 </v>
   <v>       0.00347222 </v>
   <v>       0.00347222 </v>
   <v>       0.00347222 </v>
   <v>       0.00347222 </v>
   <v>       0.00347222 </v>
   <v>       0.00347222 </v>
   <v>       0.00347222 </v>
   <v>       0.00347222 </v>
   <v>       0.00347222 </v>
   <v>       0.00347222 </v>
   <v>       0.00347222 </v>
   <v>       0.00347222 </v>
   <v>       0.00347222 </v>
   <v>       0.00347222 </v>
   <v>       0.00347222 </v>
   <v>       0.00347222 </v>
   <v>       0.00347222 </v>
   <v>       0.00347222 </v>
   <v>       0.00347222 </v>
   <v>       0.00347222 </v>
   <v>       0.00347222 </v>
   <v>       0.00347222 </v>
   <v>       0.00347222 </v>
   <v>       0.00347222 </v>
   <v>       0.00347222 </v>
   <v>       0.00347222 </v>
   <v>       0.00347222 </v>
   <v>       0.00347222 </v>
   <v>       0.00347222 </v>
   <v>       0.00347222 </v>
   <v>       0.00347222 </v>
   <v>       0.00347222 </v>
   <v>       0.00347222 </v>
   <v>       0.00347222 </v>
   <v>       0.00347222 </v>
   <v>       0.00347222 </v>
   <v>       0.00347222 </v>
   <v>       0.00347222 </v>
   <v>       0.00347222 </v>
   <v>       0.00347222 </v>
   <v>       0.00347222 </v>
   <v>       0.00347222 </v>
   <v>       0.00347222 </v>
   <v>       0.00347222 </v>
   <v>       0.00347222 </v>
   <v>       0.00347222 </v>
   <v>       0.00347222 </v>
   <v>       0.00347222 </v>
   <v>       0.00347222 </v>
   <v>       0.00347222 </v>
   <v>       0.00347222 </v>
   <v>       0.00347222 </v>
   <v>       0.00347222 </v>
   <v>       0.00347222 </v>
   <v>       0.00347222 </v>
   <v>       0.00347222 </v>
   <v>       0.00347222 </v>
   <v>       0.00347222 </v>
   <v>       0.00347222 </v>
   <v>       0.00347222 </v>
   <v>       0.00347222 </v>
   <v>       0.00347222 </v>
   <v>       0.00347222 </v>
   <v>       0.00347222 </v>
   <v>       0.00347222 </v>
   <v>       0.00347222 </v>
   <v>       0.00347222 </v>
   <v>       0.00347222 </v>
   <v>       0.00347222 </v>
   <v>       0.00347222 </v>
   <v>       0.00173611 </v>
   <v>       0.00347222 </v>
   <v>       0.00347222 </v>
   <v>       0.00347222 </v>
   <v>       0.00347222 </v>
   <v>       0.00347222 </v>
   <v>       0.00347222 </v>
   <v>       0.00347222 </v>
   <v>       0.00347222 </v>
   <v>       0.00347222 </v>
   <v>       0.00347222 </v>
   <v>       0.00347222 </v>
   <v>       0.00173611 </v>
  </varray>
 </kpoints>
 <parameters>
  <separator name="general" >
   <i type="string" name="SYSTEM">unknown system</i>
   <i type="logical" name="LCOMPAT"> F  </i>
  </separator>
  <separator name="electronic" >
   <i type="string" name="PREC">a</i>
   <i name="ENMAX">    520.00000000</i>
   <i name="ENAUG">    644.87300000</i>
   <i name="EDIFF">      0.00001000</i>
   <i type="int" name="IALGO">    38</i>
   <i type="int" name="IWAVPR">    10</i>
   <i type="int" name="NBANDS">    12</i>
   <i name="NELECT">      8.00000000</i>
   <i type="int" name="TURBO">     0</i>
   <i type="int" name="IRESTART">     0</i>
   <i type="int" name="NREBOOT">     0</i>
   <i type="int" name="NMIN">     0</i>
   <i name="EREF">      0.00000000</i>
   <separator name="electronic smearing" >
    <i type="int" name="ISMEAR">     0</i>
    <i name="SIGMA">      0.02000000</i>
    <i name="KSPACING">      0.50000000</i>
    <i type="logical" name="KGAMMA"> T  </i>
   </separator>
   <separator name="electronic projectors" >
    <i type="logical" name="LREAL"> T  </i>
    <v name="ROPT">     -0.00025000</v>
    <i type="int" name="LMAXPAW">  -100</i>
    <i type="int" name="LMAXMIX">     2</i>
    <i type="logical" name="NLSPLINE"> F  </i>
   </separator>
   <separator name="electronic startup" >
    <i type="int" name="ISTART">     0</i>
    <i type="int" name="ICHARG">     2</i>
    <i type="int" name="INIWAV">     1</i>
   </separator>
   <separator name="electronic spin" >
    <i type="int" name="ISPIN">     1</i>
    <i type="logical" name="LNONCOLLINEAR"> F  </i>
    <v name="MAGMOM">      0.60000000      0.60000000</v>
    <i name="NUPDOWN">     -1.00000000</i>
    <i type="logical" name="LSORBIT"> F  </i>
    <v name="SAXIS">      0.00000000      0.00000000      1.00000000</v>
    <i type="logical" name="LSPIRAL"> F  </i>
    <v name="QSPIRAL">      0.00000000      0.00000000      0.00000000</v>
    <i type="logical" name="LZEROZ"> F  </i>
   </separator>
   <separator name="electronic exchange-correlation" >
    <i type="logical" name="LASPH"> F  </i>
    <i type="logical" name="LMETAGGA"> F  </i>
   </separator>
   <separator name="electronic convergence" >
    <i type="int" name="NELM">   250</i>
    <i type="int" name="NELMDL">    -5</i>
    <i type="int" name="NELMIN">     6</i>
    <i name="ENINI">    520.00000000</i>
    <separator name="electronic convergence detail" >
     <i type="logical" name="LDIAG"> T  </i>
     <i type="logical" name="LSUBROT"> F  </i>
     <i name="WEIMIN">      0.00000000</i>
     <i name="EBREAK">      0.00000021</i>
     <i name="DEPER">      0.30000000</i>
     <i type="int" name="NRMM">     4</i>
     <i name="TIME">      0.40000000</i>
    </separator>
   </separator>
   <separator name="electronic mixer" >
    <i name="AMIX">      0.40000000</i>
    <i name="BMIX">      1.00000000</i>
    <i name="AMIN">      0.10000000</i>
    <i name="AMIX_MAG">      1.60000000</i>
    <i name="BMIX_MAG">      1.00000000</i>
    <separator name="electronic mixer details" >
     <i type="int" name="IMIX">     4</i>
     <i type="logical" name="MIXFIRST"> F  </i>
     <i type="int" name="MAXMIX">   -45</i>
     <i name="WC">    100.00000000</i>
     <i type="int" name="INIMIX">     1</i>
     <i type="int" name="MIXPRE">     1</i>
     <i type="int" name="MREMOVE">     5</i>
    </separator>
   </separator>
   <separator name="electronic dipolcorrection" >
    <i type="logical" name="LDIPOL"> F  </i>
    <i type="logical" name="LMONO"> F  </i>
    <i type="int" name="IDIPOL">     0</i>
    <i name="EPSILON">      1.00000000</i>
    <v name="DIPOL">   -100.00000000   -100.00000000   -100.00000000</v>
    <i name="EFIELD">      0.00000000</i>
   </separator>
  </separator>
  <separator name="grids" >
   <i type="int" name="NGX">    18</i>
   <i type="int" name="NGY">    18</i>
   <i type="int" name="NGZ">   112</i>
   <i type="int" name="NGXF">    36</i>
   <i type="int" name="NGYF">    36</i>
   <i type="int" name="NGZF">   224</i>
   <i type="logical" name="ADDGRID"> F  </i>
  </separator>
  <separator name="ionic" >
   <i type="int" name="NSW">     0</i>
   <i type="int" name="IBRION">    -1</i>
   <i type="int" name="ISIF">     2</i>
   <i name="PSTRESS">      0.00000000</i>
   <i name="EDIFFG">     -0.00500000</i>
   <i type="int" name="NFREE">     1</i>
   <i name="POTIM">      0.25000000</i>
   <i name="SMASS">     -3.00000000</i>
   <i name="SCALEE">      1.00000000</i>
  </separator>
  <separator name="ionic md" >
   <i name="TEBEG">      0.00010000</i>
   <i name="TEEND">      0.00010000</i>
   <i type="int" name="NBLOCK">     1</i>
   <i type="int" name="KBLOCK">     1</i>
   <i type="int" name="NPACO">   256</i>
   <i name="APACO">     16.00000000</i>
  </separator>
  <separator name="symmetry" >
   <i type="int" name="ISYM">     2</i>
   <i name="SYMPREC">      0.00001000</i>
  </separator>
  <separator name="dos" >
   <i type="logical" name="LORBIT"> F  </i>
   <v name="RWIGS">     -1.00000000</v>
   <i type="int" name="NEDOS">   301</i>
   <i name="EMIN">     10.00000000</i>
   <i name="EMAX">    -10.00000000</i>
   <i name="EFERMI">      0.00000000</i>
  </separator>
  <separator name="writing" >
   <i type="int" name="NWRITE">     2</i>
   <i type="logical" name="LWAVE"> F  </i>
   <i type="logical" name="LCHARG"> F  </i>
   <i type="logical" name="LPARD"> F  </i>
   <i type="logical" name="LVTOT"> F  </i>
   <i type="logical" name="LVHAR"> F  </i>
   <i type="logical" name="LELF"> F  </i>
   <i type="logical" name="LOPTICS"> F  </i>
   <v name="STM">      0.00000000      0.00000000      0.00000000      0.00000000      0.00000000      0.00000000      0.00000000</v>
  </separator>
  <separator name="performance" >
   <i type="int" name="NPAR">     6</i>
   <i type="int" name="NSIM">     4</i>
   <i type="int" name="NBLK">    -1</i>
   <i type="logical" name="LPLANE"> T  </i>
   <i type="logical" name="LSCALAPACK"> T  </i>
   <i type="logical" name="LSCAAWARE"> F  </i>
   <i type="logical" name="LSCALU"> F  </i>
   <i type="logical" name="LASYNC"> F  </i>
   <i type="logical" name="LORBITALREAL"> F  </i>
  </separator>
  <separator name="miscellaneous" >
   <i type="int" name="IDIOT">     3</i>
   <i type="logical" name="LMUSIC"> F  </i>
   <v name="POMASS">     12.01100000</v>
   <v name="DARWINR">      0.00000000</v>
   <v name="DARWINV">      1.00000000</v>
   <i type="logical" name="LCORR"> T  </i>
  </separator>
  <i type="logical" name="GGA_COMPAT"> T  </i>
  <i type="logical" name="LBERRY"> F  </i>
  <i type="int" name="ICORELEVEL">     0</i>
  <i type="logical" name="LDAU"> F  </i>
  <i type="int" name="I_CONSTRAINED_M">     0</i>
  <separator name="electronic exchange-correlation" >
   <i type="string" name="GGA">--</i>
   <i type="int" name="VOSKOWN">     0</i>
   <i type="logical" name="LHFCALC"> F  </i>
   <i type="string" name="PRECFOCK"></i>
   <i type="logical" name="LSYMGRAD"> F  </i>
   <i type="logical" name="LHFONE"> F  </i>
   <i type="logical" name="LRHFCALC"> F  </i>
   <i type="logical" name="LTHOMAS"> F  </i>
   <i type="logical" name="LMODELHF"> F  </i>
   <i name="ENCUT4O">     -1.00000000</i>
   <i type="int" name="EXXOEP">     0</i>
   <i type="int" name="FOURORBIT">     0</i>
   <i name="AEXX">      0.00000000</i>
   <i name="HFALPHA">      0.00000000</i>
   <i name="MCALPHA">      0.00000000</i>
   <i name="ALDAX">      1.00000000</i>
   <i name="AGGAX">      1.00000000</i>
   <i name="ALDAC">      1.00000000</i>
   <i name="AGGAC">      1.00000000</i>
   <i type="int" name="NKREDX">     1</i>
   <i type="int" name="NKREDY">     1</i>
   <i type="int" name="NKREDZ">     1</i>
   <i type="logical" name="SHIFTRED"> F  </i>
   <i type="logical" name="ODDONLY"> F  </i>
   <i type="logical" name="EVENONLY"> F  </i>
   <i type="int" name="LMAXFOCK">     0</i>
   <i type="int" name="NMAXFOCKAE">     0</i>
   <i type="logical" name="LFOCKAEDFT"> F  </i>
   <i name="HFSCREEN">      0.00000000</i>
   <i name="HFSCREENC">      0.00000000</i>
   <i type="int" name="NBANDSGWLOW">     0</i>
  </separator>
  <separator name="vdW DFT" >
   <i type="logical" name="LUSE_VDW"> F  </i>
   <i name="Zab_VDW">     -0.84910000</i>
   <i name="PARAM1">      0.12340000</i>
   <i name="PARAM2">      1.00000000</i>
   <i name="PARAM3">      0.00000000</i>
  </separator>
  <separator name="model GW" >
   <i type="int" name="MODEL_GW">     0</i>
   <i name="MODEL_EPS0">     23.64778773</i>
   <i name="MODEL_ALPHA">      1.00000000</i>
  </separator>
  <separator name="linear response parameters" >
   <i type="logical" name="LEPSILON"> F  </i>
   <i type="logical" name="LRPA"> F  </i>
   <i type="logical" name="LNABLA"> F  </i>
   <i type="logical" name="LVEL"> F  </i>
   <i type="int" name="KINTER">     0</i>
   <i name="CSHIFT">      0.10000000</i>
   <i name="OMEGAMAX">     -1.00000000</i>
   <i name="DEG_THRESHOLD">      0.00200000</i>
  </separator>
  <separator name="orbital magnetization" >
   <i type="logical" name="NUCIND"> F  </i>
   <v name="MAGPOS">      0.00000000      0.00000000      0.00000000</v>
   <i type="logical" name="LNICSALL"> T  </i>
   <i type="logical" name="ORBITALMAG"> F  </i>
   <i type="logical" name="LMAGBLOCH"> F  </i>
   <i type="logical" name="LCHIMAG"> F  </i>
   <i type="logical" name="LGAUGE"> T  </i>
   <i type="int" name="MAGATOM">     0</i>
   <v name="MAGDIPOL">      0.00000000      0.00000000      0.00000000</v>
   <v name="AVECCONST">      0.00000000      0.00000000      0.00000000</v>
  </separator>
  <separator name="response functions" >
   <i type="logical" name="LADDER"> F  </i>
   <i type="logical" name="LFXC"> F  </i>
   <i type="logical" name="LHARTREE"> T  </i>
   <i type="int" name="IBSE">     0</i>
   <v type="int" name="KPOINT">    -1     0     0     0</v>
   <i type="logical" name="LTCTE"> F  </i>
   <i type="logical" name="LTETE"> F  </i>
   <i type="logical" name="LTRIPLET"> F  </i>
   <i type="logical" name="LFXCEPS"> F  </i>
   <i type="logical" name="LFXHEG"> F  </i>
   <i type="int" name="NATURALO">     0</i>
   <i type="logical" name="L2ORDER"> F  </i>
   <i type="logical" name="LUSEW"> F  </i>
   <i name="ENCUTGW">     -2.00000000</i>
   <i name="ENCUTGWSOFT">     -2.00000000</i>
   <i name="ENCUTLF">     -1.00000000</i>
   <i type="int" name="LMAXMP2">    -1</i>
   <i name="SCISSOR">      0.00000000</i>
   <i type="int" name="NOMEGA">     0</i>
   <i type="int" name="NOMEGAR">     0</i>
   <i type="int" name="NBANDSGW">    -1</i>
   <i type="int" name="NBANDSO">    -1</i>
   <i type="int" name="NBANDSV">    -1</i>
   <i type="int" name="NELM">   250</i>
   <i type="int" name="NELMHF">     1</i>
   <i type="int" name="DIM">     3</i>
   <i type="int" name="ANTIRES">     0</i>
   <i name="OMEGAMAX">    -30.00000000</i>
   <i name="OMEGAMIN">    -30.00000000</i>
   <i name="OMEGATL">   -200.00000000</i>
   <i type="int" name="OMEGAGRID">     0</i>
   <i name="CSHIFT">     -0.10000000</i>
   <i type="logical" name="SELFENERGY"> F  </i>
   <i type="logical" name="LSPECTRAL"> F  </i>
   <i type="logical" name="LSPECTRALGW"> F  </i>
   <i type="logical" name="LSINGLES"> F  </i>
   <i type="logical" name="LFERMIGW"> F  </i>
   <i type="logical" name="ODDONLYGW"> F  </i>
   <i type="logical" name="EVENONLYGW"> F  </i>
   <i type="int" name="NKREDLFX">     1</i>
   <i type="int" name="NKREDLFY">     1</i>
   <i type="int" name="NKREDLFZ">     1</i>
   <i type="int" name="MAXMEM">  1800</i>
   <i type="int" name="TELESCOPE">     0</i>
   <i type="int" name="TAUPAR">     1</i>
   <i type="int" name="OMEGAPAR">    -1</i>
   <i name="LAMBDA">      1.00000000</i>
  </separator>
  <separator name="External order field" >
   <i name="OFIELD_KAPPA">      0.00000000</i>
   <v name="OFIELD_K">      0.00000000      0.00000000      0.00000000</v>
   <i name="OFIELD_Q6_NEAR">      0.00000000</i>
   <i name="OFIELD_Q6_FAR">      0.00000000</i>
   <i name="OFIELD_A">      0.00000000</i>
  </separator>
 </parameters>
 <atominfo>
  <atoms>       2 </atoms>
  <types>       1 </types>
  <array name="atoms" >
   <dimension dim="1">ion</dimension>
   <field type="string">element</field>
   <field type="int">atomtype</field>
   <set>
    <rc><c>C </c><c>   1</c></rc>
    <rc><c>C </c><c>   1</c></rc>
   </set>
  </array>
  <array name="atomtypes" >
   <dimension dim="1">type</dimension>
   <field type="int">atomspertype</field>
   <field type="string">element</field>
   <field>mass</field>
   <field>valence</field>
   <field type="string">pseudopotential</field>
   <set>
    <rc><c>   2</c><c>C </c><c>     12.01100000</c><c>      4.00000000</c><c>  PAW_PBE C 08Apr2002                   </c></rc>
   </set>
  </array>
 </atominfo>
 <structure name="initialpos" >
  <crystal>
   <varray name="basis" >
    <v>       2.45872200      -0.00927300       0.00000000 </v>
    <v>      -1.23739100       2.14198200       0.00000000 </v>
    <v>       0.00000000       0.00000000      15.00000000 </v>
   </varray>
   <i name="volume">     78.82595910 </i>
   <varray name="rec_basis" >
    <v>       0.40760341       0.23546640       0.00000000 </v>
    <v>       0.00176458       0.46787670       0.00000000 </v>
    <v>       0.00000000       0.00000000       0.06666667 </v>
   </varray>
  </crystal>
  <varray name="positions" >
   <v>       0.99971163       0.99987159       0.50000000 </v>
   <v>       0.33362137       0.66679541       0.50000000 </v>
  </varray>
 </structure>
 <calculation>
  <scstep>
   <time name="dav">    0.83    0.83</time>
   <time name="total">    0.84    0.89</time>
   <energy>
    <i name="alphaZ">      4.16851083 </i>
    <i name="ewald">    839.03923549 </i>
    <i name="hartreedc">  -1057.69385013 </i>
    <i name="XCdc">     26.37440654 </i>
    <i name="pawpsdc">    217.04409276 </i>
    <i name="pawaedc">   -218.18290438 </i>
    <i name="eentropy">     -0.00010765 </i>
    <i name="bandstr">    -69.90166009 </i>
    <i name="atom">    294.29778662 </i>
    <i name="e_fr_energy">     35.14550999 </i>
    <i name="e_wo_entrp">     35.14561765 </i>
    <i name="e_0_energy">     35.14556382 </i>
   </energy>
  </scstep>
  <scstep>
   <time name="dav">    1.06    1.07</time>
   <time name="total">    1.06    1.07</time>
   <energy>
    <i name="e_fr_energy">    -18.00063337 </i>
    <i name="e_wo_entrp">    -18.00063337 </i>
    <i name="e_0_energy">    -18.00063337 </i>
   </energy>
  </scstep>
  <scstep>
   <time name="dav">    1.25    1.25</time>
   <time name="total">    1.25    1.25</time>
   <energy>
    <i name="e_fr_energy">    -19.72818492 </i>
    <i name="e_wo_entrp">    -19.72818492 </i>
    <i name="e_0_energy">    -19.72818492 </i>
   </energy>
  </scstep>
  <scstep>
   <time name="dav">    1.20    1.20</time>
   <time name="total">    1.20    1.20</time>
   <energy>
    <i name="e_fr_energy">    -19.73496369 </i>
    <i name="e_wo_entrp">    -19.73496369 </i>
    <i name="e_0_energy">    -19.73496369 </i>
   </energy>
  </scstep>
  <scstep>
   <time name="dav">    1.20    1.20</time>
   <time name="total">    1.23    1.24</time>
   <energy>
    <i name="e_fr_energy">    -19.73497053 </i>
    <i name="e_wo_entrp">    -19.73497053 </i>
    <i name="e_0_energy">    -19.73497053 </i>
   </energy>
  </scstep>
  <scstep>
   <time name="dav">    1.06    1.06</time>
   <time name="total">    1.09    1.10</time>
   <energy>
    <i name="e_fr_energy">    -18.81174109 </i>
    <i name="e_wo_entrp">    -18.81174109 </i>
    <i name="e_0_energy">    -18.81174109 </i>
   </energy>
  </scstep>
  <scstep>
   <time name="dav">    1.15    1.15</time>
   <time name="total">    1.19    1.19</time>
   <energy>
    <i name="e_fr_energy">    -18.45594861 </i>
    <i name="e_wo_entrp">    -18.45594860 </i>
    <i name="e_0_energy">    -18.45594860 </i>
   </energy>
  </scstep>
  <scstep>
   <time name="dav">    1.13    1.13</time>
   <time name="total">    1.17    1.17</time>
   <energy>
    <i name="e_fr_energy">    -18.44826561 </i>
    <i name="e_wo_entrp">    -18.44826560 </i>
    <i name="e_0_energy">    -18.44826560 </i>
   </energy>
  </scstep>
  <scstep>
   <time name="dav">    1.04    1.04</time>
   <time name="total">    1.08    1.08</time>
   <energy>
    <i name="e_fr_energy">    -18.44630829 </i>
    <i name="e_wo_entrp">    -18.44630829 </i>
    <i name="e_0_energy">    -18.44630829 </i>
   </energy>
  </scstep>
  <scstep>
   <time name="dav">    0.91    0.91</time>
   <time name="total">    0.94    0.94</time>
   <energy>
    <i name="e_fr_energy">    -18.44476429 </i>
    <i name="e_wo_entrp">    -18.44476429 </i>
    <i name="e_0_energy">    -18.44476429 </i>
   </energy>
  </scstep>
  <scstep>
   <time name="dav">    0.88    0.88</time>
   <time name="total">    0.91    0.92</time>
   <energy>
    <i name="e_fr_energy">    -18.44499123 </i>
    <i name="e_wo_entrp">    -18.44499122 </i>
    <i name="e_0_energy">    -18.44499122 </i>
   </energy>
  </scstep>
  <scstep>
   <time name="dav">    0.92    0.92</time>
   <time name="total">    0.95    0.95</time>
   <energy>
    <i name="e_fr_energy">    -18.44520925 </i>
    <i name="e_wo_entrp">    -18.44520924 </i>
    <i name="e_0_energy">    -18.44520924 </i>
   </energy>
  </scstep>
  <scstep>
   <time name="dav">    0.90    0.90</time>
   <time name="total">    0.93    0.93</time>
   <energy>
    <i name="e_fr_energy">    -18.44593320 </i>
    <i name="e_wo_entrp">    -18.44593319 </i>
    <i name="e_0_energy">    -18.44593319 </i>
   </energy>
  </scstep>
  <scstep>
   <time name="dav">    1.09    1.09</time>
   <time name="total">    1.12    1.13</time>
   <energy>
    <i name="e_fr_energy">    -18.44598815 </i>
    <i name="e_wo_entrp">    -18.44598814 </i>
    <i name="e_0_energy">    -18.44598814 </i>
   </energy>
  </scstep>
  <scstep>
   <time name="dav">    0.87    0.87</time>
   <time name="total">    0.91    0.91</time>
   <energy>
    <i name="e_fr_energy">    -18.44608825 </i>
    <i name="e_wo_entrp">    -18.44608825 </i>
    <i name="e_0_energy">    -18.44608825 </i>
   </energy>
  </scstep>
  <scstep>
   <time name="dav">    0.91    0.91</time>
   <time name="total">    0.92    0.92</time>
   <energy>
    <i name="alphaZ">      4.16851083 </i>
    <i name="ewald">    839.03923549 </i>
    <i name="hartreedc">  -1091.06982954 </i>
    <i name="XCdc">     27.56335974 </i>
    <i name="pawpsdc">    840.15453875 </i>
    <i name="pawaedc">   -841.52430899 </i>
    <i name="eentropy">     -0.00000000 </i>
    <i name="bandstr">    -91.07538846 </i>
    <i name="atom">    294.29778662 </i>
    <i name="e_fr_energy">    -18.44609557 </i>
    <i name="e_wo_entrp">    -18.44609557 </i>
    <i name="e_0_energy">    -18.44609557 </i>
   </energy>
  </scstep>
  <structure>
   <crystal>
    <varray name="basis" >
     <v>       2.45872200      -0.00927300       0.00000000 </v>
     <v>      -1.23739100       2.14198200       0.00000000 </v>
     <v>       0.00000000       0.00000000      15.00000000 </v>
    </varray>
    <i name="volume">     78.82595910 </i>
    <varray name="rec_basis" >
     <v>       0.40760341       0.23546640       0.00000000 </v>
     <v>       0.00176458       0.46787670       0.00000000 </v>
     <v>       0.00000000       0.00000000       0.06666667 </v>
    </varray>
   </crystal>
   <varray name="positions" >
    <v>       0.99971163       0.99987159       0.50000000 </v>
    <v>       0.33362137       0.66679541       0.50000000 </v>
   </varray>
  </structure>
  <varray name="forces" >
   <v>       0.11575611       0.05823306       0.00000000 </v>
   <v>      -0.11575611      -0.05823306       0.00000000 </v>
  </varray>
  <varray name="stress" >
   <v>       8.90332555       7.25334380       0.00000000 </v>
   <v>       7.25334381       1.63492942       0.00000000 </v>
   <v>       0.00000000       0.00000000      -0.07659490 </v>
  </varray>
  <energy>
   <i name="e_fr_energy">    -18.44609557 </i>
   <i name="e_wo_entrp">    -18.44609557 </i>
   <i name="e_0_energy">     -0.00000000 </i>
  </energy>
  <time name="totalsc">   17.48   17.56</time>
  <eigenvalues>
   <array>
    <dimension dim="1">band</dimension>
    <dimension dim="2">kpoint</dimension>
    <dimension dim="3">spin</dimension>
    <field>eigene</field>
    <field>occ</field>
    <set>
     <set comment="spin 1">
      <set comment="kpoint 1">
       <r>  -21.7758    1.0000 </r>
       <r>   -9.8740    1.0000 </r>
       <r>   -5.2645    1.0000 </r>
       <r>   -5.2637    1.0000 </r>
       <r>    1.0115    0.0000 </r>
       <r>    1.9259    0.0000 </r>
       <r>    2.3837    0.0000 </r>
       <r>    4.3438    0.0000 </r>
       <r>    5.0837    0.0000 </r>
       <r>    5.9862    0.0000 </r>
       <r>    6.2159    0.0000 </r>
       <r>    8.2199    0.0000 </r>
      </set>
      <set comment="kpoint 2">
       <r>  -21.7343    1.0000 </r>
       <r>   -9.8244    1.0000 </r>
       <r>   -5.4304    1.0000 </r>
       <r>   -5.3565    1.0000 </r>
       <r>    1.0679    0.0000 </r>
       <r>    1.9827    0.0000 </r>
       <r>    2.4411    0.0000 </r>
       <r>    4.4003    0.0000 </r>
       <r>    5.1389    0.0000 </r>
       <r>    6.1687    0.0000 </r>
       <r>    6.2242    0.0000 </r>
       <r>    8.2748    0.0000 </r>
      </set>
      <set comment="kpoint 3">
       <r>  -21.6100    1.0000 </r>
       <r>   -9.6758    1.0000 </r>
       <r>   -5.9041    1.0000 </r>
       <r>   -5.6150    1.0000 </r>
       <r>    1.2369    0.0000 </r>
       <r>    2.1530    0.0000 </r>
       <r>    2.6132    0.0000 </r>
       <r>    4.5696    0.0000 </r>
       <r>    5.3041    0.0000 </r>
       <r>    6.2247    0.0000 </r>
       <r>    6.6992    0.0000 </r>
       <r>    8.4389    0.0000 </r>
      </set>
      <set comment="kpoint 4">
       <r>  -21.4031    1.0000 </r>
       <r>   -9.4293    1.0000 </r>
       <r>   -6.6258    1.0000 </r>
       <r>   -5.9918    1.0000 </r>
       <r>    1.5185    0.0000 </r>
       <r>    2.4365    0.0000 </r>
       <r>    2.9001    0.0000 </r>
       <r>    4.8514    0.0000 </r>
       <r>    5.5750    0.0000 </r>
       <r>    6.1873    0.0000 </r>
       <r>    7.5229    0.0000 </r>
       <r>    7.9995    0.0000 </r>
      </set>
      <set comment="kpoint 5">
       <r>  -21.1144    1.0000 </r>
       <r>   -9.0864    1.0000 </r>
       <r>   -7.5255    1.0000 </r>
       <r>   -6.4330    1.0000 </r>
       <r>    1.9127    0.0000 </r>
       <r>    2.8326    0.0000 </r>
       <r>    3.3018    0.0000 </r>
       <r>    5.2444    0.0000 </r>
       <r>    5.8935    0.0000 </r>
       <r>    6.1522    0.0000 </r>
       <r>    7.1500    0.0000 </r>
       <r>    8.5804    0.0000 </r>
      </set>
      <set comment="kpoint 6">
       <r>  -20.7445    1.0000 </r>
       <r>   -8.6501    1.0000 </r>
       <r>   -8.5399    1.0000 </r>
       <r>   -6.8926    1.0000 </r>
       <r>    2.4189    0.0000 </r>
       <r>    3.3398    0.0000 </r>
       <r>    3.8179    0.0000 </r>
       <r>    5.7333    0.0000 </r>
       <r>    5.8645    0.0000 </r>
       <r>    6.1717    0.0000 </r>
       <r>    6.5270    0.0000 </r>
       <r>    9.5770    0.0000 </r>
      </set>
      <set comment="kpoint 7">
       <r>  -20.2947    1.0000 </r>
       <r>   -9.6188    1.0000 </r>
       <r>   -8.1247    1.0000 </r>
       <r>   -7.3361    1.0000 </r>
       <r>    3.0365    0.0000 </r>
       <r>    3.9474    0.0000 </r>
       <r>    4.4478    0.0000 </r>
       <r>    5.0565    0.0000 </r>
       <r>    5.6931    0.0000 </r>
       <r>    6.3812    0.0000 </r>
       <r>    7.1316    0.0000 </r>
       <r>   10.1626    0.0000 </r>
      </set>
      <set comment="kpoint 8">
       <r>  -19.7666    1.0000 </r>
       <r>  -10.7246    1.0000 </r>
       <r>   -7.7394    1.0000 </r>
       <r>   -7.5172    1.0000 </r>
       <r>    3.7639    0.0000 </r>
       <r>    3.8472    0.0000 </r>
       <r>    4.7383    0.0000 </r>
       <r>    5.1826    0.0000 </r>
       <r>    5.5206    0.0000 </r>
       <r>    7.1043    0.0000 </r>
       <r>    7.8573    0.0000 </r>
       <r>   10.8410    0.0000 </r>
      </set>
      <set comment="kpoint 9">
       <r>  -19.1627    1.0000 </r>
       <r>  -11.8288    1.0000 </r>
       <r>   -8.0861    1.0000 </r>
       <r>   -6.8396    1.0000 </r>
       <r>    2.7006    0.0000 </r>
       <r>    4.5933    0.0000 </r>
       <r>    5.3364    0.0000 </r>
       <r>    5.5606    0.0000 </r>
       <r>    6.0649    0.0000 </r>
       <r>    7.9374    0.0000 </r>
       <r>    8.6957    0.0000 </r>
       <r>   11.5941    0.0000 </r>
      </set>
      <set comment="kpoint 10">
       <r>  -18.4868    1.0000 </r>
       <r>  -12.9096    1.0000 </r>
       <r>   -8.3650    1.0000 </r>
       <r>   -6.1148    1.0000 </r>
       <r>    1.5711    0.0000 </r>
       <r>    5.1430    0.0000 </r>
       <r>    5.5938    0.0000 </r>
       <r>    6.5086    0.0000 </r>
       <r>    7.0354    0.0000 </r>
       <r>    8.8737    0.0000 </r>
       <r>    9.6435    0.0000 </r>
       <r>   12.3597    0.0000 </r>
      </set>
      <set comment="kpoint 11">
       <r>  -17.7467    1.0000 </r>
       <r>  -13.9468    1.0000 </r>
       <r>   -8.5688    1.0000 </r>
       <r>   -5.3908    1.0000 </r>
       <r>    0.5427    0.0000 </r>
       <r>    5.0580    0.0000 </r>
       <r>    6.6252    0.0000 </r>
       <r>    7.5626    0.0000 </r>
       <r>    8.1226    0.0000 </r>
       <r>    9.9022    0.0000 </r>
       <r>   10.6964    0.0000 </r>
       <r>   11.7128    0.0000 </r>
      </set>
      <set comment="kpoint 12">
       <r>  -16.9697    1.0000 </r>
       <r>  -14.9050    1.0000 </r>
       <r>   -8.6927    1.0000 </r>
       <r>   -4.7813    1.0000 </r>
       <r>   -0.2551    0.0000 </r>
       <r>    4.9940    0.0000 </r>
       <r>    7.7779    0.0000 </r>
       <r>    8.7120    0.0000 </r>
       <r>    9.3227    0.0000 </r>
       <r>   10.3570    0.0000 </r>
       <r>   10.9173    0.0000 </r>
       <r>   11.3900    0.0000 </r>
      </set>
      <set comment="kpoint 13">
       <r>  -16.4267    1.0000 </r>
       <r>  -15.5089    1.0000 </r>
       <r>   -8.7343    1.0000 </r>
       <r>   -4.5195    1.0000 </r>
       <r>   -0.5806    0.0000 </r>
       <r>    4.9720    0.0000 </r>
       <r>    8.9613    0.0000 </r>
       <r>    9.0966    0.0000 </r>
       <r>    9.8171    0.0000 </r>
       <r>   10.0870    0.0000 </r>
       <r>   10.6251    0.0000 </r>
       <r>   10.6458    0.0000 </r>
      </set>
      <set comment="kpoint 14">
       <r>  -21.7348    1.0000 </r>
       <r>   -9.8251    1.0000 </r>
       <r>   -5.4351    1.0000 </r>
       <r>   -5.3524    1.0000 </r>
       <r>    1.0671    0.0000 </r>
       <r>    1.9820    0.0000 </r>
       <r>    2.4404    0.0000 </r>
       <r>    4.3996    0.0000 </r>
       <r>    5.1378    0.0000 </r>
       <r>    6.0464    0.0000 </r>
       <r>    6.3666    0.0000 </r>
       <r>    8.2740    0.0000 </r>
      </set>
      <set comment="kpoint 15">
       <r>  -21.6519    1.0000 </r>
       <r>   -9.7259    1.0000 </r>
       <r>   -5.7535    1.0000 </r>
       <r>   -5.5290    1.0000 </r>
       <r>    1.1799    0.0000 </r>
       <r>    2.0956    0.0000 </r>
       <r>    2.5552    0.0000 </r>
       <r>    4.5125    0.0000 </r>
       <r>    5.2484    0.0000 </r>
       <r>    6.2265    0.0000 </r>
       <r>    6.5402    0.0000 </r>
       <r>    8.3834    0.0000 </r>
      </set>
      <set comment="kpoint 16">
       <r>  -21.4862    1.0000 </r>
       <r>   -9.5283    1.0000 </r>
       <r>   -6.3300    1.0000 </r>
       <r>   -5.8676    1.0000 </r>
       <r>    1.4053    0.0000 </r>
       <r>    2.3225    0.0000 </r>
       <r>    2.7848    0.0000 </r>
       <r>    4.7381    0.0000 </r>
       <r>    5.4684    0.0000 </r>
       <r>    6.3072    0.0000 </r>
       <r>    7.0952    0.0000 </r>
       <r>    8.2571    0.0000 </r>
      </set>
      <set comment="kpoint 17">
       <r>  -21.2384    1.0000 </r>
       <r>   -9.2335    1.0000 </r>
       <r>   -7.1166    1.0000 </r>
       <r>   -6.3008    1.0000 </r>
       <r>    1.7434    0.0000 </r>
       <r>    2.6625    0.0000 </r>
       <r>    3.1292    0.0000 </r>
       <r>    5.0758    0.0000 </r>
       <r>    5.7894    0.0000 </r>
       <r>    6.2878    0.0000 </r>
       <r>    7.5080    0.0000 </r>
       <r>    7.9518    0.0000 </r>
      </set>
      <set comment="kpoint 18">
       <r>  -20.9090    1.0000 </r>
       <r>   -8.8438    1.0000 </r>
       <r>   -8.0543    1.0000 </r>
       <r>   -6.7709    1.0000 </r>
       <r>    2.1937    0.0000 </r>
       <r>    3.1145    0.0000 </r>
       <r>    3.5882    0.0000 </r>
       <r>    5.5227    0.0000 </r>
       <r>    6.0590    0.0000 </r>
       <r>    6.3536    0.0000 </r>
       <r>    6.5948    0.0000 </r>
       <r>    9.0168    0.0000 </r>
      </set>
      <set comment="kpoint 19">
       <r>  -20.4991    1.0000 </r>
       <r>   -9.0872    1.0000 </r>
       <r>   -8.3626    1.0000 </r>
       <r>   -7.2365    1.0000 </r>
       <r>    2.7559    0.0000 </r>
       <r>    3.6752    0.0000 </r>
       <r>    4.1616    0.0000 </r>
       <r>    5.5394    0.0000 </r>
       <r>    5.9536    0.0000 </r>
       <r>    6.1044    0.0000 </r>
       <r>    6.8574    0.0000 </r>
       <r>    9.8932    0.0000 </r>
      </set>
      <set comment="kpoint 20">
       <r>  -20.0102    1.0000 </r>
       <r>  -10.1704    1.0000 </r>
       <r>   -7.7954    1.0000 </r>
       <r>   -7.6695    1.0000 </r>
       <r>    3.4289    0.0000 </r>
       <r>    4.2368    0.0000 </r>
       <r>    4.5458    0.0000 </r>
       <r>    4.8479    0.0000 </r>
       <r>    5.7809    0.0000 </r>
       <r>    6.7664    0.0000 </r>
       <r>    7.5225    0.0000 </r>
       <r>   10.5225    0.0000 </r>
      </set>
      <set comment="kpoint 21">
       <r>  -19.4441    1.0000 </r>
       <r>  -11.2694    1.0000 </r>
       <r>   -8.0507    1.0000 </r>
       <r>   -7.1513    1.0000 </r>
       <r>    3.2491    0.0000 </r>
       <r>    4.2103    0.0000 </r>
       <r>    5.1670    0.0000 </r>
       <r>    5.5546    0.0000 </r>
       <r>    5.7027    0.0000 </r>
       <r>    7.5448    0.0000 </r>
       <r>    8.3044    0.0000 </r>
       <r>   11.2331    0.0000 </r>
      </set>
      <set comment="kpoint 22">
       <r>  -18.8040    1.0000 </r>
       <r>  -12.3582    1.0000 </r>
       <r>   -8.3674    1.0000 </r>
       <r>   -6.4465    1.0000 </r>
       <r>    2.1072    0.0000 </r>
       <r>    5.0774    0.0000 </r>
       <r>    5.4648    0.0000 </r>
       <r>    6.0580    0.0000 </r>
       <r>    6.5781    0.0000 </r>
       <r>    8.4280    0.0000 </r>
       <r>    9.1974    0.0000 </r>
       <r>   11.9868    0.0000 </r>
      </set>
      <set comment="kpoint 23">
       <r>  -18.0950    1.0000 </r>
       <r>  -13.4156    1.0000 </r>
       <r>   -8.6112    1.0000 </r>
       <r>   -5.7132    1.0000 </r>
       <r>    1.0236    0.0000 </r>
       <r>    5.2855    0.0000 </r>
       <r>    6.1325    0.0000 </r>
       <r>    7.0583    0.0000 </r>
       <r>    7.6074    0.0000 </r>
       <r>    9.4077    0.0000 </r>
       <r>   10.1980    0.0000 </r>
       <r>   12.3516    0.0000 </r>
      </set>
      <set comment="kpoint 24">
       <r>  -17.3308    1.0000 </r>
       <r>  -14.4176    1.0000 </r>
       <r>   -8.7765    1.0000 </r>
       <r>   -5.0247    1.0000 </r>
       <r>    0.0918    0.0000 </r>
       <r>    5.2060    0.0000 </r>
       <r>    7.2294    0.0000 </r>
       <r>    8.1577    0.0000 </r>
       <r>    8.7511    0.0000 </r>
       <r>   10.4561    0.0000 </r>
       <r>   11.0549    0.0000 </r>
       <r>   11.3087    0.0000 </r>
      </set>
      <set comment="kpoint 25">
       <r>  -16.5850    1.0000 </r>
       <r>  -15.2837    1.0000 </r>
       <r>   -8.8600    1.0000 </r>
       <r>   -4.5521    1.0000 </r>
       <r>   -0.5052    0.0000 </r>
       <r>    5.1625    0.0000 </r>
       <r>    8.4287    0.0000 </r>
       <r>    9.3340    0.0000 </r>
       <r>    9.7203    0.0000 </r>
       <r>   10.0098    0.0000 </r>
       <r>   10.5996    0.0000 </r>
       <r>   11.3718    0.0000 </r>
      </set>
      <set comment="kpoint 26">
       <r>  -16.5856    1.0000 </r>
       <r>  -15.2830    1.0000 </r>
       <r>   -8.8602    1.0000 </r>
       <r>   -4.5523    1.0000 </r>
       <r>   -0.5049    0.0000 </r>
       <r>    5.1627    0.0000 </r>
       <r>    8.4275    0.0000 </r>
       <r>    9.3329    0.0000 </r>
       <r>    9.7217    0.0000 </r>
       <r>   10.0086    0.0000 </r>
       <r>   10.6006    0.0000 </r>
       <r>   11.3731    0.0000 </r>
      </set>
      <set comment="kpoint 27">
       <r>  -17.3315    1.0000 </r>
       <r>  -14.4165    1.0000 </r>
       <r>   -8.7771    1.0000 </r>
       <r>   -5.0253    1.0000 </r>
       <r>    0.0926    0.0000 </r>
       <r>    5.2063    0.0000 </r>
       <r>    7.2283    0.0000 </r>
       <r>    8.1566    0.0000 </r>
       <r>    8.7501    0.0000 </r>
       <r>   10.4551    0.0000 </r>
       <r>   11.0567    0.0000 </r>
       <r>   11.3076    0.0000 </r>
      </set>
      <set comment="kpoint 28">
       <r>  -18.0958    1.0000 </r>
       <r>  -13.4143    1.0000 </r>
       <r>   -8.6121    1.0000 </r>
       <r>   -5.7139    1.0000 </r>
       <r>    1.0246    0.0000 </r>
       <r>    5.2860    0.0000 </r>
       <r>    6.1317    0.0000 </r>
       <r>    7.0573    0.0000 </r>
       <r>    7.6064    0.0000 </r>
       <r>    9.4067    0.0000 </r>
       <r>   10.1970    0.0000 </r>
       <r>   12.3551    0.0000 </r>
      </set>
      <set comment="kpoint 29">
       <r>  -18.8046    1.0000 </r>
       <r>  -12.3568    1.0000 </r>
       <r>   -8.3686    1.0000 </r>
       <r>   -6.4472    1.0000 </r>
       <r>    2.1081    0.0000 </r>
       <r>    5.0765    0.0000 </r>
       <r>    5.4656    0.0000 </r>
       <r>    6.0571    0.0000 </r>
       <r>    6.5773    0.0000 </r>
       <r>    8.4271    0.0000 </r>
       <r>    9.1966    0.0000 </r>
       <r>   11.9857    0.0000 </r>
      </set>
      <set comment="kpoint 30">
       <r>  -19.4447    1.0000 </r>
       <r>  -11.2679    1.0000 </r>
       <r>   -8.0522    1.0000 </r>
       <r>   -7.1520    1.0000 </r>
       <r>    3.2500    0.0000 </r>
       <r>    4.2095    0.0000 </r>
       <r>    5.1662    0.0000 </r>
       <r>    5.5548    0.0000 </r>
       <r>    5.7027    0.0000 </r>
       <r>    7.5439    0.0000 </r>
       <r>    8.3037    0.0000 </r>
       <r>   11.2321    0.0000 </r>
      </set>
      <set comment="kpoint 31">
       <r>  -20.0107    1.0000 </r>
       <r>  -10.1687    1.0000 </r>
       <r>   -7.7960    1.0000 </r>
       <r>   -7.6713    1.0000 </r>
       <r>    3.4282    0.0000 </r>
       <r>    4.2369    0.0000 </r>
       <r>    4.5457    0.0000 </r>
       <r>    4.8473    0.0000 </r>
       <r>    5.7817    0.0000 </r>
       <r>    6.7657    0.0000 </r>
       <r>    7.5219    0.0000 </r>
       <r>   10.5217    0.0000 </r>
      </set>
      <set comment="kpoint 32">
       <r>  -20.4995    1.0000 </r>
       <r>   -9.0854    1.0000 </r>
       <r>   -8.3631    1.0000 </r>
       <r>   -7.2387    1.0000 </r>
       <r>    2.7553    0.0000 </r>
       <r>    3.6747    0.0000 </r>
       <r>    4.1610    0.0000 </r>
       <r>    5.5399    0.0000 </r>
       <r>    5.9540    0.0000 </r>
       <r>    6.1038    0.0000 </r>
       <r>    6.8569    0.0000 </r>
       <r>    9.8926    0.0000 </r>
      </set>
      <set comment="kpoint 33">
       <r>  -20.9094    1.0000 </r>
       <r>   -8.8442    1.0000 </r>
       <r>   -8.0524    1.0000 </r>
       <r>   -6.7732    1.0000 </r>
       <r>    2.1932    0.0000 </r>
       <r>    3.1141    0.0000 </r>
       <r>    3.5877    0.0000 </r>
       <r>    5.5223    0.0000 </r>
       <r>    6.0582    0.0000 </r>
       <r>    6.3535    0.0000 </r>
       <r>    6.5950    0.0000 </r>
       <r>    9.3589    0.0000 </r>
      </set>
      <set comment="kpoint 34">
       <r>  -21.2387    1.0000 </r>
       <r>   -9.2339    1.0000 </r>
       <r>   -7.1148    1.0000 </r>
       <r>   -6.3030    1.0000 </r>
       <r>    1.7430    0.0000 </r>
       <r>    2.6621    0.0000 </r>
       <r>    3.1288    0.0000 </r>
       <r>    5.0755    0.0000 </r>
       <r>    5.7887    0.0000 </r>
       <r>    6.2858    0.0000 </r>
       <r>    7.5080    0.0000 </r>
       <r>    7.9643    0.0000 </r>
      </set>
      <set comment="kpoint 35">
       <r>  -21.4864    1.0000 </r>
       <r>   -9.5286    1.0000 </r>
       <r>   -6.3287    1.0000 </r>
       <r>   -5.8692    1.0000 </r>
       <r>    1.4050    0.0000 </r>
       <r>    2.3223    0.0000 </r>
       <r>    2.7845    0.0000 </r>
       <r>    4.7379    0.0000 </r>
       <r>    5.4680    0.0000 </r>
       <r>    6.3008    0.0000 </r>
       <r>    7.1090    0.0000 </r>
       <r>    8.2570    0.0000 </r>
      </set>
      <set comment="kpoint 36">
       <r>  -21.6520    1.0000 </r>
       <r>   -9.7261    1.0000 </r>
       <r>   -5.7533    1.0000 </r>
       <r>   -5.5294    1.0000 </r>
       <r>    1.1797    0.0000 </r>
       <r>    2.0954    0.0000 </r>
       <r>    2.5550    0.0000 </r>
       <r>    4.5124    0.0000 </r>
       <r>    5.2481    0.0000 </r>
       <r>    6.2141    0.0000 </r>
       <r>    6.5571    0.0000 </r>
       <r>    8.3832    0.0000 </r>
      </set>
      <set comment="kpoint 37">
       <r>  -21.7348    1.0000 </r>
       <r>   -9.8251    1.0000 </r>
       <r>   -5.4357    1.0000 </r>
       <r>   -5.3519    1.0000 </r>
       <r>    1.0671    0.0000 </r>
       <r>    1.9819    0.0000 </r>
       <r>    2.4403    0.0000 </r>
       <r>    4.3995    0.0000 </r>
       <r>    5.1377    0.0000 </r>
       <r>    6.0422    0.0000 </r>
       <r>    6.3723    0.0000 </r>
       <r>    8.2740    0.0000 </r>
      </set>
      <set comment="kpoint 38">
       <r>  -21.6120    1.0000 </r>
       <r>   -9.6786    1.0000 </r>
       <r>   -5.9220    1.0000 </r>
       <r>   -5.5987    1.0000 </r>
       <r>    1.2339    0.0000 </r>
       <r>    2.1501    0.0000 </r>
       <r>    2.6104    0.0000 </r>
       <r>    4.5667    0.0000 </r>
       <r>    5.2999    0.0000 </r>
       <r>    6.1392    0.0000 </r>
       <r>    6.8569    0.0000 </r>
       <r>    8.4348    0.0000 </r>
      </set>
      <set comment="kpoint 39">
       <r>  -21.4878    1.0000 </r>
       <r>   -9.5304    1.0000 </r>
       <r>   -6.3514    1.0000 </r>
       <r>   -5.8463    1.0000 </r>
       <r>    1.4031    0.0000 </r>
       <r>    2.3204    0.0000 </r>
       <r>    2.7827    0.0000 </r>
       <r>    4.7360    0.0000 </r>
       <r>    5.4658    0.0000 </r>
       <r>    6.2998    0.0000 </r>
       <r>    7.1450    0.0000 </r>
       <r>    8.2523    0.0000 </r>
      </set>
      <set comment="kpoint 40">
       <r>  -21.2811    1.0000 </r>
       <r>   -9.2846    1.0000 </r>
       <r>   -6.9620    1.0000 </r>
       <r>   -6.2717    1.0000 </r>
       <r>    1.6850    0.0000 </r>
       <r>    2.6038    0.0000 </r>
       <r>    3.0698    0.0000 </r>
       <r>    5.0176    0.0000 </r>
       <r>    5.7419    0.0000 </r>
       <r>    6.5145    0.0000 </r>
       <r>    7.5733    0.0000 </r>
       <r>    7.6291    0.0000 </r>
      </set>
      <set comment="kpoint 41">
       <r>  -20.9927    1.0000 </r>
       <r>   -8.9428    1.0000 </r>
       <r>   -7.7348    1.0000 </r>
       <r>   -6.7859    1.0000 </r>
       <r>    2.0795    0.0000 </r>
       <r>    2.9999    0.0000 </r>
       <r>    3.4717    0.0000 </r>
       <r>    5.4107    0.0000 </r>
       <r>    6.1185    0.0000 </r>
       <r>    6.6225    0.0000 </r>
       <r>    6.8238    0.0000 </r>
       <r>    8.2460    0.0000 </r>
      </set>
      <set comment="kpoint 42">
       <r>  -20.6233    1.0000 </r>
       <r>   -8.6459    1.0000 </r>
       <r>   -8.5078    1.0000 </r>
       <r>   -7.3079    1.0000 </r>
       <r>    2.5860    0.0000 </r>
       <r>    3.5071    0.0000 </r>
       <r>    3.9882    0.0000 </r>
       <r>    5.8470    0.0000 </r>
       <r>    5.9488    0.0000 </r>
       <r>    6.4402    0.0000 </r>
       <r>    6.7500    0.0000 </r>
       <r>    9.1639    0.0000 </r>
      </set>
      <set comment="kpoint 43">
       <r>  -20.1743    1.0000 </r>
       <r>   -9.6523    1.0000 </r>
       <r>   -7.9840    1.0000 </r>
       <r>   -7.7942    1.0000 </r>
       <r>    3.2041    0.0000 </r>
       <r>    4.1153    0.0000 </r>
       <r>    4.6190    0.0000 </r>
       <r>    4.8456    0.0000 </r>
       <r>    6.3648    0.0000 </r>
       <r>    6.5335    0.0000 </r>
       <r>    7.3050    0.0000 </r>
       <r>   10.2977    0.0000 </r>
      </set>
      <set comment="kpoint 44">
       <r>  -19.6473    1.0000 </r>
       <r>  -10.7094    1.0000 </r>
       <r>   -8.2246    1.0000 </r>
       <r>   -7.3782    1.0000 </r>
       <r>    3.7116    0.0000 </r>
       <r>    3.9324    0.0000 </r>
       <r>    4.8771    0.0000 </r>
       <r>    5.3624    0.0000 </r>
       <r>    6.2091    0.0000 </r>
       <r>    7.2554    0.0000 </r>
       <r>    8.0249    0.0000 </r>
       <r>   10.9503    0.0000 </r>
      </set>
      <set comment="kpoint 45">
       <r>  -19.0448    1.0000 </r>
       <r>  -11.7812    1.0000 </r>
       <r>   -8.5878    1.0000 </r>
       <r>   -6.7022    1.0000 </r>
       <r>    2.5942    0.0000 </r>
       <r>    4.7682    0.0000 </r>
       <r>    5.7099    0.0000 </r>
       <r>    6.0235    0.0000 </r>
       <r>    6.2491    0.0000 </r>
       <r>    8.0813    0.0000 </r>
       <r>    8.8610    0.0000 </r>
       <r>   11.6443    0.0000 </r>
      </set>
      <set comment="kpoint 46">
       <r>  -18.3709    1.0000 </r>
       <r>  -12.8401    1.0000 </r>
       <r>   -8.8767    1.0000 </r>
       <r>   -5.9779    1.0000 </r>
       <r>    1.4967    0.0000 </r>
       <r>    5.6720    0.0000 </r>
       <r>    5.9428    0.0000 </r>
       <r>    6.6530    0.0000 </r>
       <r>    7.2057    0.0000 </r>
       <r>    9.0023    0.0000 </r>
       <r>    9.8067    0.0000 </r>
       <r>   12.2478    0.0000 </r>
      </set>
      <set comment="kpoint 47">
       <r>  -17.6335    1.0000 </r>
       <r>  -13.8622    1.0000 </r>
       <r>   -9.0862    1.0000 </r>
       <r>   -5.2522    1.0000 </r>
       <r>    0.4898    0.0000 </r>
       <r>    5.7704    0.0000 </r>
       <r>    6.7899    0.0000 </r>
       <r>    7.6943    0.0000 </r>
       <r>    8.2918    0.0000 </r>
       <r>    9.9948    0.0000 </r>
       <r>   10.8555    0.0000 </r>
       <r>   11.7607    0.0000 </r>
      </set>
      <set comment="kpoint 48">
       <r>  -16.8603    1.0000 </r>
       <r>  -14.8099    1.0000 </r>
       <r>   -9.2133    1.0000 </r>
       <r>   -4.6370    1.0000 </r>
       <r>   -0.2998    0.0000 </r>
       <r>    5.7089    0.0000 </r>
       <r>    7.9361    0.0000 </r>
       <r>    8.8139    0.0000 </r>
       <r>    9.4908    0.0000 </r>
       <r>   10.4811    0.0000 </r>
       <r>   10.8537    0.0000 </r>
       <r>   11.5343    0.0000 </r>
      </set>
      <set comment="kpoint 49">
       <r>  -16.3219    1.0000 </r>
       <r>  -15.4070    1.0000 </r>
       <r>   -9.2560    1.0000 </r>
       <r>   -4.3707    1.0000 </r>
       <r>   -0.6252    0.0000 </r>
       <r>    5.6872    0.0000 </r>
       <r>    9.1049    0.0000 </r>
       <r>    9.2491    0.0000 </r>
       <r>    9.7767    0.0000 </r>
       <r>   10.2551    0.0000 </r>
       <r>   10.7889    0.0000 </r>
       <r>   10.8118    0.0000 </r>
      </set>
      <set comment="kpoint 50">
       <r>  -16.8619    1.0000 </r>
       <r>  -14.8080    1.0000 </r>
       <r>   -9.2139    1.0000 </r>
       <r>   -4.6380    1.0000 </r>
       <r>   -0.2986    0.0000 </r>
       <r>    5.7093    0.0000 </r>
       <r>    7.9338    0.0000 </r>
       <r>    8.8117    0.0000 </r>
       <r>    9.4886    0.0000 </r>
       <r>   10.4842    0.0000 </r>
       <r>   10.8529    0.0000 </r>
       <r>   11.5350    0.0000 </r>
      </set>
      <set comment="kpoint 51">
       <r>  -17.6350    1.0000 </r>
       <r>  -13.8599    1.0000 </r>
       <r>   -9.0876    1.0000 </r>
       <r>   -5.2536    1.0000 </r>
       <r>    0.4915    0.0000 </r>
       <r>    5.7711    0.0000 </r>
       <r>    6.7881    0.0000 </r>
       <r>    7.6922    0.0000 </r>
       <r>    8.2898    0.0000 </r>
       <r>    9.9927    0.0000 </r>
       <r>   10.8534    0.0000 </r>
       <r>   11.7657    0.0000 </r>
      </set>
      <set comment="kpoint 52">
       <r>  -18.3722    1.0000 </r>
       <r>  -12.8374    1.0000 </r>
       <r>   -8.8787    1.0000 </r>
       <r>   -5.9794    1.0000 </r>
       <r>    1.4986    0.0000 </r>
       <r>    5.6703    0.0000 </r>
       <r>    5.9439    0.0000 </r>
       <r>    6.6511    0.0000 </r>
       <r>    7.2039    0.0000 </r>
       <r>    9.0004    0.0000 </r>
       <r>    9.8049    0.0000 </r>
       <r>   12.2456    0.0000 </r>
      </set>
      <set comment="kpoint 53">
       <r>  -19.0460    1.0000 </r>
       <r>  -11.7783    1.0000 </r>
       <r>   -8.5905    1.0000 </r>
       <r>   -6.7036    1.0000 </r>
       <r>    2.5960    0.0000 </r>
       <r>    4.7664    0.0000 </r>
       <r>    5.7082    0.0000 </r>
       <r>    6.0246    0.0000 </r>
       <r>    6.2480    0.0000 </r>
       <r>    8.0795    0.0000 </r>
       <r>    8.8595    0.0000 </r>
       <r>   11.6423    0.0000 </r>
      </set>
      <set comment="kpoint 54">
       <r>  -19.6483    1.0000 </r>
       <r>  -10.7062    1.0000 </r>
       <r>   -8.2279    1.0000 </r>
       <r>   -7.3795    1.0000 </r>
       <r>    3.7132    0.0000 </r>
       <r>    3.9310    0.0000 </r>
       <r>    4.8756    0.0000 </r>
       <r>    5.3610    0.0000 </r>
       <r>    6.2105    0.0000 </r>
       <r>    7.2539    0.0000 </r>
       <r>    8.0236    0.0000 </r>
       <r>   10.9486    0.0000 </r>
      </set>
      <set comment="kpoint 55">
       <r>  -20.1752    1.0000 </r>
       <r>   -9.6488    1.0000 </r>
       <r>   -7.9851    1.0000 </r>
       <r>   -7.7980    1.0000 </r>
       <r>    3.2028    0.0000 </r>
       <r>    4.1142    0.0000 </r>
       <r>    4.6177    0.0000 </r>
       <r>    4.8466    0.0000 </r>
       <r>    6.3655    0.0000 </r>
       <r>    6.5322    0.0000 </r>
       <r>    7.3041    0.0000 </r>
       <r>   10.2963    0.0000 </r>
      </set>
      <set comment="kpoint 56">
       <r>  -20.6241    1.0000 </r>
       <r>   -8.6424    1.0000 </r>
       <r>   -8.5088    1.0000 </r>
       <r>   -7.3118    1.0000 </r>
       <r>    2.5850    0.0000 </r>
       <r>    3.5061    0.0000 </r>
       <r>    3.9872    0.0000 </r>
       <r>    5.8476    0.0000 </r>
       <r>    5.9476    0.0000 </r>
       <r>    6.4389    0.0000 </r>
       <r>    6.7498    0.0000 </r>
       <r>    9.1865    0.0000 </r>
      </set>
      <set comment="kpoint 57">
       <r>  -20.9933    1.0000 </r>
       <r>   -8.9435    1.0000 </r>
       <r>   -7.7320    1.0000 </r>
       <r>   -6.7893    1.0000 </r>
       <r>    2.0786    0.0000 </r>
       <r>    2.9990    0.0000 </r>
       <r>    3.4708    0.0000 </r>
       <r>    5.4099    0.0000 </r>
       <r>    6.1172    0.0000 </r>
       <r>    6.6198    0.0000 </r>
       <r>    6.8239    0.0000 </r>
       <r>    8.2685    0.0000 </r>
      </set>
      <set comment="kpoint 58">
       <r>  -21.2816    1.0000 </r>
       <r>   -9.2852    1.0000 </r>
       <r>   -6.9607    1.0000 </r>
       <r>   -6.2735    1.0000 </r>
       <r>    1.6844    0.0000 </r>
       <r>    2.6032    0.0000 </r>
       <r>    3.0692    0.0000 </r>
       <r>    5.0169    0.0000 </r>
       <r>    5.7409    0.0000 </r>
       <r>    6.5085    0.0000 </r>
       <r>    7.5950    0.0000 </r>
       <r>    7.6288    0.0000 </r>
      </set>
      <set comment="kpoint 59">
       <r>  -21.4880    1.0000 </r>
       <r>   -9.5308    1.0000 </r>
       <r>   -6.3518    1.0000 </r>
       <r>   -5.8462    1.0000 </r>
       <r>    1.4027    0.0000 </r>
       <r>    2.3200    0.0000 </r>
       <r>    2.7823    0.0000 </r>
       <r>    4.7356    0.0000 </r>
       <r>    5.4652    0.0000 </r>
       <r>    6.2937    0.0000 </r>
       <r>    7.1619    0.0000 </r>
       <r>    8.2518    0.0000 </r>
      </set>
      <set comment="kpoint 60">
       <r>  -21.6121    1.0000 </r>
       <r>   -9.6788    1.0000 </r>
       <r>   -5.9235    1.0000 </r>
       <r>   -5.5973    1.0000 </r>
       <r>    1.2337    0.0000 </r>
       <r>    2.1499    0.0000 </r>
       <r>    2.6102    0.0000 </r>
       <r>    4.5665    0.0000 </r>
       <r>    5.2996    0.0000 </r>
       <r>    6.1351    0.0000 </r>
       <r>    6.8664    0.0000 </r>
       <r>    8.4345    0.0000 </r>
      </set>
      <set comment="kpoint 61">
       <r>  -21.6535    1.0000 </r>
       <r>   -9.7282    1.0000 </r>
       <r>   -5.7454    1.0000 </r>
       <r>   -5.5395    1.0000 </r>
       <r>    1.1775    0.0000 </r>
       <r>    2.0933    0.0000 </r>
       <r>    2.5529    0.0000 </r>
       <r>    4.5102    0.0000 </r>
       <r>    5.2447    0.0000 </r>
       <r>    6.0949    0.0000 </r>
       <r>    6.7382    0.0000 </r>
       <r>    8.3812    0.0000 </r>
      </set>
      <set comment="kpoint 62">
       <r>  -21.4077    1.0000 </r>
       <r>   -9.4355    1.0000 </r>
       <r>   -6.6595    1.0000 </r>
       <r>   -5.9590    1.0000 </r>
       <r>    1.5120    0.0000 </r>
       <r>    2.4301    0.0000 </r>
       <r>    2.8938    0.0000 </r>
       <r>    4.8449    0.0000 </r>
       <r>    5.5669    0.0000 </r>
       <r>    6.1947    0.0000 </r>
       <r>    7.6493    0.0000 </r>
       <r>    7.9900    0.0000 </r>
      </set>
      <set comment="kpoint 63">
       <r>  -21.2424    1.0000 </r>
       <r>   -9.2392    1.0000 </r>
       <r>   -7.1596    1.0000 </r>
       <r>   -6.2557    1.0000 </r>
       <r>    1.7376    0.0000 </r>
       <r>    2.6567    0.0000 </r>
       <r>    3.1235    0.0000 </r>
       <r>    5.0698    0.0000 </r>
       <r>    5.7852    0.0000 </r>
       <r>    6.3425    0.0000 </r>
       <r>    7.4985    0.0000 </r>
       <r>    7.9772    0.0000 </r>
      </set>
      <set comment="kpoint 64">
       <r>  -20.9952    1.0000 </r>
       <r>   -8.9463    1.0000 </r>
       <r>   -7.7661    1.0000 </r>
       <r>   -6.7519    1.0000 </r>
       <r>    2.0759    0.0000 </r>
       <r>    2.9962    0.0000 </r>
       <r>    3.4681    0.0000 </r>
       <r>    5.4065    0.0000 </r>
       <r>    6.1181    0.0000 </r>
       <r>    6.6837    0.0000 </r>
       <r>    6.8181    0.0000 </r>
       <r>    8.2112    0.0000 </r>
      </set>
      <set comment="kpoint 65">
       <r>  -20.6668    1.0000 </r>
       <r>   -8.5592    1.0000 </r>
       <r>   -8.4716    1.0000 </r>
       <r>   -7.3587    1.0000 </r>
       <r>    2.5266    0.0000 </r>
       <r>    3.4478    0.0000 </r>
       <r>    3.9276    0.0000 </r>
       <r>    5.8533    0.0000 </r>
       <r>    5.9917    0.0000 </r>
       <r>    6.5566    0.0000 </r>
       <r>    7.0533    0.0000 </r>
[...]
       <r>   10.0571    0.0000 </r>
       <r>   11.2182    0.0000 </r>
       <r>   11.7186    0.0000 </r>
      </set>
      <set comment="kpoint 283">
       <r>  -17.4847    1.0000 </r>
       <r>  -13.0190    1.0000 </r>
       <r>  -10.8968    1.0000 </r>
       <r>   -5.0062    1.0000 </r>
       <r>    0.5406    0.0000 </r>
       <r>    6.9935    0.0000 </r>
       <r>    7.7437    0.0000 </r>
       <r>    8.5208    0.0000 </r>
       <r>    9.1051    0.0000 </r>
       <r>    9.7988    0.0000 </r>
       <r>   11.0373    0.0000 </r>
       <r>   11.4461    0.0000 </r>
      </set>
      <set comment="kpoint 284">
       <r>  -17.5227    1.0000 </r>
       <r>  -12.7030    1.0000 </r>
       <r>  -11.2226    1.0000 </r>
       <r>   -5.0294    1.0000 </r>
       <r>    0.6243    0.0000 </r>
       <r>    6.9385    0.0000 </r>
       <r>    7.6659    0.0000 </r>
       <r>    8.4671    0.0000 </r>
       <r>    9.7062    0.0000 </r>
       <r>   10.0402    0.0000 </r>
       <r>   10.6265    0.0000 </r>
       <r>   11.0631    0.0000 </r>
      </set>
      <set comment="kpoint 285">
       <r>  -17.4858    1.0000 </r>
       <r>  -13.0227    1.0000 </r>
       <r>  -10.8916    1.0000 </r>
       <r>   -5.0080    1.0000 </r>
       <r>    0.5405    0.0000 </r>
       <r>    6.9924    0.0000 </r>
       <r>    7.7432    0.0000 </r>
       <r>    8.5199    0.0000 </r>
       <r>    9.1256    0.0000 </r>
       <r>    9.7989    0.0000 </r>
       <r>   11.0337    0.0000 </r>
       <r>   11.4297    0.0000 </r>
      </set>
      <set comment="kpoint 286">
       <r>  -17.3752    1.0000 </r>
       <r>  -13.6195    1.0000 </r>
       <r>  -10.2703    1.0000 </r>
       <r>   -4.9459    1.0000 </r>
       <r>    0.3176    0.0000 </r>
       <r>    7.1497    0.0000 </r>
       <r>    7.9522    0.0000 </r>
       <r>    7.9619    0.0000 </r>
       <r>    8.7047    0.0000 </r>
       <r>   10.0569    0.0000 </r>
       <r>   11.2149    0.0000 </r>
       <r>   11.7175    0.0000 </r>
      </set>
      <set comment="kpoint 287">
       <r>  -17.1954    1.0000 </r>
       <r>  -14.2390    1.0000 </r>
       <r>   -9.6368    1.0000 </r>
       <r>   -4.8551    1.0000 </r>
       <r>    0.0238    0.0000 </r>
       <r>    6.8606    0.0000 </r>
       <r>    7.4621    0.0000 </r>
       <r>    8.2968    0.0000 </r>
       <r>    8.9870    0.0000 </r>
       <r>   10.4300    0.0000 </r>
       <r>   11.1472    0.0000 </r>
       <r>   11.5271    0.0000 </r>
      </set>
      <set comment="kpoint 288">
       <r>  -16.9591    1.0000 </r>
       <r>  -14.8074    1.0000 </r>
       <r>   -9.0987    1.0000 </r>
       <r>   -4.7567    1.0000 </r>
       <r>   -0.2621    0.0000 </r>
       <r>    6.0256    0.0000 </r>
       <r>    7.8344    0.0000 </r>
       <r>    8.7301    0.0000 </r>
       <r>    9.3862    0.0000 </r>
       <r>   10.3875    0.0000 </r>
       <r>   10.8085    0.0000 </r>
       <r>   11.4332    0.0000 </r>
      </set>
      <set comment="kpoint 289">
       <r>  -16.7057    1.0000 </r>
       <r>  -15.2653    1.0000 </r>
       <r>   -8.7344    1.0000 </r>
       <r>   -4.6789    1.0000 </r>
       <r>   -0.4690    0.0000 </r>
       <r>    5.4736    0.0000 </r>
       <r>    8.3239    0.0000 </r>
       <r>    9.2511    0.0000 </r>
       <r>    9.6199    0.0000 </r>
       <r>    9.9046    0.0000 </r>
       <r>   10.5235    0.0000 </r>
       <r>   11.2661    0.0000 </r>
      </set>
      <set comment="kpoint 290">
       <r>  -16.5700    1.0000 </r>
       <r>  -15.4700    1.0000 </r>
       <r>   -8.6049    1.0000 </r>
       <r>   -4.6490    1.0000 </r>
       <r>   -0.5445    0.0000 </r>
       <r>    5.2807    0.0000 </r>
       <r>    8.8456    0.0000 </r>
       <r>    9.0056    0.0000 </r>
       <r>    9.7562    0.0000 </r>
       <r>    9.9778    0.0000 </r>
       <r>   10.5157    0.0000 </r>
       <r>   10.5415    0.0000 </r>
      </set>
     </set>
    </set>
   </array>
  </eigenvalues>
  <separator name="orbital magnetization" >
   <v name="MAGDIPOLOUT">      0.00000000      0.00000000      0.00000000</v>
  </separator>
  <dos>
   <i name="efermi">     -2.23718867 </i>
   <total>
    <array>
     <dimension dim="1">gridpoints</dimension>
     <dimension dim="2">spin</dimension>
     <field>energy</field>
     <field>total</field>
     <field>integrated</field>
     <set>
      <set comment="spin 1">
       <r>   -23.5229     0.0000     0.0000 </r>
       <r>   -23.3948     0.0000     0.0000 </r>
       <r>   -23.2666     0.0000     0.0000 </r>
       <r>   -23.1385     0.0000     0.0000 </r>
       <r>   -23.0104     0.0000     0.0000 </r>
       <r>   -22.8823     0.0000     0.0000 </r>
       <r>   -22.7542     0.0000     0.0000 </r>
       <r>   -22.6260     0.0000     0.0000 </r>
       <r>   -22.4979     0.0000     0.0000 </r>
       <r>   -22.3698     0.0000     0.0000 </r>
       <r>   -22.2417     0.0000     0.0000 </r>
       <r>   -22.1135     0.0000     0.0000 </r>
       <r>   -21.9854     0.0000     0.0000 </r>
       <r>   -21.8573     0.0000     0.0000 </r>
       <r>   -21.7292     0.1328     0.0170 </r>
       <r>   -21.6010     0.3441     0.0611 </r>
       <r>   -21.4729     0.3173     0.1018 </r>
       <r>   -21.3448     0.2085     0.1285 </r>
       <r>   -21.2167     0.4757     0.1894 </r>
       <r>   -21.0886     0.1721     0.2115 </r>
       <r>   -20.9604     0.3255     0.2533 </r>
       <r>   -20.8323     0.3247     0.2951 </r>
       <r>   -20.7042     0.1659     0.3164 </r>
       <r>   -20.5761     0.4843     0.3785 </r>
       <r>   -20.4479     0.3252     0.4201 </r>
       <r>   -20.3198     0.0380     0.4250 </r>
       <r>   -20.1917     0.5730     0.4984 </r>
       <r>   -20.0636     0.2054     0.5247 </r>
       <r>   -19.9355     0.3218     0.5660 </r>
       <r>   -19.8073     0.1890     0.5902 </r>
       <r>   -19.6792     0.5348     0.6588 </r>
       <r>   -19.5511     0.2514     0.6910 </r>
       <r>   -19.4230     0.3181     0.7317 </r>
       <r>   -19.2948     0.2246     0.7605 </r>
       <r>   -19.1667     0.5592     0.8323 </r>
       <r>   -19.0386     0.3244     0.8739 </r>
       <r>   -18.9105     0.0351     0.8785 </r>
       <r>   -18.7823     0.3430     0.9224 </r>
       <r>   -18.6542     0.4709     0.9828 </r>
       <r>   -18.5261     0.3950     1.0334 </r>
       <r>   -18.3980     0.2757     1.0687 </r>
       <r>   -18.2699     0.1411     1.0868 </r>
       <r>   -18.1417     0.2441     1.1181 </r>
       <r>   -18.0136     0.7131     1.2094 </r>
       <r>   -17.8855     0.2312     1.2391 </r>
       <r>   -17.7574     0.2326     1.2689 </r>
       <r>   -17.6292     0.3280     1.3110 </r>
       <r>   -17.5011     0.1046     1.3244 </r>
       <r>   -17.3730     0.6895     1.4127 </r>
       <r>   -17.2449     0.3829     1.4618 </r>
       <r>   -17.1168     0.2520     1.4941 </r>
       <r>   -16.9886     0.1878     1.5182 </r>
       <r>   -16.8605     0.3220     1.5594 </r>
       <r>   -16.7324     0.4774     1.6206 </r>
       <r>   -16.6043     0.5900     1.6963 </r>
       <r>   -16.4761     0.4883     1.7589 </r>
       <r>   -16.3480     0.3072     1.7983 </r>
       <r>   -16.2199     0.0567     1.8056 </r>
       <r>   -16.0918     0.2832     1.8418 </r>
       <r>   -15.9636     0.6064     1.9196 </r>
       <r>   -15.8355     0.0858     1.9306 </r>
       <r>   -15.7074     0.0000     1.9306 </r>
       <r>   -15.5793     0.1075     1.9443 </r>
       <r>   -15.4512     0.2298     1.9738 </r>
       <r>   -15.3230     0.3897     2.0238 </r>
       <r>   -15.1949     0.3292     2.0660 </r>
       <r>   -15.0668     0.3149     2.1063 </r>
       <r>   -14.9387     0.1850     2.1300 </r>
       <r>   -14.8105     0.3993     2.1812 </r>
       <r>   -14.6824     0.4979     2.2450 </r>
       <r>   -14.5543     0.2741     2.2801 </r>
       <r>   -14.4262     0.6637     2.3652 </r>
       <r>   -14.2981     0.2292     2.3946 </r>
       <r>   -14.1699     0.5253     2.4619 </r>
       <r>   -14.0418     0.1076     2.4757 </r>
       <r>   -13.9137     0.5454     2.5456 </r>
       <r>   -13.7856     0.4296     2.6007 </r>
       <r>   -13.6574     0.1093     2.6147 </r>
       <r>   -13.5293     0.2161     2.6424 </r>
       <r>   -13.4012     0.5331     2.7107 </r>
       <r>   -13.2731     0.3122     2.7507 </r>
       <r>   -13.1449     0.1319     2.7676 </r>
       <r>   -13.0168     0.2811     2.8036 </r>
       <r>   -12.8887     0.3055     2.8428 </r>
       <r>   -12.7606     0.3919     2.8930 </r>
       <r>   -12.6325     0.3705     2.9405 </r>
       <r>   -12.5043     0.3240     2.9821 </r>
       <r>   -12.3762     0.2277     3.0113 </r>
       <r>   -12.2481     0.5075     3.0764 </r>
       <r>   -12.1200     0.4066     3.1284 </r>
       <r>   -11.9918     0.0537     3.1354 </r>
       <r>   -11.8637     0.5493     3.2057 </r>
       <r>   -11.7356     0.4905     3.2686 </r>
       <r>   -11.6075     0.5271     3.3362 </r>
       <r>   -11.4794     0.0705     3.3452 </r>
       <r>   -11.3512     0.1222     3.3609 </r>
       <r>   -11.2231     0.6759     3.4475 </r>
       <r>   -11.0950     0.6401     3.5295 </r>
       <r>   -10.9669     0.1222     3.5451 </r>
       <r>   -10.8387     0.3924     3.5954 </r>
       <r>   -10.7106     0.6716     3.6815 </r>
       <r>   -10.5825     0.0742     3.6910 </r>
       <r>   -10.4544     0.4957     3.7545 </r>
       <r>   -10.3262     0.4100     3.8070 </r>
       <r>   -10.1981     0.7516     3.9033 </r>
       <r>   -10.0700     0.2460     3.9349 </r>
       <r>    -9.9419     0.4766     3.9959 </r>
       <r>    -9.8138     0.2913     4.0333 </r>
       <r>    -9.6856     0.9916     4.1603 </r>
       <r>    -9.5575     0.8201     4.2656 </r>
       <r>    -9.4294     0.6682     4.3512 </r>
       <r>    -9.3013     0.2776     4.3868 </r>
       <r>    -9.1731     1.4193     4.5686 </r>
       <r>    -9.0450     0.9261     4.6874 </r>
       <r>    -8.9169     0.6602     4.7721 </r>
       <r>    -8.7888     0.8209     4.8773 </r>
       <r>    -8.6607     0.9319     4.9967 </r>
       <r>    -8.5325     1.3080     5.1644 </r>
       <r>    -8.4044     1.2966     5.3306 </r>
       <r>    -8.2763     0.5206     5.3974 </r>
       <r>    -8.1482     0.5649     5.4697 </r>
       <r>    -8.0200     1.0770     5.6077 </r>
       <r>    -7.8919     0.9176     5.7255 </r>
       <r>    -7.7638     0.5379     5.7944 </r>
       <r>    -7.6357     0.6750     5.8810 </r>
       <r>    -7.5075     1.0158     6.0113 </r>
       <r>    -7.3794     0.3748     6.0593 </r>
       <r>    -7.2513     0.5355     6.1279 </r>
       <r>    -7.1232     0.9850     6.2541 </r>
       <r>    -6.9951     0.2222     6.2827 </r>
       <r>    -6.8669     0.8266     6.3886 </r>
       <r>    -6.7388     0.8086     6.4923 </r>
       <r>    -6.6107     0.5122     6.5580 </r>
       <r>    -6.4826     0.2076     6.5846 </r>
       <r>    -6.3544     0.5037     6.6492 </r>
       <r>    -6.2263     1.1957     6.8024 </r>
       <r>    -6.0982     0.3705     6.8499 </r>
       <r>    -5.9701     0.3740     6.8978 </r>
       <r>    -5.8420     0.5611     6.9697 </r>
       <r>    -5.7138     0.5560     7.0409 </r>
       <r>    -5.5857     0.6946     7.1299 </r>
       <r>    -5.4576     0.5995     7.2067 </r>
       <r>    -5.3295     0.6083     7.2847 </r>
       <r>    -5.2013     0.2437     7.3160 </r>
       <r>    -5.0732     0.2168     7.3437 </r>
       <r>    -4.9451     0.4909     7.4067 </r>
       <r>    -4.8170     0.7225     7.4992 </r>
       <r>    -4.6888     0.4422     7.5560 </r>
       <r>    -4.5607     0.3782     7.6045 </r>
       <r>    -4.4326     0.2142     7.6319 </r>
       <r>    -4.3045     0.5680     7.7047 </r>
       <r>    -4.1764     0.7854     7.8053 </r>
       <r>    -4.0482     0.0416     7.8108 </r>
       <r>    -3.9201     0.1033     7.8240 </r>
       <r>    -3.7920     0.1017     7.8371 </r>
       <r>    -3.6639     0.2446     7.8684 </r>
       <r>    -3.5357     0.3479     7.9130 </r>
       <r>    -3.4076     0.1373     7.9306 </r>
       <r>    -3.2795     0.0988     7.9432 </r>
       <r>    -3.1514     0.0636     7.9514 </r>
       <r>    -3.0233     0.0000     7.9514 </r>
       <r>    -2.8951     0.2090     7.9782 </r>
       <r>    -2.7670     0.1162     7.9931 </r>
       <r>    -2.6389     0.0000     7.9931 </r>
       <r>    -2.5108     0.0000     7.9931 </r>
       <r>    -2.3826     0.0000     7.9931 </r>
       <r>    -2.2545     0.0542     8.0000 </r>
       <r>    -2.1264     0.0542     8.0069 </r>
       <r>    -1.9983     0.0000     8.0069 </r>
       <r>    -1.8701     0.0000     8.0069 </r>
       <r>    -1.7420     0.0000     8.0069 </r>
       <r>    -1.6139     0.0827     8.0175 </r>
       <r>    -1.4858     0.2421     8.0486 </r>
       <r>    -1.3577     0.0081     8.0497 </r>
       <r>    -1.2295     0.1520     8.0691 </r>
       <r>    -1.1014     0.0025     8.0694 </r>
       <r>    -0.9733     0.1137     8.0840 </r>
       <r>    -0.8452     0.6871     8.1720 </r>
       <r>    -0.7170     0.1744     8.1944 </r>
       <r>    -0.5889     0.2117     8.2216 </r>
       <r>    -0.4608     0.8117     8.3256 </r>
       <r>    -0.3327     0.3353     8.3687 </r>
       <r>    -0.2046     0.8887     8.4826 </r>
       <r>    -0.0764     0.1082     8.4965 </r>
       <r>     0.0517     0.3230     8.5379 </r>
       <r>     0.1798     0.3274     8.5799 </r>
       <r>     0.3079     0.2426     8.6109 </r>
       <r>     0.4361     0.0817     8.6215 </r>
       <r>     0.5642     0.8482     8.7302 </r>
       <r>     0.6923     0.1274     8.7465 </r>
       <r>     0.8204     0.0000     8.7465 </r>
       <r>     0.9486     0.3249     8.7882 </r>
       <r>     1.0767     0.4735     8.8489 </r>
       <r>     1.2048     0.3354     8.8918 </r>
       <r>     1.3329     0.3564     8.9375 </r>
       <r>     1.4610     0.6665     9.0229 </r>
       <r>     1.5892     0.6282     9.1034 </r>
       <r>     1.7173     0.1955     9.1285 </r>
       <r>     1.8454     0.2967     9.1667 </r>
       <r>     1.9735     0.5587     9.2383 </r>
       <r>     2.1017     0.7636     9.3361 </r>
       <r>     2.2298     0.9378     9.4563 </r>
       <r>     2.3579     0.5265     9.5239 </r>
       <r>     2.4860     0.5215     9.5909 </r>
       <r>     2.6141     1.1827     9.7424 </r>
       <r>     2.7423     0.7746     9.8417 </r>
       <r>     2.8704     0.6454     9.9244 </r>
       <r>     2.9985     0.6818    10.0118 </r>
       <r>     3.1266     1.2635    10.1737 </r>
       <r>     3.2548     1.0968    10.3143 </r>
       <r>     3.3829     0.3973    10.3652 </r>
       <r>     3.5110     1.0446    10.4991 </r>
       <r>     3.6391     0.4327    10.5546 </r>
       <r>     3.7673     1.1831    10.7061 </r>
       <r>     3.8954     0.5111    10.7717 </r>
       <r>     4.0235     1.3038    10.9387 </r>
       <r>     4.1516     0.8330    11.0455 </r>
       <r>     4.2797     0.8363    11.1528 </r>
       <r>     4.4079     0.2892    11.1898 </r>
       <r>     4.5360     1.2017    11.3438 </r>
       <r>     4.6641     1.2248    11.5009 </r>
       <r>     4.7922     1.0555    11.6361 </r>
       <r>     4.9204     1.1327    11.7812 </r>
       <r>     5.0485     0.6536    11.8650 </r>
       <r>     5.1766     1.9377    12.1133 </r>
       <r>     5.3047     1.5346    12.3101 </r>
       <r>     5.4329     1.6062    12.5159 </r>
       <r>     5.5610     2.2222    12.8007 </r>
       <r>     5.6891     1.3645    12.9756 </r>
       <r>     5.8172     1.7440    13.1992 </r>
       <r>     5.9453     1.4419    13.3842 </r>
       <r>     6.0735     2.6751    13.7269 </r>
       <r>     6.2016     3.2204    14.1396 </r>
       <r>     6.3297     1.5267    14.3354 </r>
       <r>     6.4578     2.1036    14.6050 </r>
       <r>     6.5860     2.2981    14.8995 </r>
       <r>     6.7141     1.4093    15.0801 </r>
       <r>     6.8422     2.0445    15.3421 </r>
       <r>     6.9703     1.4116    15.5231 </r>
       <r>     7.0984     2.6810    15.8669 </r>
       <r>     7.2266     1.7778    16.0949 </r>
       <r>     7.3547     1.4191    16.2767 </r>
       <r>     7.4828     0.4011    16.3281 </r>
       <r>     7.6109     2.3081    16.6238 </r>
       <r>     7.7391     1.7038    16.8423 </r>
       <r>     7.8672     1.8182    17.0752 </r>
       <r>     7.9953     1.8983    17.3186 </r>
       <r>     8.1234     2.1671    17.5965 </r>
       <r>     8.2516     1.0311    17.7286 </r>
       <r>     8.3797     1.8671    17.9679 </r>
       <r>     8.5078     1.8307    18.2026 </r>
       <r>     8.6359     2.1270    18.4753 </r>
       <r>     8.7640     2.1775    18.7544 </r>
       <r>     8.8922     1.2525    18.9150 </r>
       <r>     9.0203     1.8244    19.1488 </r>
       <r>     9.1484     1.6470    19.3599 </r>
       <r>     9.2765     1.4390    19.5443 </r>
       <r>     9.4047     2.2299    19.8301 </r>
       <r>     9.5328     0.9939    19.9576 </r>
       <r>     9.6609     1.3697    20.1332 </r>
       <r>     9.7890     1.2629    20.2951 </r>
       <r>     9.9171     1.7727    20.5223 </r>
       <r>    10.0453     1.3728    20.6985 </r>
       <r>    10.1734     2.3137    20.9950 </r>
       <r>    10.3015     1.6019    21.2005 </r>
       <r>    10.4296     1.3543    21.3742 </r>
       <r>    10.5578     2.0116    21.6320 </r>
       <r>    10.6859     1.6317    21.8413 </r>
       <r>    10.8140     1.7786    22.0692 </r>
       <r>    10.9421     2.0993    22.3384 </r>
       <r>    11.0703     1.0517    22.4731 </r>
       <r>    11.1984     1.7075    22.6920 </r>
       <r>    11.3265     1.7049    22.9105 </r>
       <r>    11.4546     0.9903    23.0374 </r>
       <r>    11.5827     0.8372    23.1447 </r>
       <r>    11.7109     1.3829    23.3220 </r>
       <r>    11.8390     0.6991    23.4117 </r>
       <r>    11.9671     1.0456    23.5456 </r>
       <r>    12.0952     1.3487    23.7185 </r>
       <r>    12.2234     0.3858    23.7680 </r>
       <r>    12.3515     0.7201    23.8603 </r>
       <r>    12.4796     0.1149    23.8750 </r>
       <r>    12.6077     0.0000    23.8750 </r>
       <r>    12.7358     0.1172    23.8900 </r>
       <r>    12.8640     0.3708    23.9375 </r>
       <r>    12.9921     0.2440    23.9689 </r>
       <r>    13.1202     0.0786    23.9790 </r>
       <r>    13.2483     0.1643    24.0000 </r>
       <r>    13.3765     0.0000    24.0000 </r>
       <r>    13.5046     0.0000    24.0000 </r>
       <r>    13.6327     0.0000    24.0000 </r>
       <r>    13.7608     0.0000    24.0000 </r>
       <r>    13.8890     0.0000    24.0000 </r>
       <r>    14.0171     0.0000    24.0000 </r>
       <r>    14.1452     0.0000    24.0000 </r>
       <r>    14.2733     0.0000    24.0000 </r>
       <r>    14.4014     0.0000    24.0000 </r>
       <r>    14.5296     0.0000    24.0000 </r>
       <r>    14.6577     0.0000    24.0000 </r>
       <r>    14.7858     0.0000    24.0000 </r>
       <r>    14.9139     0.0000    24.0000 </r>
      </set>
     </set>
    </array>
   </total>
  </dos>
 </calculation>
 <structure name="finalpos" >
  <crystal>
   <varray name="basis" >
    <v>       2.45872200      -0.00927300       0.00000000 </v>
    <v>      -1.23739100       2.14198200       0.00000000 </v>
    <v>       0.00000000       0.00000000      15.00000000 </v>
   </varray>
   <i name="volume">     78.82595910 </i>
   <varray name="rec_basis" >
    <v>       0.40760341       0.23546640       0.00000000 </v>
    <v>       0.00176458       0.46787670       0.00000000 </v>
    <v>       0.00000000       0.00000000       0.06666667 </v>
   </varray>
  </crystal>
  <varray name="positions" >
   <v>       0.99971163       0.99987159       0.50000000 </v>
   <v>       0.33362137       0.66679541       0.50000000 </v>
  </varray>
 </structure>
</modeling>
