<?xml version="1.0" encoding="ISO-8859-1"?>
<modeling>
 <generator>
  <i name="program" type="string">vasp </i>
  <i name="version" type="string">5.4.1  </i>
  <i name="subversion" type="string">24Jun15 (build Nov 20 2020 10:29:34) complex                          parallel </i>
  <i name="platform" type="string">IFC91_ompi </i>
  <i name="date" type="string">2021 09 09 </i>
  <i name="time" type="string">14:49:38 </i>
 </generator>
 <incar>
  <i type="string" name="PREC">a</i>
  <i type="string" name="ALGO"> Normal</i>
  <i type="int" name="ISPIN">     1</i>
  <i type="int" name="ICHARG">     2</i>
  <i type="int" name="NELM">   250</i>
  <i type="int" name="NELMDL">    -5</i>
  <i type="int" name="NELMIN">     6</i>
  <i type="int" name="IBRION">     2</i>
  <i name="EDIFF">      0.00001000</i>
  <i name="EDIFFG">     -0.01000000</i>
  <i type="int" name="NSW">   200</i>
  <i type="int" name="ISIF">     2</i>
  <i name="ENCUT">    520.00000000</i>
  <i name="POTIM">      0.30000000</i>
  <i type="logical" name="LREAL"> F  </i>
  <i type="int" name="ISMEAR">     0</i>
  <i name="SIGMA">      0.02000000</i>
  <i type="logical" name="LWAVE"> F  </i>
  <i type="logical" name="LCHARG"> F  </i>
  <i type="logical" name="LAECHG"> F  </i>
  <v type="int" name="KPOINT_BSE">    -1     0     0     0</v>
  <i type="int" name="NELM">   250</i>
 </incar>
 <kpoints>
  <generation param="Gamma">
   <v type="int" name="divisions">      21       15        1 </v>
   <v name="usershift">      0.00000000       0.00000000       0.00000000 </v>
   <v name="genvec1">      0.04761905       0.00000000       0.00000000 </v>
   <v name="genvec2">     -0.00000000       0.06666667       0.00000000 </v>
   <v name="genvec3">      0.00000000       0.00000000       1.00000000 </v>
   <v name="shift">      0.00000000       0.00000000       0.00000000 </v>
  </generation>
  <varray name="kpointlist" >
   <v>       0.00000000       0.00000000       0.00000000 </v>
   <v>       0.04761905       0.00000000       0.00000000 </v>
   <v>       0.09523810       0.00000000       0.00000000 </v>
   <v>       0.14285714       0.00000000       0.00000000 </v>
   <v>       0.19047619       0.00000000       0.00000000 </v>
   <v>       0.23809524      -0.00000000       0.00000000 </v>
   <v>       0.28571429       0.00000000       0.00000000 </v>
   <v>       0.33333333       0.00000000       0.00000000 </v>
   <v>       0.38095238       0.00000000       0.00000000 </v>
   <v>       0.42857143       0.00000000       0.00000000 </v>
   <v>       0.47619048      -0.00000000       0.00000000 </v>
   <v>       0.00000000       0.06666667       0.00000000 </v>
   <v>       0.04761905       0.06666667       0.00000000 </v>
   <v>       0.09523810       0.06666667       0.00000000 </v>
   <v>       0.14285714       0.06666667       0.00000000 </v>
   <v>       0.19047619       0.06666667       0.00000000 </v>
   <v>       0.23809524       0.06666667       0.00000000 </v>
   <v>       0.28571429       0.06666667       0.00000000 </v>
   <v>       0.33333333       0.06666667       0.00000000 </v>
   <v>       0.38095238       0.06666667       0.00000000 </v>
   <v>       0.42857143       0.06666667       0.00000000 </v>
   <v>       0.47619048       0.06666667       0.00000000 </v>
   <v>      -0.47619048       0.06666667       0.00000000 </v>
   <v>      -0.42857143       0.06666667       0.00000000 </v>
   <v>      -0.38095238       0.06666667       0.00000000 </v>
   <v>      -0.33333333       0.06666667       0.00000000 </v>
   <v>      -0.28571429       0.06666667       0.00000000 </v>
   <v>      -0.23809524       0.06666667       0.00000000 </v>
   <v>      -0.19047619       0.06666667       0.00000000 </v>
   <v>      -0.14285714       0.06666667       0.00000000 </v>
   <v>      -0.09523810       0.06666667       0.00000000 </v>
   <v>      -0.04761905       0.06666667       0.00000000 </v>
   <v>       0.00000000       0.13333333       0.00000000 </v>
   <v>       0.04761905       0.13333333       0.00000000 </v>
   <v>       0.09523810       0.13333333       0.00000000 </v>
   <v>       0.14285714       0.13333333       0.00000000 </v>
   <v>       0.19047619       0.13333333       0.00000000 </v>
   <v>       0.23809524       0.13333333       0.00000000 </v>
   <v>       0.28571429       0.13333333       0.00000000 </v>
   <v>       0.33333333       0.13333333       0.00000000 </v>
   <v>       0.38095238       0.13333333       0.00000000 </v>
   <v>       0.42857143       0.13333333       0.00000000 </v>
   <v>       0.47619048       0.13333333       0.00000000 </v>
   <v>      -0.47619048       0.13333333       0.00000000 </v>
   <v>      -0.42857143       0.13333333       0.00000000 </v>
   <v>      -0.38095238       0.13333333       0.00000000 </v>
   <v>      -0.33333333       0.13333333       0.00000000 </v>
   <v>      -0.28571429       0.13333333       0.00000000 </v>
   <v>      -0.23809524       0.13333333       0.00000000 </v>
   <v>      -0.19047619       0.13333333       0.00000000 </v>
   <v>      -0.14285714       0.13333333       0.00000000 </v>
   <v>      -0.09523810       0.13333333       0.00000000 </v>
   <v>      -0.04761905       0.13333333       0.00000000 </v>
   <v>       0.00000000       0.20000000       0.00000000 </v>
   <v>       0.04761905       0.20000000       0.00000000 </v>
   <v>       0.09523810       0.20000000       0.00000000 </v>
   <v>       0.14285714       0.20000000       0.00000000 </v>
   <v>       0.19047619       0.20000000       0.00000000 </v>
   <v>       0.23809524       0.20000000       0.00000000 </v>
   <v>       0.28571429       0.20000000       0.00000000 </v>
   <v>       0.33333333       0.20000000       0.00000000 </v>
   <v>       0.38095238       0.20000000       0.00000000 </v>
   <v>       0.42857143       0.20000000       0.00000000 </v>
   <v>       0.47619048       0.20000000       0.00000000 </v>
   <v>      -0.47619048       0.20000000       0.00000000 </v>
   <v>      -0.42857143       0.20000000       0.00000000 </v>
   <v>      -0.38095238       0.20000000       0.00000000 </v>
   <v>      -0.33333333       0.20000000       0.00000000 </v>
   <v>      -0.28571429       0.20000000       0.00000000 </v>
   <v>      -0.23809524       0.20000000       0.00000000 </v>
   <v>      -0.19047619       0.20000000       0.00000000 </v>
   <v>      -0.14285714       0.20000000       0.00000000 </v>
   <v>      -0.09523810       0.20000000       0.00000000 </v>
   <v>      -0.04761905       0.20000000       0.00000000 </v>
   <v>       0.00000000       0.26666667       0.00000000 </v>
   <v>       0.04761905       0.26666667       0.00000000 </v>
   <v>       0.09523810       0.26666667       0.00000000 </v>
   <v>       0.14285714       0.26666667       0.00000000 </v>
   <v>       0.19047619       0.26666667       0.00000000 </v>
   <v>       0.23809524       0.26666667       0.00000000 </v>
   <v>       0.28571429       0.26666667       0.00000000 </v>
   <v>       0.33333333       0.26666667       0.00000000 </v>
   <v>       0.38095238       0.26666667       0.00000000 </v>
   <v>       0.42857143       0.26666667       0.00000000 </v>
   <v>       0.47619048       0.26666667       0.00000000 </v>
   <v>      -0.47619048       0.26666667       0.00000000 </v>
   <v>      -0.42857143       0.26666667       0.00000000 </v>
   <v>      -0.38095238       0.26666667       0.00000000 </v>
   <v>      -0.33333333       0.26666667       0.00000000 </v>
   <v>      -0.28571429       0.26666667       0.00000000 </v>
   <v>      -0.23809524       0.26666667       0.00000000 </v>
   <v>      -0.19047619       0.26666667       0.00000000 </v>
   <v>      -0.14285714       0.26666667       0.00000000 </v>
   <v>      -0.09523810       0.26666667       0.00000000 </v>
   <v>      -0.04761905       0.26666667       0.00000000 </v>
   <v>       0.00000000       0.33333333       0.00000000 </v>
   <v>       0.04761905       0.33333333       0.00000000 </v>
   <v>       0.09523810       0.33333333       0.00000000 </v>
   <v>       0.14285714       0.33333333       0.00000000 </v>
   <v>       0.19047619       0.33333333       0.00000000 </v>
   <v>       0.23809524       0.33333333       0.00000000 </v>
   <v>       0.28571429       0.33333333       0.00000000 </v>
   <v>       0.33333333       0.33333333       0.00000000 </v>
   <v>       0.38095238       0.33333333       0.00000000 </v>
   <v>       0.42857143       0.33333333       0.00000000 </v>
   <v>       0.47619048       0.33333333       0.00000000 </v>
   <v>      -0.47619048       0.33333333       0.00000000 </v>
   <v>      -0.42857143       0.33333333       0.00000000 </v>
   <v>      -0.38095238       0.33333333       0.00000000 </v>
   <v>      -0.33333333       0.33333333       0.00000000 </v>
   <v>      -0.28571429       0.33333333       0.00000000 </v>
   <v>      -0.23809524       0.33333333       0.00000000 </v>
   <v>      -0.19047619       0.33333333       0.00000000 </v>
   <v>      -0.14285714       0.33333333       0.00000000 </v>
   <v>      -0.09523810       0.33333333       0.00000000 </v>
   <v>      -0.04761905       0.33333333       0.00000000 </v>
   <v>       0.00000000       0.40000000       0.00000000 </v>
   <v>       0.04761905       0.40000000       0.00000000 </v>
   <v>       0.09523810       0.40000000       0.00000000 </v>
   <v>       0.14285714       0.40000000       0.00000000 </v>
   <v>       0.19047619       0.40000000       0.00000000 </v>
   <v>       0.23809524       0.40000000       0.00000000 </v>
   <v>       0.28571429       0.40000000       0.00000000 </v>
   <v>       0.33333333       0.40000000       0.00000000 </v>
   <v>       0.38095238       0.40000000       0.00000000 </v>
   <v>       0.42857143       0.40000000       0.00000000 </v>
   <v>       0.47619048       0.40000000       0.00000000 </v>
   <v>      -0.47619048       0.40000000       0.00000000 </v>
   <v>      -0.42857143       0.40000000       0.00000000 </v>
   <v>      -0.38095238       0.40000000       0.00000000 </v>
   <v>      -0.33333333       0.40000000       0.00000000 </v>
   <v>      -0.28571429       0.40000000       0.00000000 </v>
   <v>      -0.23809524       0.40000000       0.00000000 </v>
   <v>      -0.19047619       0.40000000       0.00000000 </v>
   <v>      -0.14285714       0.40000000       0.00000000 </v>
   <v>      -0.09523810       0.40000000       0.00000000 </v>
   <v>      -0.04761905       0.40000000       0.00000000 </v>
   <v>       0.00000000       0.46666667       0.00000000 </v>
   <v>       0.04761905       0.46666667       0.00000000 </v>
   <v>       0.09523810       0.46666667       0.00000000 </v>
   <v>       0.14285714       0.46666667       0.00000000 </v>
   <v>       0.19047619       0.46666667       0.00000000 </v>
   <v>       0.23809524       0.46666667       0.00000000 </v>
   <v>       0.28571429       0.46666667       0.00000000 </v>
   <v>       0.33333333       0.46666667       0.00000000 </v>
   <v>       0.38095238       0.46666667       0.00000000 </v>
   <v>       0.42857143       0.46666667       0.00000000 </v>
   <v>       0.47619048       0.46666667       0.00000000 </v>
   <v>      -0.47619048       0.46666667       0.00000000 </v>
   <v>      -0.42857143       0.46666667       0.00000000 </v>
   <v>      -0.38095238       0.46666667       0.00000000 </v>
   <v>      -0.33333333       0.46666667       0.00000000 </v>
   <v>      -0.28571429       0.46666667       0.00000000 </v>
   <v>      -0.23809524       0.46666667       0.00000000 </v>
   <v>      -0.19047619       0.46666667       0.00000000 </v>
   <v>      -0.14285714       0.46666667       0.00000000 </v>
   <v>      -0.09523810       0.46666667       0.00000000 </v>
   <v>      -0.04761905       0.46666667       0.00000000 </v>
  </varray>
  <varray name="weights" >
   <v>       0.00317460 </v>
   <v>       0.00634921 </v>
   <v>       0.00634921 </v>
   <v>       0.00634921 </v>
   <v>       0.00634921 </v>
   <v>       0.00634921 </v>
   <v>       0.00634921 </v>
   <v>       0.00634921 </v>
   <v>       0.00634921 </v>
   <v>       0.00634921 </v>
   <v>       0.00634921 </v>
   <v>       0.00634921 </v>
   <v>       0.00634921 </v>
   <v>       0.00634921 </v>
   <v>       0.00634921 </v>
   <v>       0.00634921 </v>
   <v>       0.00634921 </v>
   <v>       0.00634921 </v>
   <v>       0.00634921 </v>
   <v>       0.00634921 </v>
   <v>       0.00634921 </v>
   <v>       0.00634921 </v>
   <v>       0.00634921 </v>
   <v>       0.00634921 </v>
   <v>       0.00634921 </v>
   <v>       0.00634921 </v>
   <v>       0.00634921 </v>
   <v>       0.00634921 </v>
   <v>       0.00634921 </v>
   <v>       0.00634921 </v>
   <v>       0.00634921 </v>
   <v>       0.00634921 </v>
   <v>       0.00634921 </v>
   <v>       0.00634921 </v>
   <v>       0.00634921 </v>
   <v>       0.00634921 </v>
   <v>       0.00634921 </v>
   <v>       0.00634921 </v>
   <v>       0.00634921 </v>
   <v>       0.00634921 </v>
   <v>       0.00634921 </v>
   <v>       0.00634921 </v>
   <v>       0.00634921 </v>
   <v>       0.00634921 </v>
   <v>       0.00634921 </v>
   <v>       0.00634921 </v>
   <v>       0.00634921 </v>
   <v>       0.00634921 </v>
   <v>       0.00634921 </v>
   <v>       0.00634921 </v>
   <v>       0.00634921 </v>
   <v>       0.00634921 </v>
   <v>       0.00634921 </v>
   <v>       0.00634921 </v>
   <v>       0.00634921 </v>
   <v>       0.00634921 </v>
   <v>       0.00634921 </v>
   <v>       0.00634921 </v>
   <v>       0.00634921 </v>
   <v>       0.00634921 </v>
   <v>       0.00634921 </v>
   <v>       0.00634921 </v>
   <v>       0.00634921 </v>
   <v>       0.00634921 </v>
   <v>       0.00634921 </v>
   <v>       0.00634921 </v>
   <v>       0.00634921 </v>
   <v>       0.00634921 </v>
   <v>       0.00634921 </v>
   <v>       0.00634921 </v>
   <v>       0.00634921 </v>
   <v>       0.00634921 </v>
   <v>       0.00634921 </v>
   <v>       0.00634921 </v>
   <v>       0.00634921 </v>
   <v>       0.00634921 </v>
   <v>       0.00634921 </v>
   <v>       0.00634921 </v>
   <v>       0.00634921 </v>
   <v>       0.00634921 </v>
   <v>       0.00634921 </v>
   <v>       0.00634921 </v>
   <v>       0.00634921 </v>
   <v>       0.00634921 </v>
   <v>       0.00634921 </v>
   <v>       0.00634921 </v>
   <v>       0.00634921 </v>
   <v>       0.00634921 </v>
   <v>       0.00634921 </v>
   <v>       0.00634921 </v>
   <v>       0.00634921 </v>
   <v>       0.00634921 </v>
   <v>       0.00634921 </v>
   <v>       0.00634921 </v>
   <v>       0.00634921 </v>
   <v>       0.00634921 </v>
   <v>       0.00634921 </v>
   <v>       0.00634921 </v>
   <v>       0.00634921 </v>
   <v>       0.00634921 </v>
   <v>       0.00634921 </v>
   <v>       0.00634921 </v>
   <v>       0.00634921 </v>
   <v>       0.00634921 </v>
   <v>       0.00634921 </v>
   <v>       0.00634921 </v>
   <v>       0.00634921 </v>
   <v>       0.00634921 </v>
   <v>       0.00634921 </v>
   <v>       0.00634921 </v>
   <v>       0.00634921 </v>
   <v>       0.00634921 </v>
   <v>       0.00634921 </v>
   <v>       0.00634921 </v>
   <v>       0.00634921 </v>
   <v>       0.00634921 </v>
   <v>       0.00634921 </v>
   <v>       0.00634921 </v>
   <v>       0.00634921 </v>
   <v>       0.00634921 </v>
   <v>       0.00634921 </v>
   <v>       0.00634921 </v>
   <v>       0.00634921 </v>
   <v>       0.00634921 </v>
   <v>       0.00634921 </v>
   <v>       0.00634921 </v>
   <v>       0.00634921 </v>
   <v>       0.00634921 </v>
   <v>       0.00634921 </v>
   <v>       0.00634921 </v>
   <v>       0.00634921 </v>
   <v>       0.00634921 </v>
   <v>       0.00634921 </v>
   <v>       0.00634921 </v>
   <v>       0.00634921 </v>
   <v>       0.00634921 </v>
   <v>       0.00634921 </v>
   <v>       0.00634921 </v>
   <v>       0.00634921 </v>
   <v>       0.00634921 </v>
   <v>       0.00634921 </v>
   <v>       0.00634921 </v>
   <v>       0.00634921 </v>
   <v>       0.00634921 </v>
   <v>       0.00634921 </v>
   <v>       0.00634921 </v>
   <v>       0.00634921 </v>
   <v>       0.00634921 </v>
   <v>       0.00634921 </v>
   <v>       0.00634921 </v>
   <v>       0.00634921 </v>
   <v>       0.00634921 </v>
   <v>       0.00634921 </v>
   <v>       0.00634921 </v>
   <v>       0.00634921 </v>
   <v>       0.00634921 </v>
   <v>       0.00634921 </v>
   <v>       0.00634921 </v>
  </varray>
 </kpoints>
 <parameters>
  <separator name="general" >
   <i type="string" name="SYSTEM">unknown system</i>
   <i type="logical" name="LCOMPAT"> F  </i>
  </separator>
  <separator name="electronic" >
   <i type="string" name="PREC">a</i>
   <i name="ENMAX">    520.00000000</i>
   <i name="ENAUG">    342.92400000</i>
   <i name="EDIFF">      0.00001000</i>
   <i type="int" name="IALGO">    38</i>
   <i type="int" name="IWAVPR">    11</i>
   <i type="int" name="NBANDS">    16</i>
   <i name="NELECT">     20.00000000</i>
   <i type="int" name="TURBO">     0</i>
   <i type="int" name="IRESTART">     0</i>
   <i type="int" name="NREBOOT">     0</i>
   <i type="int" name="NMIN">     0</i>
   <i name="EREF">      0.00000000</i>
   <separator name="electronic smearing" >
    <i type="int" name="ISMEAR">     0</i>
    <i name="SIGMA">      0.02000000</i>
    <i name="KSPACING">      0.50000000</i>
    <i type="logical" name="KGAMMA"> T  </i>
   </separator>
   <separator name="electronic projectors" >
    <i type="logical" name="LREAL"> F  </i>
    <v name="ROPT">      0.00000000</v>
    <i type="int" name="LMAXPAW">  -100</i>
    <i type="int" name="LMAXMIX">     2</i>
    <i type="logical" name="NLSPLINE"> F  </i>
   </separator>
   <separator name="electronic startup" >
    <i type="int" name="ISTART">     0</i>
    <i type="int" name="ICHARG">     2</i>
    <i type="int" name="INIWAV">     1</i>
   </separator>
   <separator name="electronic spin" >
    <i type="int" name="ISPIN">     1</i>
    <i type="logical" name="LNONCOLLINEAR"> F  </i>
    <v name="MAGMOM">      1.00000000      1.00000000      1.00000000      1.00000000</v>
    <i name="NUPDOWN">     -1.00000000</i>
    <i type="logical" name="LSORBIT"> F  </i>
    <v name="SAXIS">      0.00000000      0.00000000      1.00000000</v>
    <i type="logical" name="LSPIRAL"> F  </i>
    <v name="QSPIRAL">      0.00000000      0.00000000      0.00000000</v>
    <i type="logical" name="LZEROZ"> F  </i>
   </separator>
   <separator name="electronic exchange-correlation" >
    <i type="logical" name="LASPH"> F  </i>
    <i type="logical" name="LMETAGGA"> F  </i>
   </separator>
   <separator name="electronic convergence" >
    <i type="int" name="NELM">   250</i>
    <i type="int" name="NELMDL">    -5</i>
    <i type="int" name="NELMIN">     6</i>
    <i name="ENINI">    520.00000000</i>
    <separator name="electronic convergence detail" >
     <i type="logical" name="LDIAG"> T  </i>
     <i type="logical" name="LSUBROT"> F  </i>
     <i name="WEIMIN">      0.00100000</i>
     <i name="EBREAK">      0.00000016</i>
     <i name="DEPER">      0.30000000</i>
     <i type="int" name="NRMM">     4</i>
     <i name="TIME">      0.40000000</i>
    </separator>
   </separator>
   <separator name="electronic mixer" >
    <i name="AMIX">      0.40000000</i>
    <i name="BMIX">      1.00000000</i>
    <i name="AMIN">      0.10000000</i>
    <i name="AMIX_MAG">      1.60000000</i>
    <i name="BMIX_MAG">      1.00000000</i>
    <separator name="electronic mixer details" >
     <i type="int" name="IMIX">     4</i>
     <i type="logical" name="MIXFIRST"> F  </i>
     <i type="int" name="MAXMIX">   -45</i>
     <i name="WC">    100.00000000</i>
     <i type="int" name="INIMIX">     1</i>
     <i type="int" name="MIXPRE">     1</i>
     <i type="int" name="MREMOVE">     5</i>
    </separator>
   </separator>
   <separator name="electronic dipolcorrection" >
    <i type="logical" name="LDIPOL"> F  </i>
    <i type="logical" name="LMONO"> F  </i>
    <i type="int" name="IDIPOL">     0</i>
    <i name="EPSILON">      1.00000000</i>
    <v name="DIPOL">   -100.00000000   -100.00000000   -100.00000000</v>
    <i name="EFIELD">      0.00000000</i>
   </separator>
  </separator>
  <separator name="grids" >
   <i type="int" name="NGX">    28</i>
   <i type="int" name="NGY">    36</i>
   <i type="int" name="NGZ">   150</i>
   <i type="int" name="NGXF">    56</i>
   <i type="int" name="NGYF">    72</i>
   <i type="int" name="NGZF">   300</i>
   <i type="logical" name="ADDGRID"> F  </i>
  </separator>
  <separator name="ionic" >
   <i type="int" name="NSW">   200</i>
   <i type="int" name="IBRION">     2</i>
   <i type="int" name="ISIF">     2</i>
   <i name="PSTRESS">      0.00000000</i>
   <i name="EDIFFG">     -0.01000000</i>
   <i type="int" name="NFREE">     1</i>
   <i name="POTIM">      0.30000000</i>
   <i name="SMASS">     -3.00000000</i>
   <i name="SCALEE">      1.00000000</i>
  </separator>
  <separator name="ionic md" >
   <i name="TEBEG">      0.00010000</i>
   <i name="TEEND">      0.00010000</i>
   <i type="int" name="NBLOCK">     1</i>
   <i type="int" name="KBLOCK">   200</i>
   <i type="int" name="NPACO">   256</i>
   <i name="APACO">     16.00000000</i>
  </separator>
  <separator name="symmetry" >
   <i type="int" name="ISYM">     2</i>
   <i name="SYMPREC">      0.00001000</i>
  </separator>
  <separator name="dos" >
   <i type="logical" name="LORBIT"> F  </i>
   <v name="RWIGS">     -1.00000000</v>
   <i type="int" name="NEDOS">   301</i>
   <i name="EMIN">     10.00000000</i>
   <i name="EMAX">    -10.00000000</i>
   <i name="EFERMI">      0.00000000</i>
  </separator>
  <separator name="writing" >
   <i type="int" name="NWRITE">     2</i>
   <i type="logical" name="LWAVE"> F  </i>
   <i type="logical" name="LCHARG"> F  </i>
   <i type="logical" name="LPARD"> F  </i>
   <i type="logical" name="LVTOT"> F  </i>
   <i type="logical" name="LVHAR"> F  </i>
   <i type="logical" name="LELF"> F  </i>
   <i type="logical" name="LOPTICS"> F  </i>
   <v name="STM">      0.00000000      0.00000000      0.00000000      0.00000000      0.00000000      0.00000000      0.00000000</v>
  </separator>
  <separator name="performance" >
   <i type="int" name="NPAR">     4</i>
   <i type="int" name="NSIM">     4</i>
   <i type="int" name="NBLK">    -1</i>
   <i type="logical" name="LPLANE"> T  </i>
   <i type="logical" name="LSCALAPACK"> T  </i>
   <i type="logical" name="LSCAAWARE"> F  </i>
   <i type="logical" name="LSCALU"> F  </i>
   <i type="logical" name="LASYNC"> F  </i>
   <i type="logical" name="LORBITALREAL"> F  </i>
  </separator>
  <separator name="miscellaneous" >
   <i type="int" name="IDIOT">     3</i>
   <i type="logical" name="LMUSIC"> F  </i>
   <v name="POMASS">     30.97400000</v>
   <v name="DARWINR">      0.00000000</v>
   <v name="DARWINV">      1.00000000</v>
   <i type="logical" name="LCORR"> T  </i>
  </separator>
  <i type="logical" name="GGA_COMPAT"> T  </i>
  <i type="logical" name="LBERRY"> F  </i>
  <i type="int" name="ICORELEVEL">     0</i>
  <i type="logical" name="LDAU"> F  </i>
  <i type="int" name="I_CONSTRAINED_M">     0</i>
  <separator name="electronic exchange-correlation" >
   <i type="string" name="GGA">--</i>
   <i type="int" name="VOSKOWN">     0</i>
   <i type="logical" name="LHFCALC"> F  </i>
   <i type="string" name="PRECFOCK"></i>
   <i type="logical" name="LSYMGRAD"> F  </i>
   <i type="logical" name="LHFONE"> F  </i>
   <i type="logical" name="LRHFCALC"> F  </i>
   <i type="logical" name="LTHOMAS"> F  </i>
   <i type="logical" name="LMODELHF"> F  </i>
   <i name="ENCUT4O">     -1.00000000</i>
   <i type="int" name="EXXOEP">     0</i>
   <i type="int" name="FOURORBIT">     0</i>
   <i name="AEXX">      0.00000000</i>
   <i name="HFALPHA">      0.00000000</i>
   <i name="MCALPHA">      0.00000000</i>
   <i name="ALDAX">      1.00000000</i>
   <i name="AGGAX">      1.00000000</i>
   <i name="ALDAC">      1.00000000</i>
   <i name="AGGAC">      1.00000000</i>
   <i type="int" name="NKREDX">     1</i>
   <i type="int" name="NKREDY">     1</i>
   <i type="int" name="NKREDZ">     1</i>
   <i type="logical" name="SHIFTRED"> F  </i>
   <i type="logical" name="ODDONLY"> F  </i>
   <i type="logical" name="EVENONLY"> F  </i>
   <i type="int" name="LMAXFOCK">     0</i>
   <i type="int" name="NMAXFOCKAE">     0</i>
   <i type="logical" name="LFOCKAEDFT"> F  </i>
   <i name="HFSCREEN">      0.00000000</i>
   <i name="HFSCREENC">      0.00000000</i>
   <i type="int" name="NBANDSGWLOW">     0</i>
  </separator>
  <separator name="vdW DFT" >
   <i type="logical" name="LUSE_VDW"> F  </i>
   <i name="Zab_VDW">     -0.84910000</i>
   <i name="PARAM1">      0.12340000</i>
   <i name="PARAM2">      1.00000000</i>
   <i name="PARAM3">      0.00000000</i>
  </separator>
  <separator name="model GW" >
   <i type="int" name="MODEL_GW">     0</i>
   <i name="MODEL_EPS0">     45.75151781</i>
   <i name="MODEL_ALPHA">      1.00000000</i>
  </separator>
  <separator name="linear response parameters" >
   <i type="logical" name="LEPSILON"> F  </i>
   <i type="logical" name="LRPA"> F  </i>
   <i type="logical" name="LNABLA"> F  </i>
   <i type="logical" name="LVEL"> F  </i>
   <i type="int" name="KINTER">     0</i>
   <i name="CSHIFT">      0.10000000</i>
   <i name="OMEGAMAX">     -1.00000000</i>
   <i name="DEG_THRESHOLD">      0.00200000</i>
  </separator>
  <separator name="orbital magnetization" >
   <i type="logical" name="NUCIND"> F  </i>
   <v name="MAGPOS">      0.00000000      0.00000000      0.00000000</v>
   <i type="logical" name="LNICSALL"> T  </i>
   <i type="logical" name="ORBITALMAG"> F  </i>
   <i type="logical" name="LMAGBLOCH"> F  </i>
   <i type="logical" name="LCHIMAG"> F  </i>
   <i type="logical" name="LGAUGE"> T  </i>
   <i type="int" name="MAGATOM">     0</i>
   <v name="MAGDIPOL">      0.00000000      0.00000000      0.00000000</v>
   <v name="AVECCONST">      0.00000000      0.00000000      0.00000000</v>
  </separator>
  <separator name="response functions" >
   <i type="logical" name="LADDER"> F  </i>
   <i type="logical" name="LFXC"> F  </i>
   <i type="logical" name="LHARTREE"> T  </i>
   <i type="int" name="IBSE">     0</i>
   <v type="int" name="KPOINT">    -1     0     0     0</v>
   <i type="logical" name="LTCTE"> F  </i>
   <i type="logical" name="LTETE"> F  </i>
   <i type="logical" name="LTRIPLET"> F  </i>
   <i type="logical" name="LFXCEPS"> F  </i>
   <i type="logical" name="LFXHEG"> F  </i>
   <i type="int" name="NATURALO">     0</i>
   <i type="logical" name="L2ORDER"> F  </i>
   <i type="logical" name="LUSEW"> F  </i>
   <i name="ENCUTGW">     -2.00000000</i>
   <i name="ENCUTGWSOFT">     -2.00000000</i>
   <i name="ENCUTLF">     -1.00000000</i>
   <i type="int" name="LMAXMP2">    -1</i>
   <i name="SCISSOR">      0.00000000</i>
   <i type="int" name="NOMEGA">     0</i>
   <i type="int" name="NOMEGAR">     0</i>
   <i type="int" name="NBANDSGW">    -1</i>
   <i type="int" name="NBANDSO">    -1</i>
   <i type="int" name="NBANDSV">    -1</i>
   <i type="int" name="NELM">   250</i>
   <i type="int" name="NELMHF">     1</i>
   <i type="int" name="DIM">     3</i>
   <i type="int" name="ANTIRES">     0</i>
   <i name="OMEGAMAX">    -30.00000000</i>
   <i name="OMEGAMIN">    -30.00000000</i>
   <i name="OMEGATL">   -200.00000000</i>
   <i type="int" name="OMEGAGRID">     0</i>
   <i name="CSHIFT">     -0.10000000</i>
   <i type="logical" name="SELFENERGY"> F  </i>
   <i type="logical" name="LSPECTRAL"> F  </i>
   <i type="logical" name="LSPECTRALGW"> F  </i>
   <i type="logical" name="LSINGLES"> F  </i>
   <i type="logical" name="LFERMIGW"> F  </i>
   <i type="logical" name="ODDONLYGW"> F  </i>
   <i type="logical" name="EVENONLYGW"> F  </i>
   <i type="int" name="NKREDLFX">     1</i>
   <i type="int" name="NKREDLFY">     1</i>
   <i type="int" name="NKREDLFZ">     1</i>
   <i type="int" name="MAXMEM">  1800</i>
   <i type="int" name="TELESCOPE">     0</i>
   <i type="int" name="TAUPAR">     1</i>
   <i type="int" name="OMEGAPAR">    -1</i>
   <i name="LAMBDA">      1.00000000</i>
  </separator>
  <separator name="External order field" >
   <i name="OFIELD_KAPPA">      0.00000000</i>
   <v name="OFIELD_K">      0.00000000      0.00000000      0.00000000</v>
   <i name="OFIELD_Q6_NEAR">      0.00000000</i>
   <i name="OFIELD_Q6_FAR">      0.00000000</i>
   <i name="OFIELD_A">      0.00000000</i>
  </separator>
 </parameters>
 <atominfo>
  <atoms>       4 </atoms>
  <types>       1 </types>
  <array name="atoms" >
   <dimension dim="1">ion</dimension>
   <field type="string">element</field>
   <field type="int">atomtype</field>
   <set>
    <rc><c>P </c><c>   1</c></rc>
    <rc><c>P </c><c>   1</c></rc>
    <rc><c>P </c><c>   1</c></rc>
    <rc><c>P </c><c>   1</c></rc>
   </set>
  </array>
  <array name="atomtypes" >
   <dimension dim="1">type</dimension>
   <field type="int">atomspertype</field>
   <field type="string">element</field>
   <field>mass</field>
   <field>valence</field>
   <field type="string">pseudopotential</field>
   <set>
    <rc><c>   4</c><c>P </c><c>     30.97400000</c><c>      5.00000000</c><c>  PAW_PBE P 06Sep2000                   </c></rc>
   </set>
  </array>
 </atominfo>
 <structure name="initialpos" >
  <crystal>
   <varray name="basis" >
    <v>       3.29654400      -0.06595700       0.00000000 </v>
    <v>      -0.09248600       4.62242600      -0.00005300 </v>
    <v>       0.00000000       0.00000000      20.02439000 </v>
   </varray>
   <i name="volume">    305.01011872 </i>
   <varray name="rec_basis" >
    <v>       0.30346948       0.00607185       0.00000000 </v>
    <v>       0.00433018       0.21642326       0.00000000 </v>
    <v>       0.00000001       0.00000057       0.04993910 </v>
   </varray>
  </crystal>
  <varray name="positions" >
   <v>       0.50000000       0.91077300       0.55252100 </v>
   <v>       0.50000000       0.08922700       0.44747900 </v>
   <v>       0.00000000       0.41076900       0.44747900 </v>
   <v>       0.00000000       0.58923100       0.55252100 </v>
  </varray>
 </structure>
 <calculation>
  <scstep>
   <time name="dav">    1.49    1.49</time>
   <time name="total">    1.52    1.52</time>
   <energy>
    <i name="alphaZ">      5.25936991 </i>
    <i name="ewald">   1865.16984813 </i>
    <i name="hartreedc">  -2458.78301335 </i>
    <i name="XCdc">     13.04129535 </i>
    <i name="pawpsdc">    559.04011960 </i>
    <i name="pawaedc">   -526.39432044 </i>
    <i name="eentropy">     -0.00036463 </i>
    <i name="bandstr">    -27.01349516 </i>
    <i name="atom">    704.16778566 </i>
    <i name="e_fr_energy">    134.48722508 </i>
    <i name="e_wo_entrp">    134.48758971 </i>
    <i name="e_0_energy">    134.48740739 </i>
   </energy>
  </scstep>
  <scstep>
   <time name="dav">    2.00    2.00</time>
   <time name="total">    2.00    2.00</time>
   <energy>
    <i name="e_fr_energy">     -6.07008722 </i>
    <i name="e_wo_entrp">     -6.07008638 </i>
    <i name="e_0_energy">     -6.07008680 </i>
   </energy>
  </scstep>
  <scstep>
   <time name="dav">    1.83    1.83</time>
   <time name="total">    1.83    1.83</time>
   <energy>
    <i name="e_fr_energy">    -21.30654015 </i>
    <i name="e_wo_entrp">    -21.30654015 </i>
    <i name="e_0_energy">    -21.30654015 </i>
   </energy>
  </scstep>
  <scstep>
   <time name="dav">    1.87    1.87</time>
   <time name="total">    1.87    1.87</time>
   <energy>
    <i name="e_fr_energy">    -21.62290596 </i>
    <i name="e_wo_entrp">    -21.62290596 </i>
    <i name="e_0_energy">    -21.62290596 </i>
   </energy>
  </scstep>
  <scstep>
   <time name="dav">    1.99    1.99</time>
   <time name="total">    2.08    2.09</time>
   <energy>
    <i name="e_fr_energy">    -21.63269448 </i>
    <i name="e_wo_entrp">    -21.63269448 </i>
    <i name="e_0_energy">    -21.63269448 </i>
   </energy>
  </scstep>
  <scstep>
   <time name="dav">    1.78    1.78</time>
   <time name="total">    1.90    1.90</time>
   <energy>
    <i name="e_fr_energy">    -21.48345122 </i>
    <i name="e_wo_entrp">    -21.48345122 </i>
    <i name="e_0_energy">    -21.48345122 </i>
   </energy>
  </scstep>
  <scstep>
   <time name="dav">    1.73    1.73</time>
   <time name="total">    1.85    1.85</time>
   <energy>
    <i name="e_fr_energy">    -21.41417648 </i>
    <i name="e_wo_entrp">    -21.41417648 </i>
    <i name="e_0_energy">    -21.41417648 </i>
   </energy>
  </scstep>
  <scstep>
   <time name="dav">    1.81    1.81</time>
   <time name="total">    1.92    1.92</time>
   <energy>
    <i name="e_fr_energy">    -21.41346652 </i>
    <i name="e_wo_entrp">    -21.41346652 </i>
    <i name="e_0_energy">    -21.41346652 </i>
   </energy>
  </scstep>
  <scstep>
   <time name="dav">    2.09    2.10</time>
   <time name="total">    2.21    2.21</time>
   <energy>
    <i name="e_fr_energy">    -21.41331605 </i>
    <i name="e_wo_entrp">    -21.41331605 </i>
    <i name="e_0_energy">    -21.41331605 </i>
   </energy>
  </scstep>
  <scstep>
   <time name="dav">    1.79    1.79</time>
   <time name="total">    1.90    1.90</time>
   <energy>
    <i name="e_fr_energy">    -21.41307850 </i>
    <i name="e_wo_entrp">    -21.41307850 </i>
    <i name="e_0_energy">    -21.41307850 </i>
   </energy>
  </scstep>
  <scstep>
   <time name="dav">    1.84    1.84</time>
   <time name="total">    1.96    1.96</time>
   <energy>
    <i name="e_fr_energy">    -21.41299408 </i>
    <i name="e_wo_entrp">    -21.41299408 </i>
    <i name="e_0_energy">    -21.41299408 </i>
   </energy>
  </scstep>
  <scstep>
   <time name="dav">    1.62    1.63</time>
   <time name="total">    1.74    1.74</time>
   <energy>
    <i name="e_fr_energy">    -21.41335688 </i>
    <i name="e_wo_entrp">    -21.41335688 </i>
    <i name="e_0_energy">    -21.41335688 </i>
   </energy>
  </scstep>
  <scstep>
   <time name="dav">    1.60    1.60</time>
   <time name="total">    1.71    1.71</time>
   <energy>
    <i name="e_fr_energy">    -21.41344432 </i>
    <i name="e_wo_entrp">    -21.41344432 </i>
    <i name="e_0_energy">    -21.41344432 </i>
   </energy>
  </scstep>
  <scstep>
   <time name="dav">    1.48    1.48</time>
   <time name="total">    1.59    1.59</time>
   <energy>
    <i name="e_fr_energy">    -21.41359905 </i>
    <i name="e_wo_entrp">    -21.41359905 </i>
    <i name="e_0_energy">    -21.41359905 </i>
   </energy>
  </scstep>
  <scstep>
   <time name="dav">    1.54    1.55</time>
   <time name="total">    1.66    1.66</time>
   <energy>
    <i name="e_fr_energy">    -21.41364329 </i>
    <i name="e_wo_entrp">    -21.41364329 </i>
    <i name="e_0_energy">    -21.41364329 </i>
   </energy>
  </scstep>
  <scstep>
   <time name="dav">    1.46    1.46</time>
   <time name="total">    1.57    1.58</time>
   <energy>
    <i name="e_fr_energy">    -21.41367772 </i>
    <i name="e_wo_entrp">    -21.41367772 </i>
    <i name="e_0_energy">    -21.41367772 </i>
   </energy>
  </scstep>
  <scstep>
   <time name="dav">    1.49    1.49</time>
   <time name="total">    1.51    1.51</time>
   <energy>
    <i name="alphaZ">      5.25936991 </i>
    <i name="ewald">   1865.16984813 </i>
    <i name="hartreedc">  -2474.28674174 </i>
    <i name="XCdc">     14.11295770 </i>
    <i name="pawpsdc">   2113.56980399 </i>
    <i name="pawaedc">  -2081.26736333 </i>
    <i name="eentropy">     -0.00000000 </i>
    <i name="bandstr">   -168.13934152 </i>
    <i name="atom">    704.16778566 </i>
    <i name="e_fr_energy">    -21.41368119 </i>
    <i name="e_wo_entrp">    -21.41368119 </i>
    <i name="e_0_energy">    -21.41368119 </i>
   </energy>
  </scstep>
  <structure>
   <crystal>
    <varray name="basis" >
     <v>       3.29654400      -0.06595700       0.00000000 </v>
     <v>      -0.09248600       4.62242600      -0.00005300 </v>
     <v>       0.00000000       0.00000000      20.02439000 </v>
    </varray>
    <i name="volume">    305.01011872 </i>
    <varray name="rec_basis" >
     <v>       0.30346948       0.00607185       0.00000000 </v>
     <v>       0.00433018       0.21642326       0.00000000 </v>
     <v>       0.00000001       0.00000057       0.04993910 </v>
    </varray>
   </crystal>
   <varray name="positions" >
    <v>       0.50000000       0.91077300       0.55252100 </v>
    <v>       0.50000000       0.08922700       0.44747900 </v>
    <v>       0.00000000       0.41076900       0.44747900 </v>
    <v>       0.00000000       0.58923100       0.55252100 </v>
   </varray>
  </structure>
  <varray name="forces" >
   <v>       0.52148688       0.06566807      -0.00267896 </v>
   <v>      -0.52148688      -0.06566807       0.00267896 </v>
   <v>       0.52148218       0.06563583       0.00267999 </v>
   <v>      -0.52148218      -0.06563583      -0.00267999 </v>
  </varray>
  <varray name="stress" >
   <v>       1.31357481      11.43697962      -0.00008174 </v>
   <v>      11.43697964       1.20560330       0.00034543 </v>
   <v>      -0.00008166       0.00034546      -0.12435292 </v>
  </varray>
  <energy>
   <i name="e_fr_energy">    -21.41368119 </i>
   <i name="e_wo_entrp">    -21.41368119 </i>
   <i name="e_0_energy">     -0.00000000 </i>
  </energy>
  <time name="totalsc">   31.58   31.63</time>
 </calculation>
 <calculation>
  <scstep>
   <time name="dav">    1.53    1.53</time>
   <time name="total">    1.64    1.64</time>
   <energy>
    <i name="alphaZ">      5.25936991 </i>
    <i name="ewald">   1864.73848517 </i>
    <i name="hartreedc">  -2474.06887512 </i>
    <i name="XCdc">     14.09971475 </i>
    <i name="pawpsdc">   2113.13104296 </i>
    <i name="pawaedc">  -2080.82867370 </i>
    <i name="eentropy">     -0.00000000 </i>
    <i name="bandstr">   -167.93185634 </i>
    <i name="atom">    704.16778566 </i>
    <i name="e_fr_energy">    -21.43300671 </i>
    <i name="e_wo_entrp">    -21.43300671 </i>
    <i name="e_0_energy">    -21.43300671 </i>
   </energy>
  </scstep>
  <scstep>
   <time name="dav">    1.83    1.83</time>
   <time name="total">    1.95    1.95</time>
   <energy>
    <i name="e_fr_energy">    -21.43599429 </i>
    <i name="e_wo_entrp">    -21.43599429 </i>
    <i name="e_0_energy">    -21.43599429 </i>
   </energy>
  </scstep>
  <scstep>
   <time name="dav">    1.96    1.96</time>
   <time name="total">    2.07    2.08</time>
   <energy>
    <i name="e_fr_energy">    -21.43581717 </i>
    <i name="e_wo_entrp">    -21.43581717 </i>
    <i name="e_0_energy">    -21.43581717 </i>
   </energy>
  </scstep>
  <scstep>
   <time name="dav">    1.81    1.81</time>
   <time name="total">    1.92    1.92</time>
   <energy>
    <i name="e_fr_energy">    -21.43577732 </i>
    <i name="e_wo_entrp">    -21.43577732 </i>
    <i name="e_0_energy">    -21.43577732 </i>
   </energy>
  </scstep>
  <scstep>
   <time name="dav">    1.61    1.61</time>
   <time name="total">    1.72    1.72</time>
   <energy>
    <i name="e_fr_energy">    -21.43578126 </i>
    <i name="e_wo_entrp">    -21.43578126 </i>
    <i name="e_0_energy">    -21.43578126 </i>
   </energy>
  </scstep>
  <scstep>
   <time name="dav">    1.34    1.34</time>
   <time name="total">    1.36    1.36</time>
   <energy>
    <i name="alphaZ">      5.25936991 </i>
    <i name="ewald">   1864.73848517 </i>
    <i name="hartreedc">  -2474.04644655 </i>
    <i name="XCdc">     14.09573193 </i>
    <i name="pawpsdc">   2099.48819969 </i>
    <i name="pawaedc">  -2067.18016528 </i>
    <i name="eentropy">     -0.00000000 </i>
    <i name="bandstr">   -167.95874287 </i>
    <i name="atom">    704.16778566 </i>
    <i name="e_fr_energy">    -21.43578233 </i>
    <i name="e_wo_entrp">    -21.43578233 </i>
    <i name="e_0_energy">    -21.43578233 </i>
   </energy>
  </scstep>
  <structure>
   <crystal>
    <varray name="basis" >
     <v>       3.29654400      -0.06595700       0.00000000 </v>
     <v>      -0.09248600       4.62242600      -0.00005300 </v>
     <v>       0.00000000       0.00000000      20.02439000 </v>
    </varray>
    <i name="volume">    305.01011872 </i>
    <varray name="rec_basis" >
     <v>       0.30346948       0.00607185       0.00000000 </v>
     <v>       0.00433018       0.21642326       0.00000000 </v>
     <v>       0.00000001       0.00000057       0.04993910 </v>
    </varray>
   </crystal>
   <varray name="positions" >
    <v>       0.50459234       0.91124974       0.55251713 </v>
    <v>       0.49540766       0.08875026       0.44748287 </v>
    <v>       0.00459229       0.41124554       0.44748288 </v>
    <v>      -0.00459229       0.58875446       0.55251712 </v>
   </varray>
  </structure>
  <varray name="forces" >
   <v>       0.20580294      -0.01840209       0.00042926 </v>
   <v>      -0.20580294       0.01840209      -0.00042926 </v>
   <v>       0.20579952      -0.01842917      -0.00042861 </v>
   <v>      -0.20579952       0.01842917       0.00042861 </v>
  </varray>
  <varray name="stress" >
   <v>       0.41233430       7.22621758      -0.00004422 </v>
   <v>       7.22621756       0.14468221       0.00029817 </v>
   <v>      -0.00004421       0.00029814      -0.05411767 </v>
  </varray>
  <energy>
   <i name="e_fr_energy">    -21.43578233 </i>
   <i name="e_wo_entrp">    -21.43578233 </i>
   <i name="e_0_energy">     -0.00000000 </i>
  </energy>
  <time name="totalsc">   11.43   11.45</time>
 </calculation>
 <calculation>
  <scstep>
   <time name="dav">    1.53    1.53</time>
   <time name="total">    1.64    1.64</time>
   <energy>
    <i name="alphaZ">      5.25936991 </i>
    <i name="ewald">   1864.51274112 </i>
    <i name="hartreedc">  -2473.92198154 </i>
    <i name="XCdc">     14.08809628 </i>
    <i name="pawpsdc">   2099.51816275 </i>
    <i name="pawaedc">  -2067.21015722 </i>
    <i name="eentropy">     -0.00000000 </i>
    <i name="bandstr">   -167.85265725 </i>
    <i name="atom">    704.16778566 </i>
    <i name="e_fr_energy">    -21.43864029 </i>
    <i name="e_wo_entrp">    -21.43864029 </i>
    <i name="e_0_energy">    -21.43864029 </i>
   </energy>
  </scstep>
  <scstep>
   <time name="dav">    1.82    1.82</time>
   <time name="total">    1.93    1.93</time>
   <energy>
    <i name="e_fr_energy">    -21.43980212 </i>
    <i name="e_wo_entrp">    -21.43980212 </i>
    <i name="e_0_energy">    -21.43980212 </i>
   </energy>
  </scstep>
  <scstep>
   <time name="dav">    1.98    1.98</time>
   <time name="total">    2.09    2.09</time>
   <energy>
    <i name="e_fr_energy">    -21.43973776 </i>
    <i name="e_wo_entrp">    -21.43973776 </i>
    <i name="e_0_energy">    -21.43973776 </i>
   </energy>
  </scstep>
  <scstep>
   <time name="dav">    1.81    1.81</time>
   <time name="total">    1.92    1.92</time>
   <energy>
    <i name="e_fr_energy">    -21.43972302 </i>
    <i name="e_wo_entrp">    -21.43972302 </i>
    <i name="e_0_energy">    -21.43972302 </i>
   </energy>
  </scstep>
  <scstep>
   <time name="dav">    1.35    1.35</time>
   <time name="total">    1.46    1.47</time>
   <energy>
    <i name="e_fr_energy">    -21.43972415 </i>
    <i name="e_wo_entrp">    -21.43972415 </i>
    <i name="e_0_energy">    -21.43972415 </i>
   </energy>
  </scstep>
  <scstep>
   <time name="dav">    1.22    1.22</time>
   <time name="total">    1.24    1.24</time>
   <energy>
    <i name="alphaZ">      5.25936991 </i>
    <i name="ewald">   1864.51274112 </i>
    <i name="hartreedc">  -2473.91994435 </i>
    <i name="XCdc">     14.08629307 </i>
    <i name="pawpsdc">   2092.66628693 </i>
    <i name="pawaedc">  -2060.35554333 </i>
    <i name="eentropy">     -0.00000000 </i>
    <i name="bandstr">   -167.85671335 </i>
    <i name="atom">    704.16778566 </i>
    <i name="e_fr_energy">    -21.43972434 </i>
    <i name="e_wo_entrp">    -21.43972434 </i>
    <i name="e_0_energy">    -21.43972434 </i>
   </energy>
  </scstep>
  <structure>
   <crystal>
    <varray name="basis" >
     <v>       3.29654400      -0.06595700       0.00000000 </v>
     <v>      -0.09248600       4.62242600      -0.00005300 </v>
     <v>       0.00000000       0.00000000      20.02439000 </v>
    </varray>
    <i name="volume">    305.01011872 </i>
    <varray name="rec_basis" >
     <v>       0.30346948       0.00607185       0.00000000 </v>
     <v>       0.00433018       0.21642326       0.00000000 </v>
     <v>       0.00000001       0.00000057       0.04993910 </v>
    </varray>
   </crystal>
   <varray name="positions" >
    <v>       0.50745627       0.91154705       0.55251471 </v>
    <v>       0.49254373       0.08845295       0.44748529 </v>
    <v>       0.00745619       0.41154272       0.44748529 </v>
    <v>      -0.00745619       0.58845728       0.55251471 </v>
   </varray>
  </structure>
  <varray name="forces" >
   <v>       0.01325424      -0.05732324       0.00211126 </v>
   <v>      -0.01325424       0.05732324      -0.00211126 </v>
   <v>       0.01325145      -0.05734687      -0.00211057 </v>
   <v>      -0.01325145       0.05734687       0.00211057 </v>
  </varray>
  <varray name="stress" >
   <v>       0.01941732       4.68164090      -0.00002354 </v>
   <v>       4.68164086      -0.30584199       0.00026384 </v>
   <v>      -0.00002352       0.00026384      -0.01897505 </v>
  </varray>
  <energy>
   <i name="e_fr_energy">    -21.43972434 </i>
   <i name="e_wo_entrp">    -21.43972434 </i>
   <i name="e_0_energy">     -0.00000000 </i>
  </energy>
  <time name="totalsc">   11.05   11.07</time>
 </calculation>
 <calculation>
  <scstep>
   <time name="dav">    1.57    1.57</time>
   <time name="total">    1.68    1.68</time>
   <energy>
    <i name="alphaZ">      5.25936991 </i>
    <i name="ewald">   1864.50636855 </i>
    <i name="hartreedc">  -2473.91801355 </i>
    <i name="XCdc">     14.08608957 </i>
    <i name="pawpsdc">   2092.66424380 </i>
    <i name="pawaedc">  -2060.35351058 </i>
    <i name="eentropy">     -0.00000000 </i>
    <i name="bandstr">   -167.85206038 </i>
    <i name="atom">    704.16778566 </i>
    <i name="e_fr_energy">    -21.43972703 </i>
    <i name="e_wo_entrp">    -21.43972703 </i>
    <i name="e_0_energy">    -21.43972703 </i>
   </energy>
  </scstep>
  <scstep>
   <time name="dav">    1.29    1.29</time>
   <time name="total">    1.40    1.40</time>
   <energy>
    <i name="e_fr_energy">    -21.43972809 </i>
    <i name="e_wo_entrp">    -21.43972809 </i>
    <i name="e_0_energy">    -21.43972809 </i>
   </energy>
  </scstep>
  <scstep>
   <time name="dav">    1.13    1.13</time>
   <time name="total">    1.24    1.24</time>
   <energy>
    <i name="e_fr_energy">    -21.43972815 </i>
    <i name="e_wo_entrp">    -21.43972815 </i>
    <i name="e_0_energy">    -21.43972815 </i>
   </energy>
  </scstep>
  <scstep>
   <time name="dav">    1.12    1.12</time>
   <time name="total">    1.23    1.23</time>
   <energy>
    <i name="e_fr_energy">    -21.43972819 </i>
    <i name="e_wo_entrp">    -21.43972819 </i>
    <i name="e_0_energy">    -21.43972819 </i>
   </energy>
  </scstep>
  <scstep>
   <time name="dav">    1.14    1.14</time>
   <time name="total">    1.25    1.25</time>
   <energy>
    <i name="e_fr_energy">    -21.43972824 </i>
    <i name="e_wo_entrp">    -21.43972824 </i>
    <i name="e_0_energy">    -21.43972824 </i>
   </energy>
  </scstep>
  <scstep>
   <time name="dav">    1.10    1.10</time>
   <time name="total">    1.12    1.12</time>
   <energy>
    <i name="alphaZ">      5.25936991 </i>
    <i name="ewald">   1864.50636855 </i>
    <i name="hartreedc">  -2473.92115848 </i>
    <i name="XCdc">     14.08606900 </i>
    <i name="pawpsdc">   2092.48063956 </i>
    <i name="pawaedc">  -2060.16983466 </i>
    <i name="eentropy">     -0.00000000 </i>
    <i name="bandstr">   -167.84896780 </i>
    <i name="atom">    704.16778566 </i>
    <i name="e_fr_energy">    -21.43972826 </i>
    <i name="e_wo_entrp">    -21.43972826 </i>
    <i name="e_0_energy">    -21.43972826 </i>
   </energy>
  </scstep>
  <structure>
   <crystal>
    <varray name="basis" >
     <v>       3.29654400      -0.06595700       0.00000000 </v>
     <v>      -0.09248600       4.62242600      -0.00005300 </v>
     <v>       0.00000000       0.00000000      20.02439000 </v>
    </varray>
    <i name="volume">    305.01011872 </i>
    <varray name="rec_basis" >
     <v>       0.30346948       0.00607185       0.00000000 </v>
     <v>       0.00433018       0.21642326       0.00000000 </v>
     <v>       0.00000001       0.00000057       0.04993910 </v>
    </varray>
   </crystal>
   <varray name="positions" >
    <v>       0.50754364       0.91155612       0.55251464 </v>
    <v>       0.49245636       0.08844388       0.44748536 </v>
    <v>       0.00754356       0.41155179       0.44748537 </v>
    <v>      -0.00754356       0.58844821       0.55251463 </v>
   </varray>
  </structure>
  <varray name="forces" >
   <v>       0.00766937      -0.05835754       0.00214643 </v>
   <v>      -0.00766937       0.05835754      -0.00214643 </v>
   <v>       0.00766658      -0.05838103      -0.00214573 </v>
   <v>      -0.00766658       0.05838103       0.00214573 </v>
  </varray>
  <varray name="stress" >
   <v>       0.01013628       4.61881315      -0.00002346 </v>
   <v>       4.61881313      -0.31916497       0.00026125 </v>
   <v>      -0.00002344       0.00026120      -0.02240111 </v>
  </varray>
  <energy>
   <i name="e_fr_energy">    -21.43972826 </i>
   <i name="e_wo_entrp">    -21.43972826 </i>
   <i name="e_0_energy">     -0.00000000 </i>
  </energy>
  <time name="totalsc">    8.69    8.71</time>
 </calculation>
 <calculation>
  <scstep>
   <time name="dav">    1.56    1.56</time>
   <time name="total">    1.68    1.68</time>
   <energy>
    <i name="alphaZ">      5.25936991 </i>
    <i name="ewald">   1864.72040253 </i>
    <i name="hartreedc">  -2474.04677262 </i>
    <i name="XCdc">     14.09425097 </i>
    <i name="pawpsdc">   2092.47978795 </i>
    <i name="pawaedc">  -2060.16898300 </i>
    <i name="eentropy">     -0.00000000 </i>
    <i name="bandstr">   -167.94581117 </i>
    <i name="atom">    704.16778566 </i>
    <i name="e_fr_energy">    -21.43996977 </i>
    <i name="e_wo_entrp">    -21.43996977 </i>
    <i name="e_0_energy">    -21.43996977 </i>
   </energy>
  </scstep>
  <scstep>
   <time name="dav">    1.86    1.86</time>
   <time name="total">    1.97    1.97</time>
   <energy>
    <i name="e_fr_energy">    -21.44002237 </i>
    <i name="e_wo_entrp">    -21.44002237 </i>
    <i name="e_0_energy">    -21.44002237 </i>
   </energy>
  </scstep>
  <scstep>
   <time name="dav">    1.50    1.50</time>
   <time name="total">    1.61    1.62</time>
   <energy>
    <i name="e_fr_energy">    -21.44002177 </i>
    <i name="e_wo_entrp">    -21.44002177 </i>
    <i name="e_0_energy">    -21.44002177 </i>
   </energy>
  </scstep>
  <scstep>
   <time name="dav">    1.25    1.25</time>
   <time name="total">    1.37    1.37</time>
   <energy>
    <i name="e_fr_energy">    -21.44002221 </i>
    <i name="e_wo_entrp">    -21.44002221 </i>
    <i name="e_0_energy">    -21.44002221 </i>
   </energy>
  </scstep>
  <scstep>
   <time name="dav">    1.17    1.17</time>
   <time name="total">    1.29    1.29</time>
   <energy>
    <i name="e_fr_energy">    -21.44002223 </i>
    <i name="e_wo_entrp">    -21.44002223 </i>
    <i name="e_0_energy">    -21.44002223 </i>
   </energy>
  </scstep>
  <scstep>
   <time name="dav">    1.13    1.13</time>
   <time name="total">    1.15    1.16</time>
   <energy>
    <i name="alphaZ">      5.25936991 </i>
    <i name="ewald">   1864.72040253 </i>
    <i name="hartreedc">  -2474.04922518 </i>
    <i name="XCdc">     14.09529613 </i>
    <i name="pawpsdc">   2098.14490337 </i>
    <i name="pawaedc">  -2065.83626751 </i>
    <i name="eentropy">     -0.00000000 </i>
    <i name="bandstr">   -167.94228717 </i>
    <i name="atom">    704.16778566 </i>
    <i name="e_fr_energy">    -21.44002226 </i>
    <i name="e_wo_entrp">    -21.44002226 </i>
    <i name="e_0_energy">    -21.44002226 </i>
   </energy>
  </scstep>
  <structure>
   <crystal>
    <varray name="basis" >
     <v>       3.29654400      -0.06595700       0.00000000 </v>
     <v>      -0.09248600       4.62242600      -0.00005300 </v>
     <v>       0.00000000       0.00000000      20.02439000 </v>
    </varray>
    <i name="volume">    305.01011872 </i>
    <varray name="rec_basis" >
     <v>       0.30346948       0.00607185       0.00000000 </v>
     <v>       0.00433018       0.21642326       0.00000000 </v>
     <v>       0.00000001       0.00000057       0.04993910 </v>
    </varray>
   </crystal>
   <varray name="positions" >
    <v>       0.50767017       0.91115108       0.55251809 </v>
    <v>       0.49232983       0.08884892       0.44748191 </v>
    <v>       0.00767006       0.41114658       0.44748192 </v>
    <v>      -0.00767006       0.58885342       0.55251808 </v>
   </varray>
  </structure>
  <varray name="forces" >
   <v>      -0.00005154      -0.01729985      -0.00481658 </v>
   <v>       0.00005154       0.01729985       0.00481658 </v>
   <v>      -0.00005394      -0.01731873       0.00481651 </v>
   <v>       0.00005394       0.01731873      -0.00481651 </v>
  </varray>
  <varray name="stress" >
   <v>       0.16835747       4.52226079      -0.00002687 </v>
   <v>       4.52226079       0.24052683       0.00020375 </v>
   <v>      -0.00002686       0.00020374      -0.18285106 </v>
  </varray>
  <energy>
   <i name="e_fr_energy">    -21.44002226 </i>
   <i name="e_wo_entrp">    -21.44002226 </i>
   <i name="e_0_energy">     -0.00000000 </i>
  </energy>
  <time name="totalsc">    9.83    9.85</time>
 </calculation>
 <calculation>
  <scstep>
   <time name="dav">    1.57    1.57</time>
   <time name="total">    1.69    1.69</time>
   <energy>
    <i name="alphaZ">      5.25936991 </i>
    <i name="ewald">   1864.80566581 </i>
    <i name="hartreedc">  -2474.09779333 </i>
    <i name="XCdc">     14.09854259 </i>
    <i name="pawpsdc">   2098.23697208 </i>
    <i name="pawaedc">  -2065.92832810 </i>
    <i name="eentropy">     -0.00000000 </i>
    <i name="bandstr">   -167.98225454 </i>
    <i name="atom">    704.16778566 </i>
    <i name="e_fr_energy">    -21.44003993 </i>
    <i name="e_wo_entrp">    -21.44003993 </i>
    <i name="e_0_energy">    -21.44003993 </i>
   </energy>
  </scstep>
  <scstep>
   <time name="dav">    1.89    1.89</time>
   <time name="total">    2.00    2.01</time>
   <energy>
    <i name="e_fr_energy">    -21.44004861 </i>
    <i name="e_wo_entrp">    -21.44004861 </i>
    <i name="e_0_energy">    -21.44004861 </i>
   </energy>
  </scstep>
  <scstep>
   <time name="dav">    1.18    1.18</time>
   <time name="total">    1.29    1.29</time>
   <energy>
    <i name="e_fr_energy">    -21.44004860 </i>
    <i name="e_wo_entrp">    -21.44004860 </i>
    <i name="e_0_energy">    -21.44004860 </i>
   </energy>
  </scstep>
  <scstep>
   <time name="dav">    1.16    1.16</time>
   <time name="total">    1.27    1.28</time>
   <energy>
    <i name="e_fr_energy">    -21.44004887 </i>
    <i name="e_wo_entrp">    -21.44004887 </i>
    <i name="e_0_energy">    -21.44004887 </i>
   </energy>
  </scstep>
  <scstep>
   <time name="dav">    1.13    1.13</time>
   <time name="total">    1.24    1.24</time>
   <energy>
    <i name="e_fr_energy">    -21.44004886 </i>
    <i name="e_wo_entrp">    -21.44004886 </i>
    <i name="e_0_energy">    -21.44004886 </i>
   </energy>
  </scstep>
  <scstep>
   <time name="dav">    1.08    1.08</time>
   <time name="total">    1.10    1.10</time>
   <energy>
    <i name="alphaZ">      5.25936991 </i>
    <i name="ewald">   1864.80566581 </i>
    <i name="hartreedc">  -2474.09657149 </i>
    <i name="XCdc">     14.09893721 </i>
    <i name="pawpsdc">   2100.55742810 </i>
    <i name="pawaedc">  -2068.24964315 </i>
    <i name="eentropy">     -0.00000000 </i>
    <i name="bandstr">   -167.98302093 </i>
    <i name="atom">    704.16778566 </i>
    <i name="e_fr_energy">    -21.44004889 </i>
    <i name="e_wo_entrp">    -21.44004889 </i>
    <i name="e_0_energy">    -21.44004889 </i>
   </energy>
  </scstep>
  <structure>
   <crystal>
    <varray name="basis" >
     <v>       3.29654400      -0.06595700       0.00000000 </v>
     <v>      -0.09248600       4.62242600      -0.00005300 </v>
     <v>       0.00000000       0.00000000      20.02439000 </v>
    </varray>
    <i name="volume">    305.01011872 </i>
    <varray name="rec_basis" >
     <v>       0.30346948       0.00607185       0.00000000 </v>
     <v>       0.00433018       0.21642326       0.00000000 </v>
     <v>       0.00000001       0.00000057       0.04993910 </v>
    </varray>
   </crystal>
   <varray name="positions" >
    <v>       0.50772034       0.91099050       0.55251946 </v>
    <v>       0.49227966       0.08900950       0.44748054 </v>
    <v>       0.00772022       0.41098593       0.44748055 </v>
    <v>      -0.00772022       0.58901407       0.55251945 </v>
   </varray>
  </structure>
  <varray name="forces" >
   <v>      -0.00316839      -0.00097373      -0.00752495 </v>
   <v>       0.00316839       0.00097373       0.00752495 </v>
   <v>      -0.00317062      -0.00099080       0.00752446 </v>
   <v>       0.00317062       0.00099080      -0.00752446 </v>
  </varray>
  <varray name="stress" >
   <v>       0.22979166       4.48460737      -0.00002825 </v>
   <v>       4.48460736       0.46495669       0.00018154 </v>
   <v>      -0.00002822       0.00018158      -0.23902957 </v>
  </varray>
  <energy>
   <i name="e_fr_energy">    -21.44004889 </i>
   <i name="e_wo_entrp">    -21.44004889 </i>
   <i name="e_0_energy">     -0.00000000 </i>
  </energy>
  <time name="totalsc">    9.30    9.32</time>
  <eigenvalues>
   <array>
    <dimension dim="1">band</dimension>
    <dimension dim="2">kpoint</dimension>
    <dimension dim="3">spin</dimension>
    <field>eigene</field>
    <field>occ</field>
    <set>
     <set comment="spin 1">
      <set comment="kpoint 1">
       <r>  -17.2271    1.0000 </r>
       <r>  -14.7658    1.0000 </r>
       <r>  -11.4289    1.0000 </r>
       <r>   -7.9311    1.0000 </r>
       <r>   -6.9704    1.0000 </r>
       <r>   -6.7761    1.0000 </r>
       <r>   -5.5658    1.0000 </r>
       <r>   -4.0089    1.0000 </r>
       <r>   -3.9344    1.0000 </r>
       <r>   -2.2698    1.0000 </r>
       <r>   -1.3755    0.0000 </r>
       <r>   -0.6129    0.0000 </r>
       <r>    0.3440    0.0000 </r>
       <r>    1.1031    0.0000 </r>
       <r>    2.1389    0.0000 </r>
       <r>    2.3026    0.0000 </r>
      </set>
      <set comment="kpoint 2">
       <r>  -17.2001    1.0000 </r>
       <r>  -14.7376    1.0000 </r>
       <r>  -11.4380    1.0000 </r>
       <r>   -7.9106    1.0000 </r>
       <r>   -6.9886    1.0000 </r>
       <r>   -6.7523    1.0000 </r>
       <r>   -5.7417    1.0000 </r>
       <r>   -4.1918    1.0000 </r>
       <r>   -3.9242    1.0000 </r>
       <r>   -2.2700    1.0000 </r>
       <r>   -1.3505    0.0000 </r>
       <r>   -0.3681    0.0000 </r>
       <r>    0.5264    0.0000 </r>
       <r>    0.9963    0.0000 </r>
       <r>    2.1668    0.0000 </r>
       <r>    2.3328    0.0000 </r>
      </set>
      <set comment="kpoint 3">
       <r>  -17.1190    1.0000 </r>
       <r>  -14.6531    1.0000 </r>
       <r>  -11.4706    1.0000 </r>
       <r>   -7.8500    1.0000 </r>
       <r>   -7.0633    1.0000 </r>
       <r>   -6.6824    1.0000 </r>
       <r>   -6.1694    1.0000 </r>
       <r>   -4.6150    1.0000 </r>
       <r>   -3.8938    1.0000 </r>
       <r>   -2.2896    1.0000 </r>
       <r>   -1.2755    0.0000 </r>
       <r>    0.2864    0.0000 </r>
       <r>    0.4116    0.0000 </r>
       <r>    1.2918    0.0000 </r>
       <r>    2.2456    0.0000 </r>
       <r>    2.4233    0.0000 </r>
      </set>
      <set comment="kpoint 4">
       <r>  -16.9842    1.0000 </r>
       <r>  -14.5124    1.0000 </r>
       <r>  -11.5431    1.0000 </r>
       <r>   -7.7516    1.0000 </r>
       <r>   -7.2565    1.0000 </r>
       <r>   -6.7005    1.0000 </r>
       <r>   -6.5446    1.0000 </r>
       <r>   -5.0454    1.0000 </r>
       <r>   -3.8557    1.0000 </r>
       <r>   -2.3499    1.0000 </r>
       <r>   -1.1520    0.0000 </r>
       <r>   -0.0687    0.0000 </r>
       <r>    1.1988    0.0000 </r>
       <r>    1.8947    0.0000 </r>
       <r>    2.3061    0.0000 </r>
       <r>    2.5740    0.0000 </r>
      </set>
      <set comment="kpoint 5">
       <r>  -16.7964    1.0000 </r>
       <r>  -14.3159    1.0000 </r>
       <r>  -11.6809    1.0000 </r>
       <r>   -7.6382    1.0000 </r>
       <r>   -7.6201    1.0000 </r>
       <r>   -7.1560    1.0000 </r>
       <r>   -6.3946    1.0000 </r>
       <r>   -5.3116    1.0000 </r>
       <r>   -3.8331    1.0000 </r>
       <r>   -2.4620    1.0000 </r>
       <r>   -0.9834    0.0000 </r>
       <r>   -0.5515    0.0000 </r>
       <r>    1.9031    0.0000 </r>
       <r>    1.9031    0.0000 </r>
       <r>    2.2254    0.0000 </r>
       <r>    2.6936    0.0000 </r>
      </set>
      <set comment="kpoint 6">
       <r>  -16.5566    1.0000 </r>
       <r>  -14.0640    1.0000 </r>
       <r>  -11.9100    1.0000 </r>
       <r>   -8.1942    1.0000 </r>
       <r>   -7.5022    1.0000 </r>
       <r>   -7.4640    1.0000 </r>
       <r>   -6.1936    1.0000 </r>
       <r>   -5.3817    1.0000 </r>
       <r>   -3.8604    1.0000 </r>
       <r>   -2.6349    1.0000 </r>
       <r>   -0.9300    0.0000 </r>
       <r>   -0.7774    0.0000 </r>
       <r>    1.3237    0.0000 </r>
       <r>    1.3362    0.0000 </r>
       <r>    2.6472    0.0000 </r>
       <r>    2.9468    0.0000 </r>
      </set>
      <set comment="kpoint 7">
       <r>  -16.2662    1.0000 </r>
       <r>  -13.7575    1.0000 </r>
       <r>  -12.2414    1.0000 </r>
       <r>   -8.8435    1.0000 </r>
       <r>   -7.6941    1.0000 </r>
       <r>   -7.2973    1.0000 </r>
       <r>   -5.9589    1.0000 </r>
       <r>   -5.3208    1.0000 </r>
       <r>   -3.9672    1.0000 </r>
       <r>   -2.8716    1.0000 </r>
       <r>   -1.1338    0.0000 </r>
       <r>   -0.5582    0.0000 </r>
       <r>    0.6706    0.0000 </r>
       <r>    0.8080    0.0000 </r>
       <r>    2.1967    0.0000 </r>
       <r>    3.2750    0.0000 </r>
      </set>
      <set comment="kpoint 8">
       <r>  -15.9271    1.0000 </r>
       <r>  -13.3979    1.0000 </r>
       <r>  -12.6610    1.0000 </r>
       <r>   -9.5205    1.0000 </r>
       <r>   -7.7348    1.0000 </r>
       <r>   -7.1440    1.0000 </r>
       <r>   -5.7019    1.0000 </r>
       <r>   -5.1956    1.0000 </r>
       <r>   -4.1396    1.0000 </r>
       <r>   -3.1634    1.0000 </r>
       <r>   -1.1408    0.0000 </r>
       <r>   -0.4253    0.0000 </r>
       <r>    0.0674    0.0000 </r>
       <r>    0.4550    0.0000 </r>
       <r>    1.6875    0.0000 </r>
       <r>    3.0198    0.0000 </r>
      </set>
      <set comment="kpoint 9">
       <r>  -15.5420    1.0000 </r>
       <r>  -13.1547    1.0000 </r>
       <r>  -12.9700    1.0000 </r>
       <r>  -10.1895    1.0000 </r>
       <r>   -7.6547    1.0000 </r>
       <r>   -7.0414    1.0000 </r>
       <r>   -5.4401    1.0000 </r>
       <r>   -5.0574    1.0000 </r>
       <r>   -4.3068    1.0000 </r>
       <r>   -3.4888    1.0000 </r>
       <r>   -0.9865    0.0000 </r>
       <r>   -0.5753    0.0000 </r>
       <r>   -0.4299    0.0000 </r>
       <r>    0.4964    0.0000 </r>
       <r>    1.1798    0.0000 </r>
       <r>    2.6074    0.0000 </r>
      </set>
      <set comment="kpoint 10">
       <r>  -15.1149    1.0000 </r>
       <r>  -13.6520    1.0000 </r>
       <r>  -12.5139    1.0000 </r>
       <r>  -10.8319    1.0000 </r>
       <r>   -7.4948    1.0000 </r>
       <r>   -7.0309    1.0000 </r>
       <r>   -5.2007    1.0000 </r>
       <r>   -4.9544    1.0000 </r>
       <r>   -4.3805    1.0000 </r>
       <r>   -3.8159    1.0000 </r>
       <r>   -0.8831    0.0000 </r>
       <r>   -0.8446    0.0000 </r>
       <r>   -0.6115    0.0000 </r>
       <r>    0.6149    0.0000 </r>
       <r>    0.8678    0.0000 </r>
       <r>    2.1497    0.0000 </r>
      </set>
      <set comment="kpoint 11">
       <r>  -14.6514    1.0000 </r>
       <r>  -14.1596    1.0000 </r>
       <r>  -11.9994    1.0000 </r>
       <r>  -11.4372    1.0000 </r>
       <r>   -7.3015    1.0000 </r>
       <r>   -7.1282    1.0000 </r>
       <r>   -5.0201    1.0000 </r>
       <r>   -4.9338    1.0000 </r>
       <r>   -4.3092    1.0000 </r>
       <r>   -4.1051    1.0000 </r>
       <r>   -1.0339    0.0000 </r>
       <r>   -1.0233    0.0000 </r>
       <r>   -0.2714    0.0000 </r>
       <r>    0.1645    0.0000 </r>
       <r>    1.2396    0.0000 </r>
       <r>    1.6846    0.0000 </r>
      </set>
      <set comment="kpoint 12">
       <r>  -17.2056    1.0000 </r>
       <r>  -14.7958    1.0000 </r>
       <r>  -11.4380    1.0000 </r>
       <r>   -8.0878    1.0000 </r>
       <r>   -6.8748    1.0000 </r>
       <r>   -6.6823    1.0000 </r>
       <r>   -5.5497    1.0000 </r>
       <r>   -4.0235    1.0000 </r>
       <r>   -3.8386    1.0000 </r>
       <r>   -2.4724    1.0000 </r>
       <r>   -1.1878    0.0000 </r>
       <r>   -0.5961    0.0000 </r>
       <r>    0.3033    0.0000 </r>
       <r>    1.0878    0.0000 </r>
       <r>    2.1975    0.0000 </r>
       <r>    2.3330    0.0000 </r>
      </set>
      <set comment="kpoint 13">
       <r>  -17.1767    1.0000 </r>
       <r>  -14.7698    1.0000 </r>
       <r>  -11.4511    1.0000 </r>
       <r>   -8.0777    1.0000 </r>
       <r>   -6.8884    1.0000 </r>
       <r>   -6.6441    1.0000 </r>
       <r>   -5.7373    1.0000 </r>
       <r>   -4.2007    1.0000 </r>
       <r>   -3.8127    1.0000 </r>
       <r>   -2.4783    1.0000 </r>
       <r>   -1.1602    0.0000 </r>
       <r>   -0.3401    0.0000 </r>
       <r>    0.5224    0.0000 </r>
       <r>    0.9370    0.0000 </r>
       <r>    2.2280    0.0000 </r>
       <r>    2.3661    0.0000 </r>
      </set>
      <set comment="kpoint 14">
       <r>  -17.0937    1.0000 </r>
       <r>  -14.6879    1.0000 </r>
       <r>  -11.4847    1.0000 </r>
       <r>   -8.0378    1.0000 </r>
       <r>   -6.9427    1.0000 </r>
       <r>   -6.5909    1.0000 </r>
       <r>   -6.1436    1.0000 </r>
       <r>   -4.6285    1.0000 </r>
       <r>   -3.7739    1.0000 </r>
       <r>   -2.4893    1.0000 </r>
       <r>   -1.0985    0.0000 </r>
       <r>    0.3218    0.0000 </r>
       <r>    0.4596    0.0000 </r>
       <r>    1.1805    0.0000 </r>
       <r>    2.3064    0.0000 </r>
       <r>    2.4593    0.0000 </r>
      </set>
      <set comment="kpoint 15">
       <r>  -16.9571    1.0000 </r>
       <r>  -14.5505    1.0000 </r>
       <r>  -11.5544    1.0000 </r>
       <r>   -7.9860    1.0000 </r>
       <r>   -7.0853    1.0000 </r>
       <r>   -6.7866    1.0000 </r>
       <r>   -6.3371    1.0000 </r>
       <r>   -5.0688    1.0000 </r>
       <r>   -3.7381    1.0000 </r>
       <r>   -2.5258    1.0000 </r>
       <r>   -1.0014    0.0000 </r>
       <r>   -0.0199    0.0000 </r>
       <r>    1.2298    0.0000 </r>
       <r>    1.7883    0.0000 </r>
       <r>    2.3735    0.0000 </r>
       <r>    2.6123    0.0000 </r>
      </set>
      <set comment="kpoint 16">
       <r>  -16.7675    1.0000 </r>
       <r>  -14.3583    1.0000 </r>
       <r>  -11.6853    1.0000 </r>
       <r>   -8.0021    1.0000 </r>
       <r>   -7.3170    1.0000 </r>
       <r>   -7.2258    1.0000 </r>
       <r>   -6.2024    1.0000 </r>
       <r>   -5.3429    1.0000 </r>
       <r>   -3.7310    1.0000 </r>
       <r>   -2.6044    1.0000 </r>
       <r>   -0.8668    0.0000 </r>
       <r>   -0.4804    0.0000 </r>
       <r>    1.8203    0.0000 </r>
       <r>    1.8598    0.0000 </r>
       <r>    2.3508    0.0000 </r>
       <r>    2.6854    0.0000 </r>
      </set>
      <set comment="kpoint 17">
       <r>  -16.5259    1.0000 </r>
       <r>  -14.1129    1.0000 </r>
       <r>  -11.9033    1.0000 </r>
       <r>   -8.3154    1.0000 </r>
       <r>   -7.5735    1.0000 </r>
       <r>   -7.4056    1.0000 </r>
       <r>   -6.0027    1.0000 </r>
       <r>   -5.4162    1.0000 </r>
       <r>   -3.7881    1.0000 </r>
       <r>   -2.7405    1.0000 </r>
       <r>   -0.8216    0.0000 </r>
       <r>   -0.6964    0.0000 </r>
       <r>    1.2750    0.0000 </r>
       <r>    1.3238    0.0000 </r>
       <r>    2.5633    0.0000 </r>
       <r>    3.0984    0.0000 </r>
      </set>
      <set comment="kpoint 18">
       <r>  -16.2337    1.0000 </r>
       <r>  -13.8180    1.0000 </r>
       <r>  -12.2179    1.0000 </r>
       <r>   -8.8924    1.0000 </r>
       <r>   -7.7694    1.0000 </r>
       <r>   -7.3111    1.0000 </r>
       <r>   -5.7704    1.0000 </r>
       <r>   -5.3627    1.0000 </r>
       <r>   -3.9295    1.0000 </r>
       <r>   -2.9419    1.0000 </r>
       <r>   -0.9829    0.0000 </r>
       <r>   -0.5053    0.0000 </r>
       <r>    0.6438    0.0000 </r>
       <r>    0.7712    0.0000 </r>
       <r>    2.1897    0.0000 </r>
       <r>    3.3014    0.0000 </r>
      </set>
      <set comment="kpoint 19">
       <r>  -15.8930    1.0000 </r>
       <r>  -13.4904    1.0000 </r>
       <r>  -12.6014    1.0000 </r>
       <r>   -9.5458    1.0000 </r>
       <r>   -7.8123    1.0000 </r>
       <r>   -7.1739    1.0000 </r>
       <r>   -5.5234    1.0000 </r>
       <r>   -5.2626    1.0000 </r>
       <r>   -4.1183    1.0000 </r>
       <r>   -3.2015    1.0000 </r>
       <r>   -0.9644    0.0000 </r>
       <r>   -0.3751    0.0000 </r>
       <r>    0.0657    0.0000 </r>
       <r>    0.3619    0.0000 </r>
       <r>    1.7443    0.0000 </r>
       <r>    3.0017    0.0000 </r>
      </set>
      <set comment="kpoint 20">
       <r>  -15.5065    1.0000 </r>
       <r>  -13.3197    1.0000 </r>
       <r>  -12.8356    1.0000 </r>
       <r>  -10.2050    1.0000 </r>
       <r>   -7.7303    1.0000 </r>
       <r>   -7.0649    1.0000 </r>
       <r>   -5.2871    1.0000 </r>
       <r>   -5.1858    1.0000 </r>
       <r>   -4.2572    1.0000 </r>
       <r>   -3.4945    1.0000 </r>
       <r>   -0.8668    0.0000 </r>
       <r>   -0.5253    0.0000 </r>
       <r>   -0.3441    0.0000 </r>
       <r>    0.3249    0.0000 </r>
       <r>    1.3167    0.0000 </r>
       <r>    2.5957    0.0000 </r>
      </set>
      <set comment="kpoint 21">
       <r>  -15.0782    1.0000 </r>
       <r>  -13.6937    1.0000 </r>
       <r>  -12.5015    1.0000 </r>
       <r>  -10.8425    1.0000 </r>
       <r>   -7.5630    1.0000 </r>
       <r>   -7.0405    1.0000 </r>
       <r>   -5.1663    1.0000 </r>
       <r>   -5.1013    1.0000 </r>
       <r>   -4.2658    1.0000 </r>
       <r>   -3.7813    1.0000 </r>
       <r>   -0.9914    0.0000 </r>
       <r>   -0.7959    0.0000 </r>
       <r>   -0.2858    0.0000 </r>
       <r>    0.3881    0.0000 </r>
       <r>    1.0703    0.0000 </r>
       <r>    2.1415    0.0000 </r>
      </set>
      <set comment="kpoint 22">
       <r>  -14.6141    1.0000 </r>
       <r>  -14.1775    1.0000 </r>
       <r>  -12.0104    1.0000 </r>
       <r>  -11.4447    1.0000 </r>
       <r>   -7.3553    1.0000 </r>
       <r>   -7.1302    1.0000 </r>
       <r>   -5.1724    1.0000 </r>
       <r>   -5.0137    1.0000 </r>
       <r>   -4.1644    1.0000 </r>
       <r>   -4.0159    1.0000 </r>
       <r>   -1.1587    0.0000 </r>
       <r>   -0.9537    0.0000 </r>
       <r>    0.0678    0.0000 </r>
       <r>    0.1196    0.0000 </r>
       <r>    1.2643    0.0000 </r>
       <r>    1.6771    0.0000 </r>
      </set>
      <set comment="kpoint 23">
       <r>  -14.6592    1.0000 </r>
       <r>  -14.1233    1.0000 </r>
       <r>  -12.0034    1.0000 </r>
       <r>  -11.4589    1.0000 </r>
       <r>   -7.3069    1.0000 </r>
       <r>   -7.1599    1.0000 </r>
       <r>   -5.2054    1.0000 </r>
       <r>   -5.0343    1.0000 </r>
       <r>   -4.1748    1.0000 </r>
       <r>   -3.9929    1.0000 </r>
       <r>   -1.1637    0.0000 </r>
       <r>   -0.9229    0.0000 </r>
       <r>   -0.2587    0.0000 </r>
       <r>    0.5066    0.0000 </r>
       <r>    1.2333    0.0000 </r>
       <r>    1.6518    0.0000 </r>
      </set>
      <set comment="kpoint 24">
       <r>  -15.1168    1.0000 </r>
       <r>  -13.6223    1.0000 </r>
       <r>  -12.5101    1.0000 </r>
       <r>  -10.8609    1.0000 </r>
       <r>   -7.5100    1.0000 </r>
       <r>   -7.0373    1.0000 </r>
       <r>   -5.3068    1.0000 </r>
       <r>   -5.1022    1.0000 </r>
       <r>   -4.2683    1.0000 </r>
       <r>   -3.7571    1.0000 </r>
       <r>   -0.9965    0.0000 </r>
       <r>   -0.7182    0.0000 </r>
       <r>   -0.5775    0.0000 </r>
       <r>    0.7576    0.0000 </r>
       <r>    1.0577    0.0000 </r>
       <r>    2.0900    0.0000 </r>
      </set>
      <set comment="kpoint 25">
       <r>  -15.5397    1.0000 </r>
       <r>  -13.1967    1.0000 </r>
       <r>  -12.8943    1.0000 </r>
       <r>  -10.2258    1.0000 </r>
       <r>   -7.6817    1.0000 </r>
       <r>   -7.0281    1.0000 </r>
       <r>   -5.4789    1.0000 </r>
       <r>   -5.1761    1.0000 </r>
       <r>   -4.2775    1.0000 </r>
       <r>   -3.4739    1.0000 </r>
       <r>   -0.8970    0.0000 </r>
       <r>   -0.7117    0.0000 </r>
       <r>   -0.2635    0.0000 </r>
       <r>    0.4406    0.0000 </r>
       <r>    1.5342    0.0000 </r>
       <r>    2.5324    0.0000 </r>
      </set>
      <set comment="kpoint 26">
       <r>  -15.9214    1.0000 </r>
       <r>  -13.4346    1.0000 </r>
       <r>  -12.5922    1.0000 </r>
       <r>   -9.5669    1.0000 </r>
       <r>   -7.7733    1.0000 </r>
       <r>   -7.1177    1.0000 </r>
       <r>   -5.6896    1.0000 </r>
       <r>   -5.2727    1.0000 </r>
       <r>   -4.1781    1.0000 </r>
       <r>   -3.1801    1.0000 </r>
       <r>   -1.0560    0.0000 </r>
       <r>   -0.4601    0.0000 </r>
       <r>    0.2731    0.0000 </r>
       <r>    0.2789    0.0000 </r>
       <r>    2.0307    0.0000 </r>
       <r>    2.9342    0.0000 </r>
      </set>
      <set comment="kpoint 27">
       <r>  -16.2577    1.0000 </r>
       <r>  -13.7846    1.0000 </r>
       <r>  -12.1870    1.0000 </r>
       <r>   -8.9105    1.0000 </r>
       <r>   -7.7433    1.0000 </r>
       <r>   -7.2512    1.0000 </r>
       <r>   -5.9057    1.0000 </r>
       <r>   -5.3787    1.0000 </r>
       <r>   -4.0240    1.0000 </r>
       <r>   -2.9143    1.0000 </r>
       <r>   -1.0634    0.0000 </r>
       <r>   -0.5083    0.0000 </r>
       <r>    0.5383    0.0000 </r>
       <r>    0.8983    0.0000 </r>
       <r>    2.4916    0.0000 </r>
       <r>    3.2023    0.0000 </r>
      </set>
      <set comment="kpoint 28">
       <r>  -16.5456    1.0000 </r>
       <r>  -14.0890    1.0000 </r>
       <r>  -11.8663    1.0000 </r>
       <r>   -8.3218    1.0000 </r>
       <r>   -7.5633    1.0000 </r>
       <r>   -7.3568    1.0000 </r>
       <r>   -6.1020    1.0000 </r>
       <r>   -5.4384    1.0000 </r>
       <r>   -3.8975    1.0000 </r>
       <r>   -2.7043    1.0000 </r>
       <r>   -0.8892    0.0000 </r>
       <r>   -0.6990    0.0000 </r>
       <r>    1.0445    0.0000 </r>
       <r>    1.5602    0.0000 </r>
       <r>    2.7562    0.0000 </r>
       <r>    3.0479    0.0000 </r>
      </set>
      <set comment="kpoint 29">
       <r>  -16.7832    1.0000 </r>
       <r>  -14.3407    1.0000 </r>
       <r>  -11.6493    1.0000 </r>
       <r>   -7.9793    1.0000 </r>
       <r>   -7.2979    1.0000 </r>
       <r>   -7.2403    1.0000 </r>
       <r>   -6.2549    1.0000 </r>
       <r>   -5.3745    1.0000 </r>
       <r>   -3.8346    1.0000 </r>
       <r>   -2.5620    1.0000 </r>
       <r>   -0.8797    0.0000 </r>
       <r>   -0.5459    0.0000 </r>
       <r>    1.6211    0.0000 </r>
       <r>    2.1126    0.0000 </r>
       <r>    2.2398    0.0000 </r>
       <r>    2.6496    0.0000 </r>
      </set>
      <set comment="kpoint 30">
       <r>  -16.9688    1.0000 </r>
       <r>  -14.5379    1.0000 </r>
       <r>  -11.5242    1.0000 </r>
       <r>   -7.9537    1.0000 </r>
       <r>   -7.0784    1.0000 </r>
       <r>   -6.8640    1.0000 </r>
       <r>   -6.3034    1.0000 </r>
       <r>   -5.1090    1.0000 </r>
       <r>   -3.8218    1.0000 </r>
       <r>   -2.4833    1.0000 </r>
       <r>   -1.0209    0.0000 </r>
       <r>   -0.0954    0.0000 </r>
       <r>    1.1882    0.0000 </r>
       <r>    1.9805    0.0000 </r>
       <r>    2.2115    0.0000 </r>
       <r>    2.4997    0.0000 </r>
      </set>
      <set comment="kpoint 31">
       <r>  -17.1014    1.0000 </r>
       <r>  -14.6797    1.0000 </r>
       <r>  -11.4632    1.0000 </r>
       <r>   -8.0133    1.0000 </r>
       <r>   -6.9373    1.0000 </r>
       <r>   -6.6951    1.0000 </r>
       <r>   -6.0616    1.0000 </r>
       <r>   -4.6686    1.0000 </r>
       <r>   -3.8305    1.0000 </r>
       <r>   -2.4545    1.0000 </r>
       <r>   -1.1184    0.0000 </r>
       <r>    0.2818    0.0000 </r>
       <r>    0.3519    0.0000 </r>
       <r>    1.3403    0.0000 </r>
       <r>    2.2917    0.0000 </r>
       <r>    2.4472    0.0000 </r>
      </set>
      <set comment="kpoint 32">
       <r>  -17.1805    1.0000 </r>
       <r>  -14.7658    1.0000 </r>
       <r>  -11.4401    1.0000 </r>
       <r>   -8.0649    1.0000 </r>
       <r>   -6.8853    1.0000 </r>
       <r>   -6.6897    1.0000 </r>
       <r>   -5.6986    1.0000 </r>
       <r>   -4.2289    1.0000 </r>
       <r>   -3.8392    1.0000 </r>
       <r>   -2.4584    1.0000 </r>
       <r>   -1.1741    0.0000 </r>
       <r>   -0.3634    0.0000 </r>
       <r>    0.4614    0.0000 </r>
       <r>    1.0213    0.0000 </r>
       <r>    2.2204    0.0000 </r>
       <r>    2.3601    0.0000 </r>
      </set>
      <set comment="kpoint 33">
       <r>  -17.1415    1.0000 </r>
       <r>  -14.8858    1.0000 </r>
       <r>  -11.4525    1.0000 </r>
       <r>   -8.4419    1.0000 </r>
       <r>   -6.6819    1.0000 </r>
       <r>   -6.4153    1.0000 </r>
       <r>   -5.5022    1.0000 </r>
       <r>   -4.0702    1.0000 </r>
       <r>   -3.5792    1.0000 </r>
       <r>   -2.8715    1.0000 </r>
       <r>   -0.8288    0.0000 </r>
       <r>   -0.5458    0.0000 </r>
       <r>    0.1844    0.0000 </r>
       <r>    1.0498    0.0000 </r>
       <r>    2.3657    0.0000 </r>
       <r>    2.4235    0.0000 </r>
      </set>
      <set comment="kpoint 34">
       <r>  -17.1107    1.0000 </r>
       <r>  -14.8624    1.0000 </r>
       <r>  -11.4655    1.0000 </r>
       <r>   -8.4389    1.0000 </r>
       <r>   -6.6881    1.0000 </r>
       <r>   -6.3880    1.0000 </r>
       <r>   -5.6778    1.0000 </r>
       <r>   -4.2459    1.0000 </r>
       <r>   -3.5484    1.0000 </r>
       <r>   -2.8763    1.0000 </r>
       <r>   -0.8081    0.0000 </r>
       <r>   -0.2769    0.0000 </r>
       <r>    0.4205    0.0000 </r>
       <r>    0.8767    0.0000 </r>
       <r>    2.3954    0.0000 </r>
       <r>    2.4591    0.0000 </r>
      </set>
      <set comment="kpoint 35">
       <r>  -17.0260    1.0000 </r>
       <r>  -14.7842    1.0000 </r>
       <r>  -11.4915    1.0000 </r>
       <r>   -8.4136    1.0000 </r>
       <r>   -6.7167    1.0000 </r>
       <r>   -6.4910    1.0000 </r>
       <r>   -5.9294    1.0000 </r>
       <r>   -4.6911    1.0000 </r>
       <r>   -3.5230    1.0000 </r>
       <r>   -2.8734    1.0000 </r>
       <r>   -0.7642    0.0000 </r>
       <r>    0.3896    0.0000 </r>
       <r>    0.4871    0.0000 </r>
       <r>    1.0222    0.0000 </r>
       <r>    2.4655    0.0000 </r>
       <r>    2.5543    0.0000 </r>
      </set>
      <set comment="kpoint 36">
       <r>  -16.8878    1.0000 </r>
       <r>  -14.6518    1.0000 </r>
       <r>  -11.5459    1.0000 </r>
       <r>   -8.3842    1.0000 </r>
       <r>   -6.8855    1.0000 </r>
       <r>   -6.8201    1.0000 </r>
[...]
       <r>    3.2739    0.0000 </r>
       <r>    3.5699    0.0000 </r>
      </set>
      <set comment="kpoint 153">
       <r>  -15.4101    1.0000 </r>
       <r>  -15.0198    1.0000 </r>
       <r>  -10.8703    1.0000 </r>
       <r>  -10.6180    1.0000 </r>
       <r>   -7.9402    1.0000 </r>
       <r>   -7.7547    1.0000 </r>
       <r>   -5.1920    1.0000 </r>
       <r>   -5.1441    1.0000 </r>
       <r>   -3.8620    1.0000 </r>
       <r>   -3.7181    1.0000 </r>
       <r>    0.1762    0.0000 </r>
       <r>    0.8142    0.0000 </r>
       <r>    1.1912    0.0000 </r>
       <r>    1.3009    0.0000 </r>
       <r>    3.3008    0.0000 </r>
       <r>    3.4599    0.0000 </r>
      </set>
      <set comment="kpoint 154">
       <r>  -15.6686    1.0000 </r>
       <r>  -15.2996    1.0000 </r>
       <r>  -10.7365    1.0000 </r>
       <r>  -10.4379    1.0000 </r>
       <r>   -7.5799    1.0000 </r>
       <r>   -7.4658    1.0000 </r>
       <r>   -5.1242    1.0000 </r>
       <r>   -4.9138    1.0000 </r>
       <r>   -3.7676    1.0000 </r>
       <r>   -3.6636    1.0000 </r>
       <r>    0.2060    0.0000 </r>
       <r>    0.7218    0.0000 </r>
       <r>    1.2558    0.0000 </r>
       <r>    1.4818    0.0000 </r>
       <r>    3.1183    0.0000 </r>
       <r>    3.2743    0.0000 </r>
      </set>
      <set comment="kpoint 155">
       <r>  -15.8843    1.0000 </r>
       <r>  -15.5372    1.0000 </r>
       <r>  -10.7122    1.0000 </r>
       <r>  -10.3882    1.0000 </r>
       <r>   -7.0315    1.0000 </r>
       <r>   -6.9652    1.0000 </r>
       <r>   -5.1698    1.0000 </r>
       <r>   -4.8443    1.0000 </r>
       <r>   -3.7205    1.0000 </r>
       <r>   -3.4061    1.0000 </r>
       <r>    0.3213    0.0000 </r>
       <r>    0.7044    0.0000 </r>
       <r>    1.2289    0.0000 </r>
       <r>    1.5602    0.0000 </r>
       <r>    2.4959    0.0000 </r>
       <r>    2.6527    0.0000 </r>
      </set>
      <set comment="kpoint 156">
       <r>  -16.0528    1.0000 </r>
       <r>  -15.7278    1.0000 </r>
       <r>  -10.7414    1.0000 </r>
       <r>  -10.4106    1.0000 </r>
       <r>   -6.3742    1.0000 </r>
       <r>   -6.3317    1.0000 </r>
       <r>   -5.2457    1.0000 </r>
       <r>   -4.8758    1.0000 </r>
       <r>   -3.6536    1.0000 </r>
       <r>   -3.2040    1.0000 </r>
       <r>    0.4643    0.0000 </r>
       <r>    0.7442    0.0000 </r>
       <r>    1.1162    0.0000 </r>
       <r>    1.5041    0.0000 </r>
       <r>    1.8002    0.0000 </r>
       <r>    1.9265    0.0000 </r>
      </set>
      <set comment="kpoint 157">
       <r>  -16.1715    1.0000 </r>
       <r>  -15.8686    1.0000 </r>
       <r>  -10.7827    1.0000 </r>
       <r>  -10.4553    1.0000 </r>
       <r>   -5.6920    1.0000 </r>
       <r>   -5.6548    1.0000 </r>
       <r>   -5.3109    1.0000 </r>
       <r>   -4.9350    1.0000 </r>
       <r>   -3.6520    1.0000 </r>
       <r>   -3.1202    1.0000 </r>
       <r>    0.3380    0.0000 </r>
       <r>    0.5651    0.0000 </r>
       <r>    1.0461    0.0000 </r>
       <r>    1.2224    0.0000 </r>
       <r>    1.5729    0.0000 </r>
       <r>    1.5897    0.0000 </r>
      </set>
      <set comment="kpoint 158">
       <r>  -16.2390    1.0000 </r>
       <r>  -15.9581    1.0000 </r>
       <r>  -10.8135    1.0000 </r>
       <r>  -10.4934    1.0000 </r>
       <r>   -5.3582    1.0000 </r>
       <r>   -5.1071    1.0000 </r>
       <r>   -5.0379    1.0000 </r>
       <r>   -4.9812    1.0000 </r>
       <r>   -3.7439    1.0000 </r>
       <r>   -3.1731    1.0000 </r>
       <r>   -0.0282    0.0000 </r>
       <r>    0.0698    0.0000 </r>
       <r>    1.1283    0.0000 </r>
       <r>    1.2673    0.0000 </r>
       <r>    1.5405    0.0000 </r>
       <r>    1.5411    0.0000 </r>
      </set>
     </set>
    </set>
   </array>
  </eigenvalues>
  <separator name="orbital magnetization" >
   <v name="MAGDIPOLOUT">      0.00000000      0.00000000      0.00000000</v>
  </separator>
  <dos>
   <i name="efermi">     -2.12778013 </i>
   <total>
    <array>
     <dimension dim="1">gridpoints</dimension>
     <dimension dim="2">spin</dimension>
     <field>energy</field>
     <field>total</field>
     <field>integrated</field>
     <set>
      <set comment="spin 1">
       <r>   -18.2750     0.0000     0.0000 </r>
       <r>   -18.1982     0.0000     0.0000 </r>
       <r>   -18.1213     0.0000     0.0000 </r>
       <r>   -18.0445     0.0000     0.0000 </r>
       <r>   -17.9677     0.0000     0.0000 </r>
       <r>   -17.8908     0.0000     0.0000 </r>
       <r>   -17.8140     0.0000     0.0000 </r>
       <r>   -17.7371     0.0000     0.0000 </r>
       <r>   -17.6603     0.0000     0.0000 </r>
       <r>   -17.5834     0.0000     0.0000 </r>
       <r>   -17.5066     0.0000     0.0000 </r>
       <r>   -17.4297     0.0000     0.0000 </r>
       <r>   -17.3529     0.0000     0.0000 </r>
       <r>   -17.2760     0.0000     0.0000 </r>
       <r>   -17.1992     0.3036     0.0233 </r>
       <r>   -17.1223     0.7708     0.0826 </r>
       <r>   -17.0455     0.7816     0.1426 </r>
       <r>   -16.9687     0.9673     0.2170 </r>
       <r>   -16.8918     0.8630     0.2833 </r>
       <r>   -16.8150     0.6336     0.3320 </r>
       <r>   -16.7381     1.0864     0.4155 </r>
       <r>   -16.6613     0.8902     0.4839 </r>
       <r>   -16.5844     0.7369     0.5405 </r>
       <r>   -16.5076     0.7635     0.5992 </r>
       <r>   -16.4307     1.2866     0.6980 </r>
       <r>   -16.3539     0.5955     0.7438 </r>
       <r>   -16.2770     0.5581     0.7867 </r>
       <r>   -16.2002     1.5587     0.9065 </r>
       <r>   -16.1233     0.7432     0.9636 </r>
       <r>   -16.0465     0.6744     1.0154 </r>
       <r>   -15.9697     1.0438     1.0956 </r>
       <r>   -15.8928     1.0592     1.1770 </r>
       <r>   -15.8160     0.9075     1.2468 </r>
       <r>   -15.7391     0.8109     1.3091 </r>
       <r>   -15.6623     1.1553     1.3978 </r>
       <r>   -15.5854     0.7245     1.4535 </r>
       <r>   -15.5086     1.2841     1.5522 </r>
       <r>   -15.4317     1.1225     1.6385 </r>
       <r>   -15.3549     1.0744     1.7210 </r>
       <r>   -15.2780     0.9600     1.7948 </r>
       <r>   -15.2012     0.8522     1.8603 </r>
       <r>   -15.1244     1.3131     1.9612 </r>
       <r>   -15.0475     1.0824     2.0444 </r>
       <r>   -14.9707     1.8174     2.1840 </r>
       <r>   -14.8938     1.1439     2.2719 </r>
       <r>   -14.8170     1.1252     2.3584 </r>
       <r>   -14.7401     2.2341     2.5301 </r>
       <r>   -14.6633     0.8475     2.5952 </r>
       <r>   -14.5864     2.3254     2.7739 </r>
       <r>   -14.5096     1.2417     2.8693 </r>
       <r>   -14.4327     1.1393     2.9569 </r>
       <r>   -14.3559     1.2155     3.0503 </r>
       <r>   -14.2790     1.0354     3.1299 </r>
       <r>   -14.2022     0.9571     3.2034 </r>
       <r>   -14.1254     2.2846     3.3790 </r>
       <r>   -14.0485     1.2556     3.4755 </r>
       <r>   -13.9717     0.6544     3.5257 </r>
       <r>   -13.8948     1.4450     3.6368 </r>
       <r>   -13.8180     0.6062     3.6834 </r>
       <r>   -13.7411     0.9045     3.7529 </r>
       <r>   -13.6643     0.8543     3.8185 </r>
       <r>   -13.5874     0.7159     3.8735 </r>
       <r>   -13.5106     0.4087     3.9050 </r>
       <r>   -13.4337     0.3329     3.9305 </r>
       <r>   -13.3569     0.3080     3.9542 </r>
       <r>   -13.2800     0.2650     3.9746 </r>
       <r>   -13.2032     0.0539     3.9787 </r>
       <r>   -13.1264     0.2733     3.9997 </r>
       <r>   -13.0495     0.0037     4.0000 </r>
       <r>   -12.9727     0.0705     4.0054 </r>
       <r>   -12.8958     0.1701     4.0185 </r>
       <r>   -12.8190     0.2353     4.0366 </r>
       <r>   -12.7421     0.0203     4.0381 </r>
       <r>   -12.6653     0.3298     4.0635 </r>
       <r>   -12.5884     0.4011     4.0943 </r>
       <r>   -12.5116     0.3290     4.1196 </r>
       <r>   -12.4347     1.2250     4.2137 </r>
       <r>   -12.3579     0.4088     4.2451 </r>
       <r>   -12.2811     0.4348     4.2785 </r>
       <r>   -12.2042     1.0741     4.3611 </r>
       <r>   -12.1274     0.6553     4.4114 </r>
       <r>   -12.0505     1.9278     4.5596 </r>
       <r>   -11.9737     1.7039     4.6905 </r>
       <r>   -11.8968     0.9135     4.7607 </r>
       <r>   -11.8200     1.0417     4.8408 </r>
       <r>   -11.7431     0.9886     4.9167 </r>
       <r>   -11.6663     1.1769     5.0072 </r>
       <r>   -11.5894     1.1079     5.0923 </r>
       <r>   -11.5126     1.9148     5.2395 </r>
       <r>   -11.4357     4.2383     5.5652 </r>
       <r>   -11.3589     2.2262     5.7362 </r>
       <r>   -11.2821     0.7349     5.7927 </r>
       <r>   -11.2052     2.0270     5.9485 </r>
       <r>   -11.1284     0.6587     5.9991 </r>
       <r>   -11.0515     1.0480     6.0796 </r>
       <r>   -10.9747     1.4821     6.1935 </r>
       <r>   -10.8978     0.6825     6.2460 </r>
       <r>   -10.8210     1.2148     6.3393 </r>
       <r>   -10.7441     1.1866     6.4305 </r>
       <r>   -10.6673     0.6871     6.4833 </r>
       <r>   -10.5904     0.4832     6.5204 </r>
       <r>   -10.5136     0.6219     6.5682 </r>
       <r>   -10.4367     0.9917     6.6444 </r>
       <r>   -10.3599     1.0885     6.7281 </r>
       <r>   -10.2831     0.4092     6.7595 </r>
       <r>   -10.2062     0.7633     6.8182 </r>
       <r>   -10.1294     0.6539     6.8684 </r>
       <r>   -10.0525     1.1241     6.9548 </r>
       <r>    -9.9757     0.6304     7.0033 </r>
       <r>    -9.8988     0.2354     7.0214 </r>
       <r>    -9.8220     0.2692     7.0420 </r>
       <r>    -9.7451     0.3226     7.0668 </r>
       <r>    -9.6683     1.2540     7.1632 </r>
       <r>    -9.5914     0.9120     7.2333 </r>
       <r>    -9.5146     0.5830     7.2781 </r>
       <r>    -9.4378     0.0581     7.2825 </r>
       <r>    -9.3609     0.0015     7.2827 </r>
       <r>    -9.2841     1.1181     7.3686 </r>
       <r>    -9.2072     0.8093     7.4308 </r>
       <r>    -9.1304     0.2193     7.4476 </r>
       <r>    -9.0535     0.2186     7.4644 </r>
       <r>    -8.9767     0.1169     7.4734 </r>
       <r>    -8.8998     0.5069     7.5124 </r>
       <r>    -8.8230     1.1086     7.5975 </r>
       <r>    -8.7461     0.6741     7.6494 </r>
       <r>    -8.6693     0.0187     7.6508 </r>
       <r>    -8.5924     0.2246     7.6681 </r>
       <r>    -8.5156     0.1059     7.6762 </r>
       <r>    -8.4388     0.2014     7.6917 </r>
       <r>    -8.3619     1.0265     7.7706 </r>
       <r>    -8.2851     0.5864     7.8156 </r>
       <r>    -8.2082     0.0632     7.8205 </r>
       <r>    -8.1314     0.9298     7.8919 </r>
       <r>    -8.0545     2.2879     8.0677 </r>
       <r>    -7.9777     2.1626     8.2339 </r>
       <r>    -7.9008     1.6956     8.3642 </r>
       <r>    -7.8240     2.0862     8.5245 </r>
       <r>    -7.7471     2.5516     8.7206 </r>
       <r>    -7.6703     1.9896     8.8735 </r>
       <r>    -7.5934     1.6161     8.9977 </r>
       <r>    -7.5166     2.0615     9.1561 </r>
       <r>    -7.4398     1.6092     9.2798 </r>
       <r>    -7.3629     2.7505     9.4911 </r>
       <r>    -7.2861     2.4842     9.6820 </r>
       <r>    -7.2092     3.5599     9.9556 </r>
       <r>    -7.1324     2.9914    10.1855 </r>
       <r>    -7.0555     3.1507    10.4276 </r>
       <r>    -6.9787     2.3012    10.6044 </r>
       <r>    -6.9018     1.2793    10.7028 </r>
       <r>    -6.8250     1.5491    10.8218 </r>
       <r>    -6.7481     1.4233    10.9312 </r>
       <r>    -6.6713     1.9600    11.0818 </r>
       <r>    -6.5945     1.7084    11.2131 </r>
       <r>    -6.5176     1.4365    11.3235 </r>
       <r>    -6.4408     1.6607    11.4511 </r>
       <r>    -6.3639     1.1316    11.5380 </r>
       <r>    -6.2871     1.6408    11.6641 </r>
       <r>    -6.2102     1.6430    11.7904 </r>
       <r>    -6.1334     1.8786    11.9348 </r>
       <r>    -6.0565     1.5256    12.0520 </r>
       <r>    -5.9797     1.4874    12.1663 </r>
       <r>    -5.9028     2.7124    12.3747 </r>
       <r>    -5.8260     0.8404    12.4393 </r>
       <r>    -5.7491     2.3108    12.6169 </r>
       <r>    -5.6723     2.6113    12.8175 </r>
       <r>    -5.5955     3.7922    13.1090 </r>
       <r>    -5.5186     3.7237    13.3951 </r>
       <r>    -5.4418     3.6762    13.6776 </r>
       <r>    -5.3649     4.3586    14.0126 </r>
       <r>    -5.2881     2.8667    14.2329 </r>
       <r>    -5.2112     2.3414    14.4128 </r>
       <r>    -5.1344     3.3299    14.6687 </r>
       <r>    -5.0575     2.0520    14.8264 </r>
       <r>    -4.9807     2.9935    15.0564 </r>
       <r>    -4.9038     2.0651    15.2151 </r>
       <r>    -4.8270     1.4207    15.3243 </r>
       <r>    -4.7501     0.9530    15.3975 </r>
       <r>    -4.6733     1.6217    15.5221 </r>
       <r>    -4.5965     1.3445    15.6254 </r>
       <r>    -4.5196     1.7487    15.7598 </r>
       <r>    -4.4428     0.4299    15.7929 </r>
       <r>    -4.3659     0.9931    15.8692 </r>
       <r>    -4.2891     0.9419    15.9416 </r>
       <r>    -4.2122     2.0482    16.0990 </r>
       <r>    -4.1354     2.5625    16.2959 </r>
       <r>    -4.0585     2.5954    16.4953 </r>
       <r>    -3.9817     2.0326    16.6515 </r>
       <r>    -3.9048     2.9095    16.8751 </r>
       <r>    -3.8280     3.0492    17.1094 </r>
       <r>    -3.7512     4.2139    17.4332 </r>
       <r>    -3.6743     4.1124    17.7493 </r>
       <r>    -3.5975     3.2689    18.0005 </r>
       <r>    -3.5206     3.0916    18.2380 </r>
       <r>    -3.4438     3.4180    18.5007 </r>
       <r>    -3.3669     3.0996    18.7389 </r>
       <r>    -3.2901     2.4979    18.9308 </r>
       <r>    -3.2132     3.6454    19.2110 </r>
       <r>    -3.1364     1.9020    19.3571 </r>
       <r>    -3.0595     0.8956    19.4260 </r>
       <r>    -2.9827     0.5400    19.4674 </r>
       <r>    -2.9058     1.7618    19.6028 </r>
       <r>    -2.8290     1.7031    19.7337 </r>
       <r>    -2.7522     0.7696    19.7929 </r>
       <r>    -2.6753     0.2965    19.8156 </r>
       <r>    -2.5985     0.2776    19.8370 </r>
       <r>    -2.5216     0.3251    19.8620 </r>
       <r>    -2.4448     1.1249    19.9484 </r>
       <r>    -2.3679     0.1099    19.9568 </r>
       <r>    -2.2911     0.2411    19.9754 </r>
       <r>    -2.2142     0.3205    20.0000 </r>
       <r>    -2.1374     0.0000    20.0000 </r>
       <r>    -2.0605     0.0000    20.0000 </r>
       <r>    -1.9837     0.0000    20.0000 </r>
       <r>    -1.9068     0.0000    20.0000 </r>
       <r>    -1.8300     0.0000    20.0000 </r>
       <r>    -1.7532     0.0000    20.0000 </r>
       <r>    -1.6763     0.0000    20.0000 </r>
       <r>    -1.5995     0.0000    20.0000 </r>
       <r>    -1.5226     0.0000    20.0000 </r>
       <r>    -1.4458     0.0000    20.0000 </r>
       <r>    -1.3689     0.0719    20.0055 </r>
       <r>    -1.2921     0.1959    20.0206 </r>
       <r>    -1.2152     0.2718    20.0415 </r>
       <r>    -1.1384     1.2600    20.1383 </r>
       <r>    -1.0615     1.2452    20.2340 </r>
       <r>    -0.9847     1.3182    20.3353 </r>
       <r>    -0.9079     1.6550    20.4625 </r>
       <r>    -0.8310     2.0059    20.6166 </r>
       <r>    -0.7542     1.9033    20.7629 </r>
       <r>    -0.6773     1.3266    20.8648 </r>
       <r>    -0.6005     1.6560    20.9921 </r>
       <r>    -0.5236     3.0716    21.2281 </r>
       <r>    -0.4468     1.7694    21.3641 </r>
       <r>    -0.3699     2.1317    21.5279 </r>
       <r>    -0.2931     3.0518    21.7624 </r>
       <r>    -0.2162     2.4005    21.9469 </r>
       <r>    -0.1394     3.0867    22.1841 </r>
       <r>    -0.0625     2.3850    22.3674 </r>
       <r>     0.0143     3.1934    22.6127 </r>
       <r>     0.0911     3.4683    22.8793 </r>
       <r>     0.1680     3.4581    23.1450 </r>
       <r>     0.2448     3.0494    23.3794 </r>
       <r>     0.3217     4.0665    23.6918 </r>
       <r>     0.3985     4.5380    24.0406 </r>
       <r>     0.4754     4.5050    24.3868 </r>
       <r>     0.5522     4.2598    24.7141 </r>
       <r>     0.6291     2.9927    24.9441 </r>
       <r>     0.7059     4.0463    25.2550 </r>
       <r>     0.7828     2.1290    25.4186 </r>
       <r>     0.8596     4.2318    25.7438 </r>
       <r>     0.9365     2.6645    25.9486 </r>
       <r>     1.0133     2.6920    26.1555 </r>
       <r>     1.0901     3.3375    26.4119 </r>
       <r>     1.1670     2.5756    26.6099 </r>
       <r>     1.2438     4.0420    26.9205 </r>
       <r>     1.3207     2.8124    27.1366 </r>
       <r>     1.3975     2.0589    27.2948 </r>
       <r>     1.4744     1.7902    27.4324 </r>
       <r>     1.5512     2.7547    27.6441 </r>
       <r>     1.6281     2.9565    27.8713 </r>
       <r>     1.7049     2.3006    28.0480 </r>
       <r>     1.7818     1.6165    28.1723 </r>
       <r>     1.8586     2.3216    28.3507 </r>
       <r>     1.9354     3.0750    28.5870 </r>
       <r>     2.0123     2.4144    28.7725 </r>
       <r>     2.0891     1.3498    28.8762 </r>
       <r>     2.1660     2.2105    29.0461 </r>
       <r>     2.2428     2.9133    29.2700 </r>
       <r>     2.3197     1.9866    29.4227 </r>
       <r>     2.3965     2.6468    29.6260 </r>
       <r>     2.4734     3.1689    29.8696 </r>
       <r>     2.5502     3.0640    30.1050 </r>
       <r>     2.6271     4.0398    30.4155 </r>
       <r>     2.7039     2.9594    30.6429 </r>
       <r>     2.7808     1.9177    30.7903 </r>
       <r>     2.8576     2.7062    30.9982 </r>
       <r>     2.9344     1.9696    31.1496 </r>
       <r>     3.0113     1.6150    31.2737 </r>
       <r>     3.0881     1.9278    31.4218 </r>
       <r>     3.1650     1.3047    31.5221 </r>
       <r>     3.2418     1.4326    31.6322 </r>
       <r>     3.3187     2.5814    31.8305 </r>
       <r>     3.3955     0.5530    31.8730 </r>
       <r>     3.4724     0.3476    31.8997 </r>
       <r>     3.5492     0.6298    31.9481 </r>
       <r>     3.6261     0.1842    31.9623 </r>
       <r>     3.7029     0.3270    31.9874 </r>
       <r>     3.7798     0.1638    32.0000 </r>
       <r>     3.8566     0.0000    32.0000 </r>
       <r>     3.9334     0.0000    32.0000 </r>
       <r>     4.0103     0.0000    32.0000 </r>
       <r>     4.0871     0.0000    32.0000 </r>
       <r>     4.1640     0.0000    32.0000 </r>
       <r>     4.2408     0.0000    32.0000 </r>
       <r>     4.3177     0.0000    32.0000 </r>
       <r>     4.3945     0.0000    32.0000 </r>
       <r>     4.4714     0.0000    32.0000 </r>
       <r>     4.5482     0.0000    32.0000 </r>
       <r>     4.6251     0.0000    32.0000 </r>
       <r>     4.7019     0.0000    32.0000 </r>
       <r>     4.7787     0.0000    32.0000 </r>
      </set>
     </set>
    </array>
   </total>
  </dos>
 </calculation>
 <structure name="finalpos" >
  <crystal>
   <varray name="basis" >
    <v>       3.29654400      -0.06595700       0.00000000 </v>
    <v>      -0.09248600       4.62242600      -0.00005300 </v>
    <v>       0.00000000       0.00000000      20.02439000 </v>
   </varray>
   <i name="volume">    305.01011872 </i>
   <varray name="rec_basis" >
    <v>       0.30346948       0.00607185       0.00000000 </v>
    <v>       0.00433018       0.21642326       0.00000000 </v>
    <v>       0.00000001       0.00000057       0.04993910 </v>
   </varray>
  </crystal>
  <varray name="positions" >
   <v>       0.50772034       0.91099050       0.55251946 </v>
   <v>       0.49227966       0.08900950       0.44748054 </v>
   <v>       0.00772022       0.41098593       0.44748055 </v>
   <v>      -0.00772022       0.58901407       0.55251945 </v>
  </varray>
 </structure>
</modeling>
