<?xml version="1.0" encoding="ISO-8859-1"?>
<modeling>
 <generator>
  <i name="program" type="string">vasp </i>
  <i name="version" type="string">5.4.1  </i>
  <i name="subversion" type="string">24Jun15 (build Nov 20 2020 10:29:34) complex                          parallel </i>
  <i name="platform" type="string">IFC91_ompi </i>
  <i name="date" type="string">2021 09 09 </i>
  <i name="time" type="string">14:56:50 </i>
 </generator>
 <incar>
  <i type="string" name="PREC">a</i>
  <i type="string" name="ALGO"> Normal</i>
  <i type="int" name="ISPIN">     1</i>
  <i type="int" name="ICHARG">     2</i>
  <i type="int" name="NELM">   250</i>
  <i type="int" name="NELMDL">    -5</i>
  <i type="int" name="NELMIN">     6</i>
  <i type="int" name="IBRION">     2</i>
  <i name="EDIFF">      0.00001000</i>
  <i name="EDIFFG">     -0.01000000</i>
  <i type="int" name="NSW">   200</i>
  <i type="int" name="ISIF">     2</i>
  <i name="ENCUT">    520.00000000</i>
  <i name="POTIM">      0.30000000</i>
  <i type="logical" name="LREAL"> F  </i>
  <i type="int" name="ISMEAR">     0</i>
  <i name="SIGMA">      0.02000000</i>
  <i type="logical" name="LWAVE"> F  </i>
  <i type="logical" name="LCHARG"> F  </i>
  <i type="logical" name="LAECHG"> F  </i>
  <v type="int" name="KPOINT_BSE">    -1     0     0     0</v>
  <i type="int" name="NELM">   250</i>
 </incar>
 <kpoints>
  <generation param="Gamma">
   <v type="int" name="divisions">      15       13        1 </v>
   <v name="usershift">      0.00000000       0.00000000       0.00000000 </v>
   <v name="genvec1">      0.06666667       0.00000000       0.00000000 </v>
   <v name="genvec2">      0.00000000       0.07692308       0.00000000 </v>
   <v name="genvec3">      0.00000000       0.00000000       1.00000000 </v>
   <v name="shift">      0.00000000       0.00000000       0.00000000 </v>
  </generation>
  <varray name="kpointlist" >
   <v>       0.00000000       0.00000000       0.00000000 </v>
   <v>       0.06666667       0.00000000       0.00000000 </v>
   <v>       0.13333333       0.00000000       0.00000000 </v>
   <v>       0.20000000       0.00000000       0.00000000 </v>
   <v>       0.26666667       0.00000000       0.00000000 </v>
   <v>       0.33333333       0.00000000       0.00000000 </v>
   <v>       0.40000000       0.00000000       0.00000000 </v>
   <v>       0.46666667       0.00000000       0.00000000 </v>
   <v>       0.00000000       0.07692308       0.00000000 </v>
   <v>       0.06666667       0.07692308       0.00000000 </v>
   <v>       0.13333333       0.07692308       0.00000000 </v>
   <v>       0.20000000       0.07692308       0.00000000 </v>
   <v>       0.26666667       0.07692308       0.00000000 </v>
   <v>       0.33333333       0.07692308       0.00000000 </v>
   <v>       0.40000000       0.07692308       0.00000000 </v>
   <v>       0.46666667       0.07692308       0.00000000 </v>
   <v>       0.00000000       0.15384615       0.00000000 </v>
   <v>       0.06666667       0.15384615       0.00000000 </v>
   <v>       0.13333333       0.15384615       0.00000000 </v>
   <v>       0.20000000       0.15384615       0.00000000 </v>
   <v>       0.26666667       0.15384615       0.00000000 </v>
   <v>       0.33333333       0.15384615       0.00000000 </v>
   <v>       0.40000000       0.15384615       0.00000000 </v>
   <v>       0.46666667       0.15384615       0.00000000 </v>
   <v>       0.00000000       0.23076923       0.00000000 </v>
   <v>       0.06666667       0.23076923       0.00000000 </v>
   <v>       0.13333333       0.23076923       0.00000000 </v>
   <v>       0.20000000       0.23076923       0.00000000 </v>
   <v>       0.26666667       0.23076923       0.00000000 </v>
   <v>       0.33333333       0.23076923       0.00000000 </v>
   <v>       0.40000000       0.23076923       0.00000000 </v>
   <v>       0.46666667       0.23076923       0.00000000 </v>
   <v>       0.00000000       0.30769231       0.00000000 </v>
   <v>       0.06666667       0.30769231       0.00000000 </v>
   <v>       0.13333333       0.30769231       0.00000000 </v>
   <v>       0.20000000       0.30769231       0.00000000 </v>
   <v>       0.26666667       0.30769231       0.00000000 </v>
   <v>       0.33333333       0.30769231       0.00000000 </v>
   <v>       0.40000000       0.30769231       0.00000000 </v>
   <v>       0.46666667       0.30769231       0.00000000 </v>
   <v>       0.00000000       0.38461538       0.00000000 </v>
   <v>       0.06666667       0.38461538       0.00000000 </v>
   <v>       0.13333333       0.38461538       0.00000000 </v>
   <v>       0.20000000       0.38461538       0.00000000 </v>
   <v>       0.26666667       0.38461538       0.00000000 </v>
   <v>       0.33333333       0.38461538       0.00000000 </v>
   <v>       0.40000000       0.38461538       0.00000000 </v>
   <v>       0.46666667       0.38461538       0.00000000 </v>
   <v>       0.00000000       0.46153846       0.00000000 </v>
   <v>       0.06666667       0.46153846       0.00000000 </v>
   <v>       0.13333333       0.46153846       0.00000000 </v>
   <v>       0.20000000       0.46153846       0.00000000 </v>
   <v>       0.26666667       0.46153846       0.00000000 </v>
   <v>       0.33333333       0.46153846       0.00000000 </v>
   <v>       0.40000000       0.46153846       0.00000000 </v>
   <v>       0.46666667       0.46153846       0.00000000 </v>
  </varray>
  <varray name="weights" >
   <v>       0.00512821 </v>
   <v>       0.01025641 </v>
   <v>       0.01025641 </v>
   <v>       0.01025641 </v>
   <v>       0.01025641 </v>
   <v>       0.01025641 </v>
   <v>       0.01025641 </v>
   <v>       0.01025641 </v>
   <v>       0.01025641 </v>
   <v>       0.02051282 </v>
   <v>       0.02051282 </v>
   <v>       0.02051282 </v>
   <v>       0.02051282 </v>
   <v>       0.02051282 </v>
   <v>       0.02051282 </v>
   <v>       0.02051282 </v>
   <v>       0.01025641 </v>
   <v>       0.02051282 </v>
   <v>       0.02051282 </v>
   <v>       0.02051282 </v>
   <v>       0.02051282 </v>
   <v>       0.02051282 </v>
   <v>       0.02051282 </v>
   <v>       0.02051282 </v>
   <v>       0.01025641 </v>
   <v>       0.02051282 </v>
   <v>       0.02051282 </v>
   <v>       0.02051282 </v>
   <v>       0.02051282 </v>
   <v>       0.02051282 </v>
   <v>       0.02051282 </v>
   <v>       0.02051282 </v>
   <v>       0.01025641 </v>
   <v>       0.02051282 </v>
   <v>       0.02051282 </v>
   <v>       0.02051282 </v>
   <v>       0.02051282 </v>
   <v>       0.02051282 </v>
   <v>       0.02051282 </v>
   <v>       0.02051282 </v>
   <v>       0.01025641 </v>
   <v>       0.02051282 </v>
   <v>       0.02051282 </v>
   <v>       0.02051282 </v>
   <v>       0.02051282 </v>
   <v>       0.02051282 </v>
   <v>       0.02051282 </v>
   <v>       0.02051282 </v>
   <v>       0.01025641 </v>
   <v>       0.02051282 </v>
   <v>       0.02051282 </v>
   <v>       0.02051282 </v>
   <v>       0.02051282 </v>
   <v>       0.02051282 </v>
   <v>       0.02051282 </v>
   <v>       0.02051282 </v>
  </varray>
 </kpoints>
 <parameters>
  <separator name="general" >
   <i type="string" name="SYSTEM">unknown system</i>
   <i type="logical" name="LCOMPAT"> F  </i>
  </separator>
  <separator name="electronic" >
   <i type="string" name="PREC">a</i>
   <i name="ENMAX">    520.00000000</i>
   <i name="ENAUG">    531.35600000</i>
   <i name="EDIFF">      0.00001000</i>
   <i type="int" name="IALGO">    38</i>
   <i type="int" name="IWAVPR">    11</i>
   <i type="int" name="NBANDS">    32</i>
   <i name="NELECT">     52.00000000</i>
   <i type="int" name="TURBO">     0</i>
   <i type="int" name="IRESTART">     0</i>
   <i type="int" name="NREBOOT">     0</i>
   <i type="int" name="NMIN">     0</i>
   <i name="EREF">      0.00000000</i>
   <separator name="electronic smearing" >
    <i type="int" name="ISMEAR">     0</i>
    <i name="SIGMA">      0.02000000</i>
    <i name="KSPACING">      0.50000000</i>
    <i type="logical" name="KGAMMA"> T  </i>
   </separator>
   <separator name="electronic projectors" >
    <i type="logical" name="LREAL"> F  </i>
    <v name="ROPT">      0.00000000      0.00000000</v>
    <i type="int" name="LMAXPAW">  -100</i>
    <i type="int" name="LMAXMIX">     2</i>
    <i type="logical" name="NLSPLINE"> F  </i>
   </separator>
   <separator name="electronic startup" >
    <i type="int" name="ISTART">     0</i>
    <i type="int" name="ICHARG">     2</i>
    <i type="int" name="INIWAV">     1</i>
   </separator>
   <separator name="electronic spin" >
    <i type="int" name="ISPIN">     1</i>
    <i type="logical" name="LNONCOLLINEAR"> F  </i>
    <v name="MAGMOM">      1.00000000      1.00000000      1.00000000      1.00000000      1.00000000      1.00000000</v>
    <i name="NUPDOWN">     -1.00000000</i>
    <i type="logical" name="LSORBIT"> F  </i>
    <v name="SAXIS">      0.00000000      0.00000000      1.00000000</v>
    <i type="logical" name="LSPIRAL"> F  </i>
    <v name="QSPIRAL">      0.00000000      0.00000000      0.00000000</v>
    <i type="logical" name="LZEROZ"> F  </i>
   </separator>
   <separator name="electronic exchange-correlation" >
    <i type="logical" name="LASPH"> F  </i>
    <i type="logical" name="LMETAGGA"> F  </i>
   </separator>
   <separator name="electronic convergence" >
    <i type="int" name="NELM">   250</i>
    <i type="int" name="NELMDL">    -5</i>
    <i type="int" name="NELMIN">     6</i>
    <i name="ENINI">    520.00000000</i>
    <separator name="electronic convergence detail" >
     <i type="logical" name="LDIAG"> T  </i>
     <i type="logical" name="LSUBROT"> F  </i>
     <i name="WEIMIN">      0.00100000</i>
     <i name="EBREAK">      0.00000008</i>
     <i name="DEPER">      0.30000000</i>
     <i type="int" name="NRMM">     4</i>
     <i name="TIME">      0.40000000</i>
    </separator>
   </separator>
   <separator name="electronic mixer" >
    <i name="AMIX">      0.40000000</i>
    <i name="BMIX">      1.00000000</i>
    <i name="AMIN">      0.10000000</i>
    <i name="AMIX_MAG">      1.60000000</i>
    <i name="BMIX_MAG">      1.00000000</i>
    <separator name="electronic mixer details" >
     <i type="int" name="IMIX">     4</i>
     <i type="logical" name="MIXFIRST"> F  </i>
     <i type="int" name="MAXMIX">   -45</i>
     <i name="WC">    100.00000000</i>
     <i type="int" name="INIMIX">     1</i>
     <i type="int" name="MIXPRE">     1</i>
     <i type="int" name="MREMOVE">     5</i>
    </separator>
   </separator>
   <separator name="electronic dipolcorrection" >
    <i type="logical" name="LDIPOL"> F  </i>
    <i type="logical" name="LMONO"> F  </i>
    <i type="int" name="IDIPOL">     0</i>
    <i name="EPSILON">      1.00000000</i>
    <v name="DIPOL">   -100.00000000   -100.00000000   -100.00000000</v>
    <i name="EFIELD">      0.00000000</i>
   </separator>
  </separator>
  <separator name="grids" >
   <i type="int" name="NGX">    36</i>
   <i type="int" name="NGY">    42</i>
   <i type="int" name="NGZ">   140</i>
   <i type="int" name="NGXF">    72</i>
   <i type="int" name="NGYF">    84</i>
   <i type="int" name="NGZF">   280</i>
   <i type="logical" name="ADDGRID"> F  </i>
  </separator>
  <separator name="ionic" >
   <i type="int" name="NSW">   200</i>
   <i type="int" name="IBRION">     2</i>
   <i type="int" name="ISIF">     2</i>
   <i name="PSTRESS">      0.00000000</i>
   <i name="EDIFFG">     -0.01000000</i>
   <i type="int" name="NFREE">     1</i>
   <i name="POTIM">      0.30000000</i>
   <i name="SMASS">     -3.00000000</i>
   <i name="SCALEE">      1.00000000</i>
  </separator>
  <separator name="ionic md" >
   <i name="TEBEG">      0.00010000</i>
   <i name="TEEND">      0.00010000</i>
   <i type="int" name="NBLOCK">     1</i>
   <i type="int" name="KBLOCK">   200</i>
   <i type="int" name="NPACO">   256</i>
   <i name="APACO">     16.00000000</i>
  </separator>
  <separator name="symmetry" >
   <i type="int" name="ISYM">     2</i>
   <i name="SYMPREC">      0.00001000</i>
  </separator>
  <separator name="dos" >
   <i type="logical" name="LORBIT"> F  </i>
   <v name="RWIGS">     -1.00000000     -1.00000000</v>
   <i type="int" name="NEDOS">   301</i>
   <i name="EMIN">     10.00000000</i>
   <i name="EMAX">    -10.00000000</i>
   <i name="EFERMI">      0.00000000</i>
  </separator>
  <separator name="writing" >
   <i type="int" name="NWRITE">     2</i>
   <i type="logical" name="LWAVE"> F  </i>
   <i type="logical" name="LCHARG"> F  </i>
   <i type="logical" name="LPARD"> F  </i>
   <i type="logical" name="LVTOT"> F  </i>
   <i type="logical" name="LVHAR"> F  </i>
   <i type="logical" name="LELF"> F  </i>
   <i type="logical" name="LOPTICS"> F  </i>
   <v name="STM">      0.00000000      0.00000000      0.00000000      0.00000000      0.00000000      0.00000000      0.00000000</v>
  </separator>
  <separator name="performance" >
   <i type="int" name="NPAR">     4</i>
   <i type="int" name="NSIM">     4</i>
   <i type="int" name="NBLK">    -1</i>
   <i type="logical" name="LPLANE"> T  </i>
   <i type="logical" name="LSCALAPACK"> T  </i>
   <i type="logical" name="LSCAAWARE"> F  </i>
   <i type="logical" name="LSCALU"> F  </i>
   <i type="logical" name="LASYNC"> F  </i>
   <i type="logical" name="LORBITALREAL"> F  </i>
  </separator>
  <separator name="miscellaneous" >
   <i type="int" name="IDIOT">     3</i>
   <i type="logical" name="LMUSIC"> F  </i>
   <v name="POMASS">     72.61000000     78.96000000</v>
   <v name="DARWINR">      0.00000000      0.00000000</v>
   <v name="DARWINV">      1.00000000      1.00000000</v>
   <i type="logical" name="LCORR"> T  </i>
  </separator>
  <i type="logical" name="GGA_COMPAT"> T  </i>
  <i type="logical" name="LBERRY"> F  </i>
  <i type="int" name="ICORELEVEL">     0</i>
  <i type="logical" name="LDAU"> F  </i>
  <i type="int" name="I_CONSTRAINED_M">     0</i>
  <separator name="electronic exchange-correlation" >
   <i type="string" name="GGA">--</i>
   <i type="int" name="VOSKOWN">     0</i>
   <i type="logical" name="LHFCALC"> F  </i>
   <i type="string" name="PRECFOCK"></i>
   <i type="logical" name="LSYMGRAD"> F  </i>
   <i type="logical" name="LHFONE"> F  </i>
   <i type="logical" name="LRHFCALC"> F  </i>
   <i type="logical" name="LTHOMAS"> F  </i>
   <i type="logical" name="LMODELHF"> F  </i>
   <i name="ENCUT4O">     -1.00000000</i>
   <i type="int" name="EXXOEP">     0</i>
   <i type="int" name="FOURORBIT">     0</i>
   <i name="AEXX">      0.00000000</i>
   <i name="HFALPHA">      0.00000000</i>
   <i name="MCALPHA">      0.00000000</i>
   <i name="ALDAX">      1.00000000</i>
   <i name="AGGAX">      1.00000000</i>
   <i name="ALDAC">      1.00000000</i>
   <i name="AGGAC">      1.00000000</i>
   <i type="int" name="NKREDX">     1</i>
   <i type="int" name="NKREDY">     1</i>
   <i type="int" name="NKREDZ">     1</i>
   <i type="logical" name="SHIFTRED"> F  </i>
   <i type="logical" name="ODDONLY"> F  </i>
   <i type="logical" name="EVENONLY"> F  </i>
   <i type="int" name="LMAXFOCK">     0</i>
   <i type="int" name="NMAXFOCKAE">     0</i>
   <i type="logical" name="LFOCKAEDFT"> F  </i>
   <i name="HFSCREEN">      0.00000000</i>
   <i name="HFSCREENC">      0.00000000</i>
   <i type="int" name="NBANDSGWLOW">     0</i>
  </separator>
  <separator name="vdW DFT" >
   <i type="logical" name="LUSE_VDW"> F  </i>
   <i name="Zab_VDW">     -0.84910000</i>
   <i name="PARAM1">      0.12340000</i>
   <i name="PARAM2">      1.00000000</i>
   <i name="PARAM3">      0.00000000</i>
  </separator>
  <separator name="model GW" >
   <i type="int" name="MODEL_GW">     0</i>
   <i name="MODEL_EPS0">     48.41726888</i>
   <i name="MODEL_ALPHA">      1.00000000</i>
  </separator>
  <separator name="linear response parameters" >
   <i type="logical" name="LEPSILON"> F  </i>
   <i type="logical" name="LRPA"> F  </i>
   <i type="logical" name="LNABLA"> F  </i>
   <i type="logical" name="LVEL"> F  </i>
   <i type="int" name="KINTER">     0</i>
   <i name="CSHIFT">      0.10000000</i>
   <i name="OMEGAMAX">     -1.00000000</i>
   <i name="DEG_THRESHOLD">      0.00200000</i>
  </separator>
  <separator name="orbital magnetization" >
   <i type="logical" name="NUCIND"> F  </i>
   <v name="MAGPOS">      0.00000000      0.00000000      0.00000000</v>
   <i type="logical" name="LNICSALL"> T  </i>
   <i type="logical" name="ORBITALMAG"> F  </i>
   <i type="logical" name="LMAGBLOCH"> F  </i>
   <i type="logical" name="LCHIMAG"> F  </i>
   <i type="logical" name="LGAUGE"> T  </i>
   <i type="int" name="MAGATOM">     0</i>
   <v name="MAGDIPOL">      0.00000000      0.00000000      0.00000000</v>
   <v name="AVECCONST">      0.00000000      0.00000000      0.00000000</v>
  </separator>
  <separator name="response functions" >
   <i type="logical" name="LADDER"> F  </i>
   <i type="logical" name="LFXC"> F  </i>
   <i type="logical" name="LHARTREE"> T  </i>
   <i type="int" name="IBSE">     0</i>
   <v type="int" name="KPOINT">    -1     0     0     0</v>
   <i type="logical" name="LTCTE"> F  </i>
   <i type="logical" name="LTETE"> F  </i>
   <i type="logical" name="LTRIPLET"> F  </i>
   <i type="logical" name="LFXCEPS"> F  </i>
   <i type="logical" name="LFXHEG"> F  </i>
   <i type="int" name="NATURALO">     0</i>
   <i type="logical" name="L2ORDER"> F  </i>
   <i type="logical" name="LUSEW"> F  </i>
   <i name="ENCUTGW">     -2.00000000</i>
   <i name="ENCUTGWSOFT">     -2.00000000</i>
   <i name="ENCUTLF">     -1.00000000</i>
   <i type="int" name="LMAXMP2">    -1</i>
   <i name="SCISSOR">      0.00000000</i>
   <i type="int" name="NOMEGA">     0</i>
   <i type="int" name="NOMEGAR">     0</i>
   <i type="int" name="NBANDSGW">    -1</i>
   <i type="int" name="NBANDSO">    -1</i>
   <i type="int" name="NBANDSV">    -1</i>
   <i type="int" name="NELM">   250</i>
   <i type="int" name="NELMHF">     1</i>
   <i type="int" name="DIM">     3</i>
   <i type="int" name="ANTIRES">     0</i>
   <i name="OMEGAMAX">    -30.00000000</i>
   <i name="OMEGAMIN">    -30.00000000</i>
   <i name="OMEGATL">   -200.00000000</i>
   <i type="int" name="OMEGAGRID">     0</i>
   <i name="CSHIFT">     -0.10000000</i>
   <i type="logical" name="SELFENERGY"> F  </i>
   <i type="logical" name="LSPECTRAL"> F  </i>
   <i type="logical" name="LSPECTRALGW"> F  </i>
   <i type="logical" name="LSINGLES"> F  </i>
   <i type="logical" name="LFERMIGW"> F  </i>
   <i type="logical" name="ODDONLYGW"> F  </i>
   <i type="logical" name="EVENONLYGW"> F  </i>
   <i type="int" name="NKREDLFX">     1</i>
   <i type="int" name="NKREDLFY">     1</i>
   <i type="int" name="NKREDLFZ">     1</i>
   <i type="int" name="MAXMEM">  1800</i>
   <i type="int" name="TELESCOPE">     0</i>
   <i type="int" name="TAUPAR">     1</i>
   <i type="int" name="OMEGAPAR">    -1</i>
   <i name="LAMBDA">      1.00000000</i>
  </separator>
  <separator name="External order field" >
   <i name="OFIELD_KAPPA">      0.00000000</i>
   <v name="OFIELD_K">      0.00000000      0.00000000      0.00000000</v>
   <i name="OFIELD_Q6_NEAR">      0.00000000</i>
   <i name="OFIELD_Q6_FAR">      0.00000000</i>
   <i name="OFIELD_A">      0.00000000</i>
  </separator>
 </parameters>
 <atominfo>
  <atoms>       6 </atoms>
  <types>       2 </types>
  <array name="atoms" >
   <dimension dim="1">ion</dimension>
   <field type="string">element</field>
   <field type="int">atomtype</field>
   <set>
    <rc><c>Ge</c><c>   1</c></rc>
    <rc><c>Ge</c><c>   1</c></rc>
    <rc><c>Se</c><c>   2</c></rc>
    <rc><c>Se</c><c>   2</c></rc>
    <rc><c>Se</c><c>   2</c></rc>
    <rc><c>Se</c><c>   2</c></rc>
   </set>
  </array>
  <array name="atomtypes" >
   <dimension dim="1">type</dimension>
   <field type="int">atomspertype</field>
   <field type="string">element</field>
   <field>mass</field>
   <field>valence</field>
   <field type="string">pseudopotential</field>
   <set>
    <rc><c>   2</c><c>Ge</c><c>     72.61000000</c><c>     14.00000000</c><c>  PAW_PBE Ge_d 03Jul2007                </c></rc>
    <rc><c>   4</c><c>Se</c><c>     78.96000000</c><c>      6.00000000</c><c>  PAW_PBE Se 06Sep2000                  </c></rc>
   </set>
  </array>
 </atominfo>
 <structure name="initialpos" >
  <crystal>
   <varray name="basis" >
    <v>       4.90607700       0.00000000       0.00000000 </v>
    <v>       0.00000000       5.45864100       0.00000000 </v>
    <v>       0.00000000       0.00000000      18.07929100 </v>
   </varray>
   <i name="volume">    484.17268877 </i>
   <varray name="rec_basis" >
    <v>       0.20382884       0.00000000       0.00000000 </v>
    <v>       0.00000000       0.18319578       0.00000000 </v>
    <v>       0.00000000       0.00000000       0.05531190 </v>
   </varray>
  </crystal>
  <varray name="positions" >
   <v>       0.50000000       0.50000000       0.50000000 </v>
   <v>       0.00000000       0.00000000       0.50000000 </v>
   <v>       0.25000000       0.25000000       0.41502600 </v>
   <v>       0.75000000       0.75000000       0.41502600 </v>
   <v>       0.75000000       0.25000000       0.58497400 </v>
   <v>       0.25000000       0.75000000       0.58497400 </v>
  </varray>
 </structure>
 <calculation>
  <scstep>
   <time name="dav">    1.62    1.62</time>
   <time name="total">    1.65    1.66</time>
   <energy>
    <i name="alphaZ">     47.44389341 </i>
    <i name="ewald">   5132.55642738 </i>
    <i name="hartreedc">  -9921.34861011 </i>
    <i name="XCdc">    142.69656429 </i>
    <i name="pawpsdc">   4514.43351212 </i>
    <i name="pawaedc">  -5329.26418529 </i>
    <i name="eentropy">     -0.00037246 </i>
    <i name="bandstr">   -364.67453882 </i>
    <i name="atom">   6220.98622430 </i>
    <i name="e_fr_energy">    442.82891483 </i>
    <i name="e_wo_entrp">    442.82928729 </i>
    <i name="e_0_energy">    442.82910106 </i>
   </energy>
  </scstep>
  <scstep>
   <time name="dav">    1.72    1.72</time>
   <time name="total">    1.73    1.73</time>
   <energy>
    <i name="e_fr_energy">     45.99777001 </i>
    <i name="e_wo_entrp">     45.99820105 </i>
    <i name="e_0_energy">     45.99798553 </i>
   </energy>
  </scstep>
  <scstep>
   <time name="dav">    1.84    1.84</time>
   <time name="total">    1.85    1.85</time>
   <energy>
    <i name="e_fr_energy">    -21.56482521 </i>
    <i name="e_wo_entrp">    -21.56482521 </i>
    <i name="e_0_energy">    -21.56482521 </i>
   </energy>
  </scstep>
  <scstep>
   <time name="dav">    1.66    1.66</time>
   <time name="total">    1.66    1.66</time>
   <energy>
    <i name="e_fr_energy">    -24.74183903 </i>
    <i name="e_wo_entrp">    -24.74183903 </i>
    <i name="e_0_energy">    -24.74183903 </i>
   </energy>
  </scstep>
  <scstep>
   <time name="dav">    1.96    1.96</time>
   <time name="total">    2.06    2.06</time>
   <energy>
    <i name="e_fr_energy">    -24.85125872 </i>
    <i name="e_wo_entrp">    -24.85125872 </i>
    <i name="e_0_energy">    -24.85125872 </i>
   </energy>
  </scstep>
  <scstep>
   <time name="dav">    1.90    1.90</time>
   <time name="total">    2.02    2.02</time>
   <energy>
    <i name="e_fr_energy">    -24.35440159 </i>
    <i name="e_wo_entrp">    -24.35440159 </i>
    <i name="e_0_energy">    -24.35440159 </i>
   </energy>
  </scstep>
  <scstep>
   <time name="dav">    1.72    1.72</time>
   <time name="total">    1.84    1.84</time>
   <energy>
    <i name="e_fr_energy">    -24.25346418 </i>
    <i name="e_wo_entrp">    -24.25346418 </i>
    <i name="e_0_energy">    -24.25346418 </i>
   </energy>
  </scstep>
  <scstep>
   <time name="dav">    1.81    1.81</time>
   <time name="total">    1.93    1.93</time>
   <energy>
    <i name="e_fr_energy">    -24.24737586 </i>
    <i name="e_wo_entrp">    -24.24737586 </i>
    <i name="e_0_energy">    -24.24737586 </i>
   </energy>
  </scstep>
  <scstep>
   <time name="dav">    1.85    1.85</time>
   <time name="total">    1.97    1.98</time>
   <energy>
    <i name="e_fr_energy">    -24.24668783 </i>
    <i name="e_wo_entrp">    -24.24668783 </i>
    <i name="e_0_energy">    -24.24668783 </i>
   </energy>
  </scstep>
  <scstep>
   <time name="dav">    1.92    1.93</time>
   <time name="total">    2.04    2.05</time>
   <energy>
    <i name="e_fr_energy">    -24.24641432 </i>
    <i name="e_wo_entrp">    -24.24641432 </i>
    <i name="e_0_energy">    -24.24641432 </i>
   </energy>
  </scstep>
  <scstep>
   <time name="dav">    1.57    1.57</time>
   <time name="total">    1.69    1.69</time>
   <energy>
    <i name="e_fr_energy">    -24.24615894 </i>
    <i name="e_wo_entrp">    -24.24615894 </i>
    <i name="e_0_energy">    -24.24615894 </i>
   </energy>
  </scstep>
  <scstep>
   <time name="dav">    1.53    1.53</time>
   <time name="total">    1.65    1.65</time>
   <energy>
    <i name="e_fr_energy">    -24.24629511 </i>
    <i name="e_wo_entrp">    -24.24629511 </i>
    <i name="e_0_energy">    -24.24629511 </i>
   </energy>
  </scstep>
  <scstep>
   <time name="dav">    1.51    1.51</time>
   <time name="total">    1.63    1.63</time>
   <energy>
    <i name="e_fr_energy">    -24.24657207 </i>
    <i name="e_wo_entrp">    -24.24657207 </i>
    <i name="e_0_energy">    -24.24657207 </i>
   </energy>
  </scstep>
  <scstep>
   <time name="dav">    1.42    1.42</time>
   <time name="total">    1.54    1.55</time>
   <energy>
    <i name="e_fr_energy">    -24.24667996 </i>
    <i name="e_wo_entrp">    -24.24667996 </i>
    <i name="e_0_energy">    -24.24667996 </i>
   </energy>
  </scstep>
  <scstep>
   <time name="dav">    1.41    1.41</time>
   <time name="total">    1.53    1.54</time>
   <energy>
    <i name="e_fr_energy">    -24.24673715 </i>
    <i name="e_wo_entrp">    -24.24673715 </i>
    <i name="e_0_energy">    -24.24673715 </i>
   </energy>
  </scstep>
  <scstep>
   <time name="dav">    1.35    1.35</time>
   <time name="total">    1.47    1.47</time>
   <energy>
    <i name="e_fr_energy">    -24.24680635 </i>
    <i name="e_wo_entrp">    -24.24680635 </i>
    <i name="e_0_energy">    -24.24680635 </i>
   </energy>
  </scstep>
  <scstep>
   <time name="dav">    1.27    1.27</time>
   <time name="total">    1.39    1.39</time>
   <energy>
    <i name="e_fr_energy">    -24.24685651 </i>
    <i name="e_wo_entrp">    -24.24685651 </i>
    <i name="e_0_energy">    -24.24685651 </i>
   </energy>
  </scstep>
  <scstep>
   <time name="dav">    1.31    1.31</time>
   <time name="total">    1.43    1.43</time>
   <energy>
    <i name="e_fr_energy">    -24.24688575 </i>
    <i name="e_wo_entrp">    -24.24688575 </i>
    <i name="e_0_energy">    -24.24688575 </i>
   </energy>
  </scstep>
  <scstep>
   <time name="dav">    1.33    1.33</time>
   <time name="total">    1.36    1.36</time>
   <energy>
    <i name="alphaZ">     47.44389341 </i>
    <i name="ewald">   5132.55642738 </i>
    <i name="hartreedc">  -9927.63091997 </i>
    <i name="XCdc">    143.25096647 </i>
    <i name="pawpsdc">   5828.54436276 </i>
    <i name="pawaedc">  -6649.09921845 </i>
    <i name="eentropy">     -0.00000000 </i>
    <i name="bandstr">   -820.29862674 </i>
    <i name="atom">   6220.98622430 </i>
    <i name="e_fr_energy">    -24.24689083 </i>
    <i name="e_wo_entrp">    -24.24689083 </i>
    <i name="e_0_energy">    -24.24689083 </i>
   </energy>
  </scstep>
  <structure>
   <crystal>
    <varray name="basis" >
     <v>       4.90607700       0.00000000       0.00000000 </v>
     <v>       0.00000000       5.45864100       0.00000000 </v>
     <v>       0.00000000       0.00000000      18.07929100 </v>
    </varray>
    <i name="volume">    484.17268877 </i>
    <varray name="rec_basis" >
     <v>       0.20382884       0.00000000       0.00000000 </v>
     <v>       0.00000000       0.18319578       0.00000000 </v>
     <v>       0.00000000       0.00000000       0.05531190 </v>
    </varray>
   </crystal>
   <varray name="positions" >
    <v>       0.50000000       0.50000000       0.50000000 </v>
    <v>       0.00000000       0.00000000       0.50000000 </v>
    <v>       0.25000000       0.25000000       0.41502600 </v>
    <v>       0.75000000       0.75000000       0.41502600 </v>
    <v>       0.75000000       0.25000000       0.58497400 </v>
    <v>       0.25000000       0.75000000       0.58497400 </v>
   </varray>
  </structure>
  <varray name="forces" >
   <v>       0.00000000       0.00000000       0.00000000 </v>
   <v>      -0.00000000       0.00000000       0.00000000 </v>
   <v>      -0.00000000       0.00000000      -0.11513424 </v>
   <v>       0.00000000       0.00000000      -0.11513424 </v>
   <v>      -0.00000000      -0.00000000       0.11513424 </v>
   <v>      -0.00000000      -0.00000000       0.11513424 </v>
  </varray>
  <varray name="stress" >
   <v>       4.22443106       0.00000000       0.00000000 </v>
   <v>       0.00000000       5.31991281       0.00000000 </v>
   <v>       0.00000000       0.00000000       2.29563966 </v>
  </varray>
  <energy>
   <i name="e_fr_energy">    -24.24689083 </i>
   <i name="e_wo_entrp">    -24.24689083 </i>
   <i name="e_0_energy">     -0.00000000 </i>
  </energy>
  <time name="totalsc">   33.60   33.65</time>
 </calculation>
 <calculation>
  <scstep>
   <time name="dav">    1.44    1.44</time>
   <time name="total">    1.56    1.57</time>
   <energy>
    <i name="alphaZ">     47.44389341 </i>
    <i name="ewald">   5124.77233090 </i>
    <i name="hartreedc">  -9920.10280365 </i>
    <i name="XCdc">    143.21958228 </i>
    <i name="pawpsdc">   5828.52770365 </i>
    <i name="pawaedc">  -6649.08273441 </i>
    <i name="eentropy">     -0.00000000 </i>
    <i name="bandstr">   -820.01216351 </i>
    <i name="atom">   6220.98622430 </i>
    <i name="e_fr_energy">    -24.24796703 </i>
    <i name="e_wo_entrp">    -24.24796703 </i>
    <i name="e_0_energy">    -24.24796703 </i>
   </energy>
  </scstep>
  <scstep>
   <time name="dav">    1.65    1.65</time>
   <time name="total">    1.77    1.77</time>
   <energy>
    <i name="e_fr_energy">    -24.24816380 </i>
    <i name="e_wo_entrp">    -24.24816380 </i>
    <i name="e_0_energy">    -24.24816380 </i>
   </energy>
  </scstep>
  <scstep>
   <time name="dav">    1.50    1.50</time>
   <time name="total">    1.62    1.62</time>
   <energy>
    <i name="e_fr_energy">    -24.24815593 </i>
    <i name="e_wo_entrp">    -24.24815593 </i>
    <i name="e_0_energy">    -24.24815593 </i>
   </energy>
  </scstep>
  <scstep>
   <time name="dav">    1.32    1.32</time>
   <time name="total">    1.44    1.44</time>
   <energy>
    <i name="e_fr_energy">    -24.24815270 </i>
    <i name="e_wo_entrp">    -24.24815270 </i>
    <i name="e_0_energy">    -24.24815270 </i>
   </energy>
  </scstep>
  <scstep>
   <time name="dav">    1.21    1.21</time>
   <time name="total">    1.33    1.34</time>
   <energy>
    <i name="e_fr_energy">    -24.24815134 </i>
    <i name="e_wo_entrp">    -24.24815134 </i>
    <i name="e_0_energy">    -24.24815134 </i>
   </energy>
  </scstep>
  <scstep>
   <time name="dav">    1.13    1.13</time>
   <time name="total">    1.16    1.16</time>
   <energy>
    <i name="alphaZ">     47.44389341 </i>
    <i name="ewald">   5124.77233090 </i>
    <i name="hartreedc">  -9920.10499170 </i>
    <i name="XCdc">    143.22359779 </i>
    <i name="pawpsdc">   5820.14938799 </i>
    <i name="pawaedc">  -6640.64900899 </i>
    <i name="eentropy">     -0.00000000 </i>
    <i name="bandstr">   -820.06958493 </i>
    <i name="atom">   6220.98622430 </i>
    <i name="e_fr_energy">    -24.24815124 </i>
    <i name="e_wo_entrp">    -24.24815124 </i>
    <i name="e_0_energy">    -24.24815124 </i>
   </energy>
  </scstep>
  <structure>
   <crystal>
    <varray name="basis" >
     <v>       4.90607700       0.00000000       0.00000000 </v>
     <v>       0.00000000       5.45864100       0.00000000 </v>
     <v>       0.00000000       0.00000000      18.07929100 </v>
    </varray>
    <i name="volume">    484.17268877 </i>
    <varray name="rec_basis" >
     <v>       0.20382884       0.00000000       0.00000000 </v>
     <v>       0.00000000       0.18319578       0.00000000 </v>
     <v>       0.00000000       0.00000000       0.05531190 </v>
    </varray>
   </crystal>
   <varray name="positions" >
    <v>       0.50000000       0.50000000       0.50000000 </v>
    <v>      -0.00000000       0.00000000       0.50000000 </v>
    <v>       0.25000000       0.25000000       0.41484167 </v>
    <v>       0.75000000       0.75000000       0.41484167 </v>
    <v>       0.75000000       0.25000000       0.58515833 </v>
    <v>       0.25000000       0.75000000       0.58515833 </v>
   </varray>
  </structure>
  <varray name="forces" >
   <v>       0.00000000       0.00000000       0.00000000 </v>
   <v>       0.00000000       0.00000000       0.00000000 </v>
   <v>       0.00000000       0.00000000      -0.07494180 </v>
   <v>       0.00000000       0.00000000      -0.07494180 </v>
   <v>      -0.00000000       0.00000000       0.07494180 </v>
   <v>      -0.00000000       0.00000000       0.07494180 </v>
  </varray>
  <varray name="stress" >
   <v>       4.00498893       0.00000000       0.00000000 </v>
   <v>       0.00000000       5.07153100       0.00000000 </v>
   <v>       0.00000000       0.00000000       1.50008061 </v>
  </varray>
  <energy>
   <i name="e_fr_energy">    -24.24815124 </i>
   <i name="e_wo_entrp">    -24.24815124 </i>
   <i name="e_0_energy">     -0.00000000 </i>
  </energy>
  <time name="totalsc">   10.03   10.05</time>
 </calculation>
 <calculation>
  <scstep>
   <time name="dav">    1.45    1.45</time>
   <time name="total">    1.57    1.57</time>
   <energy>
    <i name="alphaZ">     47.44389341 </i>
    <i name="ewald">   5110.25962733 </i>
    <i name="hartreedc">  -9906.08152376 </i>
    <i name="XCdc">    143.16528223 </i>
    <i name="pawpsdc">   5820.09420184 </i>
    <i name="pawaedc">  -6640.59410843 </i>
    <i name="eentropy">     -0.00000000 </i>
    <i name="bandstr">   -819.52201302 </i>
    <i name="atom">   6220.98622430 </i>
    <i name="e_fr_energy">    -24.24841611 </i>
    <i name="e_wo_entrp">    -24.24841611 </i>
    <i name="e_0_energy">    -24.24841611 </i>
   </energy>
  </scstep>
  <scstep>
   <time name="dav">    1.67    1.67</time>
   <time name="total">    1.79    1.79</time>
   <energy>
    <i name="e_fr_energy">    -24.24910492 </i>
    <i name="e_wo_entrp">    -24.24910492 </i>
    <i name="e_0_energy">    -24.24910492 </i>
   </energy>
  </scstep>
  <scstep>
   <time name="dav">    1.49    1.49</time>
   <time name="total">    1.61    1.61</time>
   <energy>
    <i name="e_fr_energy">    -24.24908054 </i>
    <i name="e_wo_entrp">    -24.24908054 </i>
    <i name="e_0_energy">    -24.24908054 </i>
   </energy>
  </scstep>
  <scstep>
   <time name="dav">    1.55    1.55</time>
   <time name="total">    1.67    1.68</time>
   <energy>
    <i name="e_fr_energy">    -24.24907266 </i>
    <i name="e_wo_entrp">    -24.24907266 </i>
    <i name="e_0_energy">    -24.24907266 </i>
   </energy>
  </scstep>
  <scstep>
   <time name="dav">    1.26    1.26</time>
   <time name="total">    1.37    1.38</time>
   <energy>
    <i name="e_fr_energy">    -24.24906992 </i>
    <i name="e_wo_entrp">    -24.24906992 </i>
    <i name="e_0_energy">    -24.24906992 </i>
   </energy>
  </scstep>
  <scstep>
   <time name="dav">    1.11    1.11</time>
   <time name="total">    1.14    1.14</time>
   <energy>
    <i name="alphaZ">     47.44389341 </i>
    <i name="ewald">   5110.25962733 </i>
    <i name="hartreedc">  -9906.09418544 </i>
    <i name="XCdc">    143.17282847 </i>
    <i name="pawpsdc">   5804.58515891 </i>
    <i name="pawaedc">  -6624.98219726 </i>
    <i name="eentropy">     -0.00000000 </i>
    <i name="bandstr">   -819.62041961 </i>
    <i name="atom">   6220.98622430 </i>
    <i name="e_fr_energy">    -24.24906990 </i>
    <i name="e_wo_entrp">    -24.24906990 </i>
    <i name="e_0_energy">    -24.24906990 </i>
   </energy>
  </scstep>
  <structure>
   <crystal>
    <varray name="basis" >
     <v>       4.90607700       0.00000000       0.00000000 </v>
     <v>       0.00000000       5.45864100       0.00000000 </v>
     <v>       0.00000000       0.00000000      18.07929100 </v>
    </varray>
    <i name="volume">    484.17268877 </i>
    <varray name="rec_basis" >
     <v>       0.20382884       0.00000000       0.00000000 </v>
     <v>       0.00000000       0.18319578       0.00000000 </v>
     <v>       0.00000000       0.00000000       0.05531190 </v>
    </varray>
   </crystal>
   <varray name="positions" >
    <v>       0.50000000       0.50000000       0.50000000 </v>
    <v>      -0.00000000       0.00000000       0.50000000 </v>
    <v>       0.25000000       0.25000000       0.41449796 </v>
    <v>       0.75000000       0.75000000       0.41449796 </v>
    <v>       0.75000000       0.25000000       0.58550204 </v>
    <v>       0.25000000       0.75000000       0.58550204 </v>
   </varray>
  </structure>
  <varray name="forces" >
   <v>       0.00000000       0.00000000       0.00000000 </v>
   <v>       0.00000000       0.00000000      -0.00000000 </v>
   <v>      -0.00000000       0.00000000      -0.00027565 </v>
   <v>      -0.00000000       0.00000000      -0.00027565 </v>
   <v>      -0.00000000       0.00000000       0.00027565 </v>
   <v>      -0.00000000       0.00000000       0.00027565 </v>
  </varray>
  <varray name="stress" >
   <v>       3.61370773       0.00000000       0.00000000 </v>
   <v>       0.00000000       4.63017315       0.00000000 </v>
   <v>       0.00000000       0.00000000       0.02027324 </v>
  </varray>
  <energy>
   <i name="e_fr_energy">    -24.24906990 </i>
   <i name="e_wo_entrp">    -24.24906990 </i>
   <i name="e_0_energy">     -0.00000000 </i>
  </energy>
  <time name="totalsc">   10.24   10.25</time>
  <eigenvalues>
   <array>
    <dimension dim="1">band</dimension>
    <dimension dim="2">kpoint</dimension>
    <dimension dim="3">spin</dimension>
    <field>eigene</field>
    <field>occ</field>
    <set>
     <set comment="spin 1">
      <set comment="kpoint 1">
       <r>  -27.7129    1.0000 </r>
       <r>  -27.7100    1.0000 </r>
       <r>  -27.7085    1.0000 </r>
       <r>  -27.6995    1.0000 </r>
       <r>  -27.6980    1.0000 </r>
       <r>  -27.6841    1.0000 </r>
       <r>  -27.6801    1.0000 </r>
       <r>  -27.6786    1.0000 </r>
       <r>  -27.6683    1.0000 </r>
       <r>  -27.6617    1.0000 </r>
       <r>  -16.9153    1.0000 </r>
       <r>  -15.3853    1.0000 </r>
       <r>  -14.8771    1.0000 </r>
       <r>  -14.6976    1.0000 </r>
       <r>  -11.7204    1.0000 </r>
       <r>   -9.1925    1.0000 </r>
       <r>   -7.4474    1.0000 </r>
       <r>   -5.8361    1.0000 </r>
       <r>   -5.4970    1.0000 </r>
       <r>   -5.2927    1.0000 </r>
       <r>   -5.1203    1.0000 </r>
       <r>   -5.1049    1.0000 </r>
       <r>   -4.6598    1.0000 </r>
       <r>   -4.1550    1.0000 </r>
       <r>   -2.7268    1.0000 </r>
       <r>   -2.6717    1.0000 </r>
       <r>   -1.6514    0.0000 </r>
       <r>   -1.3292    0.0000 </r>
       <r>   -0.7499    0.0000 </r>
       <r>    0.2040    0.0000 </r>
       <r>    0.6515    0.0000 </r>
       <r>    1.9974    0.0000 </r>
      </set>
      <set comment="kpoint 2">
       <r>  -27.7128    1.0000 </r>
       <r>  -27.7098    1.0000 </r>
       <r>  -27.7084    1.0000 </r>
       <r>  -27.6997    1.0000 </r>
       <r>  -27.6980    1.0000 </r>
       <r>  -27.6840    1.0000 </r>
       <r>  -27.6804    1.0000 </r>
       <r>  -27.6787    1.0000 </r>
       <r>  -27.6682    1.0000 </r>
       <r>  -27.6618    1.0000 </r>
       <r>  -16.8983    1.0000 </r>
       <r>  -15.3783    1.0000 </r>
       <r>  -14.8806    1.0000 </r>
       <r>  -14.7389    1.0000 </r>
       <r>  -11.6758    1.0000 </r>
       <r>   -9.2057    1.0000 </r>
       <r>   -7.4449    1.0000 </r>
       <r>   -5.8307    1.0000 </r>
       <r>   -5.5830    1.0000 </r>
       <r>   -5.3759    1.0000 </r>
       <r>   -5.1693    1.0000 </r>
       <r>   -5.0257    1.0000 </r>
       <r>   -4.6536    1.0000 </r>
       <r>   -4.1378    1.0000 </r>
       <r>   -2.7891    1.0000 </r>
       <r>   -2.7050    1.0000 </r>
       <r>   -1.5495    0.0000 </r>
       <r>   -1.3237    0.0000 </r>
       <r>   -0.6338    0.0000 </r>
       <r>    0.2535    0.0000 </r>
       <r>    0.6970    0.0000 </r>
       <r>    2.0308    0.0000 </r>
      </set>
      <set comment="kpoint 3">
       <r>  -27.7123    1.0000 </r>
       <r>  -27.7092    1.0000 </r>
       <r>  -27.7082    1.0000 </r>
       <r>  -27.7001    1.0000 </r>
       <r>  -27.6980    1.0000 </r>
       <r>  -27.6838    1.0000 </r>
       <r>  -27.6812    1.0000 </r>
       <r>  -27.6788    1.0000 </r>
       <r>  -27.6680    1.0000 </r>
       <r>  -27.6620    1.0000 </r>
       <r>  -16.8475    1.0000 </r>
       <r>  -15.3576    1.0000 </r>
       <r>  -14.8913    1.0000 </r>
       <r>  -14.8550    1.0000 </r>
       <r>  -11.5494    1.0000 </r>
       <r>   -9.2469    1.0000 </r>
       <r>   -7.4365    1.0000 </r>
       <r>   -5.8114    1.0000 </r>
       <r>   -5.7324    1.0000 </r>
       <r>   -5.5872    1.0000 </r>
       <r>   -5.3362    1.0000 </r>
       <r>   -4.8546    1.0000 </r>
       <r>   -4.6554    1.0000 </r>
       <r>   -4.0885    1.0000 </r>
       <r>   -2.9499    1.0000 </r>
       <r>   -2.7957    1.0000 </r>
       <r>   -1.2959    0.0000 </r>
       <r>   -1.2871    0.0000 </r>
       <r>   -0.3085    0.0000 </r>
       <r>    0.3921    0.0000 </r>
       <r>    0.8230    0.0000 </r>
       <r>    2.0927    0.0000 </r>
      </set>
      <set comment="kpoint 4">
       <r>  -27.7116    1.0000 </r>
       <r>  -27.7083    1.0000 </r>
       <r>  -27.7079    1.0000 </r>
       <r>  -27.7008    1.0000 </r>
       <r>  -27.6980    1.0000 </r>
       <r>  -27.6835    1.0000 </r>
       <r>  -27.6826    1.0000 </r>
       <r>  -27.6789    1.0000 </r>
       <r>  -27.6677    1.0000 </r>
       <r>  -27.6623    1.0000 </r>
       <r>  -16.7638    1.0000 </r>
       <r>  -15.3246    1.0000 </r>
       <r>  -15.0275    1.0000 </r>
       <r>  -14.9096    1.0000 </r>
       <r>  -11.3586    1.0000 </r>
       <r>   -9.3217    1.0000 </r>
       <r>   -7.4182    1.0000 </r>
       <r>   -5.8724    1.0000 </r>
       <r>   -5.8641    1.0000 </r>
       <r>   -5.7708    1.0000 </r>
       <r>   -5.5500    1.0000 </r>
       <r>   -4.6886    1.0000 </r>
       <r>   -4.6874    1.0000 </r>
       <r>   -4.0133    1.0000 </r>
       <r>   -3.1668    1.0000 </r>
       <r>   -2.9228    1.0000 </r>
       <r>   -1.2223    0.0000 </r>
       <r>   -0.9450    0.0000 </r>
       <r>    0.1767    0.0000 </r>
       <r>    0.5955    0.0000 </r>
       <r>    0.9976    0.0000 </r>
       <r>    1.9176    0.0000 </r>
      </set>
      <set comment="kpoint 5">
       <r>  -27.7107    1.0000 </r>
       <r>  -27.7076    1.0000 </r>
       <r>  -27.7073    1.0000 </r>
       <r>  -27.7018    1.0000 </r>
       <r>  -27.6977    1.0000 </r>
       <r>  -27.6845    1.0000 </r>
       <r>  -27.6830    1.0000 </r>
       <r>  -27.6792    1.0000 </r>
       <r>  -27.6673    1.0000 </r>
       <r>  -27.6628    1.0000 </r>
       <r>  -16.6484    1.0000 </r>
       <r>  -15.2813    1.0000 </r>
       <r>  -15.2360    1.0000 </r>
       <r>  -14.9361    1.0000 </r>
       <r>  -11.1228    1.0000 </r>
       <r>   -9.4364    1.0000 </r>
       <r>   -7.3837    1.0000 </r>
       <r>   -6.1606    1.0000 </r>
       <r>   -5.9868    1.0000 </r>
       <r>   -5.7600    1.0000 </r>
       <r>   -5.7023    1.0000 </r>
       <r>   -4.7606    1.0000 </r>
       <r>   -4.5448    1.0000 </r>
       <r>   -3.9195    1.0000 </r>
       <r>   -3.4058    1.0000 </r>
       <r>   -3.0650    1.0000 </r>
       <r>   -1.0862    0.0000 </r>
       <r>   -0.6005    0.0000 </r>
       <r>    0.7730    0.0000 </r>
       <r>    0.8340    0.0000 </r>
       <r>    1.1707    0.0000 </r>
       <r>    1.7428    0.0000 </r>
      </set>
      <set comment="kpoint 6">
       <r>  -27.7096    1.0000 </r>
       <r>  -27.7071    1.0000 </r>
       <r>  -27.7065    1.0000 </r>
       <r>  -27.7029    1.0000 </r>
       <r>  -27.6970    1.0000 </r>
       <r>  -27.6866    1.0000 </r>
       <r>  -27.6825    1.0000 </r>
       <r>  -27.6796    1.0000 </r>
       <r>  -27.6667    1.0000 </r>
       <r>  -27.6634    1.0000 </r>
       <r>  -16.5034    1.0000 </r>
       <r>  -15.4631    1.0000 </r>
       <r>  -15.2303    1.0000 </r>
       <r>  -14.9710    1.0000 </r>
       <r>  -10.8590    1.0000 </r>
       <r>   -9.5956    1.0000 </r>
       <r>   -7.3247    1.0000 </r>
       <r>   -6.4471    1.0000 </r>
       <r>   -6.0714    1.0000 </r>
       <r>   -5.9333    1.0000 </r>
       <r>   -5.6030    1.0000 </r>
       <r>   -4.8700    1.0000 </r>
       <r>   -4.4250    1.0000 </r>
       <r>   -3.8136    1.0000 </r>
       <r>   -3.6413    1.0000 </r>
       <r>   -3.2064    1.0000 </r>
       <r>   -0.8902    0.0000 </r>
       <r>   -0.3297    0.0000 </r>
       <r>    1.0736    0.0000 </r>
       <r>    1.2934    0.0000 </r>
       <r>    1.4400    0.0000 </r>
       <r>    1.5952    0.0000 </r>
      </set>
      <set comment="kpoint 7">
       <r>  -27.7083    1.0000 </r>
       <r>  -27.7067    1.0000 </r>
       <r>  -27.7060    1.0000 </r>
       <r>  -27.7042    1.0000 </r>
       <r>  -27.6957    1.0000 </r>
       <r>  -27.6890    1.0000 </r>
       <r>  -27.6819    1.0000 </r>
       <r>  -27.6801    1.0000 </r>
       <r>  -27.6661    1.0000 </r>
       <r>  -27.6640    1.0000 </r>
       <r>  -16.3315    1.0000 </r>
       <r>  -15.6952    1.0000 </r>
       <r>  -15.1748    1.0000 </r>
       <r>  -15.0139    1.0000 </r>
       <r>  -10.5815    1.0000 </r>
       <r>   -9.7984    1.0000 </r>
       <r>   -7.2326    1.0000 </r>
       <r>   -6.7053    1.0000 </r>
       <r>   -6.1247    1.0000 </r>
       <r>   -6.0549    1.0000 </r>
       <r>   -5.4752    1.0000 </r>
       <r>   -5.0094    1.0000 </r>
       <r>   -4.3127    1.0000 </r>
       <r>   -3.8557    1.0000 </r>
       <r>   -3.7009    1.0000 </r>
       <r>   -3.3396    1.0000 </r>
       <r>   -0.6567    0.0000 </r>
       <r>   -0.2039    0.0000 </r>
       <r>    1.2768    0.0000 </r>
       <r>    1.3537    0.0000 </r>
       <r>    1.4823    0.0000 </r>
       <r>    1.5734    0.0000 </r>
      </set>
      <set comment="kpoint 8">
       <r>  -27.7070    1.0000 </r>
       <r>  -27.7062    1.0000 </r>
       <r>  -27.7060    1.0000 </r>
       <r>  -27.7056    1.0000 </r>
       <r>  -27.6938    1.0000 </r>
       <r>  -27.6915    1.0000 </r>
       <r>  -27.6812    1.0000 </r>
       <r>  -27.6806    1.0000 </r>
       <r>  -27.6654    1.0000 </r>
       <r>  -27.6647    1.0000 </r>
       <r>  -16.1362    1.0000 </r>
       <r>  -15.9221    1.0000 </r>
       <r>  -15.1182    1.0000 </r>
       <r>  -15.0636    1.0000 </r>
       <r>  -10.3035    1.0000 </r>
       <r>  -10.0382    1.0000 </r>
       <r>   -7.1006    1.0000 </r>
       <r>   -6.9248    1.0000 </r>
       <r>   -6.1438    1.0000 </r>
       <r>   -6.1231    1.0000 </r>
       <r>   -5.3261    1.0000 </r>
       <r>   -5.1663    1.0000 </r>
       <r>   -4.1889    1.0000 </r>
       <r>   -4.0388    1.0000 </r>
       <r>   -3.5845    1.0000 </r>
       <r>   -3.4647    1.0000 </r>
       <r>   -0.4247    0.0000 </r>
       <r>   -0.2504    0.0000 </r>
       <r>    1.3815    0.0000 </r>
       <r>    1.4155    0.0000 </r>
       <r>    1.4156    0.0000 </r>
       <r>    1.4963    0.0000 </r>
      </set>
      <set comment="kpoint 9">
       <r>  -27.7128    1.0000 </r>
       <r>  -27.7098    1.0000 </r>
       <r>  -27.7083    1.0000 </r>
       <r>  -27.6995    1.0000 </r>
       <r>  -27.6981    1.0000 </r>
       <r>  -27.6840    1.0000 </r>
       <r>  -27.6805    1.0000 </r>
       <r>  -27.6787    1.0000 </r>
       <r>  -27.6682    1.0000 </r>
       <r>  -27.6618    1.0000 </r>
       <r>  -16.8956    1.0000 </r>
       <r>  -15.3757    1.0000 </r>
       <r>  -14.9308    1.0000 </r>
       <r>  -14.7078    1.0000 </r>
       <r>  -11.6553    1.0000 </r>
       <r>   -9.2080    1.0000 </r>
       <r>   -7.4339    1.0000 </r>
       <r>   -5.8638    1.0000 </r>
       <r>   -5.4893    1.0000 </r>
       <r>   -5.3589    1.0000 </r>
       <r>   -5.1976    1.0000 </r>
       <r>   -5.0811    1.0000 </r>
       <r>   -4.6523    1.0000 </r>
       <r>   -4.1227    1.0000 </r>
       <r>   -2.7604    1.0000 </r>
       <r>   -2.7460    1.0000 </r>
       <r>   -1.5302    0.0000 </r>
       <r>   -1.3056    0.0000 </r>
       <r>   -0.6123    0.0000 </r>
       <r>    0.2250    0.0000 </r>
       <r>    0.6903    0.0000 </r>
       <r>    2.0297    0.0000 </r>
      </set>
      <set comment="kpoint 10">
       <r>  -27.7126    1.0000 </r>
       <r>  -27.7096    1.0000 </r>
       <r>  -27.7083    1.0000 </r>
       <r>  -27.6997    1.0000 </r>
       <r>  -27.6981    1.0000 </r>
       <r>  -27.6840    1.0000 </r>
       <r>  -27.6808    1.0000 </r>
       <r>  -27.6787    1.0000 </r>
       <r>  -27.6681    1.0000 </r>
       <r>  -27.6619    1.0000 </r>
       <r>  -16.8788    1.0000 </r>
       <r>  -15.3688    1.0000 </r>
       <r>  -14.9390    1.0000 </r>
       <r>  -14.7412    1.0000 </r>
       <r>  -11.6152    1.0000 </r>
       <r>   -9.2227    1.0000 </r>
       <r>   -7.4280    1.0000 </r>
       <r>   -5.8747    1.0000 </r>
       <r>   -5.5540    1.0000 </r>
       <r>   -5.5161    1.0000 </r>
       <r>   -5.1540    1.0000 </r>
       <r>   -4.9931    1.0000 </r>
       <r>   -4.6561    1.0000 </r>
       <r>   -4.1065    1.0000 </r>
       <r>   -2.9025    1.0000 </r>
       <r>   -2.6809    1.0000 </r>
       <r>   -1.4895    0.0000 </r>
       <r>   -1.2988    0.0000 </r>
       <r>   -0.4729    0.0000 </r>
       <r>    0.2726    0.0000 </r>
       <r>    0.7345    0.0000 </r>
       <r>    2.0236    0.0000 </r>
      </set>
      <set comment="kpoint 11">
       <r>  -27.7123    1.0000 </r>
       <r>  -27.7090    1.0000 </r>
       <r>  -27.7080    1.0000 </r>
       <r>  -27.7002    1.0000 </r>
       <r>  -27.6981    1.0000 </r>
       <r>  -27.6837    1.0000 </r>
       <r>  -27.6817    1.0000 </r>
       <r>  -27.6787    1.0000 </r>
       <r>  -27.6679    1.0000 </r>
       <r>  -27.6621    1.0000 </r>
       <r>  -16.8286    1.0000 </r>
       <r>  -15.3488    1.0000 </r>
       <r>  -14.9746    1.0000 </r>
       <r>  -14.8238    1.0000 </r>
       <r>  -11.5010    1.0000 </r>
       <r>   -9.2686    1.0000 </r>
       <r>   -7.4099    1.0000 </r>
       <r>   -5.9186    1.0000 </r>
       <r>   -5.7823    1.0000 </r>
       <r>   -5.6393    1.0000 </r>
       <r>   -5.2020    1.0000 </r>
       <r>   -4.8274    1.0000 </r>
       <r>   -4.6705    1.0000 </r>
       <r>   -4.0590    1.0000 </r>
       <r>   -3.1007    1.0000 </r>
       <r>   -2.6981    1.0000 </r>
       <r>   -1.3375    0.0000 </r>
       <r>   -1.2682    0.0000 </r>
       <r>   -0.1145    0.0000 </r>
       <r>    0.4051    0.0000 </r>
       <r>    0.8581    0.0000 </r>
       <r>    1.9133    0.0000 </r>
      </set>
      <set comment="kpoint 12">
       <r>  -27.7117    1.0000 </r>
       <r>  -27.7082    1.0000 </r>
       <r>  -27.7077    1.0000 </r>
       <r>  -27.7008    1.0000 </r>
       <r>  -27.6980    1.0000 </r>
       <r>  -27.6834    1.0000 </r>
       <r>  -27.6831    1.0000 </r>
       <r>  -27.6789    1.0000 </r>
       <r>  -27.6676    1.0000 </r>
       <r>  -27.6624    1.0000 </r>
       <r>  -16.7459    1.0000 </r>
       <r>  -15.3168    1.0000 </r>
       <r>  -15.0826    1.0000 </r>
       <r>  -14.8955    1.0000 </r>
       <r>  -11.3272    1.0000 </r>
       <r>   -9.3505    1.0000 </r>
       <r>   -7.3778    1.0000 </r>
       <r>   -6.0615    1.0000 </r>
       <r>   -5.9998    1.0000 </r>
       <r>   -5.6620    1.0000 </r>
       <r>   -5.3573    1.0000 </r>
       <r>   -4.7128    1.0000 </r>
       <r>   -4.6651    1.0000 </r>
       <r>   -3.9829    1.0000 </r>
       <r>   -3.3194    1.0000 </r>
       <r>   -2.7878    1.0000 </r>
       <r>   -1.1927    0.0000 </r>
       <r>   -1.0724    0.0000 </r>
       <r>    0.3710    0.0000 </r>
       <r>    0.5971    0.0000 </r>
       <r>    1.0332    0.0000 </r>
       <r>    1.7457    0.0000 </r>
      </set>
      <set comment="kpoint 13">
       <r>  -27.7109    1.0000 </r>
       <r>  -27.7074    1.0000 </r>
       <r>  -27.7072    1.0000 </r>
       <r>  -27.7017    1.0000 </r>
       <r>  -27.6978    1.0000 </r>
       <r>  -27.6849    1.0000 </r>
       <r>  -27.6829    1.0000 </r>
       <r>  -27.6792    1.0000 </r>
       <r>  -27.6672    1.0000 </r>
       <r>  -27.6629    1.0000 </r>
       <r>  -16.6320    1.0000 </r>
       <r>  -15.2748    1.0000 </r>
       <r>  -15.2640    1.0000 </r>
       <r>  -14.9375    1.0000 </r>
       <r>  -11.1104    1.0000 </r>
       <r>   -9.4735    1.0000 </r>
       <r>   -7.3290    1.0000 </r>
       <r>   -6.3206    1.0000 </r>
       <r>   -6.0822    1.0000 </r>
       <r>   -5.6318    1.0000 </r>
       <r>   -5.5634    1.0000 </r>
       <r>   -4.7960    1.0000 </r>
       <r>   -4.5285    1.0000 </r>
       <r>   -3.8834    1.0000 </r>
       <r>   -3.5350    1.0000 </r>
       <r>   -2.9207    1.0000 </r>
       <r>   -1.0587    0.0000 </r>
       <r>   -0.7555    0.0000 </r>
       <r>    0.8171    0.0000 </r>
       <r>    0.9202    0.0000 </r>
       <r>    1.2143    0.0000 </r>
       <r>    1.5956    0.0000 </r>
      </set>
      <set comment="kpoint 14">
       <r>  -27.7100    1.0000 </r>
       <r>  -27.7068    1.0000 </r>
       <r>  -27.7066    1.0000 </r>
       <r>  -27.7026    1.0000 </r>
       <r>  -27.6971    1.0000 </r>
       <r>  -27.6870    1.0000 </r>
       <r>  -27.6823    1.0000 </r>
       <r>  -27.6795    1.0000 </r>
       <r>  -27.6666    1.0000 </r>
       <r>  -27.6634    1.0000 </r>
       <r>  -16.4891    1.0000 </r>
       <r>  -15.4767    1.0000 </r>
       <r>  -15.2257    1.0000 </r>
       <r>  -14.9755    1.0000 </r>
       <r>  -10.8656    1.0000 </r>
       <r>   -9.6399    1.0000 </r>
       <r>   -7.2598    1.0000 </r>
       <r>   -6.5465    1.0000 </r>
       <r>   -6.1387    1.0000 </r>
       <r>   -5.7706    1.0000 </r>
       <r>   -5.5658    1.0000 </r>
       <r>   -4.9165    1.0000 </r>
       <r>   -4.4146    1.0000 </r>
       <r>   -3.7678    1.0000 </r>
       <r>   -3.7331    1.0000 </r>
       <r>   -3.0716    1.0000 </r>
       <r>   -0.8714    0.0000 </r>
       <r>   -0.4745    0.0000 </r>
       <r>    1.0313    0.0000 </r>
       <r>    1.3547    0.0000 </r>
       <r>    1.3885    0.0000 </r>
       <r>    1.5986    0.0000 </r>
      </set>
      <set comment="kpoint 15">
       <r>  -27.7090    1.0000 </r>
       <r>  -27.7067    1.0000 </r>
       <r>  -27.7059    1.0000 </r>
       <r>  -27.7035    1.0000 </r>
       <r>  -27.6958    1.0000 </r>
       <r>  -27.6894    1.0000 </r>
       <r>  -27.6817    1.0000 </r>
       <r>  -27.6800    1.0000 </r>
       <r>  -27.6660    1.0000 </r>
       <r>  -27.6640    1.0000 </r>
       <r>  -16.3200    1.0000 </r>
       <r>  -15.6993    1.0000 </r>
       <r>  -15.1723    1.0000 </r>
       <r>  -15.0179    1.0000 </r>
       <r>  -10.6052    1.0000 </r>
       <r>   -9.8462    1.0000 </r>
       <r>   -7.1670    1.0000 </r>
       <r>   -6.7398    1.0000 </r>
       <r>   -6.1589    1.0000 </r>
       <r>   -5.9448    1.0000 </r>
       <r>   -5.4705    1.0000 </r>
       <r>   -5.0603    1.0000 </r>
       <r>   -4.3084    1.0000 </r>
       <r>   -3.9090    1.0000 </r>
       <r>   -3.6423    1.0000 </r>
       <r>   -3.2241    1.0000 </r>
       <r>   -0.6557    0.0000 </r>
       <r>   -0.3157    0.0000 </r>
       <r>    1.2096    0.0000 </r>
       <r>    1.4179    0.0000 </r>
       <r>    1.4349    0.0000 </r>
       <r>    1.6243    0.0000 </r>
      </set>
      <set comment="kpoint 16">
       <r>  -27.7080    1.0000 </r>
       <r>  -27.7072    1.0000 </r>
       <r>  -27.7051    1.0000 </r>
       <r>  -27.7043    1.0000 </r>
       <r>  -27.6940    1.0000 </r>
       <r>  -27.6917    1.0000 </r>
       <r>  -27.6811    1.0000 </r>
       <r>  -27.6805    1.0000 </r>
       <r>  -27.6654    1.0000 </r>
       <r>  -27.6647    1.0000 </r>
       <r>  -16.1285    1.0000 </r>
       <r>  -15.9195    1.0000 </r>
       <r>  -15.1180    1.0000 </r>
       <r>  -15.0658    1.0000 </r>
       <r>  -10.3407    1.0000 </r>
       <r>  -10.0837    1.0000 </r>
       <r>   -7.0489    1.0000 </r>
       <r>   -6.9063    1.0000 </r>
       <r>   -6.1376    1.0000 </r>
       <r>   -6.0680    1.0000 </r>
       <r>   -5.3499    1.0000 </r>
       <r>   -5.2098    1.0000 </r>
       <r>   -4.1943    1.0000 </r>
       <r>   -4.0624    1.0000 </r>
       <r>   -3.5098    1.0000 </r>
       <r>   -3.3706    1.0000 </r>
       <r>   -0.4531    0.0000 </r>
       <r>   -0.3190    0.0000 </r>
       <r>    1.3469    0.0000 </r>
       <r>    1.4429    0.0000 </r>
       <r>    1.4605    0.0000 </r>
       <r>    1.4746    0.0000 </r>
      </set>
      <set comment="kpoint 17">
       <r>  -27.7124    1.0000 </r>
       <r>  -27.7092    1.0000 </r>
       <r>  -27.7079    1.0000 </r>
       <r>  -27.6995    1.0000 </r>
       <r>  -27.6986    1.0000 </r>
       <r>  -27.6838    1.0000 </r>
       <r>  -27.6816    1.0000 </r>
       <r>  -27.6788    1.0000 </r>
       <r>  -27.6680    1.0000 </r>
       <r>  -27.6621    1.0000 </r>
       <r>  -16.8369    1.0000 </r>
       <r>  -15.3472    1.0000 </r>
       <r>  -15.0779    1.0000 </r>
       <r>  -14.7377    1.0000 </r>
       <r>  -11.4747    1.0000 </r>
       <r>   -9.2573    1.0000 </r>
       <r>   -7.3920    1.0000 </r>
       <r>   -5.9325    1.0000 </r>
       <r>   -5.5287    1.0000 </r>
       <r>   -5.4636    1.0000 </r>
       <r>   -5.4268    1.0000 </r>
       <r>   -4.9774    1.0000 </r>
       <r>   -4.6570    1.0000 </r>
       <r>   -4.0325    1.0000 </r>
       <r>   -2.9294    1.0000 </r>
       <r>   -2.8460    1.0000 </r>
       <r>   -1.2311    0.0000 </r>
       <r>   -1.2279    0.0000 </r>
       <r>   -0.2327    0.0000 </r>
       <r>    0.2856    0.0000 </r>
       <r>    0.7976    0.0000 </r>
       <r>    1.9943    0.0000 </r>
      </set>
      <set comment="kpoint 18">
       <r>  -27.7123    1.0000 </r>
       <r>  -27.7090    1.0000 </r>
       <r>  -27.7078    1.0000 </r>
       <r>  -27.6997    1.0000 </r>
       <r>  -27.6985    1.0000 </r>
       <r>  -27.6837    1.0000 </r>
       <r>  -27.6819    1.0000 </r>
       <r>  -27.6788    1.0000 </r>
       <r>  -27.6679    1.0000 </r>
       <r>  -27.6622    1.0000 </r>
       <r>  -16.8207    1.0000 </r>
       <r>  -15.3410    1.0000 </r>
       <r>  -15.0885    1.0000 </r>
       <r>  -14.7606    1.0000 </r>
       <r>  -11.4464    1.0000 </r>
       <r>   -9.2765    1.0000 </r>
       <r>   -7.3767    1.0000 </r>
       <r>   -5.9631    1.0000 </r>
       <r>   -5.7723    1.0000 </r>
       <r>   -5.5008    1.0000 </r>
       <r>   -5.2362    1.0000 </r>
       <r>   -4.9019    1.0000 </r>
       <r>   -4.6716    1.0000 </r>
       <r>   -4.0177    1.0000 </r>
       <r>   -3.0997    1.0000 </r>
       <r>   -2.7227    1.0000 </r>
       <r>   -1.2856    0.0000 </r>
       <r>   -1.2211    0.0000 </r>
       <r>   -0.0648    0.0000 </r>
       <r>    0.3273    0.0000 </r>
       <r>    0.8390    0.0000 </r>
       <r>    1.8649    0.0000 </r>
      </set>
      <set comment="kpoint 19">
       <r>  -27.7121    1.0000 </r>
       <r>  -27.7086    1.0000 </r>
       <r>  -27.7074    1.0000 </r>
       <r>  -27.7002    1.0000 </r>
       <r>  -27.6983    1.0000 </r>
       <r>  -27.6834    1.0000 </r>
       <r>  -27.6828    1.0000 </r>
       <r>  -27.6788    1.0000 </r>
       <r>  -27.6677    1.0000 </r>
       <r>  -27.6624    1.0000 </r>
       <r>  -16.7722    1.0000 </r>
       <r>  -15.3227    1.0000 </r>
       <r>  -15.1263    1.0000 </r>
       <r>  -14.8194    1.0000 </r>
       <r>  -11.3645    1.0000 </r>
       <r>   -9.3355    1.0000 </r>
       <r>   -7.3319    1.0000 </r>
       <r>   -6.0625    1.0000 </r>
       <r>   -6.0495    1.0000 </r>
       <r>   -5.5452    1.0000 </r>
       <r>   -5.1129    1.0000 </r>
       <r>   -4.7517    1.0000 </r>
       <r>   -4.7133    1.0000 </r>
       <r>   -3.9705    1.0000 </r>
       <r>   -3.3222    1.0000 </r>
       <r>   -2.6370    1.0000 </r>
       <r>   -1.3332    0.0000 </r>
       <r>   -1.1843    0.0000 </r>
       <r>    0.3134    0.0000 </r>
       <r>    0.4417    0.0000 </r>
       <r>    0.9576    0.0000 </r>
       <r>    1.6922    0.0000 </r>
      </set>
      <set comment="kpoint 20">
       <r>  -27.7118    1.0000 </r>
       <r>  -27.7081    1.0000 </r>
       <r>  -27.7069    1.0000 </r>
       <r>  -27.7008    1.0000 </r>
       <r>  -27.6982    1.0000 </r>
       <r>  -27.6843    1.0000 </r>
       <r>  -27.6831    1.0000 </r>
       <r>  -27.6788    1.0000 </r>
       <r>  -27.6674    1.0000 </r>
       <r>  -27.6626    1.0000 </r>
       <r>  -16.6925    1.0000 </r>
       <r>  -15.2938    1.0000 </r>
       <r>  -15.2079    1.0000 </r>
       <r>  -14.8878    1.0000 </r>
       <r>  -11.2365    1.0000 </r>
       <r>   -9.4367    1.0000 </r>
       <r>   -7.2608    1.0000 </r>
       <r>   -6.3228    1.0000 </r>
       <r>   -6.1593    1.0000 </r>
       <r>   -5.5530    1.0000 </r>
       <r>   -5.1305    1.0000 </r>
       <r>   -4.7843    1.0000 </r>
       <r>   -4.6074    1.0000 </r>
       <r>   -3.8860    1.0000 </r>
       <r>   -3.5352    1.0000 </r>
       <r>   -2.6347    1.0000 </r>
       <r>   -1.2508    0.0000 </r>
       <r>   -1.1066    0.0000 </r>
       <r>    0.6032    0.0000 </r>
       <r>    0.7538    0.0000 </r>
       <r>    1.1329    0.0000 </r>
       <r>    1.5439    0.0000 </r>
      </set>
      <set comment="kpoint 21">
       <r>  -27.7113    1.0000 </r>
       <r>  -27.7076    1.0000 </r>
       <r>  -27.7062    1.0000 </r>
       <r>  -27.7013    1.0000 </r>
       <r>  -27.6979    1.0000 </r>
       <r>  -27.6860    1.0000 </r>
       <r>  -27.6826    1.0000 </r>
       <r>  -27.6790    1.0000 </r>
       <r>  -27.6669    1.0000 </r>
       <r>  -27.6630    1.0000 </r>
       <r>  -16.5832    1.0000 </r>
       <r>  -15.3430    1.0000 </r>
       <r>  -15.2561    1.0000 </r>
       <r>  -14.9436    1.0000 </r>
       <r>  -11.0716    1.0000 </r>
       <r>   -9.5809    1.0000 </r>
       <r>   -7.1709    1.0000 </r>
       <r>   -6.5329    1.0000 </r>
       <r>   -6.2483    1.0000 </r>
       <r>   -5.5339    1.0000 </r>
       <r>   -5.2622    1.0000 </r>
       <r>   -4.8963    1.0000 </r>
       <r>   -4.4934    1.0000 </r>
       <r>   -3.7666    1.0000 </r>
       <r>   -3.7190    1.0000 </r>
       <r>   -2.7064    1.0000 </r>
       <r>   -1.0449    0.0000 </r>
       <r>   -0.9821    0.0000 </r>
       <r>    0.7845    0.0000 </r>
       <r>    1.1129    0.0000 </r>
       <r>    1.3246    0.0000 </r>
       <r>    1.5306    0.0000 </r>
      </set>
      <set comment="kpoint 22">
       <r>  -27.7107    1.0000 </r>
       <r>  -27.7075    1.0000 </r>
       <r>  -27.7054    1.0000 </r>
       <r>  -27.7018    1.0000 </r>
       <r>  -27.6973    1.0000 </r>
       <r>  -27.6881    1.0000 </r>
       <r>  -27.6820    1.0000 </r>
       <r>  -27.6793    1.0000 </r>
       <r>  -27.6664    1.0000 </r>
       <r>  -27.6635    1.0000 </r>
       <r>  -16.4467    1.0000 </r>
       <r>  -15.5180    1.0000 </r>
       <r>  -15.2123    1.0000 </r>
       <r>  -14.9878    1.0000 </r>
       <r>  -10.8784    1.0000 </r>
       <r>   -9.7637    1.0000 </r>
       <r>   -7.0759    1.0000 </r>
       <r>   -6.6883    1.0000 </r>
       <r>   -6.2822    1.0000 </r>
       <r>   -5.4990    1.0000 </r>
       <r>   -5.4612    1.0000 </r>
       <r>   -5.0376    1.0000 </r>
       <r>   -4.4018    1.0000 </r>
       <r>   -3.8716    1.0000 </r>
       <r>   -3.6237    1.0000 </r>
       <r>   -2.8285    1.0000 </r>
       <r>   -0.8232    0.0000 </r>
       <r>   -0.7939    0.0000 </r>
       <r>    0.9654    0.0000 </r>
       <r>    1.2057    0.0000 </r>
       <r>    1.4779    0.0000 </r>
       <r>    1.8270    0.0000 </r>
      </set>
      <set comment="kpoint 23">
       <r>  -27.7100    1.0000 </r>
       <r>  -27.7078    1.0000 </r>
       <r>  -27.7046    1.0000 </r>
       <r>  -27.7023    1.0000 </r>
       <r>  -27.6961    1.0000 </r>
       <r>  -27.6902    1.0000 </r>
       <r>  -27.6814    1.0000 </r>
       <r>  -27.6797    1.0000 </r>
       <r>  -27.6659    1.0000 </r>
       <r>  -27.6640    1.0000 </r>
       <r>  -16.2862    1.0000 </r>
       <r>  -15.7130    1.0000 </r>
       <r>  -15.1652    1.0000 </r>
       <r>  -15.0290    1.0000 </r>
       <r>  -10.6643    1.0000 </r>
       <r>   -9.9755    1.0000 </r>
       <r>   -6.9932    1.0000 </r>
       <r>   -6.7959    1.0000 </r>
       <r>   -6.2369    1.0000 </r>
       <r>   -5.6899    1.0000 </r>
       <r>   -5.4508    1.0000 </r>
       <r>   -5.1778    1.0000 </r>
       <r>   -4.3152    1.0000 </r>
       <r>   -4.0018    1.0000 </r>
       <r>   -3.4685    1.0000 </r>
       <r>   -2.9788    1.0000 </r>
       <r>   -0.6613    0.0000 </r>
       <r>   -0.5925    0.0000 </r>
       <r>    1.1377    0.0000 </r>
       <r>    1.2611    0.0000 </r>
       <r>    1.5499    0.0000 </r>
       <r>    1.7687    0.0000 </r>
      </set>
      <set comment="kpoint 24">
       <r>  -27.7092    1.0000 </r>
       <r>  -27.7084    1.0000 </r>
       <r>  -27.7037    1.0000 </r>
       <r>  -27.7029    1.0000 </r>
       <r>  -27.6944    1.0000 </r>
       <r>  -27.6924    1.0000 </r>
       <r>  -27.6808    1.0000 </r>
       <r>  -27.6802    1.0000 </r>
       <r>  -27.6653    1.0000 </r>
       <r>  -27.6646    1.0000 </r>
       <r>  -16.1062    1.0000 </r>
       <r>  -15.9126    1.0000 </r>
       <r>  -15.1176    1.0000 </r>
       <r>  -15.0719    1.0000 </r>
       <r>  -10.4367    1.0000 </r>
       <r>  -10.2038    1.0000 </r>
       <r>   -6.9291    1.0000 </r>
       <r>   -6.8701    1.0000 </r>
       <r>   -6.1082    1.0000 </r>
       <r>   -5.9159    1.0000 </r>
       <r>   -5.3854    1.0000 </r>
       <r>   -5.2958    1.0000 </r>
       <r>   -4.2219    1.0000 </r>
       <r>   -4.1176    1.0000 </r>
       <r>   -3.3065    1.0000 </r>
       <r>   -3.1415    1.0000 </r>
       <r>   -0.5403    0.0000 </r>
       <r>   -0.5059    0.0000 </r>
       <r>    1.2985    0.0000 </r>
       <r>    1.3491    0.0000 </r>
       <r>    1.5378    0.0000 </r>
       <r>    1.5778    0.0000 </r>
      </set>
      <set comment="kpoint 25">
       <r>  -27.7118    1.0000 </r>
       <r>  -27.7084    1.0000 </r>
       <r>  -27.7072    1.0000 </r>
       <r>  -27.6993    1.0000 </r>
       <r>  -27.6991    1.0000 </r>
       <r>  -27.6833    1.0000 </r>
       <r>  -27.6833    1.0000 </r>
       <r>  -27.6791    1.0000 </r>
       <r>  -27.6676    1.0000 </r>
       <r>  -27.6626    1.0000 </r>
       <r>  -16.7401    1.0000 </r>
       <r>  -15.3014    1.0000 </r>
       <r>  -15.2872    1.0000 </r>
       <r>  -14.7858    1.0000 </r>
       <r>  -11.2117    1.0000 </r>
       <r>   -9.3484    1.0000 </r>
       <r>   -7.3179    1.0000 </r>
       <r>   -6.0172    1.0000 </r>
       <r>   -5.7406    1.0000 </r>
       <r>   -5.7224    1.0000 </r>
       <r>   -5.4149    1.0000 </r>
       <r>   -4.8310    1.0000 </r>
       <r>   -4.6962    1.0000 </r>
       <r>   -3.9018    1.0000 </r>
       <r>   -3.1707    1.0000 </r>
       <r>   -2.9575    1.0000 </r>
       <r>   -1.0977    0.0000 </r>
       <r>   -0.8458    0.0000 </r>
       <r>    0.3244    0.0000 </r>
       <r>    0.3797    0.0000 </r>
       <r>    0.9483    0.0000 </r>
       <r>    1.7420    0.0000 </r>
      </set>
      <set comment="kpoint 26">
       <r>  -27.7118    1.0000 </r>
       <r>  -27.7083    1.0000 </r>
       <r>  -27.7070    1.0000 </r>
       <r>  -27.6997    1.0000 </r>
       <r>  -27.6989    1.0000 </r>
       <r>  -27.6837    1.0000 </r>
       <r>  -27.6832    1.0000 </r>
       <r>  -27.6791    1.0000 </r>
       <r>  -27.6675    1.0000 </r>
       <r>  -27.6626    1.0000 </r>
       <r>  -16.7249    1.0000 </r>
       <r>  -15.2962    1.0000 </r>
       <r>  -15.2950    1.0000 </r>
       <r>  -14.8014    1.0000 </r>
       <r>  -11.1991    1.0000 </r>
       <r>   -9.3744    1.0000 </r>
       <r>   -7.2902    1.0000 </r>
       <r>   -6.0540    1.0000 </r>
       <r>   -6.0379    1.0000 </r>
       <r>   -5.4428    1.0000 </r>
       <r>   -5.4279    1.0000 </r>
       <r>   -4.7679    1.0000 </r>
       <r>   -4.7190    1.0000 </r>
       <r>   -3.8848    1.0000 </r>
       <r>   -3.3237    1.0000 </r>
       <r>   -2.8235    1.0000 </r>
       <r>   -1.0854    0.0000 </r>
       <r>   -0.9611    0.0000 </r>
       <r>    0.4113    0.0000 </r>
       <r>    0.4829    0.0000 </r>
       <r>    0.9875    0.0000 </r>
       <r>    1.6314    0.0000 </r>
      </set>
      <set comment="kpoint 27">
       <r>  -27.7118    1.0000 </r>
       <r>  -27.7082    1.0000 </r>
       <r>  -27.7065    1.0000 </r>
       <r>  -27.7001    1.0000 </r>
       <r>  -27.6986    1.0000 </r>
       <r>  -27.6846    1.0000 </r>
       <r>  -27.6830    1.0000 </r>
       <r>  -27.6790    1.0000 </r>
       <r>  -27.6673    1.0000 </r>
       <r>  -27.6628    1.0000 </r>
       <r>  -16.6794    1.0000 </r>
       <r>  -15.3213    1.0000 </r>
       <r>  -15.2810    1.0000 </r>
       <r>  -14.8440    1.0000 </r>
       <r>  -11.1607    1.0000 </r>
       <r>   -9.4519    1.0000 </r>
       <r>   -7.2092    1.0000 </r>
       <r>   -6.3109    1.0000 </r>
       <r>   -6.1557    1.0000 </r>
       <r>   -5.4782    1.0000 </r>
       <r>   -5.1770    1.0000 </r>
       <r>   -4.7870    1.0000 </r>
       <r>   -4.6421    1.0000 </r>
       <r>   -3.8275    1.0000 </r>
       <r>   -3.5376    1.0000 </r>
       <r>   -2.6656    1.0000 </r>
       <r>   -1.1597    0.0000 </r>
       <r>   -1.0455    0.0000 </r>
       <r>    0.4975    0.0000 </r>
       <r>    0.8044    0.0000 </r>
       <r>    1.1021    0.0000 </r>
       <r>    1.4928    0.0000 </r>
      </set>
      <set comment="kpoint 28">
       <r>  -27.7117    1.0000 </r>
       <r>  -27.7081    1.0000 </r>
       <r>  -27.7058    1.0000 </r>
       <r>  -27.7004    1.0000 </r>
       <r>  -27.6984    1.0000 </r>
       <r>  -27.6860    1.0000 </r>
       <r>  -27.6826    1.0000 </r>
       <r>  -27.6789    1.0000 </r>
       <r>  -27.6670    1.0000 </r>
       <r>  -27.6630    1.0000 </r>
       <r>  -16.6050    1.0000 </r>
       <r>  -15.3741    1.0000 </r>
       <r>  -15.2572    1.0000 </r>
       <r>  -14.9013    1.0000 </r>
       <r>  -11.0956    1.0000 </r>
       <r>   -9.5784    1.0000 </r>
       <r>   -7.0822    1.0000 </r>
       <r>   -6.5296    1.0000 </r>
       <r>   -6.2889    1.0000 </r>
       <r>   -5.4841    1.0000 </r>
       <r>   -5.0339    1.0000 </r>
       <r>   -4.8971    1.0000 </r>
       <r>   -4.5316    1.0000 </r>
       <r>   -3.7244    1.0000 </r>
       <r>   -3.7198    1.0000 </r>
       <r>   -2.5702    1.0000 </r>
       <r>   -1.2780    0.0000 </r>
       <r>   -0.9738    0.0000 </r>
       <r>    0.6196    0.0000 </r>
       <r>    1.0487    0.0000 </r>
       <r>    1.2758    0.0000 </r>
       <r>    1.4903    0.0000 </r>
      </set>
      <set comment="kpoint 29">
       <r>  -27.7115    1.0000 </r>
       <r>  -27.7081    1.0000 </r>
       <r>  -27.7050    1.0000 </r>
       <r>  -27.7006    1.0000 </r>
       <r>  -27.6981    1.0000 </r>
       <r>  -27.6876    1.0000 </r>
       <r>  -27.6821    1.0000 </r>
       <r>  -27.6789    1.0000 </r>
       <r>  -27.6666    1.0000 </r>
       <r>  -27.6633    1.0000 </r>
       <r>  -16.5035    1.0000 </r>
       <r>  -15.4624    1.0000 </r>
       <r>  -15.2265    1.0000 </r>
       <r>  -14.9579    1.0000 </r>
       <r>  -11.0026    1.0000 </r>
       <r>   -9.7464    1.0000 </r>
       <r>   -6.9273    1.0000 </r>
       <r>   -6.6862    1.0000 </r>
       <r>   -6.4055    1.0000 </r>
       <r>   -5.4675    1.0000 </r>
       <r>   -5.0446    1.0000 </r>
       <r>   -5.0261    1.0000 </r>
       <r>   -4.4571    1.0000 </r>
       <r>   -3.8715    1.0000 </r>
       <r>   -3.5680    1.0000 </r>
       <r>   -2.5522    1.0000 </r>
       <r>   -1.2560    0.0000 </r>
       <r>   -0.8753    0.0000 </r>
       <r>    0.7640    0.0000 </r>
       <r>    1.0691    0.0000 </r>
       <r>    1.4678    0.0000 </r>
       <r>    1.7356    0.0000 </r>
      </set>
      <set comment="kpoint 30">
       <r>  -27.7112    1.0000 </r>
       <r>  -27.7084    1.0000 </r>
       <r>  -27.7041    1.0000 </r>
       <r>  -27.7007    1.0000 </r>
       <r>  -27.6976    1.0000 </r>
       <r>  -27.6895    1.0000 </r>
       <r>  -27.6815    1.0000 </r>
       <r>  -27.6791    1.0000 </r>
       <r>  -27.6661    1.0000 </r>
       <r>  -27.6637    1.0000 </r>
       <r>  -16.3779    1.0000 </r>
       <r>  -15.5872    1.0000 </r>
       <r>  -15.1914    1.0000 </r>
       <r>  -15.0054    1.0000 </r>
       <r>  -10.8812    1.0000 </r>
       <r>   -9.9430    1.0000 </r>
       <r>   -6.8050    1.0000 </r>
       <r>   -6.7845    1.0000 </r>
       <r>   -6.4294    1.0000 </r>
       <r>   -5.4406    1.0000 </r>
       <r>   -5.2328    1.0000 </r>
       <r>   -5.1156    1.0000 </r>
       <r>   -4.4017    1.0000 </r>
       <r>   -3.9892    1.0000 </r>
       <r>   -3.3926    1.0000 </r>
       <r>   -2.6068    1.0000 </r>
       <r>   -1.1143    0.0000 </r>
       <r>   -0.7719    0.0000 </r>
       <r>    0.9258    0.0000 </r>
       <r>    1.0635    0.0000 </r>
       <r>    1.6168    0.0000 </r>
       <r>    2.0174    0.0000 </r>
      </set>
      <set comment="kpoint 31">
       <r>  -27.7108    1.0000 </r>
       <r>  -27.7089    1.0000 </r>
       <r>  -27.7032    1.0000 </r>
       <r>  -27.7010    1.0000 </r>
       <r>  -27.6966    1.0000 </r>
       <r>  -27.6914    1.0000 </r>
       <r>  -27.6809    1.0000 </r>
       <r>  -27.6794    1.0000 </r>
       <r>  -27.6656    1.0000 </r>
       <r>  -27.6641    1.0000 </r>
       <r>  -16.2323    1.0000 </r>
       <r>  -15.7389    1.0000 </r>
       <r>  -15.1543    1.0000 </r>
       <r>  -15.0449    1.0000 </r>
       <r>  -10.7320    1.0000 </r>
       <r>  -10.1529    1.0000 </r>
       <r>   -6.8342    1.0000 </r>
       <r>   -6.7952    1.0000 </r>
       <r>   -6.2780    1.0000 </r>
       <r>   -5.4738    1.0000 </r>
       <r>   -5.4084    1.0000 </r>
       <r>   -5.2225    1.0000 </r>
       <r>   -4.3440    1.0000 </r>
       <r>   -4.0928    1.0000 </r>
       <r>   -3.2106    1.0000 </r>
       <r>   -2.7169    1.0000 </r>
       <r>   -0.9263    0.0000 </r>
       <r>   -0.6989    0.0000 </r>
       <r>    1.1007    0.0000 </r>
       <r>    1.1228    0.0000 </r>
       <r>    1.6678    0.0000 </r>
       <r>    1.8972    0.0000 </r>
      </set>
      <set comment="kpoint 32">
       <r>  -27.7102    1.0000 </r>
       <r>  -27.7095    1.0000 </r>
       <r>  -27.7023    1.0000 </r>
       <r>  -27.7016    1.0000 </r>
       <r>  -27.6951    1.0000 </r>
       <r>  -27.6934    1.0000 </r>
       <r>  -27.6804    1.0000 </r>
       <r>  -27.6799    1.0000 </r>
       <r>  -27.6651    1.0000 </r>
       <r>  -27.6646    1.0000 </r>
       <r>  -16.0722    1.0000 </r>
       <r>  -15.9046    1.0000 </r>
       <r>  -15.1173    1.0000 </r>
       <r>  -15.0811    1.0000 </r>
       <r>  -10.5571    1.0000 </r>
       <r>  -10.3615    1.0000 </r>
       <r>   -6.8454    1.0000 </r>
       <r>   -6.8274    1.0000 </r>
       <r>   -6.0283    1.0000 </r>
       <r>   -5.7492    1.0000 </r>
       <r>   -5.3672    1.0000 </r>
       <r>   -5.3078    1.0000 </r>
       <r>   -4.2731    1.0000 </r>
       <r>   -4.1881    1.0000 </r>
       <r>   -3.0317    1.0000 </r>
       <r>   -2.8636    1.0000 </r>
       <r>   -0.7699    0.0000 </r>
       <r>   -0.6915    0.0000 </r>
       <r>    1.2348    0.0000 </r>
       <r>    1.2506    0.0000 </r>
       <r>    1.6332    0.0000 </r>
       <r>    1.7041    0.0000 </r>
      </set>
      <set comment="kpoint 33">
       <r>  -27.7110    1.0000 </r>
       <r>  -27.7079    1.0000 </r>
       <r>  -27.7063    1.0000 </r>
       <r>  -27.7003    1.0000 </r>
       <r>  -27.6982    1.0000 </r>
       <r>  -27.6857    1.0000 </r>
       <r>  -27.6828    1.0000 </r>
       <r>  -27.6796    1.0000 </r>
       <r>  -27.6670    1.0000 </r>
       <r>  -27.6632    1.0000 </r>
       <r>  -16.6068    1.0000 </r>
       <r>  -15.5279    1.0000 </r>
       <r>  -15.2406    1.0000 </r>
       <r>  -14.8489    1.0000 </r>
       <r>  -10.9008    1.0000 </r>
       <r>   -9.4909    1.0000 </r>
       <r>   -7.2068    1.0000 </r>
       <r>   -6.0987    1.0000 </r>
       <r>   -6.0376    1.0000 </r>
       <r>   -5.9384    1.0000 </r>
       <r>   -5.3403    1.0000 </r>
       <r>   -4.7711    1.0000 </r>
       <r>   -4.6546    1.0000 </r>
       <r>   -3.7510    1.0000 </r>
       <r>   -3.4391    1.0000 </r>
       <r>   -3.0771    1.0000 </r>
       <r>   -0.9033    0.0000 </r>
       <r>   -0.4800    0.0000 </r>
       <r>    0.4998    0.0000 </r>
       <r>    1.0036    0.0000 </r>
       <r>    1.1061    0.0000 </r>
       <r>    1.4777    0.0000 </r>
      </set>
      <set comment="kpoint 34">
       <r>  -27.7111    1.0000 </r>
       <r>  -27.7079    1.0000 </r>
       <r>  -27.7060    1.0000 </r>
       <r>  -27.7003    1.0000 </r>
       <r>  -27.6982    1.0000 </r>
       <r>  -27.6860    1.0000 </r>
       <r>  -27.6827    1.0000 </r>
       <r>  -27.6795    1.0000 </r>
       <r>  -27.6669    1.0000 </r>
       <r>  -27.6632    1.0000 </r>
       <r>  -16.5930    1.0000 </r>
       <r>  -15.5310    1.0000 </r>
       <r>  -15.2368    1.0000 </r>
       <r>  -14.8595    1.0000 </r>
       <r>  -10.9047    1.0000 </r>
       <r>   -9.5241    1.0000 </r>
       <r>   -7.1683    1.0000 </r>
       <r>   -6.2741    1.0000 </r>
       <r>   -6.1288    1.0000 </r>
       <r>   -5.6705    1.0000 </r>
       <r>   -5.3729    1.0000 </r>
       <r>   -4.8042    1.0000 </r>
       <r>   -4.6050    1.0000 </r>
       <r>   -3.7262    1.0000 </r>
       <r>   -3.5548    1.0000 </r>
       <r>   -2.9528    1.0000 </r>
       <r>   -0.8926    0.0000 </r>
       <r>   -0.6061    0.0000 </r>
       <r>    0.5191    0.0000 </r>
       <r>    1.0951    0.0000 </r>
       <r>    1.1444    0.0000 </r>
       <r>    1.4224    0.0000 </r>
      </set>
      <set comment="kpoint 35">
       <r>  -27.7113    1.0000 </r>
       <r>  -27.7081    1.0000 </r>
       <r>  -27.7055    1.0000 </r>
       <r>  -27.7002    1.0000 </r>
       <r>  -27.6982    1.0000 </r>
       <r>  -27.6868    1.0000 </r>
       <r>  -27.6824    1.0000 </r>
       <r>  -27.6793    1.0000 </r>
       <r>  -27.6668    1.0000 </r>
       <r>  -27.6633    1.0000 </r>
       <r>  -16.5520    1.0000 </r>
       <r>  -15.5419    1.0000 </r>
       <r>  -15.2260    1.0000 </r>
       <r>  -14.8895    1.0000 </r>
       <r>  -10.9126    1.0000 </r>
       <r>   -9.6200    1.0000 </r>
       <r>   -7.0568    1.0000 </r>
       <r>   -6.5006    1.0000 </r>
       <r>   -6.2173    1.0000 </r>
       <r>   -5.4235    1.0000 </r>
       <r>   -5.3629    1.0000 </r>
       <r>   -4.8991    1.0000 </r>
       <r>   -4.5122    1.0000 </r>
       <r>   -3.7310    1.0000 </r>
       <r>   -3.6448    1.0000 </r>
       <r>   -2.7567    1.0000 </r>
       <r>   -0.8728    0.0000 </r>
       <r>   -0.8619    0.0000 </r>
       <r>    0.5745    0.0000 </r>
       <r>    1.1432    0.0000 </r>
       <r>    1.2556    0.0000 </r>
       <r>    1.5038    0.0000 </r>
[...]
       <r>    1.4378    0.0000 </r>
       <r>    1.4659    0.0000 </r>
      </set>
      <set comment="kpoint 54">
       <r>  -27.7113    1.0000 </r>
       <r>  -27.7108    1.0000 </r>
       <r>  -27.7004    1.0000 </r>
       <r>  -27.6995    1.0000 </r>
       <r>  -27.6965    1.0000 </r>
       <r>  -27.6948    1.0000 </r>
       <r>  -27.6799    1.0000 </r>
       <r>  -27.6794    1.0000 </r>
       <r>  -27.6649    1.0000 </r>
       <r>  -27.6646    1.0000 </r>
       <r>  -16.0516    1.0000 </r>
       <r>  -15.9225    1.0000 </r>
       <r>  -15.1055    1.0000 </r>
       <r>  -15.0767    1.0000 </r>
       <r>  -10.6874    1.0000 </r>
       <r>  -10.5380    1.0000 </r>
       <r>   -6.8239    1.0000 </r>
       <r>   -6.7789    1.0000 </r>
       <r>   -5.8160    1.0000 </r>
       <r>   -5.6413    1.0000 </r>
       <r>   -5.2020    1.0000 </r>
       <r>   -5.0160    1.0000 </r>
       <r>   -4.3301    1.0000 </r>
       <r>   -4.2612    1.0000 </r>
       <r>   -2.6237    1.0000 </r>
       <r>   -2.4821    1.0000 </r>
       <r>   -1.1873    0.0000 </r>
       <r>   -0.9941    0.0000 </r>
       <r>    1.1828    0.0000 </r>
       <r>    1.2501    0.0000 </r>
       <r>    1.4708    0.0000 </r>
       <r>    1.5274    0.0000 </r>
      </set>
      <set comment="kpoint 55">
       <r>  -27.7116    1.0000 </r>
       <r>  -27.7112    1.0000 </r>
       <r>  -27.6996    1.0000 </r>
       <r>  -27.6986    1.0000 </r>
       <r>  -27.6972    1.0000 </r>
       <r>  -27.6958    1.0000 </r>
       <r>  -27.6795    1.0000 </r>
       <r>  -27.6793    1.0000 </r>
       <r>  -27.6648    1.0000 </r>
       <r>  -27.6645    1.0000 </r>
       <r>  -15.9951    1.0000 </r>
       <r>  -15.9120    1.0000 </r>
       <r>  -15.1119    1.0000 </r>
       <r>  -15.0966    1.0000 </r>
       <r>  -10.7502    1.0000 </r>
       <r>  -10.6579    1.0000 </r>
       <r>   -6.8452    1.0000 </r>
       <r>   -6.8155    1.0000 </r>
       <r>   -5.7850    1.0000 </r>
       <r>   -5.6971    1.0000 </r>
       <r>   -5.0255    1.0000 </r>
       <r>   -4.8697    1.0000 </r>
       <r>   -4.3603    1.0000 </r>
       <r>   -4.3107    1.0000 </r>
       <r>   -2.4780    1.0000 </r>
       <r>   -2.3925    1.0000 </r>
       <r>   -1.3367    0.0000 </r>
       <r>   -1.1823    0.0000 </r>
       <r>    1.2143    0.0000 </r>
       <r>    1.3674    0.0000 </r>
       <r>    1.4542    0.0000 </r>
       <r>    1.5702    0.0000 </r>
      </set>
      <set comment="kpoint 56">
       <r>  -27.7116    1.0000 </r>
       <r>  -27.7115    1.0000 </r>
       <r>  -27.6988    1.0000 </r>
       <r>  -27.6981    1.0000 </r>
       <r>  -27.6975    1.0000 </r>
       <r>  -27.6967    1.0000 </r>
       <r>  -27.6793    1.0000 </r>
       <r>  -27.6792    1.0000 </r>
       <r>  -27.6647    1.0000 </r>
       <r>  -27.6646    1.0000 </r>
       <r>  -15.9488    1.0000 </r>
       <r>  -15.9201    1.0000 </r>
       <r>  -15.1145    1.0000 </r>
       <r>  -15.1099    1.0000 </r>
       <r>  -10.7680    1.0000 </r>
       <r>  -10.7368    1.0000 </r>
       <r>   -6.8538    1.0000 </r>
       <r>   -6.8438    1.0000 </r>
       <r>   -5.7592    1.0000 </r>
       <r>   -5.7328    1.0000 </r>
       <r>   -4.8849    1.0000 </r>
       <r>   -4.8259    1.0000 </r>
       <r>   -4.3637    1.0000 </r>
       <r>   -4.3439    1.0000 </r>
       <r>   -2.3916    1.0000 </r>
       <r>   -2.3643    1.0000 </r>
       <r>   -1.3822    0.0000 </r>
       <r>   -1.3238    0.0000 </r>
       <r>    1.2767    0.0000 </r>
       <r>    1.3521    0.0000 </r>
       <r>    1.4998    0.0000 </r>
       <r>    1.5559    0.0000 </r>
      </set>
     </set>
    </set>
   </array>
  </eigenvalues>
  <separator name="orbital magnetization" >
   <v name="MAGDIPOLOUT">      0.00000000      0.00000000      0.00000000</v>
  </separator>
  <dos>
   <i name="efermi">     -2.19556749 </i>
   <total>
    <array>
     <dimension dim="1">gridpoints</dimension>
     <dimension dim="2">spin</dimension>
     <field>energy</field>
     <field>total</field>
     <field>integrated</field>
     <set>
      <set comment="spin 1">
       <r>   -29.2032     0.0000     0.0000 </r>
       <r>   -29.0939     0.0000     0.0000 </r>
       <r>   -28.9846     0.0000     0.0000 </r>
       <r>   -28.8753     0.0000     0.0000 </r>
       <r>   -28.7660     0.0000     0.0000 </r>
       <r>   -28.6567     0.0000     0.0000 </r>
       <r>   -28.5475     0.0000     0.0000 </r>
       <r>   -28.4382     0.0000     0.0000 </r>
       <r>   -28.3289     0.0000     0.0000 </r>
       <r>   -28.2196     0.0000     0.0000 </r>
       <r>   -28.1103     0.0000     0.0000 </r>
       <r>   -28.0010     0.0000     0.0000 </r>
       <r>   -27.8917     0.0000     0.0000 </r>
       <r>   -27.7824     0.0000     0.0000 </r>
       <r>   -27.6732   141.2445    15.4362 </r>
       <r>   -27.5639    41.7594    20.0000 </r>
       <r>   -27.4546     0.0000    20.0000 </r>
       <r>   -27.3453     0.0000    20.0000 </r>
       <r>   -27.2360     0.0000    20.0000 </r>
       <r>   -27.1267     0.0000    20.0000 </r>
       <r>   -27.0174     0.0000    20.0000 </r>
       <r>   -26.9082     0.0000    20.0000 </r>
       <r>   -26.7989     0.0000    20.0000 </r>
       <r>   -26.6896     0.0000    20.0000 </r>
       <r>   -26.5803     0.0000    20.0000 </r>
       <r>   -26.4710     0.0000    20.0000 </r>
       <r>   -26.3617     0.0000    20.0000 </r>
       <r>   -26.2524     0.0000    20.0000 </r>
       <r>   -26.1431     0.0000    20.0000 </r>
       <r>   -26.0339     0.0000    20.0000 </r>
       <r>   -25.9246     0.0000    20.0000 </r>
       <r>   -25.8153     0.0000    20.0000 </r>
       <r>   -25.7060     0.0000    20.0000 </r>
       <r>   -25.5967     0.0000    20.0000 </r>
       <r>   -25.4874     0.0000    20.0000 </r>
       <r>   -25.3781     0.0000    20.0000 </r>
       <r>   -25.2688     0.0000    20.0000 </r>
       <r>   -25.1596     0.0000    20.0000 </r>
       <r>   -25.0503     0.0000    20.0000 </r>
       <r>   -24.9410     0.0000    20.0000 </r>
       <r>   -24.8317     0.0000    20.0000 </r>
       <r>   -24.7224     0.0000    20.0000 </r>
       <r>   -24.6131     0.0000    20.0000 </r>
       <r>   -24.5038     0.0000    20.0000 </r>
       <r>   -24.3945     0.0000    20.0000 </r>
       <r>   -24.2853     0.0000    20.0000 </r>
       <r>   -24.1760     0.0000    20.0000 </r>
       <r>   -24.0667     0.0000    20.0000 </r>
       <r>   -23.9574     0.0000    20.0000 </r>
       <r>   -23.8481     0.0000    20.0000 </r>
       <r>   -23.7388     0.0000    20.0000 </r>
       <r>   -23.6295     0.0000    20.0000 </r>
       <r>   -23.5202     0.0000    20.0000 </r>
       <r>   -23.4110     0.0000    20.0000 </r>
       <r>   -23.3017     0.0000    20.0000 </r>
       <r>   -23.1924     0.0000    20.0000 </r>
       <r>   -23.0831     0.0000    20.0000 </r>
       <r>   -22.9738     0.0000    20.0000 </r>
       <r>   -22.8645     0.0000    20.0000 </r>
       <r>   -22.7552     0.0000    20.0000 </r>
       <r>   -22.6459     0.0000    20.0000 </r>
       <r>   -22.5367     0.0000    20.0000 </r>
       <r>   -22.4274     0.0000    20.0000 </r>
       <r>   -22.3181     0.0000    20.0000 </r>
       <r>   -22.2088     0.0000    20.0000 </r>
       <r>   -22.0995     0.0000    20.0000 </r>
       <r>   -21.9902     0.0000    20.0000 </r>
       <r>   -21.8809     0.0000    20.0000 </r>
       <r>   -21.7716     0.0000    20.0000 </r>
       <r>   -21.6624     0.0000    20.0000 </r>
       <r>   -21.5531     0.0000    20.0000 </r>
       <r>   -21.4438     0.0000    20.0000 </r>
       <r>   -21.3345     0.0000    20.0000 </r>
       <r>   -21.2252     0.0000    20.0000 </r>
       <r>   -21.1159     0.0000    20.0000 </r>
       <r>   -21.0066     0.0000    20.0000 </r>
       <r>   -20.8974     0.0000    20.0000 </r>
       <r>   -20.7881     0.0000    20.0000 </r>
       <r>   -20.6788     0.0000    20.0000 </r>
       <r>   -20.5695     0.0000    20.0000 </r>
       <r>   -20.4602     0.0000    20.0000 </r>
       <r>   -20.3509     0.0000    20.0000 </r>
       <r>   -20.2416     0.0000    20.0000 </r>
       <r>   -20.1323     0.0000    20.0000 </r>
       <r>   -20.0231     0.0000    20.0000 </r>
       <r>   -19.9138     0.0000    20.0000 </r>
       <r>   -19.8045     0.0000    20.0000 </r>
       <r>   -19.6952     0.0000    20.0000 </r>
       <r>   -19.5859     0.0000    20.0000 </r>
       <r>   -19.4766     0.0000    20.0000 </r>
       <r>   -19.3673     0.0000    20.0000 </r>
       <r>   -19.2580     0.0000    20.0000 </r>
       <r>   -19.1488     0.0000    20.0000 </r>
       <r>   -19.0395     0.0000    20.0000 </r>
       <r>   -18.9302     0.0000    20.0000 </r>
       <r>   -18.8209     0.0000    20.0000 </r>
       <r>   -18.7116     0.0000    20.0000 </r>
       <r>   -18.6023     0.0000    20.0000 </r>
       <r>   -18.4930     0.0000    20.0000 </r>
       <r>   -18.3837     0.0000    20.0000 </r>
       <r>   -18.2745     0.0000    20.0000 </r>
       <r>   -18.1652     0.0000    20.0000 </r>
       <r>   -18.0559     0.0000    20.0000 </r>
       <r>   -17.9466     0.0000    20.0000 </r>
       <r>   -17.8373     0.0000    20.0000 </r>
       <r>   -17.7280     0.0000    20.0000 </r>
       <r>   -17.6187     0.0000    20.0000 </r>
       <r>   -17.5094     0.0000    20.0000 </r>
       <r>   -17.4002     0.0000    20.0000 </r>
       <r>   -17.2909     0.0000    20.0000 </r>
       <r>   -17.1816     0.0000    20.0000 </r>
       <r>   -17.0723     0.0000    20.0000 </r>
       <r>   -16.9630     0.0000    20.0000 </r>
       <r>   -16.8537     0.9318    20.1018 </r>
       <r>   -16.7444     1.8823    20.3075 </r>
       <r>   -16.6351     1.7294    20.4965 </r>
       <r>   -16.5259     1.9545    20.7101 </r>
       <r>   -16.4166     2.1761    20.9480 </r>
       <r>   -16.3073     2.0848    21.1758 </r>
       <r>   -16.1980     2.3819    21.4361 </r>
       <r>   -16.0887     2.6225    21.7227 </r>
       <r>   -15.9794     3.0120    22.0519 </r>
       <r>   -15.8701     4.3964    22.5324 </r>
       <r>   -15.7608     2.4807    22.8035 </r>
       <r>   -15.6516     2.0268    23.0250 </r>
       <r>   -15.5423     1.4223    23.1804 </r>
       <r>   -15.4330     1.9516    23.3937 </r>
       <r>   -15.3237     3.2246    23.7461 </r>
       <r>   -15.2144     6.6105    24.4686 </r>
       <r>   -15.1051     9.9309    25.5539 </r>
       <r>   -14.9958    11.0642    26.7631 </r>
       <r>   -14.8866     6.7233    27.4979 </r>
       <r>   -14.7773     3.1662    27.8439 </r>
       <r>   -14.6680     1.4262    27.9998 </r>
       <r>   -14.5587     0.0022    28.0000 </r>
       <r>   -14.4494     0.0000    28.0000 </r>
       <r>   -14.3401     0.0000    28.0000 </r>
       <r>   -14.2308     0.0000    28.0000 </r>
       <r>   -14.1215     0.0000    28.0000 </r>
       <r>   -14.0123     0.0000    28.0000 </r>
       <r>   -13.9030     0.0000    28.0000 </r>
       <r>   -13.7937     0.0000    28.0000 </r>
       <r>   -13.6844     0.0000    28.0000 </r>
       <r>   -13.5751     0.0000    28.0000 </r>
       <r>   -13.4658     0.0000    28.0000 </r>
       <r>   -13.3565     0.0000    28.0000 </r>
       <r>   -13.2472     0.0000    28.0000 </r>
       <r>   -13.1380     0.0000    28.0000 </r>
       <r>   -13.0287     0.0000    28.0000 </r>
       <r>   -12.9194     0.0000    28.0000 </r>
       <r>   -12.8101     0.0000    28.0000 </r>
       <r>   -12.7008     0.0000    28.0000 </r>
       <r>   -12.5915     0.0000    28.0000 </r>
       <r>   -12.4822     0.0000    28.0000 </r>
       <r>   -12.3729     0.0000    28.0000 </r>
       <r>   -12.2637     0.0000    28.0000 </r>
       <r>   -12.1544     0.0000    28.0000 </r>
       <r>   -12.0451     0.0000    28.0000 </r>
       <r>   -11.9358     0.0000    28.0000 </r>
       <r>   -11.8265     0.0000    28.0000 </r>
       <r>   -11.7172     0.0556    28.0061 </r>
       <r>   -11.6079     0.6750    28.0798 </r>
       <r>   -11.4986     0.5226    28.1370 </r>
       <r>   -11.3894     0.7352    28.2173 </r>
       <r>   -11.2801     0.9211    28.3180 </r>
       <r>   -11.1708     1.0185    28.4293 </r>
       <r>   -11.0615     1.5169    28.5951 </r>
       <r>   -10.9522     0.4702    28.6464 </r>
       <r>   -10.8429     3.2694    29.0037 </r>
       <r>   -10.7336     2.9785    29.3293 </r>
       <r>   -10.6243     3.1073    29.6688 </r>
       <r>   -10.5151     2.7172    29.9658 </r>
       <r>   -10.4058     1.1064    30.0867 </r>
       <r>   -10.2965     2.3682    30.3455 </r>
       <r>   -10.1872     1.3521    30.4933 </r>
       <r>   -10.0779     1.6395    30.6725 </r>
       <r>    -9.9686     1.4116    30.8267 </r>
       <r>    -9.8593     1.1522    30.9527 </r>
       <r>    -9.7500     1.6789    31.1361 </r>
       <r>    -9.6408     1.0715    31.2532 </r>
       <r>    -9.5315     1.5967    31.4277 </r>
       <r>    -9.4222     1.6708    31.6103 </r>
       <r>    -9.3129     1.5234    31.7768 </r>
       <r>    -9.2036     1.7809    31.9715 </r>
       <r>    -9.0943     0.2611    32.0000 </r>
       <r>    -8.9850     0.0000    32.0000 </r>
       <r>    -8.8758     0.0000    32.0000 </r>
       <r>    -8.7665     0.0000    32.0000 </r>
       <r>    -8.6572     0.0000    32.0000 </r>
       <r>    -8.5479     0.0000    32.0000 </r>
       <r>    -8.4386     0.0000    32.0000 </r>
       <r>    -8.3293     0.0000    32.0000 </r>
       <r>    -8.2200     0.0000    32.0000 </r>
       <r>    -8.1107     0.0000    32.0000 </r>
       <r>    -8.0015     0.0000    32.0000 </r>
       <r>    -7.8922     0.0000    32.0000 </r>
       <r>    -7.7829     0.0000    32.0000 </r>
       <r>    -7.6736     0.0000    32.0000 </r>
       <r>    -7.5643     0.0000    32.0000 </r>
       <r>    -7.4550     0.1144    32.0125 </r>
       <r>    -7.3457     2.7203    32.3098 </r>
       <r>    -7.2364     2.1922    32.5494 </r>
       <r>    -7.1272     1.8280    32.7492 </r>
       <r>    -7.0179     2.0299    32.9710 </r>
       <r>    -6.9086     1.7764    33.1651 </r>
       <r>    -6.7993     8.7067    34.1167 </r>
       <r>    -6.6900     6.8374    34.8639 </r>
       <r>    -6.5807     2.7958    35.1695 </r>
       <r>    -6.4714     2.0442    35.3929 </r>
       <r>    -6.3621     1.5941    35.5671 </r>
       <r>    -6.2529     3.3692    35.9353 </r>
       <r>    -6.1436     5.0929    36.4919 </r>
       <r>    -6.0343     6.4711    37.1991 </r>
       <r>    -5.9250     3.4474    37.5759 </r>
       <r>    -5.8157     3.8144    37.9927 </r>
       <r>    -5.7064     4.7163    38.5082 </r>
       <r>    -5.5971     4.2547    38.9731 </r>
       <r>    -5.4878     5.6875    39.5947 </r>
       <r>    -5.3786     7.8444    40.4520 </r>
       <r>    -5.2693     7.1876    41.2375 </r>
       <r>    -5.1600     6.5394    41.9522 </r>
       <r>    -5.0507     4.3151    42.4238 </r>
       <r>    -4.9414     5.2056    42.9927 </r>
       <r>    -4.8321     5.3934    43.5821 </r>
       <r>    -4.7228     3.5913    43.9746 </r>
       <r>    -4.6135     4.4834    44.4646 </r>
       <r>    -4.5043     1.7979    44.6611 </r>
       <r>    -4.3950     3.5491    45.0490 </r>
       <r>    -4.2857     7.0616    45.8207 </r>
       <r>    -4.1764     4.9059    46.3569 </r>
       <r>    -4.0671     3.7613    46.7679 </r>
       <r>    -3.9578     4.4138    47.2503 </r>
       <r>    -3.8485     3.5877    47.6424 </r>
       <r>    -3.7393     2.3199    47.8959 </r>
       <r>    -3.6300     3.1641    48.2417 </r>
       <r>    -3.5207     2.9977    48.5694 </r>
       <r>    -3.4114     2.2558    48.8159 </r>
       <r>    -3.3021     3.1109    49.1559 </r>
       <r>    -3.1928     2.4348    49.4220 </r>
       <r>    -3.0835     2.3691    49.6809 </r>
       <r>    -2.9742     2.5534    49.9599 </r>
       <r>    -2.8650     2.9318    50.2803 </r>
       <r>    -2.7557     3.4714    50.6597 </r>
       <r>    -2.6464     4.1985    51.1186 </r>
       <r>    -2.5371     3.2831    51.4774 </r>
       <r>    -2.4278     3.0115    51.8065 </r>
       <r>    -2.3185     1.7703    52.0000 </r>
       <r>    -2.2092     0.0002    52.0000 </r>
       <r>    -2.0999     0.0000    52.0000 </r>
       <r>    -1.9907     0.0000    52.0000 </r>
       <r>    -1.8814     0.0000    52.0000 </r>
       <r>    -1.7721     0.0000    52.0000 </r>
       <r>    -1.6628     0.0198    52.0022 </r>
       <r>    -1.5535     0.1561    52.0192 </r>
       <r>    -1.4442     0.6685    52.0923 </r>
       <r>    -1.3349     1.5618    52.2630 </r>
       <r>    -1.2256     5.7873    52.8954 </r>
       <r>    -1.1164     4.0146    53.3342 </r>
       <r>    -1.0071     3.2709    53.6917 </r>
       <r>    -0.8978     3.4991    54.0741 </r>
       <r>    -0.7885     4.5271    54.5688 </r>
       <r>    -0.6792     3.8776    54.9926 </r>
       <r>    -0.5699     4.0281    55.4328 </r>
       <r>    -0.4606     2.2681    55.6807 </r>
       <r>    -0.3513     1.4647    55.8408 </r>
       <r>    -0.2421     2.0318    56.0628 </r>
       <r>    -0.1328     0.6822    56.1374 </r>
       <r>    -0.0235     0.7131    56.2153 </r>
       <r>     0.0858     0.0006    56.2154 </r>
       <r>     0.1951     0.1976    56.2370 </r>
       <r>     0.3044     1.1331    56.3608 </r>
       <r>     0.4137     2.0585    56.5858 </r>
       <r>     0.5230     1.7887    56.7813 </r>
       <r>     0.6322     1.8713    56.9858 </r>
       <r>     0.7415     2.1404    57.2197 </r>
       <r>     0.8508     4.3618    57.6964 </r>
       <r>     0.9601     2.8008    58.0025 </r>
       <r>     1.0694     6.1861    58.6786 </r>
       <r>     1.1787     7.6706    59.5169 </r>
       <r>     1.2880     7.3495    60.3201 </r>
       <r>     1.3973     6.1365    60.9907 </r>
       <r>     1.5065     8.3636    61.9048 </r>
       <r>     1.6158     5.6422    62.5214 </r>
       <r>     1.7251     4.1657    62.9766 </r>
       <r>     1.8344     5.2166    63.5468 </r>
       <r>     1.9437     2.1234    63.7788 </r>
       <r>     2.0530     1.8069    63.9763 </r>
       <r>     2.1623     0.2170    64.0000 </r>
       <r>     2.2715     0.0000    64.0000 </r>
       <r>     2.3808     0.0000    64.0000 </r>
       <r>     2.4901     0.0000    64.0000 </r>
       <r>     2.5994     0.0000    64.0000 </r>
       <r>     2.7087     0.0000    64.0000 </r>
       <r>     2.8180     0.0000    64.0000 </r>
       <r>     2.9273     0.0000    64.0000 </r>
       <r>     3.0366     0.0000    64.0000 </r>
       <r>     3.1458     0.0000    64.0000 </r>
       <r>     3.2551     0.0000    64.0000 </r>
       <r>     3.3644     0.0000    64.0000 </r>
       <r>     3.4737     0.0000    64.0000 </r>
       <r>     3.5830     0.0000    64.0000 </r>
      </set>
     </set>
    </array>
   </total>
  </dos>
 </calculation>
 <structure name="finalpos" >
  <crystal>
   <varray name="basis" >
    <v>       4.90607700       0.00000000       0.00000000 </v>
    <v>       0.00000000       5.45864100       0.00000000 </v>
    <v>       0.00000000       0.00000000      18.07929100 </v>
   </varray>
   <i name="volume">    484.17268877 </i>
   <varray name="rec_basis" >
    <v>       0.20382884       0.00000000       0.00000000 </v>
    <v>       0.00000000       0.18319578       0.00000000 </v>
    <v>       0.00000000       0.00000000       0.05531190 </v>
   </varray>
  </crystal>
  <varray name="positions" >
   <v>       0.50000000       0.50000000       0.50000000 </v>
   <v>      -0.00000000       0.00000000       0.50000000 </v>
   <v>       0.25000000       0.25000000       0.41449796 </v>
   <v>       0.75000000       0.75000000       0.41449796 </v>
   <v>       0.75000000       0.25000000       0.58550204 </v>
   <v>       0.25000000       0.75000000       0.58550204 </v>
  </varray>
 </structure>
</modeling>
