<?xml version="1.0" encoding="ISO-8859-1"?>
<modeling>
 <generator>
  <i name="program" type="string">vasp </i>
  <i name="version" type="string">5.4.1  </i>
  <i name="subversion" type="string">24Jun15 (build Nov 20 2020 10:29:34) complex                          parallel </i>
  <i name="platform" type="string">IFC91_ompi </i>
  <i name="date" type="string">2021 09 09 </i>
  <i name="time" type="string">15:23:10 </i>
 </generator>
 <incar>
  <i type="string" name="PREC">a</i>
  <i type="string" name="ALGO"> Normal</i>
  <i type="int" name="ISPIN">     1</i>
  <i type="int" name="ICHARG">     2</i>
  <i type="int" name="NELM">   250</i>
  <i type="int" name="NELMDL">    -5</i>
  <i type="int" name="NELMIN">     6</i>
  <i type="int" name="IBRION">     2</i>
  <i name="EDIFF">      0.00001000</i>
  <i name="EDIFFG">     -0.01000000</i>
  <i type="int" name="NSW">   200</i>
  <i type="int" name="ISIF">     2</i>
  <i name="ENCUT">    520.00000000</i>
  <i name="POTIM">      0.30000000</i>
  <i type="logical" name="LREAL"> F  </i>
  <i type="int" name="ISMEAR">     0</i>
  <i name="SIGMA">      0.02000000</i>
  <i type="logical" name="LWAVE"> F  </i>
  <i type="logical" name="LCHARG"> F  </i>
  <i type="logical" name="LAECHG"> F  </i>
  <v type="int" name="KPOINT_BSE">    -1     0     0     0</v>
  <i type="int" name="NELM">   250</i>
 </incar>
 <kpoints>
  <generation param="Gamma">
   <v type="int" name="divisions">      21       15        1 </v>
   <v name="usershift">      0.00000000       0.00000000       0.00000000 </v>
   <v name="genvec1">      0.04761905       0.00000000       0.00000000 </v>
   <v name="genvec2">      0.00000000       0.06666667       0.00000000 </v>
   <v name="genvec3">      0.00000000       0.00000000       1.00000000 </v>
   <v name="shift">      0.00000000       0.00000000       0.00000000 </v>
  </generation>
  <varray name="kpointlist" >
   <v>       0.00000000       0.00000000       0.00000000 </v>
   <v>       0.04761905       0.00000000       0.00000000 </v>
   <v>       0.09523810       0.00000000       0.00000000 </v>
   <v>       0.14285714       0.00000000       0.00000000 </v>
   <v>       0.19047619       0.00000000       0.00000000 </v>
   <v>       0.23809524       0.00000000       0.00000000 </v>
   <v>       0.28571429       0.00000000       0.00000000 </v>
   <v>       0.33333333       0.00000000       0.00000000 </v>
   <v>       0.38095238       0.00000000       0.00000000 </v>
   <v>       0.42857143       0.00000000       0.00000000 </v>
   <v>       0.47619048       0.00000000       0.00000000 </v>
   <v>       0.00000000       0.06666667       0.00000000 </v>
   <v>       0.04761905       0.06666667       0.00000000 </v>
   <v>       0.09523810       0.06666667       0.00000000 </v>
   <v>       0.14285714       0.06666667       0.00000000 </v>
   <v>       0.19047619       0.06666667       0.00000000 </v>
   <v>       0.23809524       0.06666667       0.00000000 </v>
   <v>       0.28571429       0.06666667       0.00000000 </v>
   <v>       0.33333333       0.06666667       0.00000000 </v>
   <v>       0.38095238       0.06666667       0.00000000 </v>
   <v>       0.42857143       0.06666667       0.00000000 </v>
   <v>       0.47619048       0.06666667       0.00000000 </v>
   <v>      -0.47619048       0.06666667       0.00000000 </v>
   <v>      -0.42857143       0.06666667       0.00000000 </v>
   <v>      -0.38095238       0.06666667       0.00000000 </v>
   <v>      -0.33333333       0.06666667       0.00000000 </v>
   <v>      -0.28571429       0.06666667       0.00000000 </v>
   <v>      -0.23809524       0.06666667       0.00000000 </v>
   <v>      -0.19047619       0.06666667       0.00000000 </v>
   <v>      -0.14285714       0.06666667       0.00000000 </v>
   <v>      -0.09523810       0.06666667       0.00000000 </v>
   <v>      -0.04761905       0.06666667       0.00000000 </v>
   <v>       0.00000000       0.13333333       0.00000000 </v>
   <v>       0.04761905       0.13333333       0.00000000 </v>
   <v>       0.09523810       0.13333333       0.00000000 </v>
   <v>       0.14285714       0.13333333       0.00000000 </v>
   <v>       0.19047619       0.13333333       0.00000000 </v>
   <v>       0.23809524       0.13333333       0.00000000 </v>
   <v>       0.28571429       0.13333333       0.00000000 </v>
   <v>       0.33333333       0.13333333       0.00000000 </v>
   <v>       0.38095238       0.13333333       0.00000000 </v>
   <v>       0.42857143       0.13333333       0.00000000 </v>
   <v>       0.47619048       0.13333333       0.00000000 </v>
   <v>      -0.47619048       0.13333333       0.00000000 </v>
   <v>      -0.42857143       0.13333333       0.00000000 </v>
   <v>      -0.38095238       0.13333333       0.00000000 </v>
   <v>      -0.33333333       0.13333333       0.00000000 </v>
   <v>      -0.28571429       0.13333333       0.00000000 </v>
   <v>      -0.23809524       0.13333333       0.00000000 </v>
   <v>      -0.19047619       0.13333333       0.00000000 </v>
   <v>      -0.14285714       0.13333333       0.00000000 </v>
   <v>      -0.09523810       0.13333333       0.00000000 </v>
   <v>      -0.04761905       0.13333333       0.00000000 </v>
   <v>       0.00000000       0.20000000       0.00000000 </v>
   <v>       0.04761905       0.20000000       0.00000000 </v>
   <v>       0.09523810       0.20000000       0.00000000 </v>
   <v>       0.14285714       0.20000000       0.00000000 </v>
   <v>       0.19047619       0.20000000       0.00000000 </v>
   <v>       0.23809524       0.20000000       0.00000000 </v>
   <v>       0.28571429       0.20000000       0.00000000 </v>
   <v>       0.33333333       0.20000000       0.00000000 </v>
   <v>       0.38095238       0.20000000       0.00000000 </v>
   <v>       0.42857143       0.20000000       0.00000000 </v>
   <v>       0.47619048       0.20000000       0.00000000 </v>
   <v>      -0.47619048       0.20000000       0.00000000 </v>
   <v>      -0.42857143       0.20000000       0.00000000 </v>
   <v>      -0.38095238       0.20000000       0.00000000 </v>
   <v>      -0.33333333       0.20000000       0.00000000 </v>
   <v>      -0.28571429       0.20000000       0.00000000 </v>
   <v>      -0.23809524       0.20000000       0.00000000 </v>
   <v>      -0.19047619       0.20000000       0.00000000 </v>
   <v>      -0.14285714       0.20000000       0.00000000 </v>
   <v>      -0.09523810       0.20000000       0.00000000 </v>
   <v>      -0.04761905       0.20000000       0.00000000 </v>
   <v>       0.00000000       0.26666667       0.00000000 </v>
   <v>       0.04761905       0.26666667       0.00000000 </v>
   <v>       0.09523810       0.26666667       0.00000000 </v>
   <v>       0.14285714       0.26666667       0.00000000 </v>
   <v>       0.19047619       0.26666667       0.00000000 </v>
   <v>       0.23809524       0.26666667       0.00000000 </v>
   <v>       0.28571429       0.26666667       0.00000000 </v>
   <v>       0.33333333       0.26666667       0.00000000 </v>
   <v>       0.38095238       0.26666667       0.00000000 </v>
   <v>       0.42857143       0.26666667       0.00000000 </v>
   <v>       0.47619048       0.26666667       0.00000000 </v>
   <v>      -0.47619048       0.26666667       0.00000000 </v>
   <v>      -0.42857143       0.26666667       0.00000000 </v>
   <v>      -0.38095238       0.26666667       0.00000000 </v>
   <v>      -0.33333333       0.26666667       0.00000000 </v>
   <v>      -0.28571429       0.26666667       0.00000000 </v>
   <v>      -0.23809524       0.26666667       0.00000000 </v>
   <v>      -0.19047619       0.26666667       0.00000000 </v>
   <v>      -0.14285714       0.26666667       0.00000000 </v>
   <v>      -0.09523810       0.26666667       0.00000000 </v>
   <v>      -0.04761905       0.26666667       0.00000000 </v>
   <v>       0.00000000       0.33333333       0.00000000 </v>
   <v>       0.04761905       0.33333333       0.00000000 </v>
   <v>       0.09523810       0.33333333       0.00000000 </v>
   <v>       0.14285714       0.33333333       0.00000000 </v>
   <v>       0.19047619       0.33333333       0.00000000 </v>
   <v>       0.23809524       0.33333333       0.00000000 </v>
   <v>       0.28571429       0.33333333       0.00000000 </v>
   <v>       0.33333333       0.33333333       0.00000000 </v>
   <v>       0.38095238       0.33333333       0.00000000 </v>
   <v>       0.42857143       0.33333333       0.00000000 </v>
   <v>       0.47619048       0.33333333       0.00000000 </v>
   <v>      -0.47619048       0.33333333       0.00000000 </v>
   <v>      -0.42857143       0.33333333       0.00000000 </v>
   <v>      -0.38095238       0.33333333       0.00000000 </v>
   <v>      -0.33333333       0.33333333       0.00000000 </v>
   <v>      -0.28571429       0.33333333       0.00000000 </v>
   <v>      -0.23809524       0.33333333       0.00000000 </v>
   <v>      -0.19047619       0.33333333       0.00000000 </v>
   <v>      -0.14285714       0.33333333       0.00000000 </v>
   <v>      -0.09523810       0.33333333       0.00000000 </v>
   <v>      -0.04761905       0.33333333       0.00000000 </v>
   <v>       0.00000000       0.40000000       0.00000000 </v>
   <v>       0.04761905       0.40000000       0.00000000 </v>
   <v>       0.09523810       0.40000000       0.00000000 </v>
   <v>       0.14285714       0.40000000       0.00000000 </v>
   <v>       0.19047619       0.40000000       0.00000000 </v>
   <v>       0.23809524       0.40000000       0.00000000 </v>
   <v>       0.28571429       0.40000000       0.00000000 </v>
   <v>       0.33333333       0.40000000       0.00000000 </v>
   <v>       0.38095238       0.40000000       0.00000000 </v>
   <v>       0.42857143       0.40000000       0.00000000 </v>
   <v>       0.47619048       0.40000000       0.00000000 </v>
   <v>      -0.47619048       0.40000000       0.00000000 </v>
   <v>      -0.42857143       0.40000000       0.00000000 </v>
   <v>      -0.38095238       0.40000000       0.00000000 </v>
   <v>      -0.33333333       0.40000000       0.00000000 </v>
   <v>      -0.28571429       0.40000000       0.00000000 </v>
   <v>      -0.23809524       0.40000000       0.00000000 </v>
   <v>      -0.19047619       0.40000000       0.00000000 </v>
   <v>      -0.14285714       0.40000000       0.00000000 </v>
   <v>      -0.09523810       0.40000000       0.00000000 </v>
   <v>      -0.04761905       0.40000000       0.00000000 </v>
   <v>       0.00000000       0.46666667       0.00000000 </v>
   <v>       0.04761905       0.46666667       0.00000000 </v>
   <v>       0.09523810       0.46666667       0.00000000 </v>
   <v>       0.14285714       0.46666667       0.00000000 </v>
   <v>       0.19047619       0.46666667       0.00000000 </v>
   <v>       0.23809524       0.46666667       0.00000000 </v>
   <v>       0.28571429       0.46666667       0.00000000 </v>
   <v>       0.33333333       0.46666667       0.00000000 </v>
   <v>       0.38095238       0.46666667       0.00000000 </v>
   <v>       0.42857143       0.46666667       0.00000000 </v>
   <v>       0.47619048       0.46666667       0.00000000 </v>
   <v>      -0.47619048       0.46666667       0.00000000 </v>
   <v>      -0.42857143       0.46666667       0.00000000 </v>
   <v>      -0.38095238       0.46666667       0.00000000 </v>
   <v>      -0.33333333       0.46666667       0.00000000 </v>
   <v>      -0.28571429       0.46666667       0.00000000 </v>
   <v>      -0.23809524       0.46666667       0.00000000 </v>
   <v>      -0.19047619       0.46666667       0.00000000 </v>
   <v>      -0.14285714       0.46666667       0.00000000 </v>
   <v>      -0.09523810       0.46666667       0.00000000 </v>
   <v>      -0.04761905       0.46666667       0.00000000 </v>
  </varray>
  <varray name="weights" >
   <v>       0.00317460 </v>
   <v>       0.00634921 </v>
   <v>       0.00634921 </v>
   <v>       0.00634921 </v>
   <v>       0.00634921 </v>
   <v>       0.00634921 </v>
   <v>       0.00634921 </v>
   <v>       0.00634921 </v>
   <v>       0.00634921 </v>
   <v>       0.00634921 </v>
   <v>       0.00634921 </v>
   <v>       0.00634921 </v>
   <v>       0.00634921 </v>
   <v>       0.00634921 </v>
   <v>       0.00634921 </v>
   <v>       0.00634921 </v>
   <v>       0.00634921 </v>
   <v>       0.00634921 </v>
   <v>       0.00634921 </v>
   <v>       0.00634921 </v>
   <v>       0.00634921 </v>
   <v>       0.00634921 </v>
   <v>       0.00634921 </v>
   <v>       0.00634921 </v>
   <v>       0.00634921 </v>
   <v>       0.00634921 </v>
   <v>       0.00634921 </v>
   <v>       0.00634921 </v>
   <v>       0.00634921 </v>
   <v>       0.00634921 </v>
   <v>       0.00634921 </v>
   <v>       0.00634921 </v>
   <v>       0.00634921 </v>
   <v>       0.00634921 </v>
   <v>       0.00634921 </v>
   <v>       0.00634921 </v>
   <v>       0.00634921 </v>
   <v>       0.00634921 </v>
   <v>       0.00634921 </v>
   <v>       0.00634921 </v>
   <v>       0.00634921 </v>
   <v>       0.00634921 </v>
   <v>       0.00634921 </v>
   <v>       0.00634921 </v>
   <v>       0.00634921 </v>
   <v>       0.00634921 </v>
   <v>       0.00634921 </v>
   <v>       0.00634921 </v>
   <v>       0.00634921 </v>
   <v>       0.00634921 </v>
   <v>       0.00634921 </v>
   <v>       0.00634921 </v>
   <v>       0.00634921 </v>
   <v>       0.00634921 </v>
   <v>       0.00634921 </v>
   <v>       0.00634921 </v>
   <v>       0.00634921 </v>
   <v>       0.00634921 </v>
   <v>       0.00634921 </v>
   <v>       0.00634921 </v>
   <v>       0.00634921 </v>
   <v>       0.00634921 </v>
   <v>       0.00634921 </v>
   <v>       0.00634921 </v>
   <v>       0.00634921 </v>
   <v>       0.00634921 </v>
   <v>       0.00634921 </v>
   <v>       0.00634921 </v>
   <v>       0.00634921 </v>
   <v>       0.00634921 </v>
   <v>       0.00634921 </v>
   <v>       0.00634921 </v>
   <v>       0.00634921 </v>
   <v>       0.00634921 </v>
   <v>       0.00634921 </v>
   <v>       0.00634921 </v>
   <v>       0.00634921 </v>
   <v>       0.00634921 </v>
   <v>       0.00634921 </v>
   <v>       0.00634921 </v>
   <v>       0.00634921 </v>
   <v>       0.00634921 </v>
   <v>       0.00634921 </v>
   <v>       0.00634921 </v>
   <v>       0.00634921 </v>
   <v>       0.00634921 </v>
   <v>       0.00634921 </v>
   <v>       0.00634921 </v>
   <v>       0.00634921 </v>
   <v>       0.00634921 </v>
   <v>       0.00634921 </v>
   <v>       0.00634921 </v>
   <v>       0.00634921 </v>
   <v>       0.00634921 </v>
   <v>       0.00634921 </v>
   <v>       0.00634921 </v>
   <v>       0.00634921 </v>
   <v>       0.00634921 </v>
   <v>       0.00634921 </v>
   <v>       0.00634921 </v>
   <v>       0.00634921 </v>
   <v>       0.00634921 </v>
   <v>       0.00634921 </v>
   <v>       0.00634921 </v>
   <v>       0.00634921 </v>
   <v>       0.00634921 </v>
   <v>       0.00634921 </v>
   <v>       0.00634921 </v>
   <v>       0.00634921 </v>
   <v>       0.00634921 </v>
   <v>       0.00634921 </v>
   <v>       0.00634921 </v>
   <v>       0.00634921 </v>
   <v>       0.00634921 </v>
   <v>       0.00634921 </v>
   <v>       0.00634921 </v>
   <v>       0.00634921 </v>
   <v>       0.00634921 </v>
   <v>       0.00634921 </v>
   <v>       0.00634921 </v>
   <v>       0.00634921 </v>
   <v>       0.00634921 </v>
   <v>       0.00634921 </v>
   <v>       0.00634921 </v>
   <v>       0.00634921 </v>
   <v>       0.00634921 </v>
   <v>       0.00634921 </v>
   <v>       0.00634921 </v>
   <v>       0.00634921 </v>
   <v>       0.00634921 </v>
   <v>       0.00634921 </v>
   <v>       0.00634921 </v>
   <v>       0.00634921 </v>
   <v>       0.00634921 </v>
   <v>       0.00634921 </v>
   <v>       0.00634921 </v>
   <v>       0.00634921 </v>
   <v>       0.00634921 </v>
   <v>       0.00634921 </v>
   <v>       0.00634921 </v>
   <v>       0.00634921 </v>
   <v>       0.00634921 </v>
   <v>       0.00634921 </v>
   <v>       0.00634921 </v>
   <v>       0.00634921 </v>
   <v>       0.00634921 </v>
   <v>       0.00634921 </v>
   <v>       0.00634921 </v>
   <v>       0.00634921 </v>
   <v>       0.00634921 </v>
   <v>       0.00634921 </v>
   <v>       0.00634921 </v>
   <v>       0.00634921 </v>
   <v>       0.00634921 </v>
   <v>       0.00634921 </v>
   <v>       0.00634921 </v>
   <v>       0.00634921 </v>
   <v>       0.00634921 </v>
  </varray>
 </kpoints>
 <parameters>
  <separator name="general" >
   <i type="string" name="SYSTEM">unknown system</i>
   <i type="logical" name="LCOMPAT"> F  </i>
  </separator>
  <separator name="electronic" >
   <i type="string" name="PREC">a</i>
   <i name="ENMAX">    520.00000000</i>
   <i name="ENAUG">    342.92400000</i>
   <i name="EDIFF">      0.00001000</i>
   <i type="int" name="IALGO">    38</i>
   <i type="int" name="IWAVPR">    11</i>
   <i type="int" name="NBANDS">    16</i>
   <i name="NELECT">     20.00000000</i>
   <i type="int" name="TURBO">     0</i>
   <i type="int" name="IRESTART">     0</i>
   <i type="int" name="NREBOOT">     0</i>
   <i type="int" name="NMIN">     0</i>
   <i name="EREF">      0.00000000</i>
   <separator name="electronic smearing" >
    <i type="int" name="ISMEAR">     0</i>
    <i name="SIGMA">      0.02000000</i>
    <i name="KSPACING">      0.50000000</i>
    <i type="logical" name="KGAMMA"> T  </i>
   </separator>
   <separator name="electronic projectors" >
    <i type="logical" name="LREAL"> F  </i>
    <v name="ROPT">      0.00000000</v>
    <i type="int" name="LMAXPAW">  -100</i>
    <i type="int" name="LMAXMIX">     2</i>
    <i type="logical" name="NLSPLINE"> F  </i>
   </separator>
   <separator name="electronic startup" >
    <i type="int" name="ISTART">     0</i>
    <i type="int" name="ICHARG">     2</i>
    <i type="int" name="INIWAV">     1</i>
   </separator>
   <separator name="electronic spin" >
    <i type="int" name="ISPIN">     1</i>
    <i type="logical" name="LNONCOLLINEAR"> F  </i>
    <v name="MAGMOM">      1.00000000      1.00000000      1.00000000      1.00000000</v>
    <i name="NUPDOWN">     -1.00000000</i>
    <i type="logical" name="LSORBIT"> F  </i>
    <v name="SAXIS">      0.00000000      0.00000000      1.00000000</v>
    <i type="logical" name="LSPIRAL"> F  </i>
    <v name="QSPIRAL">      0.00000000      0.00000000      0.00000000</v>
    <i type="logical" name="LZEROZ"> F  </i>
   </separator>
   <separator name="electronic exchange-correlation" >
    <i type="logical" name="LASPH"> F  </i>
    <i type="logical" name="LMETAGGA"> F  </i>
   </separator>
   <separator name="electronic convergence" >
    <i type="int" name="NELM">   250</i>
    <i type="int" name="NELMDL">    -5</i>
    <i type="int" name="NELMIN">     6</i>
    <i name="ENINI">    520.00000000</i>
    <separator name="electronic convergence detail" >
     <i type="logical" name="LDIAG"> T  </i>
     <i type="logical" name="LSUBROT"> F  </i>
     <i name="WEIMIN">      0.00100000</i>
     <i name="EBREAK">      0.00000016</i>
     <i name="DEPER">      0.30000000</i>
     <i type="int" name="NRMM">     4</i>
     <i name="TIME">      0.40000000</i>
    </separator>
   </separator>
   <separator name="electronic mixer" >
    <i name="AMIX">      0.40000000</i>
    <i name="BMIX">      1.00000000</i>
    <i name="AMIN">      0.10000000</i>
    <i name="AMIX_MAG">      1.60000000</i>
    <i name="BMIX_MAG">      1.00000000</i>
    <separator name="electronic mixer details" >
     <i type="int" name="IMIX">     4</i>
     <i type="logical" name="MIXFIRST"> F  </i>
     <i type="int" name="MAXMIX">   -45</i>
     <i name="WC">    100.00000000</i>
     <i type="int" name="INIMIX">     1</i>
     <i type="int" name="MIXPRE">     1</i>
     <i type="int" name="MREMOVE">     5</i>
    </separator>
   </separator>
   <separator name="electronic dipolcorrection" >
    <i type="logical" name="LDIPOL"> F  </i>
    <i type="logical" name="LMONO"> F  </i>
    <i type="int" name="IDIPOL">     0</i>
    <i name="EPSILON">      1.00000000</i>
    <v name="DIPOL">   -100.00000000   -100.00000000   -100.00000000</v>
    <i name="EFIELD">      0.00000000</i>
   </separator>
  </separator>
  <separator name="grids" >
   <i type="int" name="NGX">    28</i>
   <i type="int" name="NGY">    40</i>
   <i type="int" name="NGZ">   150</i>
   <i type="int" name="NGXF">    56</i>
   <i type="int" name="NGYF">    80</i>
   <i type="int" name="NGZF">   300</i>
   <i type="logical" name="ADDGRID"> F  </i>
  </separator>
  <separator name="ionic" >
   <i type="int" name="NSW">   200</i>
   <i type="int" name="IBRION">     2</i>
   <i type="int" name="ISIF">     2</i>
   <i name="PSTRESS">      0.00000000</i>
   <i name="EDIFFG">     -0.01000000</i>
   <i type="int" name="NFREE">     1</i>
   <i name="POTIM">      0.30000000</i>
   <i name="SMASS">     -3.00000000</i>
   <i name="SCALEE">      1.00000000</i>
  </separator>
  <separator name="ionic md" >
   <i name="TEBEG">      0.00010000</i>
   <i name="TEEND">      0.00010000</i>
   <i type="int" name="NBLOCK">     1</i>
   <i type="int" name="KBLOCK">   200</i>
   <i type="int" name="NPACO">   256</i>
   <i name="APACO">     16.00000000</i>
  </separator>
  <separator name="symmetry" >
   <i type="int" name="ISYM">     2</i>
   <i name="SYMPREC">      0.00001000</i>
  </separator>
  <separator name="dos" >
   <i type="logical" name="LORBIT"> F  </i>
   <v name="RWIGS">     -1.00000000</v>
   <i type="int" name="NEDOS">   301</i>
   <i name="EMIN">     10.00000000</i>
   <i name="EMAX">    -10.00000000</i>
   <i name="EFERMI">      0.00000000</i>
  </separator>
  <separator name="writing" >
   <i type="int" name="NWRITE">     2</i>
   <i type="logical" name="LWAVE"> F  </i>
   <i type="logical" name="LCHARG"> F  </i>
   <i type="logical" name="LPARD"> F  </i>
   <i type="logical" name="LVTOT"> F  </i>
   <i type="logical" name="LVHAR"> F  </i>
   <i type="logical" name="LELF"> F  </i>
   <i type="logical" name="LOPTICS"> F  </i>
   <v name="STM">      0.00000000      0.00000000      0.00000000      0.00000000      0.00000000      0.00000000      0.00000000</v>
  </separator>
  <separator name="performance" >
   <i type="int" name="NPAR">     4</i>
   <i type="int" name="NSIM">     4</i>
   <i type="int" name="NBLK">    -1</i>
   <i type="logical" name="LPLANE"> T  </i>
   <i type="logical" name="LSCALAPACK"> T  </i>
   <i type="logical" name="LSCAAWARE"> F  </i>
   <i type="logical" name="LSCALU"> F  </i>
   <i type="logical" name="LASYNC"> F  </i>
   <i type="logical" name="LORBITALREAL"> F  </i>
  </separator>
  <separator name="miscellaneous" >
   <i type="int" name="IDIOT">     3</i>
   <i type="logical" name="LMUSIC"> F  </i>
   <v name="POMASS">     30.97400000</v>
   <v name="DARWINR">      0.00000000</v>
   <v name="DARWINV">      1.00000000</v>
   <i type="logical" name="LCORR"> T  </i>
  </separator>
  <i type="logical" name="GGA_COMPAT"> T  </i>
  <i type="logical" name="LBERRY"> F  </i>
  <i type="int" name="ICORELEVEL">     0</i>
  <i type="logical" name="LDAU"> F  </i>
  <i type="int" name="I_CONSTRAINED_M">     0</i>
  <separator name="electronic exchange-correlation" >
   <i type="string" name="GGA">--</i>
   <i type="int" name="VOSKOWN">     0</i>
   <i type="logical" name="LHFCALC"> F  </i>
   <i type="string" name="PRECFOCK"></i>
   <i type="logical" name="LSYMGRAD"> F  </i>
   <i type="logical" name="LHFONE"> F  </i>
   <i type="logical" name="LRHFCALC"> F  </i>
   <i type="logical" name="LTHOMAS"> F  </i>
   <i type="logical" name="LMODELHF"> F  </i>
   <i name="ENCUT4O">     -1.00000000</i>
   <i type="int" name="EXXOEP">     0</i>
   <i type="int" name="FOURORBIT">     0</i>
   <i name="AEXX">      0.00000000</i>
   <i name="HFALPHA">      0.00000000</i>
   <i name="MCALPHA">      0.00000000</i>
   <i name="ALDAX">      1.00000000</i>
   <i name="AGGAX">      1.00000000</i>
   <i name="ALDAC">      1.00000000</i>
   <i name="AGGAC">      1.00000000</i>
   <i type="int" name="NKREDX">     1</i>
   <i type="int" name="NKREDY">     1</i>
   <i type="int" name="NKREDZ">     1</i>
   <i type="logical" name="SHIFTRED"> F  </i>
   <i type="logical" name="ODDONLY"> F  </i>
   <i type="logical" name="EVENONLY"> F  </i>
   <i type="int" name="LMAXFOCK">     0</i>
   <i type="int" name="NMAXFOCKAE">     0</i>
   <i type="logical" name="LFOCKAEDFT"> F  </i>
   <i name="HFSCREEN">      0.00000000</i>
   <i name="HFSCREENC">      0.00000000</i>
   <i type="int" name="NBANDSGWLOW">     0</i>
  </separator>
  <separator name="vdW DFT" >
   <i type="logical" name="LUSE_VDW"> F  </i>
   <i name="Zab_VDW">     -0.84910000</i>
   <i name="PARAM1">      0.12340000</i>
   <i name="PARAM2">      1.00000000</i>
   <i name="PARAM3">      0.00000000</i>
  </separator>
  <separator name="model GW" >
   <i type="int" name="MODEL_GW">     0</i>
   <i name="MODEL_EPS0">     53.11426099</i>
   <i name="MODEL_ALPHA">      1.00000000</i>
  </separator>
  <separator name="linear response parameters" >
   <i type="logical" name="LEPSILON"> F  </i>
   <i type="logical" name="LRPA"> F  </i>
   <i type="logical" name="LNABLA"> F  </i>
   <i type="logical" name="LVEL"> F  </i>
   <i type="int" name="KINTER">     0</i>
   <i name="CSHIFT">      0.10000000</i>
   <i name="OMEGAMAX">     -1.00000000</i>
   <i name="DEG_THRESHOLD">      0.00200000</i>
  </separator>
  <separator name="orbital magnetization" >
   <i type="logical" name="NUCIND"> F  </i>
   <v name="MAGPOS">      0.00000000      0.00000000      0.00000000</v>
   <i type="logical" name="LNICSALL"> T  </i>
   <i type="logical" name="ORBITALMAG"> F  </i>
   <i type="logical" name="LMAGBLOCH"> F  </i>
   <i type="logical" name="LCHIMAG"> F  </i>
   <i type="logical" name="LGAUGE"> T  </i>
   <i type="int" name="MAGATOM">     0</i>
   <v name="MAGDIPOL">      0.00000000      0.00000000      0.00000000</v>
   <v name="AVECCONST">      0.00000000      0.00000000      0.00000000</v>
  </separator>
  <separator name="response functions" >
   <i type="logical" name="LADDER"> F  </i>
   <i type="logical" name="LFXC"> F  </i>
   <i type="logical" name="LHARTREE"> T  </i>
   <i type="int" name="IBSE">     0</i>
   <v type="int" name="KPOINT">    -1     0     0     0</v>
   <i type="logical" name="LTCTE"> F  </i>
   <i type="logical" name="LTETE"> F  </i>
   <i type="logical" name="LTRIPLET"> F  </i>
   <i type="logical" name="LFXCEPS"> F  </i>
   <i type="logical" name="LFXHEG"> F  </i>
   <i type="int" name="NATURALO">     0</i>
   <i type="logical" name="L2ORDER"> F  </i>
   <i type="logical" name="LUSEW"> F  </i>
   <i name="ENCUTGW">     -2.00000000</i>
   <i name="ENCUTGWSOFT">     -2.00000000</i>
   <i name="ENCUTLF">     -1.00000000</i>
   <i type="int" name="LMAXMP2">    -1</i>
   <i name="SCISSOR">      0.00000000</i>
   <i type="int" name="NOMEGA">     0</i>
   <i type="int" name="NOMEGAR">     0</i>
   <i type="int" name="NBANDSGW">    -1</i>
   <i type="int" name="NBANDSO">    -1</i>
   <i type="int" name="NBANDSV">    -1</i>
   <i type="int" name="NELM">   250</i>
   <i type="int" name="NELMHF">     1</i>
   <i type="int" name="DIM">     3</i>
   <i type="int" name="ANTIRES">     0</i>
   <i name="OMEGAMAX">    -30.00000000</i>
   <i name="OMEGAMIN">    -30.00000000</i>
   <i name="OMEGATL">   -200.00000000</i>
   <i type="int" name="OMEGAGRID">     0</i>
   <i name="CSHIFT">     -0.10000000</i>
   <i type="logical" name="SELFENERGY"> F  </i>
   <i type="logical" name="LSPECTRAL"> F  </i>
   <i type="logical" name="LSPECTRALGW"> F  </i>
   <i type="logical" name="LSINGLES"> F  </i>
   <i type="logical" name="LFERMIGW"> F  </i>
   <i type="logical" name="ODDONLYGW"> F  </i>
   <i type="logical" name="EVENONLYGW"> F  </i>
   <i type="int" name="NKREDLFX">     1</i>
   <i type="int" name="NKREDLFY">     1</i>
   <i type="int" name="NKREDLFZ">     1</i>
   <i type="int" name="MAXMEM">  1800</i>
   <i type="int" name="TELESCOPE">     0</i>
   <i type="int" name="TAUPAR">     1</i>
   <i type="int" name="OMEGAPAR">    -1</i>
   <i name="LAMBDA">      1.00000000</i>
  </separator>
  <separator name="External order field" >
   <i name="OFIELD_KAPPA">      0.00000000</i>
   <v name="OFIELD_K">      0.00000000      0.00000000      0.00000000</v>
   <i name="OFIELD_Q6_NEAR">      0.00000000</i>
   <i name="OFIELD_Q6_FAR">      0.00000000</i>
   <i name="OFIELD_A">      0.00000000</i>
  </separator>
 </parameters>
 <atominfo>
  <atoms>       4 </atoms>
  <types>       1 </types>
  <array name="atoms" >
   <dimension dim="1">ion</dimension>
   <field type="string">element</field>
   <field type="int">atomtype</field>
   <set>
    <rc><c>P </c><c>   1</c></rc>
    <rc><c>P </c><c>   1</c></rc>
    <rc><c>P </c><c>   1</c></rc>
    <rc><c>P </c><c>   1</c></rc>
   </set>
  </array>
  <array name="atomtypes" >
   <dimension dim="1">type</dimension>
   <field type="int">atomspertype</field>
   <field type="string">element</field>
   <field>mass</field>
   <field>valence</field>
   <field type="string">pseudopotential</field>
   <set>
    <rc><c>   4</c><c>P </c><c>     30.97400000</c><c>      5.00000000</c><c>  PAW_PBE P 06Sep2000                   </c></rc>
   </set>
  </array>
 </atominfo>
 <structure name="initialpos" >
  <crystal>
   <varray name="basis" >
    <v>       3.55119700       0.00000000       0.00000000 </v>
    <v>       0.00000000       4.97950100      -0.00005300 </v>
    <v>       0.00000000       0.00000000      20.02439000 </v>
   </varray>
   <i name="volume">    354.09507323 </i>
   <varray name="rec_basis" >
    <v>       0.28159519       0.00000000       0.00000000 </v>
    <v>       0.00000000       0.20082334       0.00000000 </v>
    <v>       0.00000000       0.00000053       0.04993910 </v>
   </varray>
  </crystal>
  <varray name="positions" >
   <v>       0.50000000       0.91077300       0.55252100 </v>
   <v>       0.50000000       0.08922700       0.44747900 </v>
   <v>       0.00000000       0.41076900       0.44747900 </v>
   <v>       0.00000000       0.58923100       0.55252100 </v>
  </varray>
 </structure>
 <calculation>
  <scstep>
   <time name="dav">    1.63    1.63</time>
   <time name="total">    1.66    1.66</time>
   <energy>
    <i name="alphaZ">      4.53031166 </i>
    <i name="ewald">   1539.82820358 </i>
    <i name="hartreedc">  -2134.93274602 </i>
    <i name="XCdc">     11.77185428 </i>
    <i name="pawpsdc">    559.04011960 </i>
    <i name="pawaedc">   -526.39432044 </i>
    <i name="eentropy">     -0.00049666 </i>
    <i name="bandstr">    -30.08290349 </i>
    <i name="atom">    704.16778566 </i>
    <i name="e_fr_energy">    127.92780818 </i>
    <i name="e_wo_entrp">    127.92830484 </i>
    <i name="e_0_energy">    127.92805651 </i>
   </energy>
  </scstep>
  <scstep>
   <time name="dav">    2.18    2.18</time>
   <time name="total">    2.18    2.18</time>
   <energy>
    <i name="e_fr_energy">     -4.80260379 </i>
    <i name="e_wo_entrp">     -4.80260379 </i>
    <i name="e_0_energy">     -4.80260379 </i>
   </energy>
  </scstep>
  <scstep>
   <time name="dav">    2.02    2.02</time>
   <time name="total">    2.02    2.02</time>
   <energy>
    <i name="e_fr_energy">    -20.71599912 </i>
    <i name="e_wo_entrp">    -20.71599912 </i>
    <i name="e_0_energy">    -20.71599912 </i>
   </energy>
  </scstep>
  <scstep>
   <time name="dav">    1.99    1.99</time>
   <time name="total">    1.99    1.99</time>
   <energy>
    <i name="e_fr_energy">    -21.05986256 </i>
    <i name="e_wo_entrp">    -21.05986256 </i>
    <i name="e_0_energy">    -21.05986256 </i>
   </energy>
  </scstep>
  <scstep>
   <time name="dav">    2.15    2.15</time>
   <time name="total">    2.25    2.25</time>
   <energy>
    <i name="e_fr_energy">    -21.07023038 </i>
    <i name="e_wo_entrp">    -21.07023038 </i>
    <i name="e_0_energy">    -21.07023038 </i>
   </energy>
  </scstep>
  <scstep>
   <time name="dav">    1.95    1.95</time>
   <time name="total">    2.08    2.09</time>
   <energy>
    <i name="e_fr_energy">    -20.98102309 </i>
    <i name="e_wo_entrp">    -20.98102309 </i>
    <i name="e_0_energy">    -20.98102309 </i>
   </energy>
  </scstep>
  <scstep>
   <time name="dav">    1.89    1.89</time>
   <time name="total">    2.01    2.02</time>
   <energy>
    <i name="e_fr_energy">    -20.93437130 </i>
    <i name="e_wo_entrp">    -20.93437130 </i>
    <i name="e_0_energy">    -20.93437130 </i>
   </energy>
  </scstep>
  <scstep>
   <time name="dav">    1.99    1.99</time>
   <time name="total">    2.11    2.11</time>
   <energy>
    <i name="e_fr_energy">    -20.93473369 </i>
    <i name="e_wo_entrp">    -20.93473369 </i>
    <i name="e_0_energy">    -20.93473369 </i>
   </energy>
  </scstep>
  <scstep>
   <time name="dav">    2.22    2.22</time>
   <time name="total">    2.34    2.35</time>
   <energy>
    <i name="e_fr_energy">    -20.93477156 </i>
    <i name="e_wo_entrp">    -20.93477156 </i>
    <i name="e_0_energy">    -20.93477156 </i>
   </energy>
  </scstep>
  <scstep>
   <time name="dav">    2.03    2.03</time>
   <time name="total">    2.05    2.05</time>
   <energy>
    <i name="alphaZ">      4.53031166 </i>
    <i name="ewald">   1539.82820358 </i>
    <i name="hartreedc">  -2144.20753436 </i>
    <i name="XCdc">     12.61579820 </i>
    <i name="pawpsdc">   1584.65365055 </i>
    <i name="pawaedc">  -1552.16037843 </i>
    <i name="eentropy">     -0.00000000 </i>
    <i name="bandstr">   -170.36260242 </i>
    <i name="atom">    704.16778566 </i>
    <i name="e_fr_energy">    -20.93476556 </i>
    <i name="e_wo_entrp">    -20.93476556 </i>
    <i name="e_0_energy">    -20.93476556 </i>
   </energy>
  </scstep>
  <structure>
   <crystal>
    <varray name="basis" >
     <v>       3.55119700       0.00000000       0.00000000 </v>
     <v>       0.00000000       4.97950100      -0.00005300 </v>
     <v>       0.00000000       0.00000000      20.02439000 </v>
    </varray>
    <i name="volume">    354.09507323 </i>
    <varray name="rec_basis" >
     <v>       0.28159519       0.00000000       0.00000000 </v>
     <v>       0.00000000       0.20082334       0.00000000 </v>
     <v>       0.00000000       0.00000053       0.04993910 </v>
    </varray>
   </crystal>
   <varray name="positions" >
    <v>       0.50000000       0.91077300       0.55252100 </v>
    <v>       0.50000000       0.08922700       0.44747900 </v>
    <v>       0.00000000       0.41076900       0.44747900 </v>
    <v>       0.00000000       0.58923100       0.55252100 </v>
   </varray>
  </structure>
  <varray name="forces" >
   <v>      -0.00000232      -0.93958439      -0.30162230 </v>
   <v>       0.00000232       0.93958439       0.30162230 </v>
   <v>       0.00000051      -0.93958793       0.30164536 </v>
   <v>      -0.00000051       0.93958793      -0.30164536 </v>
  </varray>
  <varray name="stress" >
   <v>     -32.27943665       0.00000873      -0.00001172 </v>
   <v>       0.00000875     -25.41595767       0.00034450 </v>
   <v>      -0.00001174       0.00034451      -5.05867752 </v>
  </varray>
  <energy>
   <i name="e_fr_energy">    -20.93476556 </i>
   <i name="e_wo_entrp">    -20.93476556 </i>
   <i name="e_0_energy">     -0.00000000 </i>
  </energy>
  <time name="totalsc">   21.58   21.61</time>
 </calculation>
 <calculation>
  <scstep>
   <time name="dav">    1.73    1.73</time>
   <time name="total">    1.85    1.85</time>
   <energy>
    <i name="alphaZ">      4.53031166 </i>
    <i name="ewald">   1549.88837241 </i>
    <i name="hartreedc">  -2153.50768807 </i>
    <i name="XCdc">     12.78214343 </i>
    <i name="pawpsdc">   1585.64026405 </i>
    <i name="pawaedc">  -1553.14643107 </i>
    <i name="eentropy">     -0.00000000 </i>
    <i name="bandstr">   -171.37239354 </i>
    <i name="atom">    704.16778566 </i>
    <i name="e_fr_energy">    -21.01763547 </i>
    <i name="e_wo_entrp">    -21.01763547 </i>
    <i name="e_0_energy">    -21.01763547 </i>
   </energy>
  </scstep>
  <scstep>
   <time name="dav">    1.99    1.99</time>
   <time name="total">    2.11    2.11</time>
   <energy>
    <i name="e_fr_energy">    -21.02689917 </i>
    <i name="e_wo_entrp">    -21.02689917 </i>
    <i name="e_0_energy">    -21.02689917 </i>
   </energy>
  </scstep>
  <scstep>
   <time name="dav">    2.18    2.19</time>
   <time name="total">    2.31    2.31</time>
   <energy>
    <i name="e_fr_energy">    -21.02709913 </i>
    <i name="e_wo_entrp">    -21.02709913 </i>
    <i name="e_0_energy">    -21.02709913 </i>
   </energy>
  </scstep>
  <scstep>
   <time name="dav">    2.21    2.21</time>
   <time name="total">    2.33    2.34</time>
   <energy>
    <i name="e_fr_energy">    -21.02717667 </i>
    <i name="e_wo_entrp">    -21.02717667 </i>
    <i name="e_0_energy">    -21.02717667 </i>
   </energy>
  </scstep>
  <scstep>
   <time name="dav">    1.93    1.93</time>
   <time name="total">    2.05    2.05</time>
   <energy>
    <i name="e_fr_energy">    -21.02730017 </i>
    <i name="e_wo_entrp">    -21.02730017 </i>
    <i name="e_0_energy">    -21.02730017 </i>
   </energy>
  </scstep>
  <scstep>
   <time name="dav">    1.69    1.69</time>
   <time name="total">    1.81    1.81</time>
   <energy>
    <i name="e_fr_energy">    -21.02733814 </i>
    <i name="e_wo_entrp">    -21.02733814 </i>
    <i name="e_0_energy">    -21.02733814 </i>
   </energy>
  </scstep>
  <scstep>
   <time name="dav">    1.52    1.52</time>
   <time name="total">    1.64    1.64</time>
   <energy>
    <i name="e_fr_energy">    -21.02736281 </i>
    <i name="e_wo_entrp">    -21.02736281 </i>
    <i name="e_0_energy">    -21.02736281 </i>
   </energy>
  </scstep>
  <scstep>
   <time name="dav">    1.68    1.68</time>
   <time name="total">    1.80    1.80</time>
   <energy>
    <i name="e_fr_energy">    -21.02739972 </i>
    <i name="e_wo_entrp">    -21.02739972 </i>
    <i name="e_0_energy">    -21.02739972 </i>
   </energy>
  </scstep>
  <scstep>
   <time name="dav">    1.67    1.68</time>
   <time name="total">    1.80    1.80</time>
   <energy>
    <i name="e_fr_energy">    -21.02743399 </i>
    <i name="e_wo_entrp">    -21.02743399 </i>
    <i name="e_0_energy">    -21.02743399 </i>
   </energy>
  </scstep>
  <scstep>
   <time name="dav">    1.69    1.69</time>
   <time name="total">    1.71    1.71</time>
   <energy>
    <i name="alphaZ">      4.53031166 </i>
    <i name="ewald">   1549.88837241 </i>
    <i name="hartreedc">  -2154.11126341 </i>
    <i name="XCdc">     12.79626896 </i>
    <i name="pawpsdc">   1653.12147938 </i>
    <i name="pawaedc">  -1620.65167730 </i>
    <i name="eentropy">     -0.00000000 </i>
    <i name="bandstr">   -170.76871363 </i>
    <i name="atom">    704.16778566 </i>
    <i name="e_fr_energy">    -21.02743627 </i>
    <i name="e_wo_entrp">    -21.02743627 </i>
    <i name="e_0_energy">    -21.02743627 </i>
   </energy>
  </scstep>
  <structure>
   <crystal>
    <varray name="basis" >
     <v>       3.55119700       0.00000000       0.00000000 </v>
     <v>       0.00000000       4.97950100      -0.00005300 </v>
     <v>       0.00000000       0.00000000      20.02439000 </v>
    </varray>
    <i name="volume">    354.09507323 </i>
    <varray name="rec_basis" >
     <v>       0.28159519       0.00000000       0.00000000 </v>
     <v>       0.00000000       0.20082334       0.00000000 </v>
     <v>       0.00000000       0.00000053       0.04993910 </v>
    </varray>
   </crystal>
   <varray name="positions" >
    <v>       0.49999998       0.90531124       0.55208499 </v>
    <v>       0.50000002       0.09468876       0.44791501 </v>
    <v>       0.00000000       0.40530722       0.44791502 </v>
    <v>      -0.00000000       0.59469278       0.55208498 </v>
   </varray>
  </structure>
  <varray name="forces" >
   <v>       0.00000038      -0.56628970      -0.26271092 </v>
   <v>      -0.00000038       0.56628970       0.26271092 </v>
   <v>       0.00000032      -0.56629514       0.26272172 </v>
   <v>      -0.00000032       0.56629514      -0.26272172 </v>
  </varray>
  <varray name="stress" >
   <v>     -32.69335351       0.00000148       0.00000277 </v>
   <v>       0.00000147     -20.02682228       0.00025916 </v>
   <v>       0.00000279       0.00025916      -5.00880124 </v>
  </varray>
  <energy>
   <i name="e_fr_energy">    -21.02743627 </i>
   <i name="e_wo_entrp">    -21.02743627 </i>
   <i name="e_0_energy">     -0.00000000 </i>
  </energy>
  <time name="totalsc">   20.29   20.32</time>
 </calculation>
 <calculation>
  <scstep>
   <time name="dav">    1.74    1.74</time>
   <time name="total">    1.86    1.87</time>
   <energy>
    <i name="alphaZ">      4.53031166 </i>
    <i name="ewald">   1563.12658937 </i>
    <i name="hartreedc">  -2165.68335928 </i>
    <i name="XCdc">     13.00054021 </i>
    <i name="pawpsdc">   1653.05111507 </i>
    <i name="pawaedc">  -1620.58131466 </i>
    <i name="eentropy">     -0.00000000 </i>
    <i name="bandstr">   -172.67591317 </i>
    <i name="atom">    704.16778566 </i>
    <i name="e_fr_energy">    -21.06424514 </i>
    <i name="e_wo_entrp">    -21.06424514 </i>
    <i name="e_0_energy">    -21.06424514 </i>
   </energy>
  </scstep>
  <scstep>
   <time name="dav">    2.02    2.02</time>
   <time name="total">    2.14    2.14</time>
   <energy>
    <i name="e_fr_energy">    -21.08005701 </i>
    <i name="e_wo_entrp">    -21.08005701 </i>
    <i name="e_0_energy">    -21.08005701 </i>
   </energy>
  </scstep>
  <scstep>
   <time name="dav">    2.18    2.19</time>
   <time name="total">    2.31    2.31</time>
   <energy>
    <i name="e_fr_energy">    -21.08023564 </i>
    <i name="e_wo_entrp">    -21.08023564 </i>
    <i name="e_0_energy">    -21.08023564 </i>
   </energy>
  </scstep>
  <scstep>
   <time name="dav">    2.24    2.24</time>
   <time name="total">    2.36    2.36</time>
   <energy>
    <i name="e_fr_energy">    -21.08020354 </i>
    <i name="e_wo_entrp">    -21.08020354 </i>
    <i name="e_0_energy">    -21.08020354 </i>
   </energy>
  </scstep>
  <scstep>
   <time name="dav">    1.94    1.94</time>
   <time name="total">    2.07    2.07</time>
   <energy>
    <i name="e_fr_energy">    -21.08021644 </i>
    <i name="e_wo_entrp">    -21.08021644 </i>
    <i name="e_0_energy">    -21.08021644 </i>
   </energy>
  </scstep>
  <scstep>
   <time name="dav">    1.54    1.54</time>
   <time name="total">    1.56    1.57</time>
   <energy>
    <i name="alphaZ">      4.53031166 </i>
    <i name="ewald">   1563.12658937 </i>
    <i name="hartreedc">  -2165.61108571 </i>
    <i name="XCdc">     13.01284068 </i>
    <i name="pawpsdc">   1746.96944473 </i>
    <i name="pawaedc">  -1714.53444480 </i>
    <i name="eentropy">     -0.00000000 </i>
    <i name="bandstr">   -172.74165871 </i>
    <i name="atom">    704.16778566 </i>
    <i name="e_fr_energy">    -21.08021712 </i>
    <i name="e_wo_entrp">    -21.08021712 </i>
    <i name="e_0_energy">    -21.08021712 </i>
   </energy>
  </scstep>
  <structure>
   <crystal>
    <varray name="basis" >
     <v>       3.55119700       0.00000000       0.00000000 </v>
     <v>       0.00000000       4.97950100      -0.00005300 </v>
     <v>       0.00000000       0.00000000      20.02439000 </v>
    </varray>
    <i name="volume">    354.09507323 </i>
    <varray name="rec_basis" >
     <v>       0.28159519       0.00000000       0.00000000 </v>
     <v>       0.00000000       0.20082334       0.00000000 </v>
     <v>       0.00000000       0.00000053       0.04993910 </v>
    </varray>
   </crystal>
   <varray name="positions" >
    <v>       0.49999996       0.89821331       0.55151835 </v>
    <v>       0.50000004       0.10178669       0.44848165 </v>
    <v>       0.00000001       0.39820926       0.44848166 </v>
    <v>      -0.00000001       0.60179074       0.55151834 </v>
   </varray>
  </structure>
  <varray name="forces" >
   <v>       0.00000112      -0.00979727      -0.22843538 </v>
   <v>      -0.00000112       0.00979727       0.22843538 </v>
   <v>       0.00000064      -0.00980238       0.22843246 </v>
   <v>      -0.00000064       0.00980238      -0.22843246 </v>
  </varray>
  <varray name="stress" >
   <v>     -32.13473441       0.00000624       0.00000739 </v>
   <v>       0.00000629     -12.51364365       0.00017189 </v>
   <v>       0.00000746       0.00017196      -4.44705826 </v>
  </varray>
  <energy>
   <i name="e_fr_energy">    -21.08021712 </i>
   <i name="e_wo_entrp">    -21.08021712 </i>
   <i name="e_0_energy">     -0.00000000 </i>
  </energy>
  <time name="totalsc">   13.18   13.20</time>
 </calculation>
 <calculation>
  <scstep>
   <time name="dav">    1.75    1.75</time>
   <time name="total">    1.87    1.87</time>
   <energy>
    <i name="alphaZ">      4.53031166 </i>
    <i name="ewald">   1565.08051357 </i>
    <i name="hartreedc">  -2167.28546705 </i>
    <i name="XCdc">     13.04267287 </i>
    <i name="pawpsdc">   1747.64337493 </i>
    <i name="pawaedc">  -1715.20832805 </i>
    <i name="eentropy">     -0.00000000 </i>
    <i name="bandstr">   -173.05155144 </i>
    <i name="atom">    704.16778566 </i>
    <i name="e_fr_energy">    -21.08068785 </i>
    <i name="e_wo_entrp">    -21.08068785 </i>
    <i name="e_0_energy">    -21.08068785 </i>
   </energy>
  </scstep>
  <scstep>
   <time name="dav">    2.02    2.02</time>
   <time name="total">    2.14    2.15</time>
   <energy>
    <i name="e_fr_energy">    -21.08104168 </i>
    <i name="e_wo_entrp">    -21.08104168 </i>
    <i name="e_0_energy">    -21.08104168 </i>
   </energy>
  </scstep>
  <scstep>
   <time name="dav">    2.17    2.17</time>
   <time name="total">    2.29    2.30</time>
   <energy>
    <i name="e_fr_energy">    -21.08105172 </i>
    <i name="e_wo_entrp">    -21.08105172 </i>
    <i name="e_0_energy">    -21.08105172 </i>
   </energy>
  </scstep>
  <scstep>
   <time name="dav">    1.56    1.56</time>
   <time name="total">    1.68    1.68</time>
   <energy>
    <i name="e_fr_energy">    -21.08105623 </i>
    <i name="e_wo_entrp">    -21.08105623 </i>
    <i name="e_0_energy">    -21.08105623 </i>
   </energy>
  </scstep>
  <scstep>
   <time name="dav">    1.48    1.48</time>
   <time name="total">    1.60    1.61</time>
   <energy>
    <i name="e_fr_energy">    -21.08106546 </i>
    <i name="e_wo_entrp">    -21.08106546 </i>
    <i name="e_0_energy">    -21.08106546 </i>
   </energy>
  </scstep>
  <scstep>
   <time name="dav">    1.52    1.52</time>
   <time name="total">    1.54    1.54</time>
   <energy>
    <i name="alphaZ">      4.53031166 </i>
    <i name="ewald">   1565.08051357 </i>
    <i name="hartreedc">  -2167.20558596 </i>
    <i name="XCdc">     13.04356231 </i>
    <i name="pawpsdc">   1762.11259086 </i>
    <i name="pawaedc">  -1729.68287161 </i>
    <i name="eentropy">     -0.00000000 </i>
    <i name="bandstr">   -173.12737797 </i>
    <i name="atom">    704.16778566 </i>
    <i name="e_fr_energy">    -21.08107149 </i>
    <i name="e_wo_entrp">    -21.08107149 </i>
    <i name="e_0_energy">    -21.08107149 </i>
   </energy>
  </scstep>
  <structure>
   <crystal>
    <varray name="basis" >
     <v>       3.55119700       0.00000000       0.00000000 </v>
     <v>       0.00000000       4.97950100      -0.00005300 </v>
     <v>       0.00000000       0.00000000      20.02439000 </v>
    </varray>
    <i name="volume">    354.09507323 </i>
    <varray name="rec_basis" >
     <v>       0.28159519       0.00000000       0.00000000 </v>
     <v>       0.00000000       0.20082334       0.00000000 </v>
     <v>       0.00000000       0.00000053       0.04993910 </v>
    </varray>
   </crystal>
   <varray name="positions" >
    <v>       0.49999995       0.89717352       0.55143535 </v>
    <v>       0.50000005       0.10282648       0.44856465 </v>
    <v>       0.00000001       0.39716947       0.44856466 </v>
    <v>      -0.00000001       0.60283053       0.55143534 </v>
   </varray>
  </structure>
  <varray name="forces" >
   <v>       0.00000124       0.07742235      -0.22510336 </v>
   <v>      -0.00000124      -0.07742235       0.22510336 </v>
   <v>       0.00000049       0.07741800       0.22509875 </v>
   <v>      -0.00000049      -0.07741800      -0.22509875 </v>
  </varray>
  <varray name="stress" >
   <v>     -31.96367705       0.00000930       0.00000720 </v>
   <v>       0.00000931     -11.36464078       0.00015583 </v>
   <v>       0.00000726       0.00015581      -4.28939100 </v>
  </varray>
  <energy>
   <i name="e_fr_energy">    -21.08107149 </i>
   <i name="e_wo_entrp">    -21.08107149 </i>
   <i name="e_0_energy">     -0.00000000 </i>
  </energy>
  <time name="totalsc">   12.00   12.02</time>
 </calculation>
 <calculation>
  <scstep>
   <time name="dav">    1.59    1.59</time>
   <time name="total">    1.71    1.72</time>
   <energy>
    <i name="alphaZ">      4.53031166 </i>
    <i name="ewald">   1572.17313706 </i>
    <i name="hartreedc">  -2173.90508389 </i>
    <i name="XCdc">     13.09330907 </i>
    <i name="pawpsdc">   1762.21929409 </i>
    <i name="pawaedc">  -1729.78958454 </i>
    <i name="eentropy">     -0.00000000 </i>
    <i name="bandstr">   -173.57525300 </i>
    <i name="atom">    704.16778566 </i>
    <i name="e_fr_energy">    -21.08608388 </i>
    <i name="e_wo_entrp">    -21.08608388 </i>
    <i name="e_0_energy">    -21.08608388 </i>
   </energy>
  </scstep>
  <scstep>
   <time name="dav">    1.99    1.99</time>
   <time name="total">    2.11    2.11</time>
   <energy>
    <i name="e_fr_energy">    -21.08748855 </i>
    <i name="e_wo_entrp">    -21.08748855 </i>
    <i name="e_0_energy">    -21.08748855 </i>
   </energy>
  </scstep>
  <scstep>
   <time name="dav">    2.18    2.18</time>
   <time name="total">    2.30    2.30</time>
   <energy>
    <i name="e_fr_energy">    -21.08746699 </i>
    <i name="e_wo_entrp">    -21.08746699 </i>
    <i name="e_0_energy">    -21.08746699 </i>
   </energy>
  </scstep>
  <scstep>
   <time name="dav">    2.00    2.00</time>
   <time name="total">    2.12    2.12</time>
   <energy>
    <i name="e_fr_energy">    -21.08746569 </i>
    <i name="e_wo_entrp">    -21.08746569 </i>
    <i name="e_0_energy">    -21.08746569 </i>
   </energy>
  </scstep>
  <scstep>
   <time name="dav">    1.38    1.38</time>
   <time name="total">    1.50    1.50</time>
   <energy>
    <i name="e_fr_energy">    -21.08746624 </i>
    <i name="e_wo_entrp">    -21.08746624 </i>
    <i name="e_0_energy">    -21.08746624 </i>
   </energy>
  </scstep>
  <scstep>
   <time name="dav">    1.24    1.24</time>
   <time name="total">    1.26    1.26</time>
   <energy>
    <i name="alphaZ">      4.53031166 </i>
    <i name="ewald">   1572.17313706 </i>
    <i name="hartreedc">  -2173.91116681 </i>
    <i name="XCdc">     13.09663076 </i>
    <i name="pawpsdc">   1783.92592175 </i>
    <i name="pawaedc">  -1751.50399811 </i>
    <i name="eentropy">     -0.00000000 </i>
    <i name="bandstr">   -173.56608950 </i>
    <i name="atom">    704.16778566 </i>
    <i name="e_fr_energy">    -21.08746751 </i>
    <i name="e_wo_entrp">    -21.08746751 </i>
    <i name="e_0_energy">    -21.08746751 </i>
   </energy>
  </scstep>
  <structure>
   <crystal>
    <varray name="basis" >
     <v>       3.55119700       0.00000000       0.00000000 </v>
     <v>       0.00000000       4.97950100      -0.00005300 </v>
     <v>       0.00000000       0.00000000      20.02439000 </v>
    </varray>
    <i name="volume">    354.09507323 </i>
    <varray name="rec_basis" >
     <v>       0.28159519       0.00000000       0.00000000 </v>
     <v>       0.00000000       0.20082334       0.00000000 </v>
     <v>       0.00000000       0.00000053       0.04993910 </v>
    </varray>
   </crystal>
   <varray name="positions" >
    <v>       0.49999996       0.89730990       0.55097725 </v>
    <v>       0.50000004       0.10269010       0.44902275 </v>
    <v>       0.00000002       0.39730581       0.44902276 </v>
    <v>      -0.00000002       0.60269419       0.55097724 </v>
   </varray>
  </structure>
  <varray name="forces" >
   <v>       0.00000079       0.03426174      -0.11234175 </v>
   <v>      -0.00000079      -0.03426174       0.11234175 </v>
   <v>       0.00000012       0.03425668       0.11233915 </v>
   <v>      -0.00000012      -0.03425668      -0.11233915 </v>
  </varray>
  <varray name="stress" >
   <v>     -31.70667119       0.00000534       0.00000564 </v>
   <v>       0.00000535     -11.07193464       0.00015966 </v>
   <v>       0.00000561       0.00015963      -2.18615929 </v>
  </varray>
  <energy>
   <i name="e_fr_energy">    -21.08746751 </i>
   <i name="e_wo_entrp">    -21.08746751 </i>
   <i name="e_0_energy">     -0.00000000 </i>
  </energy>
  <time name="totalsc">   11.88   11.90</time>
 </calculation>
 <calculation>
  <scstep>
   <time name="dav">    1.60    1.60</time>
   <time name="total">    1.72    1.73</time>
   <energy>
    <i name="alphaZ">      4.53031166 </i>
    <i name="ewald">   1578.34402343 </i>
    <i name="hartreedc">  -2179.71372339 </i>
    <i name="XCdc">     13.14029986 </i>
    <i name="pawpsdc">   1784.02421592 </i>
    <i name="pawaedc">  -1751.60212132 </i>
    <i name="eentropy">     -0.00000000 </i>
    <i name="bandstr">   -173.97920199 </i>
    <i name="atom">    704.16778566 </i>
    <i name="e_fr_energy">    -21.08841017 </i>
    <i name="e_wo_entrp">    -21.08841017 </i>
    <i name="e_0_energy">    -21.08841017 </i>
   </energy>
  </scstep>
  <scstep>
   <time name="dav">    2.00    2.00</time>
   <time name="total">    2.12    2.12</time>
   <energy>
    <i name="e_fr_energy">    -21.08948803 </i>
    <i name="e_wo_entrp">    -21.08948803 </i>
    <i name="e_0_energy">    -21.08948803 </i>
   </energy>
  </scstep>
  <scstep>
   <time name="dav">    2.17    2.17</time>
   <time name="total">    2.29    2.29</time>
   <energy>
    <i name="e_fr_energy">    -21.08946919 </i>
    <i name="e_wo_entrp">    -21.08946919 </i>
    <i name="e_0_energy">    -21.08946919 </i>
   </energy>
  </scstep>
  <scstep>
   <time name="dav">    1.99    1.99</time>
   <time name="total">    2.11    2.12</time>
   <energy>
    <i name="e_fr_energy">    -21.08946767 </i>
    <i name="e_wo_entrp">    -21.08946767 </i>
    <i name="e_0_energy">    -21.08946767 </i>
   </energy>
  </scstep>
  <scstep>
   <time name="dav">    1.36    1.36</time>
   <time name="total">    1.48    1.48</time>
   <energy>
    <i name="e_fr_energy">    -21.08946770 </i>
    <i name="e_wo_entrp">    -21.08946770 </i>
    <i name="e_0_energy">    -21.08946770 </i>
   </energy>
  </scstep>
  <scstep>
   <time name="dav">    1.26    1.26</time>
   <time name="total">    1.28    1.29</time>
   <energy>
    <i name="alphaZ">      4.53031166 </i>
    <i name="ewald">   1578.34402343 </i>
    <i name="hartreedc">  -2179.72701217 </i>
    <i name="XCdc">     13.14344802 </i>
    <i name="pawpsdc">   1803.64851929 </i>
    <i name="pawaedc">  -1771.23356006 </i>
    <i name="eentropy">     -0.00000000 </i>
    <i name="bandstr">   -173.96298425 </i>
    <i name="atom">    704.16778566 </i>
    <i name="e_fr_energy">    -21.08946842 </i>
    <i name="e_wo_entrp">    -21.08946842 </i>
    <i name="e_0_energy">    -21.08946842 </i>
   </energy>
  </scstep>
  <structure>
   <crystal>
    <varray name="basis" >
     <v>       3.55119700       0.00000000       0.00000000 </v>
     <v>       0.00000000       4.97950100      -0.00005300 </v>
     <v>       0.00000000       0.00000000      20.02439000 </v>
    </varray>
    <i name="volume">    354.09507323 </i>
    <varray name="rec_basis" >
     <v>       0.28159519       0.00000000       0.00000000 </v>
     <v>       0.00000000       0.20082334       0.00000000 </v>
     <v>       0.00000000       0.00000053       0.04993910 </v>
    </varray>
   </crystal>
   <varray name="positions" >
    <v>       0.49999997       0.89742829       0.55057957 </v>
    <v>       0.50000003       0.10257171       0.44942043 </v>
    <v>       0.00000002       0.39742417       0.44942044 </v>
    <v>      -0.00000002       0.60257583       0.55057956 </v>
   </varray>
  </structure>
  <varray name="forces" >
   <v>       0.00000023      -0.00650540      -0.00815979 </v>
   <v>      -0.00000023       0.00650540       0.00815979 </v>
   <v>      -0.00000020      -0.00651119       0.00815937 </v>
   <v>       0.00000020       0.00651119      -0.00815937 </v>
  </varray>
  <varray name="stress" >
   <v>     -31.46025071      -0.00000146       0.00000519 </v>
   <v>      -0.00000147     -10.76596151       0.00016342 </v>
   <v>       0.00000524       0.00016349      -0.25502163 </v>
  </varray>
  <energy>
   <i name="e_fr_energy">    -21.08946842 </i>
   <i name="e_wo_entrp">    -21.08946842 </i>
   <i name="e_0_energy">     -0.00000000 </i>
  </energy>
  <time name="totalsc">   11.89   11.91</time>
 </calculation>
 <calculation>
  <scstep>
   <time name="dav">    1.61    1.61</time>
   <time name="total">    1.73    1.74</time>
   <energy>
    <i name="alphaZ">      4.53031166 </i>
    <i name="ewald">   1578.78648811 </i>
    <i name="hartreedc">  -2180.12820866 </i>
    <i name="XCdc">     13.14640922 </i>
    <i name="pawpsdc">   1803.73076809 </i>
    <i name="pawaedc">  -1771.31565607 </i>
    <i name="eentropy">     -0.00000000 </i>
    <i name="bandstr">   -174.00737175 </i>
    <i name="atom">    704.16778566 </i>
    <i name="e_fr_energy">    -21.08947374 </i>
    <i name="e_wo_entrp">    -21.08947374 </i>
    <i name="e_0_energy">    -21.08947374 </i>
   </energy>
  </scstep>
  <scstep>
   <time name="dav">    2.00    2.00</time>
   <time name="total">    2.12    2.12</time>
   <energy>
    <i name="e_fr_energy">    -21.08948072 </i>
    <i name="e_wo_entrp">    -21.08948072 </i>
    <i name="e_0_energy">    -21.08948072 </i>
   </energy>
  </scstep>
  <scstep>
   <time name="dav">    1.25    1.25</time>
   <time name="total">    1.37    1.37</time>
   <energy>
    <i name="e_fr_energy">    -21.08948137 </i>
    <i name="e_wo_entrp">    -21.08948137 </i>
    <i name="e_0_energy">    -21.08948137 </i>
   </energy>
  </scstep>
  <scstep>
   <time name="dav">    1.33    1.33</time>
   <time name="total">    1.45    1.45</time>
   <energy>
    <i name="e_fr_energy">    -21.08948270 </i>
    <i name="e_wo_entrp">    -21.08948270 </i>
    <i name="e_0_energy">    -21.08948270 </i>
   </energy>
  </scstep>
  <scstep>
   <time name="dav">    1.23    1.23</time>
   <time name="total">    1.35    1.35</time>
   <energy>
    <i name="e_fr_energy">    -21.08948332 </i>
    <i name="e_wo_entrp">    -21.08948332 </i>
    <i name="e_0_energy">    -21.08948332 </i>
   </energy>
  </scstep>
  <scstep>
   <time name="dav">    1.26    1.26</time>
   <time name="total">    1.28    1.28</time>
   <energy>
    <i name="alphaZ">      4.53031166 </i>
    <i name="ewald">   1578.78648811 </i>
    <i name="hartreedc">  -2180.11222510 </i>
    <i name="XCdc">     13.14646417 </i>
    <i name="pawpsdc">   1805.11663093 </i>
    <i name="pawaedc">  -1772.70206294 </i>
    <i name="eentropy">     -0.00000000 </i>
    <i name="bandstr">   -174.02287629 </i>
    <i name="atom">    704.16778566 </i>
    <i name="e_fr_energy">    -21.08948380 </i>
    <i name="e_wo_entrp">    -21.08948380 </i>
    <i name="e_0_energy">    -21.08948380 </i>
   </energy>
  </scstep>
  <structure>
   <crystal>
    <varray name="basis" >
     <v>       3.55119700       0.00000000       0.00000000 </v>
     <v>       0.00000000       4.97950100      -0.00005300 </v>
     <v>       0.00000000       0.00000000      20.02439000 </v>
    </varray>
    <i name="volume">    354.09507323 </i>
    <varray name="rec_basis" >
     <v>       0.28159519       0.00000000       0.00000000 </v>
     <v>       0.00000000       0.20082334       0.00000000 </v>
     <v>       0.00000000       0.00000053       0.04993910 </v>
    </varray>
   </crystal>
   <varray name="positions" >
    <v>       0.49999998       0.89743677       0.55055108 </v>
    <v>       0.50000002       0.10256323       0.44944892 </v>
    <v>       0.00000002       0.39743265       0.44944892 </v>
    <v>      -0.00000002       0.60256735       0.55055108 </v>
   </varray>
  </structure>
  <varray name="forces" >
   <v>       0.00000041      -0.00932950      -0.00096026 </v>
   <v>      -0.00000041       0.00932950       0.00096026 </v>
   <v>      -0.00000023      -0.00933529       0.00096003 </v>
   <v>       0.00000023       0.00933529      -0.00096003 </v>
  </varray>
  <varray name="stress" >
   <v>     -31.42411594       0.00000103       0.00000570 </v>
   <v>       0.00000109     -10.73454302       0.00016403 </v>
   <v>       0.00000571       0.00016396      -0.09077064 </v>
  </varray>
  <energy>
   <i name="e_fr_energy">    -21.08948380 </i>
   <i name="e_wo_entrp">    -21.08948380 </i>
   <i name="e_0_energy">     -0.00000000 </i>
  </energy>
  <time name="totalsc">   10.11   10.13</time>
  <eigenvalues>
   <array>
    <dimension dim="1">band</dimension>
    <dimension dim="2">kpoint</dimension>
    <dimension dim="3">spin</dimension>
    <field>eigene</field>
    <field>occ</field>
    <set>
     <set comment="spin 1">
      <set comment="kpoint 1">
       <r>  -16.9854    1.0000 </r>
       <r>  -14.6190    1.0000 </r>
       <r>  -12.2315    1.0000 </r>
       <r>   -7.8707    1.0000 </r>
       <r>   -7.5987    1.0000 </r>
       <r>   -6.6217    1.0000 </r>
       <r>   -6.5293    1.0000 </r>
       <r>   -5.0167    1.0000 </r>
       <r>   -3.7490    1.0000 </r>
       <r>   -2.7303    1.0000 </r>
       <r>   -1.9079    0.0000 </r>
       <r>   -1.3269    0.0000 </r>
       <r>   -1.1599    0.0000 </r>
       <r>   -0.4318    0.0000 </r>
       <r>    1.8655    0.0000 </r>
       <r>    2.0646    0.0000 </r>
      </set>
      <set comment="kpoint 2">
       <r>  -16.9632    1.0000 </r>
       <r>  -14.5950    1.0000 </r>
       <r>  -12.2464    1.0000 </r>
       <r>   -7.8565    1.0000 </r>
       <r>   -7.6451    1.0000 </r>
       <r>   -6.6468    1.0000 </r>
       <r>   -6.6030    1.0000 </r>
       <r>   -5.1297    1.0000 </r>
       <r>   -3.7564    1.0000 </r>
       <r>   -2.7450    1.0000 </r>
       <r>   -1.7172    0.0000 </r>
       <r>   -1.1427    0.0000 </r>
       <r>   -1.1376    0.0000 </r>
       <r>   -0.5253    0.0000 </r>
       <r>    1.8859    0.0000 </r>
       <r>    2.0933    0.0000 </r>
      </set>
      <set comment="kpoint 3">
       <r>  -16.8964    1.0000 </r>
       <r>  -14.5229    1.0000 </r>
       <r>  -12.2942    1.0000 </r>
       <r>   -7.8149    1.0000 </r>
       <r>   -7.7986    1.0000 </r>
       <r>   -6.9406    1.0000 </r>
       <r>   -6.5472    1.0000 </r>
       <r>   -5.3767    1.0000 </r>
       <r>   -3.7842    1.0000 </r>
       <r>   -2.7919    1.0000 </r>
       <r>   -1.2015    0.0000 </r>
       <r>   -1.0926    0.0000 </r>
       <r>   -0.7552    0.0000 </r>
       <r>   -0.6635    0.0000 </r>
       <r>    1.9012    0.0000 </r>
       <r>    2.1302    0.0000 </r>
      </set>
      <set comment="kpoint 4">
       <r>  -16.7857    1.0000 </r>
       <r>  -14.4030    1.0000 </r>
       <r>  -12.3840    1.0000 </r>
       <r>   -8.0864    1.0000 </r>
       <r>   -7.7492    1.0000 </r>
       <r>   -7.2993    1.0000 </r>
       <r>   -6.4559    1.0000 </r>
       <r>   -5.6017    1.0000 </r>
       <r>   -3.8479    1.0000 </r>
       <r>   -2.8758    1.0000 </r>
       <r>   -1.0195    0.0000 </r>
       <r>   -1.0149    0.0000 </r>
       <r>   -0.4711    0.0000 </r>
       <r>   -0.1042    0.0000 </r>
       <r>    1.5900    0.0000 </r>
       <r>    2.1463    0.0000 </r>
      </set>
      <set comment="kpoint 5">
       <r>  -16.6316    1.0000 </r>
       <r>  -14.2355    1.0000 </r>
       <r>  -12.5280    1.0000 </r>
       <r>   -8.5086    1.0000 </r>
       <r>   -7.6652    1.0000 </r>
       <r>   -7.6336    1.0000 </r>
       <r>   -6.3319    1.0000 </r>
       <r>   -5.7220    1.0000 </r>
       <r>   -3.9658    1.0000 </r>
       <r>   -3.0022    1.0000 </r>
       <r>   -1.2277    0.0000 </r>
       <r>   -0.9230    0.0000 </r>
       <r>    0.2524    0.0000 </r>
       <r>    0.3708    0.0000 </r>
       <r>    1.1540    0.0000 </r>
       <r>    2.0979    0.0000 </r>
      </set>
      <set comment="kpoint 6">
       <r>  -16.4352    1.0000 </r>
       <r>  -14.0208    1.0000 </r>
       <r>  -12.7362    1.0000 </r>
       <r>   -9.0259    1.0000 </r>
       <r>   -7.8896    1.0000 </r>
       <r>   -7.5732    1.0000 </r>
       <r>   -6.1797    1.0000 </r>
       <r>   -5.7373    1.0000 </r>
       <r>   -4.1419    1.0000 </r>
       <r>   -3.1740    1.0000 </r>
       <r>   -1.3252    0.0000 </r>
       <r>   -0.8479    0.0000 </r>
       <r>    0.1518    0.0000 </r>
       <r>    0.7612    0.0000 </r>
       <r>    1.1676    0.0000 </r>
       <r>    2.2855    0.0000 </r>
      </set>
      <set comment="kpoint 7">
       <r>  -16.1981    1.0000 </r>
       <r>  -13.7595    1.0000 </r>
       <r>  -13.0107    1.0000 </r>
       <r>   -9.5901    1.0000 </r>
       <r>   -8.0426    1.0000 </r>
       <r>   -7.4889    1.0000 </r>
       <r>   -6.0064    1.0000 </r>
       <r>   -5.6796    1.0000 </r>
       <r>   -4.3508    1.0000 </r>
       <r>   -3.3894    1.0000 </r>
       <r>   -1.2988    0.0000 </r>
       <r>   -0.8539    0.0000 </r>
       <r>   -0.2190    0.0000 </r>
       <r>    0.5105    0.0000 </r>
       <r>    1.4646    0.0000 </r>
       <r>    2.4843    0.0000 </r>
      </set>
      <set comment="kpoint 8">
       <r>  -15.9223    1.0000 </r>
       <r>  -13.4522    1.0000 </r>
       <r>  -13.3424    1.0000 </r>
       <r>  -10.1663    1.0000 </r>
       <r>   -8.0907    1.0000 </r>
       <r>   -7.4347    1.0000 </r>
       <r>   -5.8228    1.0000 </r>
       <r>   -5.5826    1.0000 </r>
       <r>   -4.5431    1.0000 </r>
       <r>   -3.6394    1.0000 </r>
       <r>   -1.1628    0.0000 </r>
       <r>   -0.9946    0.0000 </r>
       <r>   -0.6391    0.0000 </r>
       <r>    0.4794    0.0000 </r>
       <r>    1.2322    0.0000 </r>
       <r>    2.4381    0.0000 </r>
      </set>
      <set comment="kpoint 9">
       <r>  -15.6106    1.0000 </r>
       <r>  -13.7148    1.0000 </r>
       <r>  -13.1000    1.0000 </r>
       <r>  -10.7327    1.0000 </r>
       <r>   -8.0482    1.0000 </r>
       <r>   -7.4352    1.0000 </r>
       <r>   -5.6445    1.0000 </r>
       <r>   -5.4768    1.0000 </r>
       <r>   -4.6656    1.0000 </r>
       <r>   -3.9079    1.0000 </r>
       <r>   -1.2123    0.0000 </r>
       <r>   -1.0177    0.0000 </r>
       <r>   -0.9396    0.0000 </r>
       <r>    0.6320    0.0000 </r>
       <r>    0.8658    0.0000 </r>
       <r>    2.2079    0.0000 </r>
      </set>
      <set comment="kpoint 10">
       <r>  -15.2669    1.0000 </r>
       <r>  -14.1088    1.0000 </r>
       <r>  -12.7042    1.0000 </r>
       <r>  -11.2765    1.0000 </r>
       <r>   -7.9381    1.0000 </r>
       <r>   -7.5042    1.0000 </r>
       <r>   -5.4928    1.0000 </r>
       <r>   -5.3925    1.0000 </r>
       <r>   -4.6830    1.0000 </r>
       <r>   -4.1736    1.0000 </r>
       <r>   -1.4052    0.0000 </r>
       <r>   -1.3073    0.0000 </r>
       <r>   -0.6491    0.0000 </r>
       <r>    0.4679    0.0000 </r>
       <r>    0.8890    0.0000 </r>
       <r>    1.8911    0.0000 </r>
      </set>
      <set comment="kpoint 11">
       <r>  -14.8967    1.0000 </r>
       <r>  -14.5072    1.0000 </r>
       <r>  -12.2666    1.0000 </r>
       <r>  -11.7895    1.0000 </r>
       <r>   -7.7885    1.0000 </r>
       <r>   -7.6320    1.0000 </r>
       <r>   -5.3914    1.0000 </r>
       <r>   -5.3579    1.0000 </r>
       <r>   -4.5910    1.0000 </r>
       <r>   -4.4111    1.0000 </r>
       <r>   -1.5051    0.0000 </r>
       <r>   -1.4753    0.0000 </r>
       <r>   -0.3076    0.0000 </r>
       <r>    0.0701    0.0000 </r>
       <r>    1.2026    0.0000 </r>
       <r>    1.5449    0.0000 </r>
      </set>
      <set comment="kpoint 12">
       <r>  -16.9677    1.0000 </r>
       <r>  -14.6645    1.0000 </r>
       <r>  -12.1929    1.0000 </r>
       <r>   -8.1668    1.0000 </r>
       <r>   -7.3210    1.0000 </r>
       <r>   -6.5715    1.0000 </r>
       <r>   -6.5152    1.0000 </r>
       <r>   -5.0360    1.0000 </r>
       <r>   -3.7175    1.0000 </r>
       <r>   -2.8491    1.0000 </r>
       <r>   -1.8921    0.0000 </r>
       <r>   -1.3726    0.0000 </r>
       <r>   -1.0441    0.0000 </r>
       <r>   -0.4210    0.0000 </r>
       <r>    1.9044    0.0000 </r>
       <r>    2.0860    0.0000 </r>
      </set>
      <set comment="kpoint 13">
       <r>  -16.9455    1.0000 </r>
       <r>  -14.6408    1.0000 </r>
       <r>  -12.2070    1.0000 </r>
       <r>   -8.1714    1.0000 </r>
       <r>   -7.3485    1.0000 </r>
       <r>   -6.6708    1.0000 </r>
       <r>   -6.5147    1.0000 </r>
       <r>   -5.1508    1.0000 </r>
       <r>   -3.7271    1.0000 </r>
       <r>   -2.8609    1.0000 </r>
       <r>   -1.7026    0.0000 </r>
       <r>   -1.1824    0.0000 </r>
       <r>   -1.0297    0.0000 </r>
       <r>   -0.5086    0.0000 </r>
       <r>    1.9235    0.0000 </r>
       <r>    2.1153    0.0000 </r>
      </set>
      <set comment="kpoint 14">
       <r>  -16.8788    1.0000 </r>
       <r>  -14.5700    1.0000 </r>
       <r>  -12.2525    1.0000 </r>
       <r>   -8.2033    1.0000 </r>
       <r>   -7.4292    1.0000 </r>
       <r>   -6.9603    1.0000 </r>
       <r>   -6.4637    1.0000 </r>
       <r>   -5.4003    1.0000 </r>
       <r>   -3.7614    1.0000 </r>
       <r>   -2.8991    1.0000 </r>
       <r>   -1.1921    0.0000 </r>
       <r>   -0.9857    0.0000 </r>
       <r>   -0.7699    0.0000 </r>
       <r>   -0.6591    0.0000 </r>
       <r>    1.8887    0.0000 </r>
       <r>    2.0696    0.0000 </r>
      </set>
      <set comment="kpoint 15">
       <r>  -16.7682    1.0000 </r>
       <r>  -14.4525    1.0000 </r>
       <r>  -12.3383    1.0000 </r>
       <r>   -8.3303    1.0000 </r>
       <r>   -7.5281    1.0000 </r>
       <r>   -7.3180    1.0000 </r>
       <r>   -6.3756    1.0000 </r>
       <r>   -5.6250    1.0000 </r>
       <r>   -3.8348    1.0000 </r>
       <r>   -2.9699    1.0000 </r>
       <r>   -0.9807    0.0000 </r>
       <r>   -0.9256    0.0000 </r>
       <r>   -0.4628    0.0000 </r>
       <r>   -0.1244    0.0000 </r>
       <r>    1.5030    0.0000 </r>
       <r>    2.1482    0.0000 </r>
      </set>
      <set comment="kpoint 16">
       <r>  -16.6143    1.0000 </r>
       <r>  -14.2894    1.0000 </r>
       <r>  -12.4760    1.0000 </r>
       <r>   -8.6366    1.0000 </r>
       <r>   -7.6520    1.0000 </r>
       <r>   -7.5661    1.0000 </r>
       <r>   -6.2558    1.0000 </r>
       <r>   -5.7437    1.0000 </r>
       <r>   -3.9622    1.0000 </r>
       <r>   -3.0802    1.0000 </r>
       <r>   -1.1693    0.0000 </r>
       <r>   -0.8484    0.0000 </r>
       <r>    0.2593    0.0000 </r>
       <r>    0.3478    0.0000 </r>
       <r>    1.0925    0.0000 </r>
       <r>    2.1003    0.0000 </r>
      </set>
      <set comment="kpoint 17">
       <r>  -16.4182    1.0000 </r>
       <r>  -14.0835    1.0000 </r>
       <r>  -12.6741    1.0000 </r>
       <r>   -9.0988    1.0000 </r>
       <r>   -7.9077    1.0000 </r>
       <r>   -7.5327    1.0000 </r>
       <r>   -6.1099    1.0000 </r>
       <r>   -5.7623    1.0000 </r>
       <r>   -4.1416    1.0000 </r>
       <r>   -3.2349    1.0000 </r>
       <r>   -1.2522    0.0000 </r>
       <r>   -0.7917    0.0000 </r>
       <r>    0.1918    0.0000 </r>
       <r>    0.5804    0.0000 </r>
       <r>    1.2913    0.0000 </r>
       <r>    2.2641    0.0000 </r>
      </set>
      <set comment="kpoint 18">
       <r>  -16.1815    1.0000 </r>
       <r>  -13.8440    1.0000 </r>
       <r>  -12.9260    1.0000 </r>
       <r>   -9.6383    1.0000 </r>
       <r>   -8.0596    1.0000 </r>
       <r>   -7.4719    1.0000 </r>
       <r>   -5.9465    1.0000 </r>
       <r>   -5.7191    1.0000 </r>
       <r>   -4.3413    1.0000 </r>
       <r>   -3.4325    1.0000 </r>
       <r>   -1.2194    0.0000 </r>
       <r>   -0.8229    0.0000 </r>
       <r>   -0.1634    0.0000 </r>
       <r>    0.3693    0.0000 </r>
       <r>    1.6229    0.0000 </r>
       <r>    2.4478    0.0000 </r>
      </set>
      <set comment="kpoint 19">
       <r>  -15.9064    1.0000 </r>
       <r>  -13.6338    1.0000 </r>
       <r>  -13.1609    1.0000 </r>
       <r>  -10.2019    1.0000 </r>
       <r>   -8.1055    1.0000 </r>
       <r>   -7.4249    1.0000 </r>
       <r>   -5.7783    1.0000 </r>
       <r>   -5.6513    1.0000 </r>
       <r>   -4.5072    1.0000 </r>
       <r>   -3.6626    1.0000 </r>
       <r>   -1.0937    0.0000 </r>
       <r>   -0.9913    0.0000 </r>
       <r>   -0.5686    0.0000 </r>
       <r>    0.3452    0.0000 </r>
       <r>    1.4304    0.0000 </r>
       <r>    2.3961    0.0000 </r>
      </set>
      <set comment="kpoint 20">
       <r>  -15.5957    1.0000 </r>
       <r>  -13.7639    1.0000 </r>
       <r>  -13.0518    1.0000 </r>
       <r>  -10.7608    1.0000 </r>
       <r>   -8.0598    1.0000 </r>
       <r>   -7.4265    1.0000 </r>
       <r>   -5.6246    1.0000 </r>
       <r>   -5.5835    1.0000 </r>
       <r>   -4.5901    1.0000 </r>
       <r>   -3.9067    1.0000 </r>
       <r>   -1.2240    0.0000 </r>
       <r>   -1.0518    0.0000 </r>
       <r>   -0.7715    0.0000 </r>
       <r>    0.4492    0.0000 </r>
       <r>    1.1317    0.0000 </r>
       <r>    2.1678    0.0000 </r>
      </set>
      <set comment="kpoint 21">
       <r>  -15.2537    1.0000 </r>
       <r>  -14.1166    1.0000 </r>
       <r>  -12.6986    1.0000 </r>
       <r>  -11.2987    1.0000 </r>
       <r>   -7.9453    1.0000 </r>
       <r>   -7.4970    1.0000 </r>
       <r>   -5.5219    1.0000 </r>
       <r>   -5.5105    1.0000 </r>
       <r>   -4.5764    1.0000 </r>
       <r>   -4.1401    1.0000 </r>
       <r>   -1.4194    0.0000 </r>
       <r>   -1.3029    0.0000 </r>
       <r>   -0.5332    0.0000 </r>
       <r>    0.4318    0.0000 </r>
       <r>    1.0116    0.0000 </r>
       <r>    1.8586    0.0000 </r>
      </set>
      <set comment="kpoint 22">
       <r>  -14.8864    1.0000 </r>
       <r>  -14.5025    1.0000 </r>
       <r>  -12.2752    1.0000 </r>
       <r>  -11.8059    1.0000 </r>
       <r>   -7.7905    1.0000 </r>
       <r>   -7.6287    1.0000 </r>
       <r>   -5.4715    1.0000 </r>
       <r>   -5.4589    1.0000 </r>
       <r>   -4.4865    1.0000 </r>
       <r>   -4.3384    1.0000 </r>
       <r>   -1.5143    0.0000 </r>
       <r>   -1.4759    0.0000 </r>
       <r>   -0.2088    0.0000 </r>
       <r>    0.1397    0.0000 </r>
       <r>    1.2170    0.0000 </r>
       <r>    1.5272    0.0000 </r>
      </set>
      <set comment="kpoint 23">
       <r>  -14.8864    1.0000 </r>
       <r>  -14.5025    1.0000 </r>
       <r>  -12.2752    1.0000 </r>
       <r>  -11.8059    1.0000 </r>
       <r>   -7.7905    1.0000 </r>
       <r>   -7.6287    1.0000 </r>
       <r>   -5.4715    1.0000 </r>
       <r>   -5.4589    1.0000 </r>
       <r>   -4.4865    1.0000 </r>
       <r>   -4.3384    1.0000 </r>
       <r>   -1.5143    0.0000 </r>
       <r>   -1.4759    0.0000 </r>
       <r>   -0.2088    0.0000 </r>
       <r>    0.1397    0.0000 </r>
       <r>    1.2170    0.0000 </r>
       <r>    1.5272    0.0000 </r>
      </set>
      <set comment="kpoint 24">
       <r>  -15.2537    1.0000 </r>
       <r>  -14.1166    1.0000 </r>
       <r>  -12.6986    1.0000 </r>
       <r>  -11.2987    1.0000 </r>
       <r>   -7.9453    1.0000 </r>
       <r>   -7.4970    1.0000 </r>
       <r>   -5.5219    1.0000 </r>
       <r>   -5.5105    1.0000 </r>
       <r>   -4.5764    1.0000 </r>
       <r>   -4.1401    1.0000 </r>
       <r>   -1.4194    0.0000 </r>
       <r>   -1.3029    0.0000 </r>
       <r>   -0.5332    0.0000 </r>
       <r>    0.4318    0.0000 </r>
       <r>    1.0116    0.0000 </r>
       <r>    1.8586    0.0000 </r>
      </set>
      <set comment="kpoint 25">
       <r>  -15.5957    1.0000 </r>
       <r>  -13.7639    1.0000 </r>
       <r>  -13.0518    1.0000 </r>
       <r>  -10.7608    1.0000 </r>
       <r>   -8.0598    1.0000 </r>
       <r>   -7.4265    1.0000 </r>
       <r>   -5.6246    1.0000 </r>
       <r>   -5.5835    1.0000 </r>
       <r>   -4.5901    1.0000 </r>
       <r>   -3.9067    1.0000 </r>
       <r>   -1.2240    0.0000 </r>
       <r>   -1.0518    0.0000 </r>
       <r>   -0.7715    0.0000 </r>
       <r>    0.4492    0.0000 </r>
       <r>    1.1317    0.0000 </r>
       <r>    2.1678    0.0000 </r>
      </set>
      <set comment="kpoint 26">
       <r>  -15.9064    1.0000 </r>
       <r>  -13.6338    1.0000 </r>
       <r>  -13.1609    1.0000 </r>
       <r>  -10.2019    1.0000 </r>
       <r>   -8.1055    1.0000 </r>
       <r>   -7.4249    1.0000 </r>
       <r>   -5.7783    1.0000 </r>
       <r>   -5.6513    1.0000 </r>
       <r>   -4.5072    1.0000 </r>
       <r>   -3.6626    1.0000 </r>
       <r>   -1.0937    0.0000 </r>
       <r>   -0.9913    0.0000 </r>
       <r>   -0.5686    0.0000 </r>
       <r>    0.3452    0.0000 </r>
       <r>    1.4304    0.0000 </r>
       <r>    2.3961    0.0000 </r>
      </set>
      <set comment="kpoint 27">
       <r>  -16.1815    1.0000 </r>
       <r>  -13.8440    1.0000 </r>
       <r>  -12.9260    1.0000 </r>
       <r>   -9.6383    1.0000 </r>
       <r>   -8.0596    1.0000 </r>
       <r>   -7.4719    1.0000 </r>
       <r>   -5.9465    1.0000 </r>
       <r>   -5.7191    1.0000 </r>
       <r>   -4.3413    1.0000 </r>
       <r>   -3.4325    1.0000 </r>
       <r>   -1.2194    0.0000 </r>
       <r>   -0.8229    0.0000 </r>
       <r>   -0.1634    0.0000 </r>
       <r>    0.3693    0.0000 </r>
       <r>    1.6229    0.0000 </r>
       <r>    2.4478    0.0000 </r>
      </set>
      <set comment="kpoint 28">
       <r>  -16.4182    1.0000 </r>
       <r>  -14.0835    1.0000 </r>
       <r>  -12.6741    1.0000 </r>
       <r>   -9.0988    1.0000 </r>
       <r>   -7.9077    1.0000 </r>
       <r>   -7.5327    1.0000 </r>
       <r>   -6.1099    1.0000 </r>
       <r>   -5.7623    1.0000 </r>
       <r>   -4.1416    1.0000 </r>
       <r>   -3.2349    1.0000 </r>
       <r>   -1.2522    0.0000 </r>
       <r>   -0.7917    0.0000 </r>
       <r>    0.1918    0.0000 </r>
       <r>    0.5804    0.0000 </r>
       <r>    1.2913    0.0000 </r>
       <r>    2.2641    0.0000 </r>
      </set>
      <set comment="kpoint 29">
       <r>  -16.6143    1.0000 </r>
       <r>  -14.2894    1.0000 </r>
       <r>  -12.4760    1.0000 </r>
       <r>   -8.6366    1.0000 </r>
       <r>   -7.6520    1.0000 </r>
       <r>   -7.5661    1.0000 </r>
       <r>   -6.2558    1.0000 </r>
       <r>   -5.7437    1.0000 </r>
       <r>   -3.9622    1.0000 </r>
       <r>   -3.0802    1.0000 </r>
       <r>   -1.1693    0.0000 </r>
       <r>   -0.8484    0.0000 </r>
       <r>    0.2593    0.0000 </r>
       <r>    0.3478    0.0000 </r>
       <r>    1.0925    0.0000 </r>
       <r>    2.1003    0.0000 </r>
      </set>
      <set comment="kpoint 30">
       <r>  -16.7682    1.0000 </r>
       <r>  -14.4525    1.0000 </r>
       <r>  -12.3383    1.0000 </r>
       <r>   -8.3303    1.0000 </r>
       <r>   -7.5281    1.0000 </r>
       <r>   -7.3180    1.0000 </r>
       <r>   -6.3756    1.0000 </r>
       <r>   -5.6250    1.0000 </r>
       <r>   -3.8348    1.0000 </r>
       <r>   -2.9699    1.0000 </r>
       <r>   -0.9807    0.0000 </r>
       <r>   -0.9256    0.0000 </r>
       <r>   -0.4628    0.0000 </r>
       <r>   -0.1244    0.0000 </r>
       <r>    1.5030    0.0000 </r>
       <r>    2.1482    0.0000 </r>
      </set>
      <set comment="kpoint 31">
       <r>  -16.8788    1.0000 </r>
       <r>  -14.5700    1.0000 </r>
[...]
       <r>    2.3503    0.0000 </r>
       <r>    2.6457    0.0000 </r>
      </set>
      <set comment="kpoint 153">
       <r>  -15.4352    1.0000 </r>
       <r>  -15.2225    1.0000 </r>
       <r>  -11.3961    1.0000 </r>
       <r>  -11.0984    1.0000 </r>
       <r>   -7.9466    1.0000 </r>
       <r>   -7.8121    1.0000 </r>
       <r>   -5.6147    1.0000 </r>
       <r>   -5.4440    1.0000 </r>
       <r>   -4.0601    1.0000 </r>
       <r>   -4.0278    1.0000 </r>
       <r>   -0.5820    0.0000 </r>
       <r>   -0.3738    0.0000 </r>
       <r>    0.6354    0.0000 </r>
       <r>    0.8458    0.0000 </r>
       <r>    2.0765    0.0000 </r>
       <r>    2.3329    0.0000 </r>
      </set>
      <set comment="kpoint 154">
       <r>  -15.6499    1.0000 </r>
       <r>  -15.4305    1.0000 </r>
       <r>  -11.1660    1.0000 </r>
       <r>  -10.8461    1.0000 </r>
       <r>   -7.7842    1.0000 </r>
       <r>   -7.6560    1.0000 </r>
       <r>   -5.3938    1.0000 </r>
       <r>   -5.1952    1.0000 </r>
       <r>   -4.1647    1.0000 </r>
       <r>   -4.1201    1.0000 </r>
       <r>   -0.5732    0.0000 </r>
       <r>   -0.4396    0.0000 </r>
       <r>    0.7836    0.0000 </r>
       <r>    1.0399    0.0000 </r>
       <r>    1.5144    0.0000 </r>
       <r>    1.7131    0.0000 </r>
      </set>
      <set comment="kpoint 155">
       <r>  -15.8321    1.0000 </r>
       <r>  -15.6090    1.0000 </r>
       <r>  -11.0149    1.0000 </r>
       <r>  -10.6834    1.0000 </r>
       <r>   -7.4750    1.0000 </r>
       <r>   -7.3461    1.0000 </r>
       <r>   -5.2750    1.0000 </r>
       <r>   -5.0298    1.0000 </r>
       <r>   -4.2750    1.0000 </r>
       <r>   -4.1222    1.0000 </r>
       <r>   -0.5683    0.0000 </r>
       <r>   -0.5234    0.0000 </r>
       <r>    0.8095    0.0000 </r>
       <r>    0.8779    0.0000 </r>
       <r>    1.1118    0.0000 </r>
       <r>    1.1760    0.0000 </r>
      </set>
      <set comment="kpoint 156">
       <r>  -15.9772    1.0000 </r>
       <r>  -15.7520    1.0000 </r>
       <r>  -10.9331    1.0000 </r>
       <r>  -10.5980    1.0000 </r>
       <r>   -7.0496    1.0000 </r>
       <r>   -6.9140    1.0000 </r>
       <r>   -5.2422    1.0000 </r>
       <r>   -4.9527    1.0000 </r>
       <r>   -4.3670    1.0000 </r>
       <r>   -4.1064    1.0000 </r>
       <r>   -0.7307    0.0000 </r>
       <r>   -0.7028    0.0000 </r>
       <r>    0.4154    0.0000 </r>
       <r>    0.4986    0.0000 </r>
       <r>    1.0125    0.0000 </r>
       <r>    1.2461    0.0000 </r>
      </set>
      <set comment="kpoint 157">
       <r>  -16.0824    1.0000 </r>
       <r>  -15.8561    1.0000 </r>
       <r>  -10.8968    1.0000 </r>
       <r>  -10.5620    1.0000 </r>
       <r>   -6.5669    1.0000 </r>
       <r>   -6.4226    1.0000 </r>
       <r>   -5.2560    1.0000 </r>
       <r>   -4.9403    1.0000 </r>
       <r>   -4.4742    1.0000 </r>
       <r>   -4.1341    1.0000 </r>
       <r>   -1.1197    0.0000 </r>
       <r>   -1.0686    0.0000 </r>
       <r>    0.2694    0.0000 </r>
       <r>    0.4261    0.0000 </r>
       <r>    1.0113    0.0000 </r>
       <r>    1.2700    0.0000 </r>
      </set>
      <set comment="kpoint 158">
       <r>  -16.1462    1.0000 </r>
       <r>  -15.9192    1.0000 </r>
       <r>  -10.8840    1.0000 </r>
       <r>  -10.5502    1.0000 </r>
       <r>   -6.1230    1.0000 </r>
       <r>   -5.9719    1.0000 </r>
       <r>   -5.2913    1.0000 </r>
       <r>   -4.9635    1.0000 </r>
       <r>   -4.6123    1.0000 </r>
       <r>   -4.2274    1.0000 </r>
       <r>   -1.4731    0.0000 </r>
       <r>   -1.4205    0.0000 </r>
       <r>    0.2798    0.0000 </r>
       <r>    0.5070    0.0000 </r>
       <r>    1.0007    0.0000 </r>
       <r>    1.2723    0.0000 </r>
      </set>
     </set>
    </set>
   </array>
  </eigenvalues>
  <separator name="orbital magnetization" >
   <v name="MAGDIPOLOUT">      0.00000000      0.00000000      0.00000000</v>
  </separator>
  <dos>
   <i name="efermi">     -2.63681430 </i>
   <total>
    <array>
     <dimension dim="1">gridpoints</dimension>
     <dimension dim="2">spin</dimension>
     <field>energy</field>
     <field>total</field>
     <field>integrated</field>
     <set>
      <set comment="spin 1">
       <r>   -17.9812     0.0000     0.0000 </r>
       <r>   -17.9082     0.0000     0.0000 </r>
       <r>   -17.8352     0.0000     0.0000 </r>
       <r>   -17.7622     0.0000     0.0000 </r>
       <r>   -17.6891     0.0000     0.0000 </r>
       <r>   -17.6161     0.0000     0.0000 </r>
       <r>   -17.5431     0.0000     0.0000 </r>
       <r>   -17.4701     0.0000     0.0000 </r>
       <r>   -17.3970     0.0000     0.0000 </r>
       <r>   -17.3240     0.0000     0.0000 </r>
       <r>   -17.2510     0.0000     0.0000 </r>
       <r>   -17.1780     0.0000     0.0000 </r>
       <r>   -17.1049     0.0000     0.0000 </r>
       <r>   -17.0319     0.0000     0.0000 </r>
       <r>   -16.9589     0.3794     0.0277 </r>
       <r>   -16.8859     1.0533     0.1046 </r>
       <r>   -16.8128     0.9374     0.1731 </r>
       <r>   -16.7398     1.0250     0.2479 </r>
       <r>   -16.6668     1.0064     0.3214 </r>
       <r>   -16.5938     1.2147     0.4101 </r>
       <r>   -16.5207     0.9172     0.4771 </r>
       <r>   -16.4477     1.0372     0.5529 </r>
       <r>   -16.3747     0.8256     0.6131 </r>
       <r>   -16.3017     1.3470     0.7115 </r>
       <r>   -16.2286     0.6428     0.7585 </r>
       <r>   -16.1556     1.6781     0.8810 </r>
       <r>   -16.0826     0.8933     0.9462 </r>
       <r>   -16.0096     1.1374     1.0293 </r>
       <r>   -15.9365     0.7885     1.0869 </r>
       <r>   -15.8635     1.3149     1.1829 </r>
       <r>   -15.7905     1.4187     1.2865 </r>
       <r>   -15.7175     0.7424     1.3407 </r>
       <r>   -15.6444     1.1216     1.4226 </r>
       <r>   -15.5714     1.6603     1.5438 </r>
       <r>   -15.4984     0.9953     1.6165 </r>
       <r>   -15.4254     1.2427     1.7073 </r>
       <r>   -15.3523     1.6308     1.8264 </r>
       <r>   -15.2793     0.2197     1.8424 </r>
       <r>   -15.2063     1.9269     1.9831 </r>
       <r>   -15.1333     1.5658     2.0975 </r>
       <r>   -15.0602     1.1454     2.1811 </r>
       <r>   -14.9872     1.0255     2.2560 </r>
       <r>   -14.9142     1.7538     2.3841 </r>
       <r>   -14.8412     1.6400     2.5038 </r>
       <r>   -14.7681     1.7831     2.6340 </r>
       <r>   -14.6951     1.8561     2.7696 </r>
       <r>   -14.6221     1.4725     2.8771 </r>
       <r>   -14.5491     2.2997     3.0450 </r>
       <r>   -14.4760     2.3085     3.2136 </r>
       <r>   -14.4030     2.8021     3.4183 </r>
       <r>   -14.3300     0.7548     3.4734 </r>
       <r>   -14.2570     1.0793     3.5522 </r>
       <r>   -14.1839     1.2830     3.6459 </r>
       <r>   -14.1109     0.8487     3.7079 </r>
       <r>   -14.0379     1.2255     3.7973 </r>
       <r>   -13.9648     0.5145     3.8349 </r>
       <r>   -13.8918     0.1061     3.8427 </r>
       <r>   -13.8188     0.9238     3.9101 </r>
       <r>   -13.7458     0.4738     3.9447 </r>
       <r>   -13.6727     0.2360     3.9620 </r>
       <r>   -13.5997     0.3442     3.9871 </r>
       <r>   -13.5267     0.0028     3.9873 </r>
       <r>   -13.4537     0.0798     3.9931 </r>
       <r>   -13.3806     0.0947     4.0000 </r>
       <r>   -13.3076     0.1721     4.0126 </r>
       <r>   -13.2346     0.0012     4.0127 </r>
       <r>   -13.1616     0.1672     4.0249 </r>
       <r>   -13.0885     0.3199     4.0483 </r>
       <r>   -13.0155     0.4441     4.0807 </r>
       <r>   -12.9425     0.3274     4.1046 </r>
       <r>   -12.8695     0.8281     4.1651 </r>
       <r>   -12.7964     0.0388     4.1679 </r>
       <r>   -12.7234     0.7580     4.2233 </r>
       <r>   -12.6504     1.7179     4.3487 </r>
       <r>   -12.5774     0.8260     4.4090 </r>
       <r>   -12.5043     0.7713     4.4654 </r>
       <r>   -12.4313     1.2883     4.5594 </r>
       <r>   -12.3583     2.0924     4.7122 </r>
       <r>   -12.2853     2.3134     4.8812 </r>
       <r>   -12.2122     2.7010     5.0784 </r>
       <r>   -12.1392     1.4515     5.1844 </r>
       <r>   -12.0662     1.5667     5.2988 </r>
       <r>   -11.9932     1.2265     5.3884 </r>
       <r>   -11.9201     1.9879     5.5336 </r>
       <r>   -11.8471     1.0585     5.6109 </r>
       <r>   -11.7741     1.1874     5.6976 </r>
       <r>   -11.7011     1.7128     5.8226 </r>
       <r>   -11.6280     0.8132     5.8820 </r>
       <r>   -11.5550     0.6972     5.9329 </r>
       <r>   -11.4820     1.0318     6.0083 </r>
       <r>   -11.4090     1.4421     6.1136 </r>
       <r>   -11.3359     0.9619     6.1838 </r>
       <r>   -11.2629     0.9683     6.2546 </r>
       <r>   -11.1899     0.9181     6.3216 </r>
       <r>   -11.1169     1.3471     6.4200 </r>
       <r>   -11.0438     0.3423     6.4450 </r>
       <r>   -10.9708     0.5247     6.4833 </r>
       <r>   -10.8978     0.9824     6.5550 </r>
       <r>   -10.8248     1.3953     6.6569 </r>
       <r>   -10.7517     0.6665     6.7056 </r>
       <r>   -10.6787     0.5555     6.7461 </r>
       <r>   -10.6057     0.4922     6.7821 </r>
       <r>   -10.5327     1.1091     6.8631 </r>
       <r>   -10.4596     0.9276     6.9308 </r>
       <r>   -10.3866     0.1214     6.9397 </r>
       <r>   -10.3136     0.4246     6.9707 </r>
       <r>   -10.2406     0.5311     7.0095 </r>
       <r>   -10.1675     2.0229     7.1572 </r>
       <r>   -10.0945     0.1514     7.1683 </r>
       <r>   -10.0215     0.0008     7.1683 </r>
       <r>    -9.9485     0.6830     7.2182 </r>
       <r>    -9.8754     0.2028     7.2330 </r>
       <r>    -9.8024     1.2008     7.3207 </r>
       <r>    -9.7294     0.5207     7.3587 </r>
       <r>    -9.6564     0.0363     7.3614 </r>
       <r>    -9.5833     0.7871     7.4188 </r>
       <r>    -9.5103     0.4065     7.4485 </r>
       <r>    -9.4373     0.4502     7.4814 </r>
       <r>    -9.3643     0.7542     7.5365 </r>
       <r>    -9.2912     0.1804     7.5497 </r>
       <r>    -9.2182     0.5146     7.5872 </r>
       <r>    -9.1452     0.0011     7.5873 </r>
       <r>    -9.0722     0.6603     7.6355 </r>
       <r>    -8.9991     0.7717     7.6919 </r>
       <r>    -8.9261     0.4155     7.7222 </r>
       <r>    -8.8531     0.2390     7.7397 </r>
       <r>    -8.7801     0.0000     7.7397 </r>
       <r>    -8.7070     0.1314     7.7493 </r>
       <r>    -8.6340     0.4344     7.7810 </r>
       <r>    -8.5610     0.9506     7.8504 </r>
       <r>    -8.4880     0.2100     7.8658 </r>
       <r>    -8.4149     0.0125     7.8667 </r>
       <r>    -8.3419     0.0717     7.8719 </r>
       <r>    -8.2689     0.2761     7.8921 </r>
       <r>    -8.1959     0.3122     7.9149 </r>
       <r>    -8.1228     2.7694     8.1171 </r>
       <r>    -8.0498     3.7991     8.3945 </r>
       <r>    -7.9768     1.6005     8.5114 </r>
       <r>    -7.9038     3.4122     8.7606 </r>
       <r>    -7.8307     1.5636     8.8748 </r>
       <r>    -7.7577     2.8997     9.0865 </r>
       <r>    -7.6847     2.0734     9.2379 </r>
       <r>    -7.6117     3.4296     9.4884 </r>
       <r>    -7.5386     2.8012     9.6929 </r>
       <r>    -7.4656     3.7193     9.9645 </r>
       <r>    -7.3926     6.3688    10.4296 </r>
       <r>    -7.3196     4.7332    10.7753 </r>
       <r>    -7.2465     0.8805    10.8396 </r>
       <r>    -7.1735     1.1881    10.9263 </r>
       <r>    -7.1005     0.8077    10.9853 </r>
       <r>    -7.0275     0.7473    11.0399 </r>
       <r>    -6.9544     1.6057    11.1571 </r>
       <r>    -6.8814     1.1882    11.2439 </r>
       <r>    -6.8084     0.4208    11.2746 </r>
       <r>    -6.7354     1.4354    11.3795 </r>
       <r>    -6.6623     1.7693    11.5087 </r>
       <r>    -6.5893     1.8753    11.6456 </r>
       <r>    -6.5163     2.4293    11.8230 </r>
       <r>    -6.4433     1.6619    11.9444 </r>
       <r>    -6.3702     1.9275    12.0851 </r>
       <r>    -6.2972     2.6701    12.2801 </r>
       <r>    -6.2242     2.7874    12.4837 </r>
       <r>    -6.1512     0.8845    12.5483 </r>
       <r>    -6.0781     2.4207    12.7250 </r>
       <r>    -6.0051     2.5040    12.9079 </r>
       <r>    -5.9321     2.3547    13.0798 </r>
       <r>    -5.8591     3.0745    13.3044 </r>
       <r>    -5.7860     4.3941    13.6252 </r>
       <r>    -5.7130     4.9066    13.9835 </r>
       <r>    -5.6400     3.7870    14.2601 </r>
       <r>    -5.5670     4.8180    14.6119 </r>
       <r>    -5.4939     3.9377    14.8995 </r>
       <r>    -5.4209     3.0509    15.1223 </r>
       <r>    -5.3479     2.4993    15.3048 </r>
       <r>    -5.2748     1.8719    15.4415 </r>
       <r>    -5.2018     1.6930    15.5651 </r>
       <r>    -5.1288     1.6516    15.6857 </r>
       <r>    -5.0558     1.1019    15.7662 </r>
       <r>    -4.9827     1.1005    15.8466 </r>
       <r>    -4.9097     1.2919    15.9409 </r>
       <r>    -4.8367     0.5939    15.9843 </r>
       <r>    -4.7637     0.2154    16.0000 </r>
       <r>    -4.6906     0.1441    16.0105 </r>
       <r>    -4.6176     0.6519    16.0581 </r>
       <r>    -4.5446     1.8882    16.1960 </r>
       <r>    -4.4716     1.2785    16.2894 </r>
       <r>    -4.3985     1.0664    16.3672 </r>
       <r>    -4.3255     2.1275    16.5226 </r>
       <r>    -4.2525     2.2404    16.6862 </r>
       <r>    -4.1795     2.8620    16.8952 </r>
       <r>    -4.1064     5.6258    17.3060 </r>
       <r>    -4.0334     2.8092    17.5112 </r>
       <r>    -3.9604     2.7830    17.7144 </r>
       <r>    -3.8874     4.3753    18.0339 </r>
       <r>    -3.8143     5.5230    18.4372 </r>
       <r>    -3.7413     4.3381    18.7540 </r>
       <r>    -3.6683     3.7150    19.0253 </r>
       <r>    -3.5953     4.1004    19.3247 </r>
       <r>    -3.5222     2.8671    19.5341 </r>
       <r>    -3.4492     1.1164    19.6156 </r>
       <r>    -3.3762     0.7804    19.6726 </r>
       <r>    -3.3032     0.0842    19.6788 </r>
       <r>    -3.2301     0.5548    19.7193 </r>
       <r>    -3.1571     0.8904    19.7843 </r>
       <r>    -3.0841     0.7428    19.8385 </r>
       <r>    -3.0111     0.2579    19.8574 </r>
       <r>    -2.9380     0.4719    19.8918 </r>
       <r>    -2.8650     0.6403    19.9386 </r>
       <r>    -2.7920     0.4928    19.9746 </r>
       <r>    -2.7190     0.3243    19.9982 </r>
       <r>    -2.6459     0.0240    20.0000 </r>
       <r>    -2.5729     0.0000    20.0000 </r>
       <r>    -2.4999     0.0000    20.0000 </r>
       <r>    -2.4269     0.0000    20.0000 </r>
       <r>    -2.3538     0.0000    20.0000 </r>
       <r>    -2.2808     0.0000    20.0000 </r>
       <r>    -2.2078     0.0000    20.0000 </r>
       <r>    -2.1348     0.0000    20.0000 </r>
       <r>    -2.0617     0.0000    20.0000 </r>
       <r>    -1.9887     0.0000    20.0000 </r>
       <r>    -1.9157     0.0336    20.0025 </r>
       <r>    -1.8427     0.3322    20.0267 </r>
       <r>    -1.7696     0.3648    20.0534 </r>
       <r>    -1.6966     0.7984    20.1117 </r>
       <r>    -1.6236     0.9114    20.1782 </r>
       <r>    -1.5506     1.6769    20.3007 </r>
       <r>    -1.4775     2.0810    20.4526 </r>
       <r>    -1.4045     3.4684    20.7059 </r>
       <r>    -1.3315     0.7468    20.7604 </r>
       <r>    -1.2585     2.4662    20.9405 </r>
       <r>    -1.1854     2.9965    21.1594 </r>
       <r>    -1.1124     3.1355    21.3883 </r>
       <r>    -1.0394     3.9565    21.6773 </r>
       <r>    -0.9664     4.8047    22.0281 </r>
       <r>    -0.8933     1.7802    22.1581 </r>
       <r>    -0.8203     3.0626    22.3818 </r>
       <r>    -0.7473     3.7879    22.6584 </r>
       <r>    -0.6743     3.7570    22.9327 </r>
       <r>    -0.6012     4.1574    23.2363 </r>
       <r>    -0.5282     4.6310    23.5745 </r>
       <r>    -0.4552     4.0381    23.8694 </r>
       <r>    -0.3822     4.8846    24.2261 </r>
       <r>    -0.3091     4.3320    24.5424 </r>
       <r>    -0.2361     2.1131    24.6968 </r>
       <r>    -0.1631     2.5555    24.8834 </r>
       <r>    -0.0901     2.4318    25.0609 </r>
       <r>    -0.0170     3.1920    25.2940 </r>
       <r>     0.0560     2.0323    25.4424 </r>
       <r>     0.1290     2.3580    25.6146 </r>
       <r>     0.2020     2.8435    25.8223 </r>
       <r>     0.2751     5.2349    26.2046 </r>
       <r>     0.3481     5.1773    26.5826 </r>
       <r>     0.4211     4.1517    26.8858 </r>
       <r>     0.4941     3.5600    27.1458 </r>
       <r>     0.5672     4.4160    27.4683 </r>
       <r>     0.6402     2.7172    27.6667 </r>
       <r>     0.7132     1.0753    27.7452 </r>
       <r>     0.7862     2.0864    27.8976 </r>
       <r>     0.8593     2.2416    28.0613 </r>
       <r>     0.9323     1.0297    28.1365 </r>
       <r>     1.0053     1.8650    28.2726 </r>
       <r>     1.0783     2.5778    28.4609 </r>
       <r>     1.1514     1.7826    28.5911 </r>
       <r>     1.2244     1.2534    28.6826 </r>
       <r>     1.2974     2.1813    28.8419 </r>
       <r>     1.3704     0.7186    28.8944 </r>
       <r>     1.4435     1.2384    28.9848 </r>
       <r>     1.5165     3.5487    29.2439 </r>
       <r>     1.5895     1.5778    29.3592 </r>
       <r>     1.6625     1.2843    29.4529 </r>
       <r>     1.7356     3.7350    29.7257 </r>
       <r>     1.8086     1.9537    29.8684 </r>
       <r>     1.8816     2.8682    30.0778 </r>
       <r>     1.9546     4.0949    30.3768 </r>
       <r>     2.0277     2.2785    30.5432 </r>
       <r>     2.1007     4.2201    30.8514 </r>
       <r>     2.1737     4.3052    31.1658 </r>
       <r>     2.2467     2.6649    31.3604 </r>
       <r>     2.3198     1.7908    31.4912 </r>
       <r>     2.3928     1.2677    31.5838 </r>
       <r>     2.4658     1.0549    31.6608 </r>
       <r>     2.5388     1.4863    31.7693 </r>
       <r>     2.6119     0.8366    31.8304 </r>
       <r>     2.6849     0.9255    31.8980 </r>
       <r>     2.7579     0.0057    31.8984 </r>
       <r>     2.8309     0.0844    31.9046 </r>
       <r>     2.9040     0.9439    31.9735 </r>
       <r>     2.9770     0.3627    32.0000 </r>
       <r>     3.0500     0.0002    32.0000 </r>
       <r>     3.1230     0.0000    32.0000 </r>
       <r>     3.1961     0.0000    32.0000 </r>
       <r>     3.2691     0.0000    32.0000 </r>
       <r>     3.3421     0.0000    32.0000 </r>
       <r>     3.4151     0.0000    32.0000 </r>
       <r>     3.4882     0.0000    32.0000 </r>
       <r>     3.5612     0.0000    32.0000 </r>
       <r>     3.6342     0.0000    32.0000 </r>
       <r>     3.7073     0.0000    32.0000 </r>
       <r>     3.7803     0.0000    32.0000 </r>
       <r>     3.8533     0.0000    32.0000 </r>
       <r>     3.9263     0.0000    32.0000 </r>
      </set>
     </set>
    </array>
   </total>
  </dos>
 </calculation>
 <structure name="finalpos" >
  <crystal>
   <varray name="basis" >
    <v>       3.55119700       0.00000000       0.00000000 </v>
    <v>       0.00000000       4.97950100      -0.00005300 </v>
    <v>       0.00000000       0.00000000      20.02439000 </v>
   </varray>
   <i name="volume">    354.09507323 </i>
   <varray name="rec_basis" >
    <v>       0.28159519       0.00000000       0.00000000 </v>
    <v>       0.00000000       0.20082334       0.00000000 </v>
    <v>       0.00000000       0.00000053       0.04993910 </v>
   </varray>
  </crystal>
  <varray name="positions" >
   <v>       0.49999998       0.89743677       0.55055108 </v>
   <v>       0.50000002       0.10256323       0.44944892 </v>
   <v>       0.00000002       0.39743265       0.44944892 </v>
   <v>      -0.00000002       0.60256735       0.55055108 </v>
  </varray>
 </structure>
</modeling>
