<?xml version="1.0" encoding="ISO-8859-1"?>
<modeling>
 <generator>
  <i name="program" type="string">vasp </i>
  <i name="version" type="string">5.4.1  </i>
  <i name="subversion" type="string">24Jun15 (build Nov 20 2020 10:29:34) complex                          parallel </i>
  <i name="platform" type="string">IFC91_ompi </i>
  <i name="date" type="string">2021 09 09 </i>
  <i name="time" type="string">15:22:22 </i>
 </generator>
 <incar>
  <i type="string" name="PREC">a</i>
  <i type="string" name="ALGO"> Normal</i>
  <i type="int" name="ISPIN">     1</i>
  <i type="int" name="ICHARG">     2</i>
  <i type="int" name="NELM">   250</i>
  <i type="int" name="NELMDL">    -5</i>
  <i type="int" name="NELMIN">     6</i>
  <i type="int" name="IBRION">     2</i>
  <i name="EDIFF">      0.00001000</i>
  <i name="EDIFFG">     -0.01000000</i>
  <i type="int" name="NSW">   200</i>
  <i type="int" name="ISIF">     2</i>
  <i name="ENCUT">    520.00000000</i>
  <i name="POTIM">      0.30000000</i>
  <i type="logical" name="LREAL"> F  </i>
  <i type="int" name="ISMEAR">     0</i>
  <i name="SIGMA">      0.02000000</i>
  <i type="logical" name="LWAVE"> F  </i>
  <i type="logical" name="LCHARG"> F  </i>
  <i type="logical" name="LAECHG"> F  </i>
  <v type="int" name="KPOINT_BSE">    -1     0     0     0</v>
  <i type="int" name="NELM">   250</i>
 </incar>
 <kpoints>
  <generation param="Gamma">
   <v type="int" name="divisions">      22       14        1 </v>
   <v name="usershift">      0.00000000       0.00000000       0.00000000 </v>
   <v name="genvec1">      0.04545455       0.00000000       0.00000000 </v>
   <v name="genvec2">      0.00000000       0.07142857       0.00000000 </v>
   <v name="genvec3">      0.00000000       0.00000000       1.00000000 </v>
   <v name="shift">      0.00000000       0.00000000       0.00000000 </v>
  </generation>
  <varray name="kpointlist" >
   <v>       0.00000000       0.00000000       0.00000000 </v>
   <v>       0.04545455       0.00000000       0.00000000 </v>
   <v>       0.09090909       0.00000000       0.00000000 </v>
   <v>       0.13636364       0.00000000       0.00000000 </v>
   <v>       0.18181818       0.00000000       0.00000000 </v>
   <v>       0.22727273       0.00000000       0.00000000 </v>
   <v>       0.27272727       0.00000000       0.00000000 </v>
   <v>       0.31818182       0.00000000       0.00000000 </v>
   <v>       0.36363636       0.00000000       0.00000000 </v>
   <v>       0.40909091       0.00000000       0.00000000 </v>
   <v>       0.45454545       0.00000000       0.00000000 </v>
   <v>       0.50000000       0.00000000       0.00000000 </v>
   <v>       0.00000000       0.07142857       0.00000000 </v>
   <v>       0.04545455       0.07142857       0.00000000 </v>
   <v>       0.09090909       0.07142857       0.00000000 </v>
   <v>       0.13636364       0.07142857       0.00000000 </v>
   <v>       0.18181818       0.07142857       0.00000000 </v>
   <v>       0.22727273       0.07142857       0.00000000 </v>
   <v>       0.27272727       0.07142857       0.00000000 </v>
   <v>       0.31818182       0.07142857       0.00000000 </v>
   <v>       0.36363636       0.07142857       0.00000000 </v>
   <v>       0.40909091       0.07142857       0.00000000 </v>
   <v>       0.45454545       0.07142857       0.00000000 </v>
   <v>       0.50000000       0.07142857       0.00000000 </v>
   <v>      -0.45454545       0.07142857       0.00000000 </v>
   <v>      -0.40909091       0.07142857       0.00000000 </v>
   <v>      -0.36363636       0.07142857       0.00000000 </v>
   <v>      -0.31818182       0.07142857       0.00000000 </v>
   <v>      -0.27272727       0.07142857       0.00000000 </v>
   <v>      -0.22727273       0.07142857       0.00000000 </v>
   <v>      -0.18181818       0.07142857       0.00000000 </v>
   <v>      -0.13636364       0.07142857       0.00000000 </v>
   <v>      -0.09090909       0.07142857       0.00000000 </v>
   <v>      -0.04545455       0.07142857       0.00000000 </v>
   <v>       0.00000000       0.14285714       0.00000000 </v>
   <v>       0.04545455       0.14285714       0.00000000 </v>
   <v>       0.09090909       0.14285714       0.00000000 </v>
   <v>       0.13636364       0.14285714       0.00000000 </v>
   <v>       0.18181818       0.14285714       0.00000000 </v>
   <v>       0.22727273       0.14285714       0.00000000 </v>
   <v>       0.27272727       0.14285714       0.00000000 </v>
   <v>       0.31818182       0.14285714       0.00000000 </v>
   <v>       0.36363636       0.14285714       0.00000000 </v>
   <v>       0.40909091       0.14285714       0.00000000 </v>
   <v>       0.45454545       0.14285714       0.00000000 </v>
   <v>       0.50000000       0.14285714       0.00000000 </v>
   <v>      -0.45454545       0.14285714       0.00000000 </v>
   <v>      -0.40909091       0.14285714       0.00000000 </v>
   <v>      -0.36363636       0.14285714       0.00000000 </v>
   <v>      -0.31818182       0.14285714       0.00000000 </v>
   <v>      -0.27272727       0.14285714       0.00000000 </v>
   <v>      -0.22727273       0.14285714       0.00000000 </v>
   <v>      -0.18181818       0.14285714       0.00000000 </v>
   <v>      -0.13636364       0.14285714       0.00000000 </v>
   <v>      -0.09090909       0.14285714       0.00000000 </v>
   <v>      -0.04545455       0.14285714       0.00000000 </v>
   <v>       0.00000000       0.21428571       0.00000000 </v>
   <v>       0.04545455       0.21428571       0.00000000 </v>
   <v>       0.09090909       0.21428571       0.00000000 </v>
   <v>       0.13636364       0.21428571       0.00000000 </v>
   <v>       0.18181818       0.21428571       0.00000000 </v>
   <v>       0.22727273       0.21428571       0.00000000 </v>
   <v>       0.27272727       0.21428571       0.00000000 </v>
   <v>       0.31818182       0.21428571       0.00000000 </v>
   <v>       0.36363636       0.21428571       0.00000000 </v>
   <v>       0.40909091       0.21428571       0.00000000 </v>
   <v>       0.45454545       0.21428571       0.00000000 </v>
   <v>       0.50000000       0.21428571       0.00000000 </v>
   <v>      -0.45454545       0.21428571       0.00000000 </v>
   <v>      -0.40909091       0.21428571       0.00000000 </v>
   <v>      -0.36363636       0.21428571       0.00000000 </v>
   <v>      -0.31818182       0.21428571       0.00000000 </v>
   <v>      -0.27272727       0.21428571       0.00000000 </v>
   <v>      -0.22727273       0.21428571       0.00000000 </v>
   <v>      -0.18181818       0.21428571       0.00000000 </v>
   <v>      -0.13636364       0.21428571       0.00000000 </v>
   <v>      -0.09090909       0.21428571       0.00000000 </v>
   <v>      -0.04545455       0.21428571       0.00000000 </v>
   <v>       0.00000000       0.28571429       0.00000000 </v>
   <v>       0.04545455       0.28571429       0.00000000 </v>
   <v>       0.09090909       0.28571429       0.00000000 </v>
   <v>       0.13636364       0.28571429       0.00000000 </v>
   <v>       0.18181818       0.28571429       0.00000000 </v>
   <v>       0.22727273       0.28571429       0.00000000 </v>
   <v>       0.27272727       0.28571429       0.00000000 </v>
   <v>       0.31818182       0.28571429       0.00000000 </v>
   <v>       0.36363636       0.28571429       0.00000000 </v>
   <v>       0.40909091       0.28571429       0.00000000 </v>
   <v>       0.45454545       0.28571429       0.00000000 </v>
   <v>       0.50000000       0.28571429       0.00000000 </v>
   <v>      -0.45454545       0.28571429       0.00000000 </v>
   <v>      -0.40909091       0.28571429       0.00000000 </v>
   <v>      -0.36363636       0.28571429       0.00000000 </v>
   <v>      -0.31818182       0.28571429       0.00000000 </v>
   <v>      -0.27272727       0.28571429       0.00000000 </v>
   <v>      -0.22727273       0.28571429       0.00000000 </v>
   <v>      -0.18181818       0.28571429       0.00000000 </v>
   <v>      -0.13636364       0.28571429       0.00000000 </v>
   <v>      -0.09090909       0.28571429       0.00000000 </v>
   <v>      -0.04545455       0.28571429       0.00000000 </v>
   <v>       0.00000000       0.35714286       0.00000000 </v>
   <v>       0.04545455       0.35714286       0.00000000 </v>
   <v>       0.09090909       0.35714286       0.00000000 </v>
   <v>       0.13636364       0.35714286       0.00000000 </v>
   <v>       0.18181818       0.35714286       0.00000000 </v>
   <v>       0.22727273       0.35714286       0.00000000 </v>
   <v>       0.27272727       0.35714286       0.00000000 </v>
   <v>       0.31818182       0.35714286       0.00000000 </v>
   <v>       0.36363636       0.35714286       0.00000000 </v>
   <v>       0.40909091       0.35714286       0.00000000 </v>
   <v>       0.45454545       0.35714286       0.00000000 </v>
   <v>       0.50000000       0.35714286       0.00000000 </v>
   <v>      -0.45454545       0.35714286       0.00000000 </v>
   <v>      -0.40909091       0.35714286       0.00000000 </v>
   <v>      -0.36363636       0.35714286       0.00000000 </v>
   <v>      -0.31818182       0.35714286       0.00000000 </v>
   <v>      -0.27272727       0.35714286       0.00000000 </v>
   <v>      -0.22727273       0.35714286       0.00000000 </v>
   <v>      -0.18181818       0.35714286       0.00000000 </v>
   <v>      -0.13636364       0.35714286       0.00000000 </v>
   <v>      -0.09090909       0.35714286       0.00000000 </v>
   <v>      -0.04545455       0.35714286       0.00000000 </v>
   <v>       0.00000000       0.42857143       0.00000000 </v>
   <v>       0.04545455       0.42857143       0.00000000 </v>
   <v>       0.09090909       0.42857143       0.00000000 </v>
   <v>       0.13636364       0.42857143       0.00000000 </v>
   <v>       0.18181818       0.42857143       0.00000000 </v>
   <v>       0.22727273       0.42857143       0.00000000 </v>
   <v>       0.27272727       0.42857143       0.00000000 </v>
   <v>       0.31818182       0.42857143       0.00000000 </v>
   <v>       0.36363636       0.42857143       0.00000000 </v>
   <v>       0.40909091       0.42857143       0.00000000 </v>
   <v>       0.45454545       0.42857143       0.00000000 </v>
   <v>       0.50000000       0.42857143       0.00000000 </v>
   <v>      -0.45454545       0.42857143       0.00000000 </v>
   <v>      -0.40909091       0.42857143       0.00000000 </v>
   <v>      -0.36363636       0.42857143       0.00000000 </v>
   <v>      -0.31818182       0.42857143       0.00000000 </v>
   <v>      -0.27272727       0.42857143       0.00000000 </v>
   <v>      -0.22727273       0.42857143       0.00000000 </v>
   <v>      -0.18181818       0.42857143       0.00000000 </v>
   <v>      -0.13636364       0.42857143       0.00000000 </v>
   <v>      -0.09090909       0.42857143       0.00000000 </v>
   <v>      -0.04545455       0.42857143       0.00000000 </v>
   <v>       0.00000000       0.50000000       0.00000000 </v>
   <v>       0.04545455       0.50000000       0.00000000 </v>
   <v>       0.09090909       0.50000000       0.00000000 </v>
   <v>       0.13636364       0.50000000       0.00000000 </v>
   <v>       0.18181818       0.50000000       0.00000000 </v>
   <v>       0.22727273       0.50000000       0.00000000 </v>
   <v>       0.27272727       0.50000000       0.00000000 </v>
   <v>       0.31818182       0.50000000       0.00000000 </v>
   <v>       0.36363636       0.50000000       0.00000000 </v>
   <v>       0.40909091       0.50000000       0.00000000 </v>
   <v>       0.45454545       0.50000000       0.00000000 </v>
   <v>       0.50000000       0.50000000       0.00000000 </v>
  </varray>
  <varray name="weights" >
   <v>       0.00324675 </v>
   <v>       0.00649351 </v>
   <v>       0.00649351 </v>
   <v>       0.00649351 </v>
   <v>       0.00649351 </v>
   <v>       0.00649351 </v>
   <v>       0.00649351 </v>
   <v>       0.00649351 </v>
   <v>       0.00649351 </v>
   <v>       0.00649351 </v>
   <v>       0.00649351 </v>
   <v>       0.00324675 </v>
   <v>       0.00649351 </v>
   <v>       0.00649351 </v>
   <v>       0.00649351 </v>
   <v>       0.00649351 </v>
   <v>       0.00649351 </v>
   <v>       0.00649351 </v>
   <v>       0.00649351 </v>
   <v>       0.00649351 </v>
   <v>       0.00649351 </v>
   <v>       0.00649351 </v>
   <v>       0.00649351 </v>
   <v>       0.00649351 </v>
   <v>       0.00649351 </v>
   <v>       0.00649351 </v>
   <v>       0.00649351 </v>
   <v>       0.00649351 </v>
   <v>       0.00649351 </v>
   <v>       0.00649351 </v>
   <v>       0.00649351 </v>
   <v>       0.00649351 </v>
   <v>       0.00649351 </v>
   <v>       0.00649351 </v>
   <v>       0.00649351 </v>
   <v>       0.00649351 </v>
   <v>       0.00649351 </v>
   <v>       0.00649351 </v>
   <v>       0.00649351 </v>
   <v>       0.00649351 </v>
   <v>       0.00649351 </v>
   <v>       0.00649351 </v>
   <v>       0.00649351 </v>
   <v>       0.00649351 </v>
   <v>       0.00649351 </v>
   <v>       0.00649351 </v>
   <v>       0.00649351 </v>
   <v>       0.00649351 </v>
   <v>       0.00649351 </v>
   <v>       0.00649351 </v>
   <v>       0.00649351 </v>
   <v>       0.00649351 </v>
   <v>       0.00649351 </v>
   <v>       0.00649351 </v>
   <v>       0.00649351 </v>
   <v>       0.00649351 </v>
   <v>       0.00649351 </v>
   <v>       0.00649351 </v>
   <v>       0.00649351 </v>
   <v>       0.00649351 </v>
   <v>       0.00649351 </v>
   <v>       0.00649351 </v>
   <v>       0.00649351 </v>
   <v>       0.00649351 </v>
   <v>       0.00649351 </v>
   <v>       0.00649351 </v>
   <v>       0.00649351 </v>
   <v>       0.00649351 </v>
   <v>       0.00649351 </v>
   <v>       0.00649351 </v>
   <v>       0.00649351 </v>
   <v>       0.00649351 </v>
   <v>       0.00649351 </v>
   <v>       0.00649351 </v>
   <v>       0.00649351 </v>
   <v>       0.00649351 </v>
   <v>       0.00649351 </v>
   <v>       0.00649351 </v>
   <v>       0.00649351 </v>
   <v>       0.00649351 </v>
   <v>       0.00649351 </v>
   <v>       0.00649351 </v>
   <v>       0.00649351 </v>
   <v>       0.00649351 </v>
   <v>       0.00649351 </v>
   <v>       0.00649351 </v>
   <v>       0.00649351 </v>
   <v>       0.00649351 </v>
   <v>       0.00649351 </v>
   <v>       0.00649351 </v>
   <v>       0.00649351 </v>
   <v>       0.00649351 </v>
   <v>       0.00649351 </v>
   <v>       0.00649351 </v>
   <v>       0.00649351 </v>
   <v>       0.00649351 </v>
   <v>       0.00649351 </v>
   <v>       0.00649351 </v>
   <v>       0.00649351 </v>
   <v>       0.00649351 </v>
   <v>       0.00649351 </v>
   <v>       0.00649351 </v>
   <v>       0.00649351 </v>
   <v>       0.00649351 </v>
   <v>       0.00649351 </v>
   <v>       0.00649351 </v>
   <v>       0.00649351 </v>
   <v>       0.00649351 </v>
   <v>       0.00649351 </v>
   <v>       0.00649351 </v>
   <v>       0.00649351 </v>
   <v>       0.00649351 </v>
   <v>       0.00649351 </v>
   <v>       0.00649351 </v>
   <v>       0.00649351 </v>
   <v>       0.00649351 </v>
   <v>       0.00649351 </v>
   <v>       0.00649351 </v>
   <v>       0.00649351 </v>
   <v>       0.00649351 </v>
   <v>       0.00649351 </v>
   <v>       0.00649351 </v>
   <v>       0.00649351 </v>
   <v>       0.00649351 </v>
   <v>       0.00649351 </v>
   <v>       0.00649351 </v>
   <v>       0.00649351 </v>
   <v>       0.00649351 </v>
   <v>       0.00649351 </v>
   <v>       0.00649351 </v>
   <v>       0.00649351 </v>
   <v>       0.00649351 </v>
   <v>       0.00649351 </v>
   <v>       0.00649351 </v>
   <v>       0.00649351 </v>
   <v>       0.00649351 </v>
   <v>       0.00649351 </v>
   <v>       0.00649351 </v>
   <v>       0.00649351 </v>
   <v>       0.00649351 </v>
   <v>       0.00649351 </v>
   <v>       0.00649351 </v>
   <v>       0.00649351 </v>
   <v>       0.00649351 </v>
   <v>       0.00324675 </v>
   <v>       0.00649351 </v>
   <v>       0.00649351 </v>
   <v>       0.00649351 </v>
   <v>       0.00649351 </v>
   <v>       0.00649351 </v>
   <v>       0.00649351 </v>
   <v>       0.00649351 </v>
   <v>       0.00649351 </v>
   <v>       0.00649351 </v>
   <v>       0.00649351 </v>
   <v>       0.00324675 </v>
  </varray>
 </kpoints>
 <parameters>
  <separator name="general" >
   <i type="string" name="SYSTEM">unknown system</i>
   <i type="logical" name="LCOMPAT"> F  </i>
  </separator>
  <separator name="electronic" >
   <i type="string" name="PREC">a</i>
   <i name="ENMAX">    520.00000000</i>
   <i name="ENAUG">    342.92400000</i>
   <i name="EDIFF">      0.00001000</i>
   <i type="int" name="IALGO">    38</i>
   <i type="int" name="IWAVPR">    11</i>
   <i type="int" name="NBANDS">    16</i>
   <i name="NELECT">     20.00000000</i>
   <i type="int" name="TURBO">     0</i>
   <i type="int" name="IRESTART">     0</i>
   <i type="int" name="NREBOOT">     0</i>
   <i type="int" name="NMIN">     0</i>
   <i name="EREF">      0.00000000</i>
   <separator name="electronic smearing" >
    <i type="int" name="ISMEAR">     0</i>
    <i name="SIGMA">      0.02000000</i>
    <i name="KSPACING">      0.50000000</i>
    <i type="logical" name="KGAMMA"> T  </i>
   </separator>
   <separator name="electronic projectors" >
    <i type="logical" name="LREAL"> F  </i>
    <v name="ROPT">      0.00000000</v>
    <i type="int" name="LMAXPAW">  -100</i>
    <i type="int" name="LMAXMIX">     2</i>
    <i type="logical" name="NLSPLINE"> F  </i>
   </separator>
   <separator name="electronic startup" >
    <i type="int" name="ISTART">     0</i>
    <i type="int" name="ICHARG">     2</i>
    <i type="int" name="INIWAV">     1</i>
   </separator>
   <separator name="electronic spin" >
    <i type="int" name="ISPIN">     1</i>
    <i type="logical" name="LNONCOLLINEAR"> F  </i>
    <v name="MAGMOM">      1.00000000      1.00000000      1.00000000      1.00000000</v>
    <i name="NUPDOWN">     -1.00000000</i>
    <i type="logical" name="LSORBIT"> F  </i>
    <v name="SAXIS">      0.00000000      0.00000000      1.00000000</v>
    <i type="logical" name="LSPIRAL"> F  </i>
    <v name="QSPIRAL">      0.00000000      0.00000000      0.00000000</v>
    <i type="logical" name="LZEROZ"> F  </i>
   </separator>
   <separator name="electronic exchange-correlation" >
    <i type="logical" name="LASPH"> F  </i>
    <i type="logical" name="LMETAGGA"> F  </i>
   </separator>
   <separator name="electronic convergence" >
    <i type="int" name="NELM">   250</i>
    <i type="int" name="NELMDL">    -5</i>
    <i type="int" name="NELMIN">     6</i>
    <i name="ENINI">    520.00000000</i>
    <separator name="electronic convergence detail" >
     <i type="logical" name="LDIAG"> T  </i>
     <i type="logical" name="LSUBROT"> F  </i>
     <i name="WEIMIN">      0.00100000</i>
     <i name="EBREAK">      0.00000016</i>
     <i name="DEPER">      0.30000000</i>
     <i type="int" name="NRMM">     4</i>
     <i name="TIME">      0.40000000</i>
    </separator>
   </separator>
   <separator name="electronic mixer" >
    <i name="AMIX">      0.40000000</i>
    <i name="BMIX">      1.00000000</i>
    <i name="AMIN">      0.10000000</i>
    <i name="AMIX_MAG">      1.60000000</i>
    <i name="BMIX_MAG">      1.00000000</i>
    <separator name="electronic mixer details" >
     <i type="int" name="IMIX">     4</i>
     <i type="logical" name="MIXFIRST"> F  </i>
     <i type="int" name="MAXMIX">   -45</i>
     <i name="WC">    100.00000000</i>
     <i type="int" name="INIMIX">     1</i>
     <i type="int" name="MIXPRE">     1</i>
     <i type="int" name="MREMOVE">     5</i>
    </separator>
   </separator>
   <separator name="electronic dipolcorrection" >
    <i type="logical" name="LDIPOL"> F  </i>
    <i type="logical" name="LMONO"> F  </i>
    <i type="int" name="IDIPOL">     0</i>
    <i name="EPSILON">      1.00000000</i>
    <v name="DIPOL">   -100.00000000   -100.00000000   -100.00000000</v>
    <i name="EFIELD">      0.00000000</i>
   </separator>
  </separator>
  <separator name="grids" >
   <i type="int" name="NGX">    28</i>
   <i type="int" name="NGY">    40</i>
   <i type="int" name="NGZ">   150</i>
   <i type="int" name="NGXF">    56</i>
   <i type="int" name="NGYF">    80</i>
   <i type="int" name="NGZF">   300</i>
   <i type="logical" name="ADDGRID"> F  </i>
  </separator>
  <separator name="ionic" >
   <i type="int" name="NSW">   200</i>
   <i type="int" name="IBRION">     2</i>
   <i type="int" name="ISIF">     2</i>
   <i name="PSTRESS">      0.00000000</i>
   <i name="EDIFFG">     -0.01000000</i>
   <i type="int" name="NFREE">     1</i>
   <i name="POTIM">      0.30000000</i>
   <i name="SMASS">     -3.00000000</i>
   <i name="SCALEE">      1.00000000</i>
  </separator>
  <separator name="ionic md" >
   <i name="TEBEG">      0.00010000</i>
   <i name="TEEND">      0.00010000</i>
   <i type="int" name="NBLOCK">     1</i>
   <i type="int" name="KBLOCK">   200</i>
   <i type="int" name="NPACO">   256</i>
   <i name="APACO">     16.00000000</i>
  </separator>
  <separator name="symmetry" >
   <i type="int" name="ISYM">     2</i>
   <i name="SYMPREC">      0.00001000</i>
  </separator>
  <separator name="dos" >
   <i type="logical" name="LORBIT"> F  </i>
   <v name="RWIGS">     -1.00000000</v>
   <i type="int" name="NEDOS">   301</i>
   <i name="EMIN">     10.00000000</i>
   <i name="EMAX">    -10.00000000</i>
   <i name="EFERMI">      0.00000000</i>
  </separator>
  <separator name="writing" >
   <i type="int" name="NWRITE">     2</i>
   <i type="logical" name="LWAVE"> F  </i>
   <i type="logical" name="LCHARG"> F  </i>
   <i type="logical" name="LPARD"> F  </i>
   <i type="logical" name="LVTOT"> F  </i>
   <i type="logical" name="LVHAR"> F  </i>
   <i type="logical" name="LELF"> F  </i>
   <i type="logical" name="LOPTICS"> F  </i>
   <v name="STM">      0.00000000      0.00000000      0.00000000      0.00000000      0.00000000      0.00000000      0.00000000</v>
  </separator>
  <separator name="performance" >
   <i type="int" name="NPAR">     4</i>
   <i type="int" name="NSIM">     4</i>
   <i type="int" name="NBLK">    -1</i>
   <i type="logical" name="LPLANE"> T  </i>
   <i type="logical" name="LSCALAPACK"> T  </i>
   <i type="logical" name="LSCAAWARE"> F  </i>
   <i type="logical" name="LSCALU"> F  </i>
   <i type="logical" name="LASYNC"> F  </i>
   <i type="logical" name="LORBITALREAL"> F  </i>
  </separator>
  <separator name="miscellaneous" >
   <i type="int" name="IDIOT">     3</i>
   <i type="logical" name="LMUSIC"> F  </i>
   <v name="POMASS">     30.97400000</v>
   <v name="DARWINR">      0.00000000</v>
   <v name="DARWINV">      1.00000000</v>
   <i type="logical" name="LCORR"> T  </i>
  </separator>
  <i type="logical" name="GGA_COMPAT"> T  </i>
  <i type="logical" name="LBERRY"> F  </i>
  <i type="int" name="ICORELEVEL">     0</i>
  <i type="logical" name="LDAU"> F  </i>
  <i type="int" name="I_CONSTRAINED_M">     0</i>
  <separator name="electronic exchange-correlation" >
   <i type="string" name="GGA">--</i>
   <i type="int" name="VOSKOWN">     0</i>
   <i type="logical" name="LHFCALC"> F  </i>
   <i type="string" name="PRECFOCK"></i>
   <i type="logical" name="LSYMGRAD"> F  </i>
   <i type="logical" name="LHFONE"> F  </i>
   <i type="logical" name="LRHFCALC"> F  </i>
   <i type="logical" name="LTHOMAS"> F  </i>
   <i type="logical" name="LMODELHF"> F  </i>
   <i name="ENCUT4O">     -1.00000000</i>
   <i type="int" name="EXXOEP">     0</i>
   <i type="int" name="FOURORBIT">     0</i>
   <i name="AEXX">      0.00000000</i>
   <i name="HFALPHA">      0.00000000</i>
   <i name="MCALPHA">      0.00000000</i>
   <i name="ALDAX">      1.00000000</i>
   <i name="AGGAX">      1.00000000</i>
   <i name="ALDAC">      1.00000000</i>
   <i name="AGGAC">      1.00000000</i>
   <i type="int" name="NKREDX">     1</i>
   <i type="int" name="NKREDY">     1</i>
   <i type="int" name="NKREDZ">     1</i>
   <i type="logical" name="SHIFTRED"> F  </i>
   <i type="logical" name="ODDONLY"> F  </i>
   <i type="logical" name="EVENONLY"> F  </i>
   <i type="int" name="LMAXFOCK">     0</i>
   <i type="int" name="NMAXFOCKAE">     0</i>
   <i type="logical" name="LFOCKAEDFT"> F  </i>
   <i name="HFSCREEN">      0.00000000</i>
   <i name="HFSCREENC">      0.00000000</i>
   <i type="int" name="NBANDSGWLOW">     0</i>
  </separator>
  <separator name="vdW DFT" >
   <i type="logical" name="LUSE_VDW"> F  </i>
   <i name="Zab_VDW">     -0.84910000</i>
   <i name="PARAM1">      0.12340000</i>
   <i name="PARAM2">      1.00000000</i>
   <i name="PARAM3">      0.00000000</i>
  </separator>
  <separator name="model GW" >
   <i type="int" name="MODEL_GW">     0</i>
   <i name="MODEL_EPS0">     49.31535867</i>
   <i name="MODEL_ALPHA">      1.00000000</i>
  </separator>
  <separator name="linear response parameters" >
   <i type="logical" name="LEPSILON"> F  </i>
   <i type="logical" name="LRPA"> F  </i>
   <i type="logical" name="LNABLA"> F  </i>
   <i type="logical" name="LVEL"> F  </i>
   <i type="int" name="KINTER">     0</i>
   <i name="CSHIFT">      0.10000000</i>
   <i name="OMEGAMAX">     -1.00000000</i>
   <i name="DEG_THRESHOLD">      0.00200000</i>
  </separator>
  <separator name="orbital magnetization" >
   <i type="logical" name="NUCIND"> F  </i>
   <v name="MAGPOS">      0.00000000      0.00000000      0.00000000</v>
   <i type="logical" name="LNICSALL"> T  </i>
   <i type="logical" name="ORBITALMAG"> F  </i>
   <i type="logical" name="LMAGBLOCH"> F  </i>
   <i type="logical" name="LCHIMAG"> F  </i>
   <i type="logical" name="LGAUGE"> T  </i>
   <i type="int" name="MAGATOM">     0</i>
   <v name="MAGDIPOL">      0.00000000      0.00000000      0.00000000</v>
   <v name="AVECCONST">      0.00000000      0.00000000      0.00000000</v>
  </separator>
  <separator name="response functions" >
   <i type="logical" name="LADDER"> F  </i>
   <i type="logical" name="LFXC"> F  </i>
   <i type="logical" name="LHARTREE"> T  </i>
   <i type="int" name="IBSE">     0</i>
   <v type="int" name="KPOINT">    -1     0     0     0</v>
   <i type="logical" name="LTCTE"> F  </i>
   <i type="logical" name="LTETE"> F  </i>
   <i type="logical" name="LTRIPLET"> F  </i>
   <i type="logical" name="LFXCEPS"> F  </i>
   <i type="logical" name="LFXHEG"> F  </i>
   <i type="int" name="NATURALO">     0</i>
   <i type="logical" name="L2ORDER"> F  </i>
   <i type="logical" name="LUSEW"> F  </i>
   <i name="ENCUTGW">     -2.00000000</i>
   <i name="ENCUTGWSOFT">     -2.00000000</i>
   <i name="ENCUTLF">     -1.00000000</i>
   <i type="int" name="LMAXMP2">    -1</i>
   <i name="SCISSOR">      0.00000000</i>
   <i type="int" name="NOMEGA">     0</i>
   <i type="int" name="NOMEGAR">     0</i>
   <i type="int" name="NBANDSGW">    -1</i>
   <i type="int" name="NBANDSO">    -1</i>
   <i type="int" name="NBANDSV">    -1</i>
   <i type="int" name="NELM">   250</i>
   <i type="int" name="NELMHF">     1</i>
   <i type="int" name="DIM">     3</i>
   <i type="int" name="ANTIRES">     0</i>
   <i name="OMEGAMAX">    -30.00000000</i>
   <i name="OMEGAMIN">    -30.00000000</i>
   <i name="OMEGATL">   -200.00000000</i>
   <i type="int" name="OMEGAGRID">     0</i>
   <i name="CSHIFT">     -0.10000000</i>
   <i type="logical" name="SELFENERGY"> F  </i>
   <i type="logical" name="LSPECTRAL"> F  </i>
   <i type="logical" name="LSPECTRALGW"> F  </i>
   <i type="logical" name="LSINGLES"> F  </i>
   <i type="logical" name="LFERMIGW"> F  </i>
   <i type="logical" name="ODDONLYGW"> F  </i>
   <i type="logical" name="EVENONLYGW"> F  </i>
   <i type="int" name="NKREDLFX">     1</i>
   <i type="int" name="NKREDLFY">     1</i>
   <i type="int" name="NKREDLFZ">     1</i>
   <i type="int" name="MAXMEM">  1800</i>
   <i type="int" name="TELESCOPE">     0</i>
   <i type="int" name="TAUPAR">     1</i>
   <i type="int" name="OMEGAPAR">    -1</i>
   <i name="LAMBDA">      1.00000000</i>
  </separator>
  <separator name="External order field" >
   <i name="OFIELD_KAPPA">      0.00000000</i>
   <v name="OFIELD_K">      0.00000000      0.00000000      0.00000000</v>
   <i name="OFIELD_Q6_NEAR">      0.00000000</i>
   <i name="OFIELD_Q6_FAR">      0.00000000</i>
   <i name="OFIELD_A">      0.00000000</i>
  </separator>
 </parameters>
 <atominfo>
  <atoms>       4 </atoms>
  <types>       1 </types>
  <array name="atoms" >
   <dimension dim="1">ion</dimension>
   <field type="string">element</field>
   <field type="int">atomtype</field>
   <set>
    <rc><c>P </c><c>   1</c></rc>
    <rc><c>P </c><c>   1</c></rc>
    <rc><c>P </c><c>   1</c></rc>
    <rc><c>P </c><c>   1</c></rc>
   </set>
  </array>
  <array name="atomtypes" >
   <dimension dim="1">type</dimension>
   <field type="int">atomspertype</field>
   <field type="string">element</field>
   <field>mass</field>
   <field>valence</field>
   <field type="string">pseudopotential</field>
   <set>
    <rc><c>   4</c><c>P </c><c>     30.97400000</c><c>      5.00000000</c><c>  PAW_PBE P 06Sep2000                   </c></rc>
   </set>
  </array>
 </atominfo>
 <structure name="initialpos" >
  <crystal>
   <varray name="basis" >
    <v>       3.29720400       0.00000000       0.00000000 </v>
    <v>       0.00000000       4.97950100      -0.00005300 </v>
    <v>       0.00000000       0.00000000      20.02439000 </v>
   </varray>
   <i name="volume">    328.76905783 </i>
   <varray name="rec_basis" >
    <v>       0.30328727       0.00000000       0.00000000 </v>
    <v>       0.00000000       0.20082334       0.00000000 </v>
    <v>       0.00000000       0.00000053       0.04993910 </v>
   </varray>
  </crystal>
  <varray name="positions" >
   <v>       0.50000000       0.91077300       0.55252100 </v>
   <v>       0.50000000       0.08922700       0.44747900 </v>
   <v>       0.00000000       0.41076900       0.44747900 </v>
   <v>       0.00000000       0.58923100       0.55252100 </v>
  </varray>
 </structure>
 <calculation>
  <scstep>
   <time name="dav">    1.59    1.59</time>
   <time name="total">    1.62    1.62</time>
   <energy>
    <i name="alphaZ">      4.87929445 </i>
    <i name="ewald">   1697.13402176 </i>
    <i name="hartreedc">  -2291.69321207 </i>
    <i name="XCdc">     12.40742370 </i>
    <i name="pawpsdc">    559.04011960 </i>
    <i name="pawaedc">   -526.39432044 </i>
    <i name="eentropy">     -0.00046022 </i>
    <i name="bandstr">    -28.76026144 </i>
    <i name="atom">    704.16778566 </i>
    <i name="e_fr_energy">    130.78039100 </i>
    <i name="e_wo_entrp">    130.78085123 </i>
    <i name="e_0_energy">    130.78062112 </i>
   </energy>
  </scstep>
  <scstep>
   <time name="dav">    2.14    2.14</time>
   <time name="total">    2.14    2.15</time>
   <energy>
    <i name="e_fr_energy">     -5.77451293 </i>
    <i name="e_wo_entrp">     -5.77451293 </i>
    <i name="e_0_energy">     -5.77451293 </i>
   </energy>
  </scstep>
  <scstep>
   <time name="dav">    1.96    1.96</time>
   <time name="total">    1.96    1.96</time>
   <energy>
    <i name="e_fr_energy">    -21.11967809 </i>
    <i name="e_wo_entrp">    -21.11967809 </i>
    <i name="e_0_energy">    -21.11967809 </i>
   </energy>
  </scstep>
  <scstep>
   <time name="dav">    1.99    1.99</time>
   <time name="total">    1.99    1.99</time>
   <energy>
    <i name="e_fr_energy">    -21.43962461 </i>
    <i name="e_wo_entrp">    -21.43962461 </i>
    <i name="e_0_energy">    -21.43962461 </i>
   </energy>
  </scstep>
  <scstep>
   <time name="dav">    2.12    2.12</time>
   <time name="total">    2.22    2.22</time>
   <energy>
    <i name="e_fr_energy">    -21.44940311 </i>
    <i name="e_wo_entrp">    -21.44940311 </i>
    <i name="e_0_energy">    -21.44940311 </i>
   </energy>
  </scstep>
  <scstep>
   <time name="dav">    1.92    1.92</time>
   <time name="total">    2.05    2.05</time>
   <energy>
    <i name="e_fr_energy">    -21.33041826 </i>
    <i name="e_wo_entrp">    -21.33041826 </i>
    <i name="e_0_energy">    -21.33041826 </i>
   </energy>
  </scstep>
  <scstep>
   <time name="dav">    1.85    1.85</time>
   <time name="total">    1.97    1.97</time>
   <energy>
    <i name="e_fr_energy">    -21.27433690 </i>
    <i name="e_wo_entrp">    -21.27433690 </i>
    <i name="e_0_energy">    -21.27433690 </i>
   </energy>
  </scstep>
  <scstep>
   <time name="dav">    1.94    1.94</time>
   <time name="total">    2.06    2.07</time>
   <energy>
    <i name="e_fr_energy">    -21.27401954 </i>
    <i name="e_wo_entrp">    -21.27401954 </i>
    <i name="e_0_energy">    -21.27401954 </i>
   </energy>
  </scstep>
  <scstep>
   <time name="dav">    2.19    2.19</time>
   <time name="total">    2.32    2.32</time>
   <energy>
    <i name="e_fr_energy">    -21.27395812 </i>
    <i name="e_wo_entrp">    -21.27395812 </i>
    <i name="e_0_energy">    -21.27395812 </i>
   </energy>
  </scstep>
  <scstep>
   <time name="dav">    1.92    1.92</time>
   <time name="total">    2.04    2.04</time>
   <energy>
    <i name="e_fr_energy">    -21.27383264 </i>
    <i name="e_wo_entrp">    -21.27383264 </i>
    <i name="e_0_energy">    -21.27383264 </i>
   </energy>
  </scstep>
  <scstep>
   <time name="dav">    1.93    1.93</time>
   <time name="total">    2.05    2.05</time>
   <energy>
    <i name="e_fr_energy">    -21.27380042 </i>
    <i name="e_wo_entrp">    -21.27380042 </i>
    <i name="e_0_energy">    -21.27380042 </i>
   </energy>
  </scstep>
  <scstep>
   <time name="dav">    1.68    1.68</time>
   <time name="total">    1.80    1.80</time>
   <energy>
    <i name="e_fr_energy">    -21.27405194 </i>
    <i name="e_wo_entrp">    -21.27405194 </i>
    <i name="e_0_energy">    -21.27405194 </i>
   </energy>
  </scstep>
  <scstep>
   <time name="dav">    1.70    1.70</time>
   <time name="total">    1.82    1.83</time>
   <energy>
    <i name="e_fr_energy">    -21.27413369 </i>
    <i name="e_wo_entrp">    -21.27413369 </i>
    <i name="e_0_energy">    -21.27413369 </i>
   </energy>
  </scstep>
  <scstep>
   <time name="dav">    1.65    1.65</time>
   <time name="total">    1.77    1.77</time>
   <energy>
    <i name="e_fr_energy">    -21.27429599 </i>
    <i name="e_wo_entrp">    -21.27429599 </i>
    <i name="e_0_energy">    -21.27429599 </i>
   </energy>
  </scstep>
  <scstep>
   <time name="dav">    1.65    1.65</time>
   <time name="total">    1.77    1.78</time>
   <energy>
    <i name="e_fr_energy">    -21.27431601 </i>
    <i name="e_wo_entrp">    -21.27431601 </i>
    <i name="e_0_energy">    -21.27431601 </i>
   </energy>
  </scstep>
  <scstep>
   <time name="dav">    1.54    1.54</time>
   <time name="total">    1.66    1.66</time>
   <energy>
    <i name="e_fr_energy">    -21.27435094 </i>
    <i name="e_wo_entrp">    -21.27435094 </i>
    <i name="e_0_energy">    -21.27435094 </i>
   </energy>
  </scstep>
  <scstep>
   <time name="dav">    1.51    1.51</time>
   <time name="total">    1.54    1.54</time>
   <energy>
    <i name="alphaZ">      4.87929445 </i>
    <i name="ewald">   1697.13402176 </i>
    <i name="hartreedc">  -2304.80170369 </i>
    <i name="XCdc">     13.36660982 </i>
    <i name="pawpsdc">   1811.67615218 </i>
    <i name="pawaedc">  -1779.26432013 </i>
    <i name="eentropy">     -0.00000000 </i>
    <i name="bandstr">   -168.43219508 </i>
    <i name="atom">    704.16778566 </i>
    <i name="e_fr_energy">    -21.27435503 </i>
    <i name="e_wo_entrp">    -21.27435503 </i>
    <i name="e_0_energy">    -21.27435503 </i>
   </energy>
  </scstep>
  <structure>
   <crystal>
    <varray name="basis" >
     <v>       3.29720400       0.00000000       0.00000000 </v>
     <v>       0.00000000       4.97950100      -0.00005300 </v>
     <v>       0.00000000       0.00000000      20.02439000 </v>
    </varray>
    <i name="volume">    328.76905783 </i>
    <varray name="rec_basis" >
     <v>       0.30328727       0.00000000       0.00000000 </v>
     <v>       0.00000000       0.20082334       0.00000000 </v>
     <v>       0.00000000       0.00000053       0.04993910 </v>
    </varray>
   </crystal>
   <varray name="positions" >
    <v>       0.50000000       0.91077300       0.55252100 </v>
    <v>       0.50000000       0.08922700       0.44747900 </v>
    <v>       0.00000000       0.41076900       0.44747900 </v>
    <v>       0.00000000       0.58923100       0.55252100 </v>
   </varray>
  </structure>
  <varray name="forces" >
   <v>       0.00000029      -0.97963382      -0.19979056 </v>
   <v>      -0.00000029       0.97963382       0.19979056 </v>
   <v>      -0.00000032      -0.97964248       0.19981387 </v>
   <v>       0.00000032       0.97964248      -0.19981387 </v>
  </varray>
  <varray name="stress" >
   <v>      -7.63537458      -0.00000078       0.00000108 </v>
   <v>      -0.00000079     -24.12542698       0.00034566 </v>
   <v>       0.00000105       0.00034562      -4.15742587 </v>
  </varray>
  <energy>
   <i name="e_fr_energy">    -21.27435503 </i>
   <i name="e_wo_entrp">    -21.27435503 </i>
   <i name="e_0_energy">     -0.00000000 </i>
  </energy>
  <time name="totalsc">   33.59   33.63</time>
 </calculation>
 <calculation>
  <scstep>
   <time name="dav">    1.67    1.67</time>
   <time name="total">    1.79    1.80</time>
   <energy>
    <i name="alphaZ">      4.87929445 </i>
    <i name="ewald">   1706.29523207 </i>
    <i name="hartreedc">  -2312.50566230 </i>
    <i name="XCdc">     13.53295236 </i>
    <i name="pawpsdc">   1811.35526695 </i>
    <i name="pawaedc">  -1778.94348107 </i>
    <i name="eentropy">     -0.00000000 </i>
    <i name="bandstr">   -170.13306270 </i>
    <i name="atom">    704.16778566 </i>
    <i name="e_fr_energy">    -21.35167458 </i>
    <i name="e_wo_entrp">    -21.35167458 </i>
    <i name="e_0_energy">    -21.35167458 </i>
   </energy>
  </scstep>
  <scstep>
   <time name="dav">    1.95    1.95</time>
   <time name="total">    2.07    2.07</time>
   <energy>
    <i name="e_fr_energy">    -21.36248494 </i>
    <i name="e_wo_entrp">    -21.36248494 </i>
    <i name="e_0_energy">    -21.36248494 </i>
   </energy>
  </scstep>
  <scstep>
   <time name="dav">    2.12    2.12</time>
   <time name="total">    2.24    2.25</time>
   <energy>
    <i name="e_fr_energy">    -21.36244557 </i>
    <i name="e_wo_entrp">    -21.36244557 </i>
    <i name="e_0_energy">    -21.36244557 </i>
   </energy>
  </scstep>
  <scstep>
   <time name="dav">    2.11    2.11</time>
   <time name="total">    2.23    2.23</time>
   <energy>
    <i name="e_fr_energy">    -21.36240601 </i>
    <i name="e_wo_entrp">    -21.36240601 </i>
    <i name="e_0_energy">    -21.36240601 </i>
   </energy>
  </scstep>
  <scstep>
   <time name="dav">    1.86    1.86</time>
   <time name="total">    1.98    1.98</time>
   <energy>
    <i name="e_fr_energy">    -21.36241711 </i>
    <i name="e_wo_entrp">    -21.36241711 </i>
    <i name="e_0_energy">    -21.36241711 </i>
   </energy>
  </scstep>
  <scstep>
   <time name="dav">    1.43    1.43</time>
   <time name="total">    1.45    1.45</time>
   <energy>
    <i name="alphaZ">      4.87929445 </i>
    <i name="ewald">   1706.29523207 </i>
    <i name="hartreedc">  -2312.52639413 </i>
    <i name="XCdc">     13.54954326 </i>
    <i name="pawpsdc">   1903.45691483 </i>
    <i name="pawaedc">  -1871.07888533 </i>
    <i name="eentropy">     -0.00000000 </i>
    <i name="bandstr">   -170.10590792 </i>
    <i name="atom">    704.16778566 </i>
    <i name="e_fr_energy">    -21.36241711 </i>
    <i name="e_wo_entrp">    -21.36241711 </i>
    <i name="e_0_energy">    -21.36241711 </i>
   </energy>
  </scstep>
  <structure>
   <crystal>
    <varray name="basis" >
     <v>       3.29720400       0.00000000       0.00000000 </v>
     <v>       0.00000000       4.97950100      -0.00005300 </v>
     <v>       0.00000000       0.00000000      20.02439000 </v>
    </varray>
    <i name="volume">    328.76905783 </i>
    <varray name="rec_basis" >
     <v>       0.30328727       0.00000000       0.00000000 </v>
     <v>       0.00000000       0.20082334       0.00000000 </v>
     <v>       0.00000000       0.00000053       0.04993910 </v>
    </varray>
   </crystal>
   <varray name="positions" >
    <v>       0.50000000       0.90507844       0.55223218 </v>
    <v>       0.50000000       0.09492156       0.44776782 </v>
    <v>      -0.00000000       0.40507439       0.44776782 </v>
    <v>       0.00000000       0.59492561       0.55223218 </v>
   </varray>
  </structure>
  <varray name="forces" >
   <v>      -0.00000008      -0.47976607      -0.19375951 </v>
   <v>       0.00000008       0.47976607       0.19375951 </v>
   <v>       0.00000004      -0.47977287       0.19376942 </v>
   <v>      -0.00000004       0.47977287      -0.19376942 </v>
  </varray>
  <varray name="stress" >
   <v>      -6.65034600       0.00000049      -0.00000101 </v>
   <v>       0.00000054     -16.46135182       0.00024450 </v>
   <v>      -0.00000102       0.00024445      -4.11952832 </v>
  </varray>
  <energy>
   <i name="e_fr_energy">    -21.36241711 </i>
   <i name="e_wo_entrp">    -21.36241711 </i>
   <i name="e_0_energy">     -0.00000000 </i>
  </energy>
  <time name="totalsc">   12.58   12.60</time>
 </calculation>
 <calculation>
  <scstep>
   <time name="dav">    1.68    1.68</time>
   <time name="total">    1.80    1.80</time>
   <energy>
    <i name="alphaZ">      4.87929445 </i>
    <i name="ewald">   1714.75027796 </i>
    <i name="hartreedc">  -2319.49378656 </i>
    <i name="XCdc">     13.70149997 </i>
    <i name="pawpsdc">   1903.94645362 </i>
    <i name="pawaedc">  -1871.56803439 </i>
    <i name="eentropy">     -0.00000000 </i>
    <i name="bandstr">   -171.76447762 </i>
    <i name="atom">    704.16778566 </i>
    <i name="e_fr_energy">    -21.38098690 </i>
    <i name="e_wo_entrp">    -21.38098690 </i>
    <i name="e_0_energy">    -21.38098690 </i>
   </energy>
  </scstep>
  <scstep>
   <time name="dav">    1.96    1.96</time>
   <time name="total">    2.08    2.08</time>
   <energy>
    <i name="e_fr_energy">    -21.38998420 </i>
    <i name="e_wo_entrp">    -21.38998420 </i>
    <i name="e_0_energy">    -21.38998420 </i>
   </energy>
  </scstep>
  <scstep>
   <time name="dav">    2.12    2.12</time>
   <time name="total">    2.24    2.24</time>
   <energy>
    <i name="e_fr_energy">    -21.38994567 </i>
    <i name="e_wo_entrp">    -21.38994567 </i>
    <i name="e_0_energy">    -21.38994567 </i>
   </energy>
  </scstep>
  <scstep>
   <time name="dav">    2.09    2.09</time>
   <time name="total">    2.21    2.21</time>
   <energy>
    <i name="e_fr_energy">    -21.38991284 </i>
    <i name="e_wo_entrp">    -21.38991284 </i>
    <i name="e_0_energy">    -21.38991284 </i>
   </energy>
  </scstep>
  <scstep>
   <time name="dav">    1.81    1.81</time>
   <time name="total">    1.93    1.93</time>
   <energy>
    <i name="e_fr_energy">    -21.38992546 </i>
    <i name="e_wo_entrp">    -21.38992546 </i>
    <i name="e_0_energy">    -21.38992546 </i>
   </energy>
  </scstep>
  <scstep>
   <time name="dav">    1.45    1.45</time>
   <time name="total">    1.47    1.47</time>
   <energy>
    <i name="alphaZ">      4.87929445 </i>
    <i name="ewald">   1714.75027796 </i>
    <i name="hartreedc">  -2319.54609015 </i>
    <i name="XCdc">     13.71802659 </i>
    <i name="pawpsdc">   1995.03567046 </i>
    <i name="pawaedc">  -1962.69113710 </i>
    <i name="eentropy">     -0.00000000 </i>
    <i name="bandstr">   -171.70375414 </i>
    <i name="atom">    704.16778566 </i>
    <i name="e_fr_energy">    -21.38992627 </i>
    <i name="e_wo_entrp">    -21.38992627 </i>
    <i name="e_0_energy">    -21.38992627 </i>
   </energy>
  </scstep>
  <structure>
   <crystal>
    <varray name="basis" >
     <v>       3.29720400       0.00000000       0.00000000 </v>
     <v>       0.00000000       4.97950100      -0.00005300 </v>
     <v>       0.00000000       0.00000000      20.02439000 </v>
    </varray>
    <i name="volume">    328.76905783 </i>
    <varray name="rec_basis" >
     <v>       0.30328727       0.00000000       0.00000000 </v>
     <v>       0.00000000       0.20082334       0.00000000 </v>
     <v>       0.00000000       0.00000053       0.04993910 </v>
    </varray>
   </crystal>
   <varray name="positions" >
    <v>       0.50000000       0.89994339       0.55197175 </v>
    <v>       0.50000000       0.10005661       0.44802825 </v>
    <v>      -0.00000001       0.39993929       0.44802826 </v>
    <v>       0.00000001       0.60006071       0.55197174 </v>
   </varray>
  </structure>
  <varray name="forces" >
   <v>      -0.00000006       0.03328460      -0.19601160 </v>
   <v>       0.00000006      -0.03328460       0.19601160 </v>
   <v>       0.00000006       0.03327948       0.19600956 </v>
   <v>      -0.00000006      -0.03327948      -0.19600956 </v>
  </varray>
  <varray name="stress" >
   <v>      -4.90467680       0.00000122      -0.00000103 </v>
   <v>       0.00000128      -9.09271347       0.00014735 </v>
   <v>      -0.00000104       0.00014739      -4.13633383 </v>
  </varray>
  <energy>
   <i name="e_fr_energy">    -21.38992627 </i>
   <i name="e_wo_entrp">    -21.38992627 </i>
   <i name="e_0_energy">     -0.00000000 </i>
  </energy>
  <time name="totalsc">   12.54   12.55</time>
 </calculation>
 <calculation>
  <scstep>
   <time name="dav">    1.55    1.56</time>
   <time name="total">    1.68    1.68</time>
   <energy>
    <i name="alphaZ">      4.87929445 </i>
    <i name="ewald">   1720.54922103 </i>
    <i name="hartreedc">  -2325.00959604 </i>
    <i name="XCdc">     13.75698689 </i>
    <i name="pawpsdc">   1995.51001361 </i>
    <i name="pawaedc">  -1963.16517592 </i>
    <i name="eentropy">     -0.00000000 </i>
    <i name="bandstr">   -172.08200343 </i>
    <i name="atom">    704.16778566 </i>
    <i name="e_fr_energy">    -21.39347375 </i>
    <i name="e_wo_entrp">    -21.39347375 </i>
    <i name="e_0_energy">    -21.39347375 </i>
   </energy>
  </scstep>
  <scstep>
   <time name="dav">    1.97    1.97</time>
   <time name="total">    2.09    2.09</time>
   <energy>
    <i name="e_fr_energy">    -21.39429731 </i>
    <i name="e_wo_entrp">    -21.39429731 </i>
    <i name="e_0_energy">    -21.39429731 </i>
   </energy>
  </scstep>
  <scstep>
   <time name="dav">    2.14    2.14</time>
   <time name="total">    2.26    2.26</time>
   <energy>
    <i name="e_fr_energy">    -21.39428333 </i>
    <i name="e_wo_entrp">    -21.39428333 </i>
    <i name="e_0_energy">    -21.39428333 </i>
   </energy>
  </scstep>
  <scstep>
   <time name="dav">    1.82    1.82</time>
   <time name="total">    1.94    1.94</time>
   <energy>
    <i name="e_fr_energy">    -21.39428336 </i>
    <i name="e_wo_entrp">    -21.39428336 </i>
    <i name="e_0_energy">    -21.39428336 </i>
   </energy>
  </scstep>
  <scstep>
   <time name="dav">    1.36    1.36</time>
   <time name="total">    1.48    1.48</time>
   <energy>
    <i name="e_fr_energy">    -21.39428392 </i>
    <i name="e_wo_entrp">    -21.39428392 </i>
    <i name="e_0_energy">    -21.39428392 </i>
   </energy>
  </scstep>
  <scstep>
   <time name="dav">    1.32    1.32</time>
   <time name="total">    1.34    1.34</time>
   <energy>
    <i name="alphaZ">      4.87929445 </i>
    <i name="ewald">   1720.54922103 </i>
    <i name="hartreedc">  -2324.98615955 </i>
    <i name="XCdc">     13.75878265 </i>
    <i name="pawpsdc">   2013.11106863 </i>
    <i name="pawaedc">  -1980.77213912 </i>
    <i name="eentropy">     -0.00000000 </i>
    <i name="bandstr">   -172.10213895 </i>
    <i name="atom">    704.16778566 </i>
    <i name="e_fr_energy">    -21.39428519 </i>
    <i name="e_wo_entrp">    -21.39428519 </i>
    <i name="e_0_energy">    -21.39428519 </i>
   </energy>
  </scstep>
  <structure>
   <crystal>
    <varray name="basis" >
     <v>       3.29720400       0.00000000       0.00000000 </v>
     <v>       0.00000000       4.97950100      -0.00005300 </v>
     <v>       0.00000000       0.00000000      20.02439000 </v>
    </varray>
    <i name="volume">    328.76905783 </i>
    <varray name="rec_basis" >
     <v>       0.30328727       0.00000000       0.00000000 </v>
     <v>       0.00000000       0.20082334       0.00000000 </v>
     <v>       0.00000000       0.00000053       0.04993910 </v>
    </varray>
   </crystal>
   <varray name="positions" >
    <v>       0.50000000       0.89995008       0.55162607 </v>
    <v>       0.50000000       0.10004992       0.44837393 </v>
    <v>      -0.00000000       0.39994594       0.44837394 </v>
    <v>       0.00000000       0.60005406       0.55162606 </v>
   </varray>
  </structure>
  <varray name="forces" >
   <v>       0.00000000       0.01321798      -0.11622258 </v>
   <v>      -0.00000000      -0.01321798       0.11622258 </v>
   <v>       0.00000012       0.01321263       0.11622121 </v>
   <v>      -0.00000012      -0.01321263      -0.11622121 </v>
  </varray>
  <varray name="stress" >
   <v>      -4.75507983       0.00000153      -0.00000095 </v>
   <v>       0.00000155      -8.75778054       0.00014485 </v>
   <v>      -0.00000095       0.00014478      -2.45263243 </v>
  </varray>
  <energy>
   <i name="e_fr_energy">    -21.39428519 </i>
   <i name="e_wo_entrp">    -21.39428519 </i>
   <i name="e_0_energy">     -0.00000000 </i>
  </energy>
  <time name="totalsc">   11.61   11.62</time>
 </calculation>
 <calculation>
  <scstep>
   <time name="dav">    1.55    1.55</time>
   <time name="total">    1.67    1.67</time>
   <energy>
    <i name="alphaZ">      4.87929445 </i>
    <i name="ewald">   1729.00464932 </i>
    <i name="hartreedc">  -2332.96260368 </i>
    <i name="XCdc">     13.81653827 </i>
    <i name="pawpsdc">   2013.14310010 </i>
    <i name="pawaedc">  -1980.80405257 </i>
    <i name="eentropy">     -0.00000000 </i>
    <i name="bandstr">   -172.63954504 </i>
    <i name="atom">    704.16778566 </i>
    <i name="e_fr_energy">    -21.39483350 </i>
    <i name="e_wo_entrp">    -21.39483350 </i>
    <i name="e_0_energy">    -21.39483350 </i>
   </energy>
  </scstep>
  <scstep>
   <time name="dav">    1.97    1.97</time>
   <time name="total">    2.10    2.10</time>
   <energy>
    <i name="e_fr_energy">    -21.39658710 </i>
    <i name="e_wo_entrp">    -21.39658710 </i>
    <i name="e_0_energy">    -21.39658710 </i>
   </energy>
  </scstep>
  <scstep>
   <time name="dav">    2.14    2.14</time>
   <time name="total">    2.25    2.26</time>
   <energy>
    <i name="e_fr_energy">    -21.39655034 </i>
    <i name="e_wo_entrp">    -21.39655034 </i>
    <i name="e_0_energy">    -21.39655034 </i>
   </energy>
  </scstep>
  <scstep>
   <time name="dav">    1.88    1.88</time>
   <time name="total">    2.00    2.00</time>
   <energy>
    <i name="e_fr_energy">    -21.39654591 </i>
    <i name="e_wo_entrp">    -21.39654591 </i>
    <i name="e_0_energy">    -21.39654591 </i>
   </energy>
  </scstep>
  <scstep>
   <time name="dav">    1.71    1.71</time>
   <time name="total">    1.83    1.83</time>
   <energy>
    <i name="e_fr_energy">    -21.39654472 </i>
    <i name="e_wo_entrp">    -21.39654472 </i>
    <i name="e_0_energy">    -21.39654472 </i>
   </energy>
  </scstep>
  <scstep>
   <time name="dav">    1.29    1.29</time>
   <time name="total">    1.31    1.31</time>
   <energy>
    <i name="alphaZ">      4.87929445 </i>
    <i name="ewald">   1729.00464932 </i>
    <i name="hartreedc">  -2332.96304512 </i>
    <i name="XCdc">     13.81978557 </i>
    <i name="pawpsdc">   2040.07835143 </i>
    <i name="pawaedc">  -2007.74833980 </i>
    <i name="eentropy">     -0.00000000 </i>
    <i name="bandstr">   -172.63502694 </i>
    <i name="atom">    704.16778566 </i>
    <i name="e_fr_energy">    -21.39654543 </i>
    <i name="e_wo_entrp">    -21.39654543 </i>
    <i name="e_0_energy">    -21.39654543 </i>
   </energy>
  </scstep>
  <structure>
   <crystal>
    <varray name="basis" >
     <v>       3.29720400       0.00000000       0.00000000 </v>
     <v>       0.00000000       4.97950100      -0.00005300 </v>
     <v>       0.00000000       0.00000000      20.02439000 </v>
    </varray>
    <i name="volume">    328.76905783 </i>
    <varray name="rec_basis" >
     <v>       0.30328727       0.00000000       0.00000000 </v>
     <v>       0.00000000       0.20082334       0.00000000 </v>
     <v>       0.00000000       0.00000053       0.04993910 </v>
    </varray>
   </crystal>
   <varray name="positions" >
    <v>       0.50000000       0.89995981       0.55112287 </v>
    <v>       0.50000000       0.10004019       0.44887713 </v>
    <v>      -0.00000000       0.39995562       0.44887713 </v>
    <v>       0.00000000       0.60004438       0.55112287 </v>
   </varray>
  </structure>
  <varray name="forces" >
   <v>       0.00000006      -0.01930731       0.00728900 </v>
   <v>      -0.00000006       0.01930731      -0.00728900 </v>
   <v>       0.00000015      -0.01931294      -0.00728914 </v>
   <v>      -0.00000015       0.01931294       0.00728914 </v>
  </varray>
  <varray name="stress" >
   <v>      -4.51352188       0.00000362      -0.00000097 </v>
   <v>       0.00000360      -8.24464324       0.00014095 </v>
   <v>      -0.00000103       0.00014093       0.02273097 </v>
  </varray>
  <energy>
   <i name="e_fr_energy">    -21.39654543 </i>
   <i name="e_wo_entrp">    -21.39654543 </i>
   <i name="e_0_energy">     -0.00000000 </i>
  </energy>
  <time name="totalsc">   11.98   11.99</time>
 </calculation>
 <calculation>
  <scstep>
   <time name="dav">    1.56    1.56</time>
   <time name="total">    1.68    1.68</time>
   <energy>
    <i name="alphaZ">      4.87929445 </i>
    <i name="ewald">   1728.49947290 </i>
    <i name="hartreedc">  -2332.46628567 </i>
    <i name="XCdc">     13.81602170 </i>
    <i name="pawpsdc">   2040.03390821 </i>
    <i name="pawaedc">  -2007.70368452 </i>
    <i name="eentropy">     -0.00000000 </i>
    <i name="bandstr">   -172.62306123 </i>
    <i name="atom">    704.16778566 </i>
    <i name="e_fr_energy">    -21.39654850 </i>
    <i name="e_wo_entrp">    -21.39654850 </i>
    <i name="e_0_energy">    -21.39654850 </i>
   </energy>
  </scstep>
  <scstep>
   <time name="dav">    1.84    1.84</time>
   <time name="total">    1.96    1.96</time>
   <energy>
    <i name="e_fr_energy">    -21.39655481 </i>
    <i name="e_wo_entrp">    -21.39655481 </i>
    <i name="e_0_energy">    -21.39655481 </i>
   </energy>
  </scstep>
  <scstep>
   <time name="dav">    1.30    1.30</time>
   <time name="total">    1.41    1.42</time>
   <energy>
    <i name="e_fr_energy">    -21.39655537 </i>
    <i name="e_wo_entrp">    -21.39655537 </i>
    <i name="e_0_energy">    -21.39655537 </i>
   </energy>
  </scstep>
  <scstep>
   <time name="dav">    1.40    1.40</time>
   <time name="total">    1.52    1.52</time>
   <energy>
    <i name="e_fr_energy">    -21.39655687 </i>
    <i name="e_wo_entrp">    -21.39655687 </i>
    <i name="e_0_energy">    -21.39655687 </i>
   </energy>
  </scstep>
  <scstep>
   <time name="dav">    1.36    1.36</time>
   <time name="total">    1.48    1.48</time>
   <energy>
    <i name="e_fr_energy">    -21.39655786 </i>
    <i name="e_wo_entrp">    -21.39655786 </i>
    <i name="e_0_energy">    -21.39655786 </i>
   </energy>
  </scstep>
  <scstep>
   <time name="dav">    1.38    1.38</time>
   <time name="total">    1.41    1.41</time>
   <energy>
    <i name="alphaZ">      4.87929445 </i>
    <i name="ewald">   1728.49947290 </i>
    <i name="hartreedc">  -2332.44021001 </i>
    <i name="XCdc">     13.81556647 </i>
    <i name="pawpsdc">   2038.44883754 </i>
    <i name="pawaedc">  -2006.11809473 </i>
    <i name="eentropy">     -0.00000000 </i>
    <i name="bandstr">   -172.64921071 </i>
    <i name="atom">    704.16778566 </i>
    <i name="e_fr_energy">    -21.39655842 </i>
    <i name="e_wo_entrp">    -21.39655842 </i>
    <i name="e_0_energy">    -21.39655842 </i>
   </energy>
  </scstep>
  <structure>
   <crystal>
    <varray name="basis" >
     <v>       3.29720400       0.00000000       0.00000000 </v>
     <v>       0.00000000       4.97950100      -0.00005300 </v>
     <v>       0.00000000       0.00000000      20.02439000 </v>
    </varray>
    <i name="volume">    328.76905783 </i>
    <varray name="rec_basis" >
     <v>       0.30328727       0.00000000       0.00000000 </v>
     <v>       0.00000000       0.20082334       0.00000000 </v>
     <v>       0.00000000       0.00000053       0.04993910 </v>
    </varray>
   </crystal>
   <varray name="positions" >
    <v>       0.50000000       0.89995923       0.55115291 </v>
    <v>       0.50000000       0.10004077       0.44884709 </v>
    <v>      -0.00000000       0.39995505       0.44884709 </v>
    <v>       0.00000000       0.60004495       0.55115291 </v>
   </varray>
  </structure>
  <varray name="forces" >
   <v>      -0.00000003      -0.01704063      -0.00096763 </v>
   <v>       0.00000003       0.01704063       0.00096763 </v>
   <v>       0.00000007      -0.01704625       0.00096742 </v>
   <v>      -0.00000007       0.01704625      -0.00096742 </v>
  </varray>
  <varray name="stress" >
   <v>      -4.50166303       0.00000030      -0.00000097 </v>
   <v>       0.00000026      -8.26575039       0.00014205 </v>
   <v>      -0.00000097       0.00014200      -0.09361890 </v>
  </varray>
  <energy>
   <i name="e_fr_energy">    -21.39655842 </i>
   <i name="e_wo_entrp">    -21.39655842 </i>
   <i name="e_0_energy">     -0.00000000 </i>
  </energy>
  <time name="totalsc">   10.28   10.30</time>
 </calculation>
 <calculation>
  <scstep>
   <time name="dav">    1.42    1.42</time>
   <time name="total">    1.54    1.54</time>
   <energy>
    <i name="alphaZ">      4.87929445 </i>
    <i name="ewald">   1728.55359353 </i>
    <i name="hartreedc">  -2332.48689207 </i>
    <i name="XCdc">     13.81591796 </i>
    <i name="pawpsdc">   2038.42113191 </i>
    <i name="pawaedc">  -2006.09040714 </i>
    <i name="eentropy">     -0.00000000 </i>
    <i name="bandstr">   -172.65698356 </i>
    <i name="atom">    704.16778566 </i>
    <i name="e_fr_energy">    -21.39655925 </i>
    <i name="e_wo_entrp">    -21.39655925 </i>
    <i name="e_0_energy">    -21.39655925 </i>
   </energy>
  </scstep>
  <scstep>
   <time name="dav">    1.32    1.32</time>
   <time name="total">    1.43    1.44</time>
   <energy>
    <i name="e_fr_energy">    -21.39655954 </i>
    <i name="e_wo_entrp">    -21.39655954 </i>
    <i name="e_0_energy">    -21.39655954 </i>
   </energy>
  </scstep>
  <scstep>
   <time name="dav">    1.24    1.24</time>
   <time name="total">    1.36    1.36</time>
   <energy>
    <i name="e_fr_energy">    -21.39655971 </i>
    <i name="e_wo_entrp">    -21.39655971 </i>
    <i name="e_0_energy">    -21.39655971 </i>
   </energy>
  </scstep>
  <scstep>
   <time name="dav">    1.30    1.30</time>
   <time name="total">    1.42    1.42</time>
   <energy>
    <i name="e_fr_energy">    -21.39655991 </i>
    <i name="e_wo_entrp">    -21.39655991 </i>
    <i name="e_0_energy">    -21.39655991 </i>
   </energy>
  </scstep>
  <scstep>
   <time name="dav">    1.27    1.27</time>
   <time name="total">    1.39    1.39</time>
   <energy>
    <i name="e_fr_energy">    -21.39656002 </i>
    <i name="e_wo_entrp">    -21.39656002 </i>
    <i name="e_0_energy">    -21.39656002 </i>
   </energy>
  </scstep>
  <scstep>
   <time name="dav">    1.32    1.32</time>
   <time name="total">    1.34    1.35</time>
   <energy>
    <i name="alphaZ">      4.87929445 </i>
    <i name="ewald">   1728.55359353 </i>
    <i name="hartreedc">  -2332.48110967 </i>
    <i name="XCdc">     13.81588825 </i>
    <i name="pawpsdc">   2038.58395736 </i>
    <i name="pawaedc">  -2006.25329631 </i>
    <i name="eentropy">     -0.00000000 </i>
    <i name="bandstr">   -172.66267342 </i>
    <i name="atom">    704.16778566 </i>
    <i name="e_fr_energy">    -21.39656014 </i>
    <i name="e_wo_entrp">    -21.39656014 </i>
    <i name="e_0_energy">    -21.39656014 </i>
   </energy>
  </scstep>
  <structure>
   <crystal>
    <varray name="basis" >
     <v>       3.29720400       0.00000000       0.00000000 </v>
     <v>       0.00000000       4.97950100      -0.00005300 </v>
     <v>       0.00000000       0.00000000      20.02439000 </v>
    </varray>
    <i name="volume">    328.76905783 </i>
    <varray name="rec_basis" >
     <v>       0.30328727       0.00000000       0.00000000 </v>
     <v>       0.00000000       0.20082334       0.00000000 </v>
     <v>       0.00000000       0.00000053       0.04993910 </v>
    </varray>
   </crystal>
   <varray name="positions" >
    <v>       0.50000000       0.89995929       0.55114969 </v>
    <v>       0.50000000       0.10004071       0.44885031 </v>
    <v>      -0.00000000       0.39995511       0.44885031 </v>
    <v>       0.00000000       0.60004489       0.55114969 </v>
   </varray>
  </structure>
  <varray name="forces" >
   <v>      -0.00000003      -0.01726117      -0.00001390 </v>
   <v>       0.00000003       0.01726117       0.00001390 </v>
   <v>       0.00000007      -0.01726679       0.00001370 </v>
   <v>      -0.00000007       0.01726679      -0.00001370 </v>
  </varray>
  <varray name="stress" >
   <v>      -4.50071490       0.00000027      -0.00000099 </v>
   <v>       0.00000025      -8.26267103       0.00014211 </v>
   <v>      -0.00000095       0.00014211      -0.07273863 </v>
  </varray>
  <energy>
   <i name="e_fr_energy">    -21.39656014 </i>
   <i name="e_wo_entrp">    -21.39656014 </i>
   <i name="e_0_energy">     -0.00000000 </i>
  </energy>
  <time name="totalsc">    9.30    9.31</time>
 </calculation>
 <calculation>
  <scstep>
   <time name="dav">    1.69    1.69</time>
   <time name="total">    1.81    1.81</time>
   <energy>
    <i name="alphaZ">      4.87929445 </i>
    <i name="ewald">   1728.83690969 </i>
    <i name="hartreedc">  -2332.71810344 </i>
    <i name="XCdc">     13.82059107 </i>
    <i name="pawpsdc">   2038.58565690 </i>
    <i name="pawaedc">  -2006.25499493 </i>
    <i name="eentropy">     -0.00000000 </i>
    <i name="bandstr">   -172.71371997 </i>
    <i name="atom">    704.16778566 </i>
    <i name="e_fr_energy">    -21.39658057 </i>
    <i name="e_wo_entrp">    -21.39658057 </i>
    <i name="e_0_energy">    -21.39658057 </i>
   </energy>
  </scstep>
  <scstep>
   <time name="dav">    1.96    1.96</time>
   <time name="total">    2.08    2.09</time>
   <energy>
    <i name="e_fr_energy">    -21.39658910 </i>
    <i name="e_wo_entrp">    -21.39658910 </i>
    <i name="e_0_energy">    -21.39658910 </i>
   </energy>
  </scstep>
  <scstep>
   <time name="dav">    1.23    1.23</time>
   <time name="total">    1.36    1.36</time>
   <energy>
    <i name="e_fr_energy">    -21.39658927 </i>
    <i name="e_wo_entrp">    -21.39658927 </i>
    <i name="e_0_energy">    -21.39658927 </i>
   </energy>
  </scstep>
  <scstep>
   <time name="dav">    1.14    1.14</time>
   <time name="total">    1.26    1.26</time>
   <energy>
    <i name="e_fr_energy">    -21.39658967 </i>
    <i name="e_wo_entrp">    -21.39658967 </i>
    <i name="e_0_energy">    -21.39658967 </i>
   </energy>
  </scstep>
  <scstep>
   <time name="dav">    1.14    1.14</time>
   <time name="total">    1.26    1.26</time>
   <energy>
    <i name="e_fr_energy">    -21.39658960 </i>
    <i name="e_wo_entrp">    -21.39658960 </i>
    <i name="e_0_energy">    -21.39658960 </i>
   </energy>
  </scstep>
  <scstep>
   <time name="dav">    1.16    1.16</time>
   <time name="total">    1.18    1.18</time>
   <energy>
    <i name="alphaZ">      4.87929445 </i>
    <i name="ewald">   1728.83690969 </i>
    <i name="hartreedc">  -2332.72001898 </i>
    <i name="XCdc">     13.82106364 </i>
    <i name="pawpsdc">   2041.30021497 </i>
    <i name="pawaedc">  -2008.97059999 </i>
    <i name="eentropy">     -0.00000000 </i>
    <i name="bandstr">   -172.71123905 </i>
    <i name="atom">    704.16778566 </i>
    <i name="e_fr_energy">    -21.39658961 </i>
    <i name="e_wo_entrp">    -21.39658961 </i>
    <i name="e_0_energy">    -21.39658961 </i>
   </energy>
  </scstep>
  <structure>
   <crystal>
    <varray name="basis" >
     <v>       3.29720400       0.00000000       0.00000000 </v>
     <v>       0.00000000       4.97950100      -0.00005300 </v>
     <v>       0.00000000       0.00000000      20.02439000 </v>
    </varray>
    <i name="volume">    328.76905783 </i>
    <varray name="rec_basis" >
     <v>       0.30328727       0.00000000       0.00000000 </v>
     <v>       0.00000000       0.20082334       0.00000000 </v>
     <v>       0.00000000       0.00000053       0.04993910 </v>
    </varray>
   </crystal>
   <varray name="positions" >
    <v>       0.50000000       0.89980840       0.55113995 </v>
    <v>       0.50000000       0.10019160       0.44886005 </v>
    <v>      -0.00000000       0.39980417       0.44886005 </v>
    <v>       0.00000000       0.60019583       0.55113995 </v>
   </varray>
  </structure>
  <varray name="forces" >
   <v>      -0.00000003      -0.00136102      -0.00009775 </v>
   <v>       0.00000003       0.00136102       0.00009775 </v>
   <v>       0.00000005      -0.00136518       0.00009776 </v>
   <v>      -0.00000005       0.00136518      -0.00009776 </v>
  </varray>
  <varray name="stress" >
   <v>      -4.43263828      -0.00000026      -0.00000079 </v>
   <v>      -0.00000027      -8.04028623       0.00012543 </v>
   <v>      -0.00000084       0.00012546      -0.07571532 </v>
  </varray>
  <energy>
   <i name="e_fr_energy">    -21.39658961 </i>
   <i name="e_wo_entrp">    -21.39658961 </i>
   <i name="e_0_energy">     -0.00000000 </i>
  </energy>
  <time name="totalsc">    9.70    9.71</time>
  <eigenvalues>
   <array>
    <dimension dim="1">band</dimension>
    <dimension dim="2">kpoint</dimension>
    <dimension dim="3">spin</dimension>
    <field>eigene</field>
    <field>occ</field>
    <set>
     <set comment="spin 1">
      <set comment="kpoint 1">
       <r>  -17.2740    1.0000 </r>
       <r>  -15.0583    1.0000 </r>
       <r>  -12.0146    1.0000 </r>
       <r>   -8.0790    1.0000 </r>
       <r>   -7.4957    1.0000 </r>
       <r>   -6.8112    1.0000 </r>
       <r>   -5.6871    1.0000 </r>
       <r>   -4.2888    1.0000 </r>
       <r>   -3.9548    1.0000 </r>
       <r>   -2.5703    1.0000 </r>
       <r>   -1.4133    0.0000 </r>
       <r>   -0.8119    0.0000 </r>
       <r>    0.0115    0.0000 </r>
       <r>    0.5038    0.0000 </r>
       <r>    1.8836    0.0000 </r>
       <r>    2.1925    0.0000 </r>
      </set>
      <set comment="kpoint 2">
       <r>  -17.2495    1.0000 </r>
       <r>  -15.0326    1.0000 </r>
       <r>  -12.0165    1.0000 </r>
       <r>   -8.0617    1.0000 </r>
       <r>   -7.5055    1.0000 </r>
       <r>   -6.7899    1.0000 </r>
       <r>   -5.8593    1.0000 </r>
       <r>   -4.4696    1.0000 </r>
       <r>   -3.9496    1.0000 </r>
       <r>   -2.5707    1.0000 </r>
       <r>   -1.3922    0.0000 </r>
       <r>   -0.5798    0.0000 </r>
       <r>    0.2379    0.0000 </r>
       <r>    0.3589    0.0000 </r>
       <r>    1.9083    0.0000 </r>
       <r>    2.2210    0.0000 </r>
      </set>
      <set comment="kpoint 3">
       <r>  -17.1763    1.0000 </r>
       <r>  -14.9555    1.0000 </r>
       <r>  -12.0261    1.0000 </r>
       <r>   -8.0106    1.0000 </r>
       <r>   -7.5485    1.0000 </r>
       <r>   -6.7264    1.0000 </r>
       <r>   -6.2877    1.0000 </r>
       <r>   -4.8986    1.0000 </r>
       <r>   -3.9380    1.0000 </r>
       <r>   -2.5826    1.0000 </r>
       <r>   -1.3295    0.0000 </r>
       <r>   -0.0003    0.0000 </r>
       <r>    0.0384    0.0000 </r>
       <r>    0.7967    0.0000 </r>
       <r>    1.9766    0.0000 </r>
       <r>    2.3050    0.0000 </r>
      </set>
      <set comment="kpoint 4">
       <r>  -17.0546    1.0000 </r>
       <r>  -14.8272    1.0000 </r>
       <r>  -12.0545    1.0000 </r>
       <r>   -7.9285    1.0000 </r>
       <r>   -7.6708    1.0000 </r>
       <r>   -6.8179    1.0000 </r>
       <r>   -6.6221    1.0000 </r>
       <r>   -5.3707    1.0000 </r>
       <r>   -3.9330    1.0000 </r>
       <r>   -2.6204    1.0000 </r>
       <r>   -1.2281    0.0000 </r>
       <r>   -0.4391    0.0000 </r>
       <r>    0.8996    0.0000 </r>
       <r>    1.4136    0.0000 </r>
       <r>    2.0096    0.0000 </r>
       <r>    2.3746    0.0000 </r>
      </set>
      <set comment="kpoint 5">
       <r>  -16.8850    1.0000 </r>
       <r>  -14.6478    1.0000 </r>
       <r>  -12.1210    1.0000 </r>
       <r>   -7.9442    1.0000 </r>
       <r>   -7.8203    1.0000 </r>
       <r>   -7.3356    1.0000 </r>
       <r>   -6.4793    1.0000 </r>
       <r>   -5.7170    1.0000 </r>
       <r>   -3.9578    1.0000 </r>
       <r>   -2.6949    1.0000 </r>
       <r>   -1.0945    0.0000 </r>
       <r>   -0.8484    0.0000 </r>
       <r>    1.5499    0.0000 </r>
       <r>    1.6229    0.0000 </r>
       <r>    1.8744    0.0000 </r>
       <r>    2.3978    0.0000 </r>
      </set>
      <set comment="kpoint 6">
       <r>  -16.6684    1.0000 </r>
       <r>  -14.4179    1.0000 </r>
       <r>  -12.2505    1.0000 </r>
       <r>   -8.3984    1.0000 </r>
       <r>   -7.7670    1.0000 </r>
       <r>   -7.6952    1.0000 </r>
       <r>   -6.3020    1.0000 </r>
       <r>   -5.8623    1.0000 </r>
       <r>   -4.0403    1.0000 </r>
       <r>   -2.8169    1.0000 </r>
       <r>   -1.1475    0.0000 </r>
       <r>   -0.9448    0.0000 </r>
       <r>    1.1010    0.0000 </r>
       <r>    1.1030    0.0000 </r>
       <r>    2.4724    0.0000 </r>
       <r>    2.6259    0.0000 </r>
      </set>
      <set comment="kpoint 7">
       <r>  -16.4062    1.0000 </r>
       <r>  -14.1378    1.0000 </r>
       <r>  -12.4651    1.0000 </r>
       <r>   -8.9769    1.0000 </r>
       <r>   -8.0658    1.0000 </r>
       <r>   -7.5679    1.0000 </r>
       <r>   -6.0969    1.0000 </r>
       <r>   -5.8442    1.0000 </r>
       <r>   -4.1922    1.0000 </r>
       <r>   -2.9949    1.0000 </r>
       <r>   -1.2862    0.0000 </r>
       <r>   -0.8229    0.0000 </r>
       <r>    0.5171    0.0000 </r>
       <r>    0.6580    0.0000 </r>
       <r>    2.1149    0.0000 </r>
       <r>    2.9246    0.0000 </r>
      </set>
      <set comment="kpoint 8">
       <r>  -16.1002    1.0000 </r>
       <r>  -13.8082    1.0000 </r>
       <r>  -12.7717    1.0000 </r>
       <r>   -9.6076    1.0000 </r>
       <r>   -8.2143    1.0000 </r>
       <r>   -7.4620    1.0000 </r>
       <r>   -5.8740    1.0000 </r>
       <r>   -5.7308    1.0000 </r>
       <r>   -4.3825    1.0000 </r>
       <r>   -3.2292    1.0000 </r>
       <r>   -1.2590    0.0000 </r>
       <r>   -0.8328    0.0000 </r>
       <r>   -0.0626    0.0000 </r>
       <r>    0.4270    0.0000 </r>
       <r>    1.6703    0.0000 </r>
       <r>    3.0714    0.0000 </r>
      </set>
      <set comment="kpoint 9">
       <r>  -15.7528    1.0000 </r>
       <r>  -13.4299    1.0000 </r>
       <r>  -13.1558    1.0000 </r>
       <r>  -10.2456    1.0000 </r>
       <r>   -8.2237    1.0000 </r>
       <r>   -7.4103    1.0000 </r>
       <r>   -5.6500    1.0000 </r>
       <r>   -5.5738    1.0000 </r>
       <r>   -4.5440    1.0000 </r>
       <r>   -3.5085    1.0000 </r>
       <r>   -1.0940    0.0000 </r>
       <r>   -1.0321    0.0000 </r>
       <r>   -0.5891    0.0000 </r>
       <r>    0.4940    0.0000 </r>
       <r>    1.2286    0.0000 </r>
       <r>    2.7459    0.0000 </r>
      </set>
      <set comment="kpoint 10">
       <r>  -15.3675    1.0000 </r>
       <r>  -13.5904    1.0000 </r>
       <r>  -13.0042    1.0000 </r>
       <r>  -10.8674    1.0000 </r>
       <r>   -8.1244    1.0000 </r>
       <r>   -7.4437    1.0000 </r>
       <r>   -5.4496    1.0000 </r>
       <r>   -5.4144    1.0000 </r>
       <r>   -4.6089    1.0000 </r>
       <r>   -3.8113    1.0000 </r>
       <r>   -1.2856    0.0000 </r>
       <r>   -1.0260    0.0000 </r>
       <r>   -0.8264    0.0000 </r>
       <r>    0.7525    0.0000 </r>
       <r>    0.7835    0.0000 </r>
       <r>    2.3488    0.0000 </r>
      </set>
      <set comment="kpoint 11">
       <r>  -14.9495    1.0000 </r>
       <r>  -14.0478    1.0000 </r>
       <r>  -12.5324    1.0000 </r>
       <r>  -11.4603    1.0000 </r>
       <r>   -7.9540    1.0000 </r>
       <r>   -7.5678    1.0000 </r>
       <r>   -5.3059    1.0000 </r>
       <r>   -5.2938    1.0000 </r>
       <r>   -4.5452    1.0000 </r>
       <r>   -4.1086    1.0000 </r>
       <r>   -1.4604    0.0000 </r>
       <r>   -1.3365    0.0000 </r>
       <r>   -0.4842    0.0000 </r>
       <r>    0.3392    0.0000 </r>
       <r>    1.1027    0.0000 </r>
       <r>    1.9242    0.0000 </r>
      </set>
      <set comment="kpoint 12">
       <r>  -14.5061    1.0000 </r>
       <r>  -14.5061    1.0000 </r>
       <r>  -12.0168    1.0000 </r>
       <r>  -12.0168    1.0000 </r>
       <r>   -7.7533    1.0000 </r>
       <r>   -7.7533    1.0000 </r>
       <r>   -5.2506    1.0000 </r>
       <r>   -5.2506    1.0000 </r>
       <r>   -4.3661    1.0000 </r>
       <r>   -4.3661    1.0000 </r>
       <r>   -1.4859    0.0000 </r>
       <r>   -1.4859    0.0000 </r>
       <r>   -0.0894    0.0000 </r>
       <r>   -0.0894    0.0000 </r>
       <r>    1.5012    0.0000 </r>
       <r>    1.5012    0.0000 </r>
      </set>
      <set comment="kpoint 13">
       <r>  -17.2537    1.0000 </r>
       <r>  -15.0999    1.0000 </r>
       <r>  -11.9869    1.0000 </r>
       <r>   -8.3202    1.0000 </r>
       <r>   -7.2806    1.0000 </r>
       <r>   -6.7407    1.0000 </r>
       <r>   -5.6719    1.0000 </r>
       <r>   -4.3087    1.0000 </r>
       <r>   -3.9052    1.0000 </r>
       <r>   -2.7552    1.0000 </r>
       <r>   -1.2320    0.0000 </r>
       <r>   -0.7964    0.0000 </r>
       <r>   -0.0380    0.0000 </r>
       <r>    0.5152    0.0000 </r>
       <r>    1.9350    0.0000 </r>
       <r>    2.2185    0.0000 </r>
      </set>
      <set comment="kpoint 14">
       <r>  -17.2293    1.0000 </r>
       <r>  -15.0744    1.0000 </r>
       <r>  -11.9883    1.0000 </r>
       <r>   -8.3083    1.0000 </r>
       <r>   -7.2843    1.0000 </r>
       <r>   -6.7239    1.0000 </r>
       <r>   -5.8398    1.0000 </r>
       <r>   -4.4914    1.0000 </r>
       <r>   -3.9017    1.0000 </r>
       <r>   -2.7526    1.0000 </r>
       <r>   -1.2136    0.0000 </r>
       <r>   -0.5653    0.0000 </r>
       <r>    0.1824    0.0000 </r>
       <r>    0.3801    0.0000 </r>
       <r>    1.9590    0.0000 </r>
       <r>    2.2474    0.0000 </r>
      </set>
      <set comment="kpoint 15">
       <r>  -17.1561    1.0000 </r>
       <r>  -14.9979    1.0000 </r>
       <r>  -11.9959    1.0000 </r>
       <r>   -8.2773    1.0000 </r>
       <r>   -7.3057    1.0000 </r>
       <r>   -6.6891    1.0000 </r>
       <r>   -6.2407    1.0000 </r>
       <r>   -4.9240    1.0000 </r>
       <r>   -3.8955    1.0000 </r>
       <r>   -2.7538    1.0000 </r>
       <r>   -1.1620    0.0000 </r>
       <r>    0.0160    0.0000 </r>
       <r>    0.0516    0.0000 </r>
       <r>    0.7571    0.0000 </r>
       <r>    2.0243    0.0000 </r>
       <r>    2.3322    0.0000 </r>
      </set>
      <set comment="kpoint 16">
       <r>  -17.0345    1.0000 </r>
       <r>  -14.8706    1.0000 </r>
       <r>  -12.0210    1.0000 </r>
       <r>   -8.2479    1.0000 </r>
       <r>   -7.3750    1.0000 </r>
       <r>   -6.8822    1.0000 </r>
       <r>   -6.4762    1.0000 </r>
       <r>   -5.3984    1.0000 </r>
       <r>   -3.9000    1.0000 </r>
       <r>   -2.7731    1.0000 </r>
       <r>   -1.0793    0.0000 </r>
       <r>   -0.4072    0.0000 </r>
       <r>    0.9075    0.0000 </r>
       <r>    1.3816    0.0000 </r>
       <r>    2.0025    0.0000 </r>
       <r>    2.2920    0.0000 </r>
      </set>
      <set comment="kpoint 17">
       <r>  -16.8650    1.0000 </r>
       <r>  -14.6932    1.0000 </r>
       <r>  -12.0828    1.0000 </r>
       <r>   -8.2900    1.0000 </r>
       <r>   -7.5041    1.0000 </r>
       <r>   -7.3639    1.0000 </r>
       <r>   -6.3743    1.0000 </r>
       <r>   -5.7407    1.0000 </r>
       <r>   -3.9380    1.0000 </r>
       <r>   -2.8236    1.0000 </r>
       <r>   -0.9695    0.0000 </r>
       <r>   -0.7977    0.0000 </r>
       <r>    1.4726    0.0000 </r>
       <r>    1.5632    0.0000 </r>
       <r>    1.9354    0.0000 </r>
       <r>    2.3853    0.0000 </r>
      </set>
      <set comment="kpoint 18">
       <r>  -16.6487    1.0000 </r>
       <r>  -14.4665    1.0000 </r>
       <r>  -12.2059    1.0000 </r>
       <r>   -8.5556    1.0000 </r>
       <r>   -7.7890    1.0000 </r>
       <r>   -7.5787    1.0000 </r>
       <r>   -6.2102    1.0000 </r>
       <r>   -5.8782    1.0000 </r>
       <r>   -4.0341    1.0000 </r>
       <r>   -2.9196    1.0000 </r>
       <r>   -1.0765    0.0000 </r>
       <r>   -0.8458    0.0000 </r>
       <r>    0.9632    0.0000 </r>
       <r>    1.1510    0.0000 </r>
       <r>    2.4724    0.0000 </r>
       <r>    2.7594    0.0000 </r>
      </set>
      <set comment="kpoint 19">
       <r>  -16.3868    1.0000 </r>
       <r>  -14.1925    1.0000 </r>
       <r>  -12.4120    1.0000 </r>
       <r>   -9.0562    1.0000 </r>
       <r>   -8.0856    1.0000 </r>
       <r>   -7.5353    1.0000 </r>
       <r>   -6.0163    1.0000 </r>
       <r>   -5.8617    1.0000 </r>
       <r>   -4.1917    1.0000 </r>
       <r>   -3.0717    1.0000 </r>
       <r>   -1.1988    0.0000 </r>
       <r>   -0.7518    0.0000 </r>
       <r>    0.5198    0.0000 </r>
       <r>    0.5812    0.0000 </r>
       <r>    2.2449    0.0000 </r>
       <r>    2.9895    0.0000 </r>
      </set>
      <set comment="kpoint 20">
       <r>  -16.0812    1.0000 </r>
       <r>  -13.8773    1.0000 </r>
       <r>  -12.7030    1.0000 </r>
       <r>   -9.6580    1.0000 </r>
       <r>   -8.2319    1.0000 </r>
       <r>   -7.4547    1.0000 </r>
       <r>   -5.8082    1.0000 </r>
       <r>   -5.7685    1.0000 </r>
       <r>   -4.3707    1.0000 </r>
       <r>   -3.2806    1.0000 </r>
       <r>   -1.1645    0.0000 </r>
       <r>   -0.7984    0.0000 </r>
       <r>    0.0077    0.0000 </r>
       <r>    0.2991    0.0000 </r>
       <r>    1.8497    0.0000 </r>
       <r>    3.0022    0.0000 </r>
      </set>
      <set comment="kpoint 21">
       <r>  -15.7345    1.0000 </r>
       <r>  -13.5622    1.0000 </r>
       <r>  -13.0243    1.0000 </r>
       <r>  -10.2829    1.0000 </r>
       <r>   -8.2381    1.0000 </r>
       <r>   -7.4060    1.0000 </r>
       <r>   -5.6531    1.0000 </r>
       <r>   -5.6068    1.0000 </r>
       <r>   -4.4977    1.0000 </r>
       <r>   -3.5325    1.0000 </r>
       <r>   -1.0303    0.0000 </r>
       <r>   -1.0119    0.0000 </r>
       <r>   -0.5059    0.0000 </r>
       <r>    0.3605    0.0000 </r>
       <r>    1.4501    0.0000 </r>
       <r>    2.6852    0.0000 </r>
      </set>
      <set comment="kpoint 22">
       <r>  -15.3506    1.0000 </r>
       <r>  -13.6344    1.0000 </r>
       <r>  -12.9621    1.0000 </r>
       <r>  -10.8970    1.0000 </r>
       <r>   -8.1343    1.0000 </r>
       <r>   -7.4371    1.0000 </r>
       <r>   -5.5415    1.0000 </r>
       <r>   -5.4426    1.0000 </r>
       <r>   -4.5150    1.0000 </r>
       <r>   -3.8006    1.0000 </r>
       <r>   -1.2943    0.0000 </r>
       <r>   -1.0255    0.0000 </r>
       <r>   -0.6714    0.0000 </r>
       <r>    0.5149    0.0000 </r>
       <r>    1.1179    0.0000 </r>
       <r>    2.2970    0.0000 </r>
      </set>
      <set comment="kpoint 23">
       <r>  -14.9348    1.0000 </r>
       <r>  -14.0484    1.0000 </r>
       <r>  -12.5354    1.0000 </r>
       <r>  -11.4836    1.0000 </r>
       <r>   -7.9586    1.0000 </r>
       <r>   -7.5621    1.0000 </r>
       <r>   -5.4367    1.0000 </r>
       <r>   -5.3528    1.0000 </r>
[...]
       <r>    2.6367    0.0000 </r>
       <r>    2.6367    0.0000 </r>
      </set>
      <set comment="kpoint 151">
       <r>  -15.5236    1.0000 </r>
       <r>  -15.5236    1.0000 </r>
       <r>  -10.9043    1.0000 </r>
       <r>  -10.9043    1.0000 </r>
       <r>   -7.9061    1.0000 </r>
       <r>   -7.9061    1.0000 </r>
       <r>   -5.2058    1.0000 </r>
       <r>   -5.2058    1.0000 </r>
       <r>   -4.1119    1.0000 </r>
       <r>   -4.1119    1.0000 </r>
       <r>   -0.1931    0.0000 </r>
       <r>   -0.1931    0.0000 </r>
       <r>    1.0032    0.0000 </r>
       <r>    1.0032    0.0000 </r>
       <r>    2.9580    0.0000 </r>
       <r>    2.9580    0.0000 </r>
      </set>
      <set comment="kpoint 152">
       <r>  -15.2406    1.0000 </r>
       <r>  -15.2406    1.0000 </r>
       <r>  -11.1802    1.0000 </r>
       <r>  -11.1802    1.0000 </r>
       <r>   -8.0395    1.0000 </r>
       <r>   -8.0395    1.0000 </r>
       <r>   -5.4745    1.0000 </r>
       <r>   -5.4745    1.0000 </r>
       <r>   -3.9736    1.0000 </r>
       <r>   -3.9736    1.0000 </r>
       <r>   -0.2254    0.0000 </r>
       <r>   -0.2254    0.0000 </r>
       <r>    0.7971    0.0000 </r>
       <r>    0.7971    0.0000 </r>
       <r>    3.0245    0.0000 </r>
       <r>    3.0245    0.0000 </r>
      </set>
      <set comment="kpoint 153">
       <r>  -14.9342    1.0000 </r>
       <r>  -14.9342    1.0000 </r>
       <r>  -11.5476    1.0000 </r>
       <r>  -11.5476    1.0000 </r>
       <r>   -7.9917    1.0000 </r>
       <r>   -7.9917    1.0000 </r>
       <r>   -5.8234    1.0000 </r>
       <r>   -5.8234    1.0000 </r>
       <r>   -3.7931    1.0000 </r>
       <r>   -3.7931    1.0000 </r>
       <r>   -0.2232    0.0000 </r>
       <r>   -0.2232    0.0000 </r>
       <r>    0.6024    0.0000 </r>
       <r>    0.6024    0.0000 </r>
       <r>    2.8733    0.0000 </r>
       <r>    2.8733    0.0000 </r>
      </set>
      <set comment="kpoint 154">
       <r>  -14.6276    1.0000 </r>
       <r>  -14.6276    1.0000 </r>
       <r>  -11.9355    1.0000 </r>
       <r>  -11.9355    1.0000 </r>
       <r>   -7.8185    1.0000 </r>
       <r>   -7.8185    1.0000 </r>
       <r>   -6.2008    1.0000 </r>
       <r>   -6.2008    1.0000 </r>
       <r>   -3.6128    1.0000 </r>
       <r>   -3.6128    1.0000 </r>
       <r>   -0.2758    0.0000 </r>
       <r>   -0.2758    0.0000 </r>
       <r>    0.5381    0.0000 </r>
       <r>    0.5381    0.0000 </r>
       <r>    2.5672    0.0000 </r>
       <r>    2.5672    0.0000 </r>
      </set>
      <set comment="kpoint 155">
       <r>  -14.3722    1.0000 </r>
       <r>  -14.3722    1.0000 </r>
       <r>  -12.2536    1.0000 </r>
       <r>  -12.2536    1.0000 </r>
       <r>   -7.5892    1.0000 </r>
       <r>   -7.5892    1.0000 </r>
       <r>   -6.5486    1.0000 </r>
       <r>   -6.5486    1.0000 </r>
       <r>   -3.4763    1.0000 </r>
       <r>   -3.4763    1.0000 </r>
       <r>   -0.3793    0.0000 </r>
       <r>   -0.3793    0.0000 </r>
       <r>    0.6063    0.0000 </r>
       <r>    0.6063    0.0000 </r>
       <r>    2.2718    0.0000 </r>
       <r>    2.2718    0.0000 </r>
      </set>
      <set comment="kpoint 156">
       <r>  -14.2645    1.0000 </r>
       <r>  -14.2645    1.0000 </r>
       <r>  -12.3844    1.0000 </r>
       <r>  -12.3844    1.0000 </r>
       <r>   -7.4512    1.0000 </r>
       <r>   -7.4512    1.0000 </r>
       <r>   -6.7255    1.0000 </r>
       <r>   -6.7255    1.0000 </r>
       <r>   -3.4246    1.0000 </r>
       <r>   -3.4246    1.0000 </r>
       <r>   -0.4296    0.0000 </r>
       <r>   -0.4296    0.0000 </r>
       <r>    0.6597    0.0000 </r>
       <r>    0.6597    0.0000 </r>
       <r>    2.1460    0.0000 </r>
       <r>    2.1460    0.0000 </r>
      </set>
     </set>
    </set>
   </array>
  </eigenvalues>
  <separator name="orbital magnetization" >
   <v name="MAGDIPOLOUT">      0.00000000      0.00000000      0.00000000</v>
  </separator>
  <dos>
   <i name="efermi">     -2.43057977 </i>
   <total>
    <array>
     <dimension dim="1">gridpoints</dimension>
     <dimension dim="2">spin</dimension>
     <field>energy</field>
     <field>total</field>
     <field>integrated</field>
     <set>
      <set comment="spin 1">
       <r>   -18.2989     0.0000     0.0000 </r>
       <r>   -18.2238     0.0000     0.0000 </r>
       <r>   -18.1486     0.0000     0.0000 </r>
       <r>   -18.0734     0.0000     0.0000 </r>
       <r>   -17.9983     0.0000     0.0000 </r>
       <r>   -17.9231     0.0000     0.0000 </r>
       <r>   -17.8479     0.0000     0.0000 </r>
       <r>   -17.7728     0.0000     0.0000 </r>
       <r>   -17.6976     0.0000     0.0000 </r>
       <r>   -17.6225     0.0000     0.0000 </r>
       <r>   -17.5473     0.0000     0.0000 </r>
       <r>   -17.4721     0.0000     0.0000 </r>
       <r>   -17.3970     0.0000     0.0000 </r>
       <r>   -17.3218     0.0000     0.0000 </r>
       <r>   -17.2467     0.3419     0.0257 </r>
       <r>   -17.1715     0.9025     0.0935 </r>
       <r>   -17.0963     0.8224     0.1554 </r>
       <r>   -17.0212     1.0824     0.2367 </r>
       <r>   -16.9460     0.9275     0.3064 </r>
       <r>   -16.8709     0.8903     0.3733 </r>
       <r>   -16.7957     0.9553     0.4451 </r>
       <r>   -16.7205     0.9385     0.5157 </r>
       <r>   -16.6454     1.0237     0.5926 </r>
       <r>   -16.5702     1.0659     0.6727 </r>
       <r>   -16.4951     0.9033     0.7406 </r>
       <r>   -16.4199     0.5023     0.7784 </r>
       <r>   -16.3447     1.6860     0.9051 </r>
       <r>   -16.2696     0.7729     0.9632 </r>
       <r>   -16.1944     0.9866     1.0373 </r>
       <r>   -16.1193     0.7451     1.0933 </r>
       <r>   -16.0441     1.3067     1.1916 </r>
       <r>   -15.9689     1.2600     1.2863 </r>
       <r>   -15.8938     1.0198     1.3629 </r>
       <r>   -15.8186     0.6445     1.4113 </r>
       <r>   -15.7434     1.4974     1.5239 </r>
       <r>   -15.6683     1.0467     1.6026 </r>
       <r>   -15.5931     1.2343     1.6953 </r>
       <r>   -15.5180     1.0870     1.7770 </r>
       <r>   -15.4428     1.2410     1.8703 </r>
       <r>   -15.3676     0.9579     1.9423 </r>
       <r>   -15.2925     1.5017     2.0552 </r>
       <r>   -15.2173     1.6709     2.1807 </r>
       <r>   -15.1422     1.0973     2.2632 </r>
       <r>   -15.0670     1.3462     2.3644 </r>
       <r>   -14.9918     2.0753     2.5204 </r>
       <r>   -14.9167     1.6542     2.6447 </r>
       <r>   -14.8415     0.8247     2.7067 </r>
       <r>   -14.7664     1.9338     2.8520 </r>
       <r>   -14.6912     1.1064     2.9352 </r>
       <r>   -14.6160     0.8415     2.9985 </r>
       <r>   -14.5409     0.7772     3.0569 </r>
       <r>   -14.4657     1.9862     3.2061 </r>
       <r>   -14.3906     1.2749     3.3020 </r>
       <r>   -14.3154     1.1657     3.3896 </r>
       <r>   -14.2402     1.8440     3.5282 </r>
       <r>   -14.1651     0.7773     3.5866 </r>
       <r>   -14.0899     0.6525     3.6356 </r>
       <r>   -14.0147     2.0355     3.7886 </r>
       <r>   -13.9396     0.2205     3.8052 </r>
       <r>   -13.8644     0.6224     3.8520 </r>
       <r>   -13.7893     0.3075     3.8751 </r>
       <r>   -13.7141     0.6202     3.9217 </r>
       <r>   -13.6389     0.1340     3.9318 </r>
       <r>   -13.5638     0.5411     3.9725 </r>
       <r>   -13.4886     0.1936     3.9870 </r>
       <r>   -13.4135     0.1517     3.9984 </r>
       <r>   -13.3383     0.0211     4.0000 </r>
       <r>   -13.2631     0.0000     4.0000 </r>
       <r>   -13.1880     0.0020     4.0001 </r>
       <r>   -13.1128     0.1706     4.0130 </r>
       <r>   -13.0377     0.0614     4.0176 </r>
       <r>   -12.9625     0.6257     4.0646 </r>
       <r>   -12.8873     0.1819     4.0783 </r>
       <r>   -12.8122     0.4804     4.1144 </r>
       <r>   -12.7370     0.3963     4.1442 </r>
       <r>   -12.6619     0.6729     4.1948 </r>
       <r>   -12.5867     0.0823     4.2009 </r>
       <r>   -12.5115     2.3348     4.3764 </r>
       <r>   -12.4364     0.6985     4.4289 </r>
       <r>   -12.3612     1.1358     4.5143 </r>
       <r>   -12.2860     1.4429     4.6227 </r>
       <r>   -12.2109     1.3110     4.7213 </r>
       <r>   -12.1357     0.8696     4.7866 </r>
       <r>   -12.0606     2.1947     4.9516 </r>
       <r>   -11.9854     2.5622     5.1442 </r>
       <r>   -11.9102     1.9218     5.2886 </r>
       <r>   -11.8351     0.9672     5.3613 </r>
       <r>   -11.7599     2.5062     5.5497 </r>
       <r>   -11.6848     0.7384     5.6052 </r>
       <r>   -11.6096     0.7232     5.6595 </r>
       <r>   -11.5344     2.2453     5.8283 </r>
       <r>   -11.4593     1.3928     5.9330 </r>
       <r>   -11.3841     0.3317     5.9579 </r>
       <r>   -11.3090     1.6494     6.0819 </r>
       <r>   -11.2338     0.8421     6.1452 </r>
       <r>   -11.1586     0.5527     6.1867 </r>
       <r>   -11.0835     0.7974     6.2467 </r>
       <r>   -11.0083     1.7071     6.3750 </r>
       <r>   -10.9332     0.4631     6.4098 </r>
       <r>   -10.8580     1.1016     6.4926 </r>
       <r>   -10.7828     0.2488     6.5113 </r>
       <r>   -10.7077     1.7736     6.6446 </r>
       <r>   -10.6325     0.3228     6.6688 </r>
       <r>   -10.5573     0.6979     6.7213 </r>
       <r>   -10.4822     0.3389     6.7468 </r>
       <r>   -10.4070     0.4848     6.7832 </r>
       <r>   -10.3319     1.6888     6.9101 </r>
       <r>   -10.2567     0.7623     6.9674 </r>
       <r>   -10.1815     0.5189     7.0064 </r>
       <r>   -10.1064     0.0010     7.0065 </r>
       <r>   -10.0312     0.3125     7.0300 </r>
       <r>    -9.9561     1.7200     7.1593 </r>
       <r>    -9.8809     0.3489     7.1855 </r>
       <r>    -9.8057     0.3315     7.2104 </r>
       <r>    -9.7306     0.2245     7.2273 </r>
       <r>    -9.6554     0.2423     7.2455 </r>
       <r>    -9.5803     1.3032     7.3434 </r>
       <r>    -9.5051     1.2187     7.4350 </r>
       <r>    -9.4299     0.0005     7.4351 </r>
       <r>    -9.3548     0.0000     7.4351 </r>
       <r>    -9.2796     0.0578     7.4394 </r>
       <r>    -9.2045     0.6397     7.4875 </r>
       <r>    -9.1293     1.1026     7.5704 </r>
       <r>    -9.0541     0.6388     7.6184 </r>
       <r>    -8.9790     0.2295     7.6356 </r>
       <r>    -8.9038     0.1094     7.6438 </r>
       <r>    -8.8286     0.3323     7.6688 </r>
       <r>    -8.7535     0.0287     7.6710 </r>
       <r>    -8.6783     1.3489     7.7724 </r>
       <r>    -8.6032     0.1776     7.7857 </r>
       <r>    -8.5280     0.3366     7.8110 </r>
       <r>    -8.4528     0.0088     7.8117 </r>
       <r>    -8.3777     0.1605     7.8237 </r>
       <r>    -8.3025     0.9722     7.8968 </r>
       <r>    -8.2274     3.8094     8.1831 </r>
       <r>    -8.1522     2.0803     8.3395 </r>
       <r>    -8.0770     2.6917     8.5418 </r>
       <r>    -8.0019     1.4623     8.6517 </r>
       <r>    -7.9267     2.2407     8.8201 </r>
       <r>    -7.8516     1.5260     8.9348 </r>
       <r>    -7.7764     2.4285     9.1174 </r>
       <r>    -7.7012     2.4710     9.3031 </r>
       <r>    -7.6261     1.6704     9.4286 </r>
       <r>    -7.5509     2.7796     9.6375 </r>
       <r>    -7.4758     3.7037     9.9159 </r>
       <r>    -7.4006     5.9141    10.3604 </r>
       <r>    -7.3254     2.1526    10.5222 </r>
       <r>    -7.2503     1.6061    10.6429 </r>
       <r>    -7.1751     1.0530    10.7221 </r>
       <r>    -7.0999     0.1599    10.7341 </r>
       <r>    -7.0248     0.3905    10.7635 </r>
       <r>    -6.9496     0.6075    10.8091 </r>
       <r>    -6.8745     2.2451    10.9779 </r>
       <r>    -6.7993     0.9980    11.0529 </r>
       <r>    -6.7241     1.3647    11.1554 </r>
       <r>    -6.6490     1.1536    11.2421 </r>
       <r>    -6.5738     2.2588    11.4119 </r>
       <r>    -6.4987     1.3045    11.5100 </r>
       <r>    -6.4235     1.4249    11.6171 </r>
       <r>    -6.3483     1.6321    11.7397 </r>
       <r>    -6.2732     2.1576    11.9019 </r>
       <r>    -6.1980     2.4142    12.0834 </r>
       <r>    -6.1229     1.5458    12.1995 </r>
       <r>    -6.0477     1.9616    12.3470 </r>
       <r>    -5.9725     1.9906    12.4966 </r>
       <r>    -5.8974     3.1228    12.7313 </r>
       <r>    -5.8222     5.1822    13.1208 </r>
       <r>    -5.7471     4.5056    13.4594 </r>
       <r>    -5.6719     2.5379    13.6502 </r>
       <r>    -5.5967     4.9220    14.0201 </r>
       <r>    -5.5216     1.6476    14.1440 </r>
       <r>    -5.4464     4.1166    14.4534 </r>
       <r>    -5.3712     4.3111    14.7774 </r>
       <r>    -5.2961     2.6415    14.9760 </r>
       <r>    -5.2209     1.8490    15.1149 </r>
       <r>    -5.1458     1.7740    15.2483 </r>
       <r>    -5.0706     1.4619    15.3581 </r>
       <r>    -4.9954     1.8730    15.4989 </r>
       <r>    -4.9203     1.3660    15.6016 </r>
       <r>    -4.8451     1.4533    15.7108 </r>
       <r>    -4.7700     0.9560    15.7827 </r>
       <r>    -4.6948     1.0193    15.8593 </r>
       <r>    -4.6196     0.7492    15.9156 </r>
       <r>    -4.5445     1.0831    15.9970 </r>
       <r>    -4.4693     1.8004    16.1323 </r>
       <r>    -4.3942     1.7737    16.2656 </r>
       <r>    -4.3190     2.3038    16.4388 </r>
       <r>    -4.2438     2.1537    16.6007 </r>
       <r>    -4.1687     2.8995    16.8186 </r>
       <r>    -4.0935     3.8490    17.1079 </r>
       <r>    -4.0184     2.9694    17.3311 </r>
       <r>    -3.9432     3.9133    17.6252 </r>
       <r>    -3.8680     4.3309    17.9507 </r>
       <r>    -3.7929     4.8307    18.3138 </r>
       <r>    -3.7177     2.5950    18.5088 </r>
       <r>    -3.6425     3.3311    18.7592 </r>
       <r>    -3.5674     3.7936    19.0443 </r>
       <r>    -3.4922     4.6039    19.3904 </r>
       <r>    -3.4171     1.7275    19.5202 </r>
       <r>    -3.3419     0.2495    19.5390 </r>
       <r>    -3.2667     0.5194    19.5780 </r>
       <r>    -3.1916     0.3970    19.6078 </r>
       <r>    -3.1164     1.4265    19.7151 </r>
       <r>    -3.0413     0.7620    19.7723 </r>
       <r>    -2.9661     0.1747    19.7855 </r>
       <r>    -2.8909     0.3416    19.8111 </r>
       <r>    -2.8158     0.3453    19.8371 </r>
       <r>    -2.7406     1.2307    19.9296 </r>
       <r>    -2.6655     0.3290    19.9543 </r>
       <r>    -2.5903     0.2448    19.9727 </r>
       <r>    -2.5151     0.3631    20.0000 </r>
       <r>    -2.4400     0.0000    20.0000 </r>
       <r>    -2.3648     0.0000    20.0000 </r>
       <r>    -2.2897     0.0000    20.0000 </r>
       <r>    -2.2145     0.0000    20.0000 </r>
       <r>    -2.1393     0.0000    20.0000 </r>
       <r>    -2.0642     0.0000    20.0000 </r>
       <r>    -1.9890     0.0000    20.0000 </r>
       <r>    -1.9138     0.0000    20.0000 </r>
       <r>    -1.8387     0.0000    20.0000 </r>
       <r>    -1.7635     0.0000    20.0000 </r>
       <r>    -1.6884     0.0000    20.0000 </r>
       <r>    -1.6132     0.0000    20.0000 </r>
       <r>    -1.5380     0.0000    20.0000 </r>
       <r>    -1.4629     0.8168    20.0614 </r>
       <r>    -1.3877     1.1105    20.1449 </r>
       <r>    -1.3126     1.0866    20.2265 </r>
       <r>    -1.2374     2.1189    20.3858 </r>
       <r>    -1.1622     1.7356    20.5162 </r>
       <r>    -1.0871     1.4119    20.6224 </r>
       <r>    -1.0119     2.8190    20.8342 </r>
       <r>    -0.9368     1.7045    20.9623 </r>
       <r>    -0.8616     1.8268    21.0997 </r>
       <r>    -0.7864     3.0733    21.3306 </r>
       <r>    -0.7113     2.3572    21.5078 </r>
       <r>    -0.6361     2.4626    21.6929 </r>
       <r>    -0.5610     2.6927    21.8953 </r>
       <r>    -0.4858     3.0997    22.1283 </r>
       <r>    -0.4106     2.8296    22.3409 </r>
       <r>    -0.3355     4.4995    22.6791 </r>
       <r>    -0.2603     3.4368    22.9374 </r>
       <r>    -0.1851     2.1465    23.0988 </r>
       <r>    -0.1100     2.4801    23.2852 </r>
       <r>    -0.0348     2.0344    23.4381 </r>
       <r>     0.0403     4.9684    23.8115 </r>
       <r>     0.1155     5.5729    24.2304 </r>
       <r>     0.1907     4.3204    24.5551 </r>
       <r>     0.2658     4.0598    24.8602 </r>
       <r>     0.3410     2.8060    25.0711 </r>
       <r>     0.4161     4.4823    25.4080 </r>
       <r>     0.4913     4.7817    25.7674 </r>
       <r>     0.5665     4.0166    26.0693 </r>
       <r>     0.6416     3.0588    26.2992 </r>
       <r>     0.7168     2.7069    26.5027 </r>
       <r>     0.7919     2.1874    26.6671 </r>
       <r>     0.8671     3.3701    26.9204 </r>
       <r>     0.9423     2.3342    27.0958 </r>
       <r>     1.0174     1.8850    27.2375 </r>
       <r>     1.0926     0.8053    27.2980 </r>
       <r>     1.1677     3.2243    27.5404 </r>
       <r>     1.2429     2.3905    27.7200 </r>
       <r>     1.3181     1.7274    27.8499 </r>
       <r>     1.3932     2.5519    28.0417 </r>
       <r>     1.4684     3.5234    28.3065 </r>
       <r>     1.5436     2.3077    28.4799 </r>
       <r>     1.6187     2.2221    28.6470 </r>
       <r>     1.6939     0.9966    28.7219 </r>
       <r>     1.7690     1.4858    28.8335 </r>
       <r>     1.8442     1.5006    28.9463 </r>
       <r>     1.9194     2.9692    29.1695 </r>
       <r>     1.9945     2.3034    29.3426 </r>
       <r>     2.0697     2.7002    29.5456 </r>
       <r>     2.1448     2.7981    29.7559 </r>
       <r>     2.2200     3.3560    30.0081 </r>
       <r>     2.2952     3.3040    30.2564 </r>
       <r>     2.3703     3.5331    30.5220 </r>
       <r>     2.4455     2.5866    30.7164 </r>
       <r>     2.5206     2.4856    30.9032 </r>
       <r>     2.5958     2.4103    31.0844 </r>
       <r>     2.6710     2.1163    31.2434 </r>
       <r>     2.7461     1.0776    31.3244 </r>
       <r>     2.8213     1.4123    31.4306 </r>
       <r>     2.8964     1.9738    31.5789 </r>
       <r>     2.9716     1.9050    31.7221 </r>
       <r>     3.0468     1.7912    31.8567 </r>
       <r>     3.1219     0.8224    31.9186 </r>
       <r>     3.1971     0.7230    31.9729 </r>
       <r>     3.2722     0.3606    32.0000 </r>
       <r>     3.3474     0.0001    32.0000 </r>
       <r>     3.4226     0.0000    32.0000 </r>
       <r>     3.4977     0.0000    32.0000 </r>
       <r>     3.5729     0.0000    32.0000 </r>
       <r>     3.6481     0.0000    32.0000 </r>
       <r>     3.7232     0.0000    32.0000 </r>
       <r>     3.7984     0.0000    32.0000 </r>
       <r>     3.8735     0.0000    32.0000 </r>
       <r>     3.9487     0.0000    32.0000 </r>
       <r>     4.0239     0.0000    32.0000 </r>
       <r>     4.0990     0.0000    32.0000 </r>
       <r>     4.1742     0.0000    32.0000 </r>
       <r>     4.2493     0.0000    32.0000 </r>
      </set>
     </set>
    </array>
   </total>
  </dos>
 </calculation>
 <structure name="finalpos" >
  <crystal>
   <varray name="basis" >
    <v>       3.29720400       0.00000000       0.00000000 </v>
    <v>       0.00000000       4.97950100      -0.00005300 </v>
    <v>       0.00000000       0.00000000      20.02439000 </v>
   </varray>
   <i name="volume">    328.76905783 </i>
   <varray name="rec_basis" >
    <v>       0.30328727       0.00000000       0.00000000 </v>
    <v>       0.00000000       0.20082334       0.00000000 </v>
    <v>       0.00000000       0.00000053       0.04993910 </v>
   </varray>
  </crystal>
  <varray name="positions" >
   <v>       0.50000000       0.89980840       0.55113995 </v>
   <v>       0.50000000       0.10019160       0.44886005 </v>
   <v>      -0.00000000       0.39980417       0.44886005 </v>
   <v>       0.00000000       0.60019583       0.55113995 </v>
  </varray>
 </structure>
</modeling>
