<?xml version="1.0" encoding="ISO-8859-1"?>
<modeling>
 <generator>
  <i name="program" type="string">vasp </i>
  <i name="version" type="string">5.4.1  </i>
  <i name="subversion" type="string">24Jun15 (build Nov 20 2020 10:29:34) complex                          parallel </i>
  <i name="platform" type="string">IFC91_ompi </i>
  <i name="date" type="string">2021 09 14 </i>
  <i name="time" type="string">00:23:19 </i>
 </generator>
 <incar>
  <i type="int" name="ISTART">     1</i>
  <i type="string" name="PREC">a</i>
  <i type="string" name="ALGO"> Normal</i>
  <i type="int" name="ISPIN">     1</i>
  <i type="int" name="ICHARG">     2</i>
  <i type="int" name="NELM">   250</i>
  <i type="int" name="NELMDL">    -5</i>
  <i type="int" name="NELMIN">     6</i>
  <i type="int" name="IBRION">     2</i>
  <i name="EDIFF">      0.00001000</i>
  <i name="EDIFFG">     -0.00500000</i>
  <i type="int" name="NSW">     0</i>
  <i type="int" name="ISIF">     2</i>
  <i name="ENCUT">    520.00000000</i>
  <i name="POTIM">      0.25000000</i>
  <v name="MAGMOM">      0.60000000      0.60000000</v>
  <i type="string" name="LREAL"> Auto</i>
  <i type="int" name="ISMEAR">     0</i>
  <i name="SIGMA">      0.02000000</i>
  <i type="logical" name="LWAVE"> F  </i>
  <i type="logical" name="LCHARG"> F  </i>
  <i type="logical" name="LVHAR"> F  </i>
  <v type="int" name="KPOINT_BSE">    -1     0     0     0</v>
  <i type="int" name="NELM">   250</i>
 </incar>
 <kpoints>
  <generation param="Gamma">
   <v type="int" name="divisions">      24       24        1 </v>
   <v name="usershift">      0.00000000       0.00000000       0.00000000 </v>
   <v name="genvec1">      0.04166667       0.00000000       0.00000000 </v>
   <v name="genvec2">      0.00000000       0.04166667       0.00000000 </v>
   <v name="genvec3">      0.00000000       0.00000000       1.00000000 </v>
   <v name="shift">      0.00000000       0.00000000       0.00000000 </v>
  </generation>
  <varray name="kpointlist" >
   <v>       0.00000000       0.00000000       0.00000000 </v>
   <v>       0.04166667       0.00000000       0.00000000 </v>
   <v>       0.08333333      -0.00000000       0.00000000 </v>
   <v>       0.12500000       0.00000000       0.00000000 </v>
   <v>       0.16666667       0.00000000       0.00000000 </v>
   <v>       0.20833333       0.00000000       0.00000000 </v>
   <v>       0.25000000       0.00000000       0.00000000 </v>
   <v>       0.29166667       0.00000000       0.00000000 </v>
   <v>       0.33333333       0.00000000       0.00000000 </v>
   <v>       0.37500000       0.00000000       0.00000000 </v>
   <v>       0.41666667       0.00000000       0.00000000 </v>
   <v>       0.45833333       0.00000000       0.00000000 </v>
   <v>       0.50000000       0.00000000       0.00000000 </v>
   <v>       0.04166667       0.04166667       0.00000000 </v>
   <v>       0.08333333       0.04166667       0.00000000 </v>
   <v>       0.12500000       0.04166667       0.00000000 </v>
   <v>       0.16666667       0.04166667       0.00000000 </v>
   <v>       0.20833333       0.04166667       0.00000000 </v>
   <v>       0.25000000       0.04166667       0.00000000 </v>
   <v>       0.29166667       0.04166667       0.00000000 </v>
   <v>       0.33333333       0.04166667       0.00000000 </v>
   <v>       0.37500000       0.04166667       0.00000000 </v>
   <v>       0.41666667       0.04166667       0.00000000 </v>
   <v>       0.45833333       0.04166667       0.00000000 </v>
   <v>       0.08333333       0.08333333       0.00000000 </v>
   <v>       0.12500000       0.08333333       0.00000000 </v>
   <v>       0.16666667       0.08333333       0.00000000 </v>
   <v>       0.20833333       0.08333333       0.00000000 </v>
   <v>       0.25000000       0.08333333       0.00000000 </v>
   <v>       0.29166667       0.08333333       0.00000000 </v>
   <v>       0.33333333       0.08333333       0.00000000 </v>
   <v>       0.37500000       0.08333333       0.00000000 </v>
   <v>       0.41666667       0.08333333       0.00000000 </v>
   <v>       0.45833333       0.08333333       0.00000000 </v>
   <v>       0.12500000       0.12500000       0.00000000 </v>
   <v>       0.16666667       0.12500000       0.00000000 </v>
   <v>       0.20833333       0.12500000       0.00000000 </v>
   <v>       0.25000000       0.12500000       0.00000000 </v>
   <v>       0.29166667       0.12500000       0.00000000 </v>
   <v>       0.33333333       0.12500000       0.00000000 </v>
   <v>       0.37500000       0.12500000       0.00000000 </v>
   <v>       0.41666667       0.12500000       0.00000000 </v>
   <v>       0.16666667       0.16666667       0.00000000 </v>
   <v>       0.20833333       0.16666667       0.00000000 </v>
   <v>       0.25000000       0.16666667       0.00000000 </v>
   <v>       0.29166667       0.16666667       0.00000000 </v>
   <v>       0.33333333       0.16666667       0.00000000 </v>
   <v>       0.37500000       0.16666667       0.00000000 </v>
   <v>       0.41666667       0.16666667       0.00000000 </v>
   <v>       0.20833333       0.20833333       0.00000000 </v>
   <v>       0.25000000       0.20833333       0.00000000 </v>
   <v>       0.29166667       0.20833333       0.00000000 </v>
   <v>       0.33333333       0.20833333       0.00000000 </v>
   <v>       0.37500000       0.20833333       0.00000000 </v>
   <v>       0.25000000       0.25000000       0.00000000 </v>
   <v>       0.29166667       0.25000000       0.00000000 </v>
   <v>       0.33333333       0.25000000       0.00000000 </v>
   <v>       0.37500000       0.25000000       0.00000000 </v>
   <v>       0.29166667       0.29166667       0.00000000 </v>
   <v>       0.33333333       0.29166667       0.00000000 </v>
   <v>       0.33333333       0.33333333       0.00000000 </v>
  </varray>
  <varray name="weights" >
   <v>       0.00173611 </v>
   <v>       0.01041667 </v>
   <v>       0.01041667 </v>
   <v>       0.01041667 </v>
   <v>       0.01041667 </v>
   <v>       0.01041667 </v>
   <v>       0.01041667 </v>
   <v>       0.01041667 </v>
   <v>       0.01041667 </v>
   <v>       0.01041667 </v>
   <v>       0.01041667 </v>
   <v>       0.01041667 </v>
   <v>       0.00520833 </v>
   <v>       0.01041667 </v>
   <v>       0.02083333 </v>
   <v>       0.02083333 </v>
   <v>       0.02083333 </v>
   <v>       0.02083333 </v>
   <v>       0.02083333 </v>
   <v>       0.02083333 </v>
   <v>       0.02083333 </v>
   <v>       0.02083333 </v>
   <v>       0.02083333 </v>
   <v>       0.02083333 </v>
   <v>       0.01041667 </v>
   <v>       0.02083333 </v>
   <v>       0.02083333 </v>
   <v>       0.02083333 </v>
   <v>       0.02083333 </v>
   <v>       0.02083333 </v>
   <v>       0.02083333 </v>
   <v>       0.02083333 </v>
   <v>       0.02083333 </v>
   <v>       0.01041667 </v>
   <v>       0.01041667 </v>
   <v>       0.02083333 </v>
   <v>       0.02083333 </v>
   <v>       0.02083333 </v>
   <v>       0.02083333 </v>
   <v>       0.02083333 </v>
   <v>       0.02083333 </v>
   <v>       0.02083333 </v>
   <v>       0.01041667 </v>
   <v>       0.02083333 </v>
   <v>       0.02083333 </v>
   <v>       0.02083333 </v>
   <v>       0.02083333 </v>
   <v>       0.02083333 </v>
   <v>       0.01041667 </v>
   <v>       0.01041667 </v>
   <v>       0.02083333 </v>
   <v>       0.02083333 </v>
   <v>       0.02083333 </v>
   <v>       0.02083333 </v>
   <v>       0.01041667 </v>
   <v>       0.02083333 </v>
   <v>       0.02083333 </v>
   <v>       0.01041667 </v>
   <v>       0.01041667 </v>
   <v>       0.02083333 </v>
   <v>       0.00347222 </v>
  </varray>
 </kpoints>
 <parameters>
  <separator name="general" >
   <i type="string" name="SYSTEM">unknown system</i>
   <i type="logical" name="LCOMPAT"> F  </i>
  </separator>
  <separator name="electronic" >
   <i type="string" name="PREC">a</i>
   <i name="ENMAX">    520.00000000</i>
   <i name="ENAUG">    644.87300000</i>
   <i name="EDIFF">      0.00001000</i>
   <i type="int" name="IALGO">    38</i>
   <i type="int" name="IWAVPR">    10</i>
   <i type="int" name="NBANDS">    12</i>
   <i name="NELECT">      8.00000000</i>
   <i type="int" name="TURBO">     0</i>
   <i type="int" name="IRESTART">     0</i>
   <i type="int" name="NREBOOT">     0</i>
   <i type="int" name="NMIN">     0</i>
   <i name="EREF">      0.00000000</i>
   <separator name="electronic smearing" >
    <i type="int" name="ISMEAR">     0</i>
    <i name="SIGMA">      0.02000000</i>
    <i name="KSPACING">      0.50000000</i>
    <i type="logical" name="KGAMMA"> T  </i>
   </separator>
   <separator name="electronic projectors" >
    <i type="logical" name="LREAL"> T  </i>
    <v name="ROPT">     -0.00025000</v>
    <i type="int" name="LMAXPAW">  -100</i>
    <i type="int" name="LMAXMIX">     2</i>
    <i type="logical" name="NLSPLINE"> F  </i>
   </separator>
   <separator name="electronic startup" >
    <i type="int" name="ISTART">     0</i>
    <i type="int" name="ICHARG">     2</i>
    <i type="int" name="INIWAV">     1</i>
   </separator>
   <separator name="electronic spin" >
    <i type="int" name="ISPIN">     1</i>
    <i type="logical" name="LNONCOLLINEAR"> F  </i>
    <v name="MAGMOM">      0.60000000      0.60000000</v>
    <i name="NUPDOWN">     -1.00000000</i>
    <i type="logical" name="LSORBIT"> F  </i>
    <v name="SAXIS">      0.00000000      0.00000000      1.00000000</v>
    <i type="logical" name="LSPIRAL"> F  </i>
    <v name="QSPIRAL">      0.00000000      0.00000000      0.00000000</v>
    <i type="logical" name="LZEROZ"> F  </i>
   </separator>
   <separator name="electronic exchange-correlation" >
    <i type="logical" name="LASPH"> F  </i>
    <i type="logical" name="LMETAGGA"> F  </i>
   </separator>
   <separator name="electronic convergence" >
    <i type="int" name="NELM">   250</i>
    <i type="int" name="NELMDL">    -5</i>
    <i type="int" name="NELMIN">     6</i>
    <i name="ENINI">    520.00000000</i>
    <separator name="electronic convergence detail" >
     <i type="logical" name="LDIAG"> T  </i>
     <i type="logical" name="LSUBROT"> F  </i>
     <i name="WEIMIN">      0.00000000</i>
     <i name="EBREAK">      0.00000021</i>
     <i name="DEPER">      0.30000000</i>
     <i type="int" name="NRMM">     4</i>
     <i name="TIME">      0.40000000</i>
    </separator>
   </separator>
   <separator name="electronic mixer" >
    <i name="AMIX">      0.40000000</i>
    <i name="BMIX">      1.00000000</i>
    <i name="AMIN">      0.10000000</i>
    <i name="AMIX_MAG">      1.60000000</i>
    <i name="BMIX_MAG">      1.00000000</i>
    <separator name="electronic mixer details" >
     <i type="int" name="IMIX">     4</i>
     <i type="logical" name="MIXFIRST"> F  </i>
     <i type="int" name="MAXMIX">   -45</i>
     <i name="WC">    100.00000000</i>
     <i type="int" name="INIMIX">     1</i>
     <i type="int" name="MIXPRE">     1</i>
     <i type="int" name="MREMOVE">     5</i>
    </separator>
   </separator>
   <separator name="electronic dipolcorrection" >
    <i type="logical" name="LDIPOL"> F  </i>
    <i type="logical" name="LMONO"> F  </i>
    <i type="int" name="IDIPOL">     0</i>
    <i name="EPSILON">      1.00000000</i>
    <v name="DIPOL">   -100.00000000   -100.00000000   -100.00000000</v>
    <i name="EFIELD">      0.00000000</i>
   </separator>
  </separator>
  <separator name="grids" >
   <i type="int" name="NGX">    18</i>
   <i type="int" name="NGY">    18</i>
   <i type="int" name="NGZ">   112</i>
   <i type="int" name="NGXF">    36</i>
   <i type="int" name="NGYF">    36</i>
   <i type="int" name="NGZF">   224</i>
   <i type="logical" name="ADDGRID"> F  </i>
  </separator>
  <separator name="ionic" >
   <i type="int" name="NSW">     0</i>
   <i type="int" name="IBRION">    -1</i>
   <i type="int" name="ISIF">     2</i>
   <i name="PSTRESS">      0.00000000</i>
   <i name="EDIFFG">     -0.00500000</i>
   <i type="int" name="NFREE">     1</i>
   <i name="POTIM">      0.25000000</i>
   <i name="SMASS">     -3.00000000</i>
   <i name="SCALEE">      1.00000000</i>
  </separator>
  <separator name="ionic md" >
   <i name="TEBEG">      0.00010000</i>
   <i name="TEEND">      0.00010000</i>
   <i type="int" name="NBLOCK">     1</i>
   <i type="int" name="KBLOCK">     1</i>
   <i type="int" name="NPACO">   256</i>
   <i name="APACO">     16.00000000</i>
  </separator>
  <separator name="symmetry" >
   <i type="int" name="ISYM">     2</i>
   <i name="SYMPREC">      0.00001000</i>
  </separator>
  <separator name="dos" >
   <i type="logical" name="LORBIT"> F  </i>
   <v name="RWIGS">     -1.00000000</v>
   <i type="int" name="NEDOS">   301</i>
   <i name="EMIN">     10.00000000</i>
   <i name="EMAX">    -10.00000000</i>
   <i name="EFERMI">      0.00000000</i>
  </separator>
  <separator name="writing" >
   <i type="int" name="NWRITE">     2</i>
   <i type="logical" name="LWAVE"> F  </i>
   <i type="logical" name="LCHARG"> F  </i>
   <i type="logical" name="LPARD"> F  </i>
   <i type="logical" name="LVTOT"> F  </i>
   <i type="logical" name="LVHAR"> F  </i>
   <i type="logical" name="LELF"> F  </i>
   <i type="logical" name="LOPTICS"> F  </i>
   <v name="STM">      0.00000000      0.00000000      0.00000000      0.00000000      0.00000000      0.00000000      0.00000000</v>
  </separator>
  <separator name="performance" >
   <i type="int" name="NPAR">     6</i>
   <i type="int" name="NSIM">     4</i>
   <i type="int" name="NBLK">    -1</i>
   <i type="logical" name="LPLANE"> T  </i>
   <i type="logical" name="LSCALAPACK"> T  </i>
   <i type="logical" name="LSCAAWARE"> F  </i>
   <i type="logical" name="LSCALU"> F  </i>
   <i type="logical" name="LASYNC"> F  </i>
   <i type="logical" name="LORBITALREAL"> F  </i>
  </separator>
  <separator name="miscellaneous" >
   <i type="int" name="IDIOT">     3</i>
   <i type="logical" name="LMUSIC"> F  </i>
   <v name="POMASS">     12.01100000</v>
   <v name="DARWINR">      0.00000000</v>
   <v name="DARWINV">      1.00000000</v>
   <i type="logical" name="LCORR"> T  </i>
  </separator>
  <i type="logical" name="GGA_COMPAT"> T  </i>
  <i type="logical" name="LBERRY"> F  </i>
  <i type="int" name="ICORELEVEL">     0</i>
  <i type="logical" name="LDAU"> F  </i>
  <i type="int" name="I_CONSTRAINED_M">     0</i>
  <separator name="electronic exchange-correlation" >
   <i type="string" name="GGA">--</i>
   <i type="int" name="VOSKOWN">     0</i>
   <i type="logical" name="LHFCALC"> F  </i>
   <i type="string" name="PRECFOCK"></i>
   <i type="logical" name="LSYMGRAD"> F  </i>
   <i type="logical" name="LHFONE"> F  </i>
   <i type="logical" name="LRHFCALC"> F  </i>
   <i type="logical" name="LTHOMAS"> F  </i>
   <i type="logical" name="LMODELHF"> F  </i>
   <i name="ENCUT4O">     -1.00000000</i>
   <i type="int" name="EXXOEP">     0</i>
   <i type="int" name="FOURORBIT">     0</i>
   <i name="AEXX">      0.00000000</i>
   <i name="HFALPHA">      0.00000000</i>
   <i name="MCALPHA">      0.00000000</i>
   <i name="ALDAX">      1.00000000</i>
   <i name="AGGAX">      1.00000000</i>
   <i name="ALDAC">      1.00000000</i>
   <i name="AGGAC">      1.00000000</i>
   <i type="int" name="NKREDX">     1</i>
   <i type="int" name="NKREDY">     1</i>
   <i type="int" name="NKREDZ">     1</i>
   <i type="logical" name="SHIFTRED"> F  </i>
   <i type="logical" name="ODDONLY"> F  </i>
   <i type="logical" name="EVENONLY"> F  </i>
   <i type="int" name="LMAXFOCK">     0</i>
   <i type="int" name="NMAXFOCKAE">     0</i>
   <i type="logical" name="LFOCKAEDFT"> F  </i>
   <i name="HFSCREEN">      0.00000000</i>
   <i name="HFSCREENC">      0.00000000</i>
   <i type="int" name="NBANDSGWLOW">     0</i>
  </separator>
  <separator name="vdW DFT" >
   <i type="logical" name="LUSE_VDW"> F  </i>
   <i name="Zab_VDW">     -0.84910000</i>
   <i name="PARAM1">      0.12340000</i>
   <i name="PARAM2">      1.00000000</i>
   <i name="PARAM3">      0.00000000</i>
  </separator>
  <separator name="model GW" >
   <i type="int" name="MODEL_GW">     0</i>
   <i name="MODEL_EPS0">     24.03436539</i>
   <i name="MODEL_ALPHA">      1.00000000</i>
  </separator>
  <separator name="linear response parameters" >
   <i type="logical" name="LEPSILON"> F  </i>
   <i type="logical" name="LRPA"> F  </i>
   <i type="logical" name="LNABLA"> F  </i>
   <i type="logical" name="LVEL"> F  </i>
   <i type="int" name="KINTER">     0</i>
   <i name="CSHIFT">      0.10000000</i>
   <i name="OMEGAMAX">     -1.00000000</i>
   <i name="DEG_THRESHOLD">      0.00200000</i>
  </separator>
  <separator name="orbital magnetization" >
   <i type="logical" name="NUCIND"> F  </i>
   <v name="MAGPOS">      0.00000000      0.00000000      0.00000000</v>
   <i type="logical" name="LNICSALL"> T  </i>
   <i type="logical" name="ORBITALMAG"> F  </i>
   <i type="logical" name="LMAGBLOCH"> F  </i>
   <i type="logical" name="LCHIMAG"> F  </i>
   <i type="logical" name="LGAUGE"> T  </i>
   <i type="int" name="MAGATOM">     0</i>
   <v name="MAGDIPOL">      0.00000000      0.00000000      0.00000000</v>
   <v name="AVECCONST">      0.00000000      0.00000000      0.00000000</v>
  </separator>
  <separator name="response functions" >
   <i type="logical" name="LADDER"> F  </i>
   <i type="logical" name="LFXC"> F  </i>
   <i type="logical" name="LHARTREE"> T  </i>
   <i type="int" name="IBSE">     0</i>
   <v type="int" name="KPOINT">    -1     0     0     0</v>
   <i type="logical" name="LTCTE"> F  </i>
   <i type="logical" name="LTETE"> F  </i>
   <i type="logical" name="LTRIPLET"> F  </i>
   <i type="logical" name="LFXCEPS"> F  </i>
   <i type="logical" name="LFXHEG"> F  </i>
   <i type="int" name="NATURALO">     0</i>
   <i type="logical" name="L2ORDER"> F  </i>
   <i type="logical" name="LUSEW"> F  </i>
   <i name="ENCUTGW">     -2.00000000</i>
   <i name="ENCUTGWSOFT">     -2.00000000</i>
   <i name="ENCUTLF">     -1.00000000</i>
   <i type="int" name="LMAXMP2">    -1</i>
   <i name="SCISSOR">      0.00000000</i>
   <i type="int" name="NOMEGA">     0</i>
   <i type="int" name="NOMEGAR">     0</i>
   <i type="int" name="NBANDSGW">    -1</i>
   <i type="int" name="NBANDSO">    -1</i>
   <i type="int" name="NBANDSV">    -1</i>
   <i type="int" name="NELM">   250</i>
   <i type="int" name="NELMHF">     1</i>
   <i type="int" name="DIM">     3</i>
   <i type="int" name="ANTIRES">     0</i>
   <i name="OMEGAMAX">    -30.00000000</i>
   <i name="OMEGAMIN">    -30.00000000</i>
   <i name="OMEGATL">   -200.00000000</i>
   <i type="int" name="OMEGAGRID">     0</i>
   <i name="CSHIFT">     -0.10000000</i>
   <i type="logical" name="SELFENERGY"> F  </i>
   <i type="logical" name="LSPECTRAL"> F  </i>
   <i type="logical" name="LSPECTRALGW"> F  </i>
   <i type="logical" name="LSINGLES"> F  </i>
   <i type="logical" name="LFERMIGW"> F  </i>
   <i type="logical" name="ODDONLYGW"> F  </i>
   <i type="logical" name="EVENONLYGW"> F  </i>
   <i type="int" name="NKREDLFX">     1</i>
   <i type="int" name="NKREDLFY">     1</i>
   <i type="int" name="NKREDLFZ">     1</i>
   <i type="int" name="MAXMEM">  1800</i>
   <i type="int" name="TELESCOPE">     0</i>
   <i type="int" name="TAUPAR">     1</i>
   <i type="int" name="OMEGAPAR">    -1</i>
   <i name="LAMBDA">      1.00000000</i>
  </separator>
  <separator name="External order field" >
   <i name="OFIELD_KAPPA">      0.00000000</i>
   <v name="OFIELD_K">      0.00000000      0.00000000      0.00000000</v>
   <i name="OFIELD_Q6_NEAR">      0.00000000</i>
   <i name="OFIELD_Q6_FAR">      0.00000000</i>
   <i name="OFIELD_A">      0.00000000</i>
  </separator>
 </parameters>
 <atominfo>
  <atoms>       2 </atoms>
  <types>       1 </types>
  <array name="atoms" >
   <dimension dim="1">ion</dimension>
   <field type="string">element</field>
   <field type="int">atomtype</field>
   <set>
    <rc><c>C </c><c>   1</c></rc>
    <rc><c>C </c><c>   1</c></rc>
   </set>
  </array>
  <array name="atomtypes" >
   <dimension dim="1">type</dimension>
   <field type="int">atomspertype</field>
   <field type="string">element</field>
   <field>mass</field>
   <field>valence</field>
   <field type="string">pseudopotential</field>
   <set>
    <rc><c>   2</c><c>C </c><c>     12.01100000</c><c>      4.00000000</c><c>  PAW_PBE C 08Apr2002                   </c></rc>
   </set>
  </array>
 </atominfo>
 <structure name="initialpos" >
  <crystal>
   <varray name="basis" >
    <v>       2.48338900       0.00000000       0.00000000 </v>
    <v>      -1.24169500       2.15067800       0.00000000 </v>
    <v>       0.00000000       0.00000000      15.00000000 </v>
   </varray>
   <i name="volume">     80.11455132 </i>
   <varray name="rec_basis" >
    <v>       0.40267554       0.23248492       0.00000000 </v>
    <v>       0.00000000       0.46496965       0.00000000 </v>
    <v>       0.00000000       0.00000000       0.06666667 </v>
   </varray>
  </crystal>
  <varray name="positions" >
   <v>       0.00000000       0.00000000       0.50000000 </v>
   <v>       0.33333300       0.66666700       0.50000000 </v>
  </varray>
 </structure>
 <calculation>
  <scstep>
   <time name="dav">    0.16    0.16</time>
   <time name="total">    0.17    0.18</time>
   <energy>
    <i name="alphaZ">      4.10146295 </i>
    <i name="ewald">    821.22731915 </i>
    <i name="hartreedc">  -1041.11265951 </i>
    <i name="XCdc">     26.26568535 </i>
    <i name="pawpsdc">    217.04409276 </i>
    <i name="pawaedc">   -218.18290438 </i>
    <i name="eentropy">     -0.00009705 </i>
    <i name="bandstr">    -69.07666404 </i>
    <i name="atom">    294.29778662 </i>
    <i name="e_fr_energy">     34.56402185 </i>
    <i name="e_wo_entrp">     34.56411890 </i>
    <i name="e_0_energy">     34.56407038 </i>
   </energy>
  </scstep>
  <scstep>
   <time name="dav">    0.22    0.22</time>
   <time name="total">    0.22    0.22</time>
   <energy>
    <i name="e_fr_energy">    -17.93850677 </i>
    <i name="e_wo_entrp">    -17.93843208 </i>
    <i name="e_0_energy">    -17.93846942 </i>
   </energy>
  </scstep>
  <scstep>
   <time name="dav">    0.26    0.26</time>
   <time name="total">    0.26    0.26</time>
   <energy>
    <i name="e_fr_energy">    -19.62893694 </i>
    <i name="e_wo_entrp">    -19.62885858 </i>
    <i name="e_0_energy">    -19.62889776 </i>
   </energy>
  </scstep>
  <scstep>
   <time name="dav">    0.27    0.27</time>
   <time name="total">    0.27    0.27</time>
   <energy>
    <i name="e_fr_energy">    -19.63760855 </i>
    <i name="e_wo_entrp">    -19.63753019 </i>
    <i name="e_0_energy">    -19.63756937 </i>
   </energy>
  </scstep>
  <scstep>
   <time name="dav">    0.23    0.23</time>
   <time name="total">    0.25    0.25</time>
   <energy>
    <i name="e_fr_energy">    -19.63761560 </i>
    <i name="e_wo_entrp">    -19.63753724 </i>
    <i name="e_0_energy">    -19.63757642 </i>
   </energy>
  </scstep>
  <scstep>
   <time name="dav">    0.22    0.23</time>
   <time name="total">    0.24    0.24</time>
   <energy>
    <i name="e_fr_energy">    -18.78258830 </i>
    <i name="e_wo_entrp">    -18.78250994 </i>
    <i name="e_0_energy">    -18.78254912 </i>
   </energy>
  </scstep>
  <scstep>
   <time name="dav">    0.24    0.24</time>
   <time name="total">    0.26    0.26</time>
   <energy>
    <i name="e_fr_energy">    -18.45220676 </i>
    <i name="e_wo_entrp">    -18.45212840 </i>
    <i name="e_0_energy">    -18.45216758 </i>
   </energy>
  </scstep>
  <scstep>
   <time name="dav">    0.23    0.23</time>
   <time name="total">    0.24    0.25</time>
   <energy>
    <i name="e_fr_energy">    -18.44512505 </i>
    <i name="e_wo_entrp">    -18.44504669 </i>
    <i name="e_0_energy">    -18.44508587 </i>
   </energy>
  </scstep>
  <scstep>
   <time name="dav">    0.23    0.23</time>
   <time name="total">    0.25    0.25</time>
   <energy>
    <i name="e_fr_energy">    -18.44323915 </i>
    <i name="e_wo_entrp">    -18.44316079 </i>
    <i name="e_0_energy">    -18.44319997 </i>
   </energy>
  </scstep>
  <scstep>
   <time name="dav">    0.19    0.19</time>
   <time name="total">    0.20    0.21</time>
   <energy>
    <i name="e_fr_energy">    -18.44192258 </i>
    <i name="e_wo_entrp">    -18.44184422 </i>
    <i name="e_0_energy">    -18.44188340 </i>
   </energy>
  </scstep>
  <scstep>
   <time name="dav">    0.18    0.18</time>
   <time name="total">    0.19    0.19</time>
   <energy>
    <i name="e_fr_energy">    -18.44215590 </i>
    <i name="e_wo_entrp">    -18.44207754 </i>
    <i name="e_0_energy">    -18.44211672 </i>
   </energy>
  </scstep>
  <scstep>
   <time name="dav">    0.19    0.19</time>
   <time name="total">    0.21    0.21</time>
   <energy>
    <i name="e_fr_energy">    -18.44235357 </i>
    <i name="e_wo_entrp">    -18.44227521 </i>
    <i name="e_0_energy">    -18.44231439 </i>
   </energy>
  </scstep>
  <scstep>
   <time name="dav">    0.18    0.18</time>
   <time name="total">    0.20    0.20</time>
   <energy>
    <i name="e_fr_energy">    -18.44305930 </i>
    <i name="e_wo_entrp">    -18.44298094 </i>
    <i name="e_0_energy">    -18.44302012 </i>
   </energy>
  </scstep>
  <scstep>
   <time name="dav">    0.23    0.23</time>
   <time name="total">    0.25    0.25</time>
   <energy>
    <i name="e_fr_energy">    -18.44311058 </i>
    <i name="e_wo_entrp">    -18.44303222 </i>
    <i name="e_0_energy">    -18.44307140 </i>
   </energy>
  </scstep>
  <scstep>
   <time name="dav">    0.18    0.18</time>
   <time name="total">    0.20    0.20</time>
   <energy>
    <i name="e_fr_energy">    -18.44320585 </i>
    <i name="e_wo_entrp">    -18.44312749 </i>
    <i name="e_0_energy">    -18.44316667 </i>
   </energy>
  </scstep>
  <scstep>
   <time name="dav">    0.19    0.19</time>
   <time name="total">    0.19    0.19</time>
   <energy>
    <i name="alphaZ">      4.10146295 </i>
    <i name="ewald">    821.22731915 </i>
    <i name="hartreedc">  -1073.09651025 </i>
    <i name="XCdc">     27.41685364 </i>
    <i name="pawpsdc">    809.59636359 </i>
    <i name="pawaedc">   -810.95390959 </i>
    <i name="eentropy">     -0.00007836 </i>
    <i name="bandstr">    -91.03250077 </i>
    <i name="atom">    294.29778662 </i>
    <i name="e_fr_energy">    -18.44321302 </i>
    <i name="e_wo_entrp">    -18.44313466 </i>
    <i name="e_0_energy">    -18.44317384 </i>
   </energy>
  </scstep>
  <structure>
   <crystal>
    <varray name="basis" >
     <v>       2.48338900       0.00000000       0.00000000 </v>
     <v>      -1.24169500       2.15067800       0.00000000 </v>
     <v>       0.00000000       0.00000000      15.00000000 </v>
    </varray>
    <i name="volume">     80.11455132 </i>
    <varray name="rec_basis" >
     <v>       0.40267554       0.23248492       0.00000000 </v>
     <v>       0.00000000       0.46496965       0.00000000 </v>
     <v>       0.00000000       0.00000000       0.06666667 </v>
    </varray>
   </crystal>
   <varray name="positions" >
    <v>       0.00000000       0.00000000       0.50000000 </v>
    <v>       0.33333300       0.66666700       0.50000000 </v>
   </varray>
  </structure>
  <varray name="forces" >
   <v>       0.00000000      -0.00000000       0.00000000 </v>
   <v>       0.00000000       0.00000000       0.00000000 </v>
  </varray>
  <varray name="stress" >
   <v>     -16.59242128       0.00000386      -0.00000000 </v>
   <v>       0.00000386     -16.59242187       0.00000000 </v>
   <v>      -0.00000000       0.00000000       0.10223338 </v>
  </varray>
  <energy>
   <i name="e_fr_energy">    -18.44321302 </i>
   <i name="e_wo_entrp">    -18.44317384 </i>
   <i name="e_0_energy">     -0.00007836 </i>
  </energy>
  <time name="totalsc">    3.76    3.79</time>
  <eigenvalues>
   <array>
    <dimension dim="1">band</dimension>
    <dimension dim="2">kpoint</dimension>
    <dimension dim="3">spin</dimension>
    <field>eigene</field>
    <field>occ</field>
    <set>
     <set comment="spin 1">
      <set comment="kpoint 1">
       <r>  -21.6675    1.0000 </r>
       <r>   -9.7973    1.0000 </r>
       <r>   -5.3601    1.0000 </r>
       <r>   -5.3600    1.0000 </r>
       <r>    0.9973    0.0000 </r>
       <r>    1.9005    0.0000 </r>
       <r>    2.4140    0.0000 </r>
       <r>    4.3293    0.0000 </r>
       <r>    5.0778    0.0000 </r>
       <r>    5.8605    0.0000 </r>
       <r>    5.8605    0.0000 </r>
       <r>    8.2143    0.0000 </r>
      </set>
      <set comment="kpoint 2">
       <r>  -21.6269    1.0000 </r>
       <r>   -9.7491    1.0000 </r>
       <r>   -5.5281    1.0000 </r>
       <r>   -5.4472    1.0000 </r>
       <r>    1.0523    0.0000 </r>
       <r>    1.9559    0.0000 </r>
       <r>    2.4700    0.0000 </r>
       <r>    4.3843    0.0000 </r>
       <r>    5.1311    0.0000 </r>
       <r>    5.8850    0.0000 </r>
       <r>    6.0354    0.0000 </r>
       <r>    8.2676    0.0000 </r>
      </set>
      <set comment="kpoint 3">
       <r>  -21.5054    1.0000 </r>
       <r>   -9.6049    1.0000 </r>
       <r>   -6.0065    1.0000 </r>
       <r>   -5.6910    1.0000 </r>
       <r>    1.2172    0.0000 </r>
       <r>    2.1219    0.0000 </r>
       <r>    2.6379    0.0000 </r>
       <r>    4.5493    0.0000 </r>
       <r>    5.2905    0.0000 </r>
       <r>    5.9298    0.0000 </r>
       <r>    6.5411    0.0000 </r>
       <r>    8.2937    0.0000 </r>
      </set>
      <set comment="kpoint 4">
       <r>  -21.3033    1.0000 </r>
       <r>   -9.3656    1.0000 </r>
       <r>   -6.7317    1.0000 </r>
       <r>   -6.0475    1.0000 </r>
       <r>    1.4919    0.0000 </r>
       <r>    2.3984    0.0000 </r>
       <r>    2.9177    0.0000 </r>
       <r>    4.8236    0.0000 </r>
       <r>    5.5478    0.0000 </r>
       <r>    5.9463    0.0000 </r>
       <r>    7.3301    0.0000 </r>
       <r>    7.6556    0.0000 </r>
      </set>
      <set comment="kpoint 5">
       <r>  -21.0211    1.0000 </r>
       <r>   -9.0329    1.0000 </r>
       <r>   -7.6307    1.0000 </r>
       <r>   -6.4667    1.0000 </r>
       <r>    1.8765    0.0000 </r>
       <r>    2.7845    0.0000 </r>
       <r>    3.3093    0.0000 </r>
       <r>    5.2056    0.0000 </r>
       <r>    5.7710    0.0000 </r>
       <r>    6.0363    0.0000 </r>
       <r>    6.8303    0.0000 </r>
       <r>    8.3451    0.0000 </r>
      </set>
      <set comment="kpoint 6">
       <r>  -20.6596    1.0000 </r>
       <r>   -8.6393    1.0000 </r>
       <r>   -8.6097    1.0000 </r>
       <r>   -6.9048    1.0000 </r>
       <r>    2.3704    0.0000 </r>
       <r>    3.2783    0.0000 </r>
       <r>    3.8126    0.0000 </r>
       <r>    5.6518    0.0000 </r>
       <r>    5.6899    0.0000 </r>
       <r>    5.9087    0.0000 </r>
       <r>    6.4791    0.0000 </r>
       <r>    9.5354    0.0000 </r>
      </set>
      <set comment="kpoint 7">
       <r>  -20.2203    1.0000 </r>
       <r>   -9.7077    1.0000 </r>
       <r>   -8.1005    1.0000 </r>
       <r>   -7.3288    1.0000 </r>
       <r>    2.9730    0.0000 </r>
       <r>    3.8647    0.0000 </r>
       <r>    4.4267    0.0000 </r>
       <r>    4.7970    0.0000 </r>
       <r>    5.5329    0.0000 </r>
       <r>    6.3155    0.0000 </r>
       <r>    7.0735    0.0000 </r>
       <r>   10.1052    0.0000 </r>
      </set>
      <set comment="kpoint 8">
       <r>  -19.7047    1.0000 </r>
       <r>  -10.7990    1.0000 </r>
       <r>   -7.7152    1.0000 </r>
       <r>   -7.5124    1.0000 </r>
       <r>    3.6136    0.0000 </r>
       <r>    3.6827    0.0000 </r>
       <r>    4.6431    0.0000 </r>
       <r>    5.1371    0.0000 </r>
       <r>    5.3785    0.0000 </r>
       <r>    7.0202    0.0000 </r>
       <r>    7.7823    0.0000 </r>
       <r>   10.7647    0.0000 </r>
      </set>
      <set comment="kpoint 9">
       <r>  -19.1156    1.0000 </r>
       <r>  -11.8856    1.0000 </r>
       <r>   -8.0479    1.0000 </r>
       <r>   -6.8576    1.0000 </r>
       <r>    2.4986    0.0000 </r>
       <r>    4.4920    0.0000 </r>
       <r>    5.1973    0.0000 </r>
       <r>    5.4474    0.0000 </r>
       <r>    6.0036    0.0000 </r>
       <r>    7.8317    0.0000 </r>
       <r>    8.6004    0.0000 </r>
       <r>   11.4957    0.0000 </r>
      </set>
      <set comment="kpoint 10">
       <r>  -18.4577    1.0000 </r>
       <r>  -12.9454    1.0000 </r>
       <r>   -8.3159    1.0000 </r>
       <r>   -6.1592    1.0000 </r>
       <r>    1.4052    0.0000 </r>
       <r>    5.0133    0.0000 </r>
       <r>    5.4654    0.0000 </r>
       <r>    6.3721    0.0000 </r>
       <r>    6.9506    0.0000 </r>
       <r>    8.7436    0.0000 </r>
       <r>    9.5247    0.0000 </r>
       <r>   12.2313    0.0000 </r>
      </set>
      <set comment="kpoint 11">
       <r>  -17.7408    1.0000 </r>
       <r>  -13.9567    1.0000 </r>
       <r>   -8.5118    1.0000 </r>
       <r>   -5.4656    1.0000 </r>
       <r>    0.4146    0.0000 </r>
       <r>    4.9299    0.0000 </r>
       <r>    6.4734    0.0000 </r>
       <r>    7.4004    0.0000 </r>
       <r>    8.0106    0.0000 </r>
       <r>    9.7452    0.0000 </r>
       <r>   10.5504    0.0000 </r>
       <r>   11.4270    0.0000 </r>
      </set>
      <set comment="kpoint 12">
       <r>  -17.0009    1.0000 </r>
       <r>  -14.8761    1.0000 </r>
       <r>   -8.6311    1.0000 </r>
       <r>   -4.8874    1.0000 </r>
       <r>   -0.3473    0.0000 </r>
       <r>    4.8680    0.0000 </r>
       <r>    7.5976    0.0000 </r>
       <r>    8.5226    0.0000 </r>
       <r>    9.1803    0.0000 </r>
       <r>   10.1118    0.0000 </r>
       <r>   10.7209    0.0000 </r>
       <r>   11.1530    0.0000 </r>
      </set>
      <set comment="kpoint 13">
       <r>  -16.5210    1.0000 </r>
       <r>  -15.4164    1.0000 </r>
       <r>   -8.6711    1.0000 </r>
       <r>   -4.6419    1.0000 </r>
       <r>   -0.6550    0.0000 </r>
       <r>    4.8466    0.0000 </r>
       <r>    8.7414    0.0000 </r>
       <r>    8.8943    0.0000 </r>
       <r>    9.6080    0.0000 </r>
       <r>    9.8596    0.0000 </r>
       <r>   10.4480    0.0000 </r>
       <r>   10.4722    0.0000 </r>
      </set>
      <set comment="kpoint 14">
       <r>  -21.5459    1.0000 </r>
       <r>   -9.6529    1.0000 </r>
       <r>   -5.8423    1.0000 </r>
       <r>   -5.6218    1.0000 </r>
       <r>    1.1622    0.0000 </r>
       <r>    2.0666    0.0000 </r>
       <r>    2.5819    0.0000 </r>
       <r>    4.4943    0.0000 </r>
       <r>    5.2377    0.0000 </r>
       <r>    5.9466    0.0000 </r>
       <r>    6.3460    0.0000 </r>
       <r>    8.3740    0.0000 </r>
      </set>
      <set comment="kpoint 15">
       <r>  -21.3841    1.0000 </r>
       <r>   -9.4611    1.0000 </r>
       <r>   -6.4236    1.0000 </r>
       <r>   -5.9428    1.0000 </r>
       <r>    1.3821    0.0000 </r>
       <r>    2.2878    0.0000 </r>
       <r>    2.8058    0.0000 </r>
       <r>    4.7140    0.0000 </r>
       <r>    5.4496    0.0000 </r>
       <r>    6.0301    0.0000 </r>
       <r>    6.9196    0.0000 </r>
       <r>    7.9076    0.0000 </r>
      </set>
      <set comment="kpoint 16">
       <r>  -21.1419    1.0000 </r>
       <r>   -9.1751    1.0000 </r>
       <r>   -7.2149    1.0000 </r>
       <r>   -6.3520    1.0000 </r>
       <r>    1.7118    0.0000 </r>
       <r>    2.6192    0.0000 </r>
       <r>    3.1415    0.0000 </r>
       <r>    5.0426    0.0000 </r>
       <r>    5.7487    0.0000 </r>
       <r>    6.0693    0.0000 </r>
       <r>    7.1796    0.0000 </r>
       <r>    7.7355    0.0000 </r>
      </set>
      <set comment="kpoint 17">
       <r>  -20.8201    1.0000 </r>
       <r>   -8.7970    1.0000 </r>
       <r>   -8.1521    1.0000 </r>
       <r>   -6.7979    1.0000 </r>
       <r>    2.1511    0.0000 </r>
       <r>    3.0596    0.0000 </r>
       <r>    3.5891    0.0000 </r>
       <r>    5.4752    0.0000 </r>
       <r>    5.8960    0.0000 </r>
       <r>    6.2838    0.0000 </r>
       <r>    6.2937    0.0000 </r>
       <r>    8.7478    0.0000 </r>
      </set>
      <set comment="kpoint 18">
       <r>  -20.4197    1.0000 </r>
       <r>   -9.1787    1.0000 </r>
       <r>   -8.3305    1.0000 </r>
       <r>   -7.2413    1.0000 </r>
       <r>    2.6996    0.0000 </r>
       <r>    3.6046    0.0000 </r>
       <r>    4.1482    0.0000 </r>
       <r>    5.2654    0.0000 </r>
       <r>    5.7851    0.0000 </r>
       <r>    6.0442    0.0000 </r>
       <r>    6.8045    0.0000 </r>
       <r>    9.8431    0.0000 </r>
      </set>
      <set comment="kpoint 19">
       <r>  -19.9422    1.0000 </r>
       <r>  -10.2504    1.0000 </r>
       <r>   -7.7811    1.0000 </r>
       <r>   -7.6550    1.0000 </r>
       <r>    3.3562    0.0000 </r>
       <r>    4.0549    0.0000 </r>
       <r>    4.3940    0.0000 </r>
       <r>    4.8170    0.0000 </r>
       <r>    5.6270    0.0000 </r>
       <r>    6.6912    0.0000 </r>
       <r>    7.4557    0.0000 </r>
       <r>   10.4549    0.0000 </r>
      </set>
      <set comment="kpoint 20">
       <r>  -19.3898    1.0000 </r>
       <r>  -11.3340    1.0000 </r>
       <r>   -8.0202    1.0000 </r>
       <r>   -7.1580    1.0000 </r>
       <r>    3.0319    0.0000 </r>
       <r>    4.1186    0.0000 </r>
       <r>    5.0636    0.0000 </r>
       <r>    5.4307    0.0000 </r>
       <r>    5.6324    0.0000 </r>
       <r>    7.4493    0.0000 </r>
       <r>    8.2189    0.0000 </r>
       <r>   11.1449    0.0000 </r>
      </set>
      <set comment="kpoint 21">
       <r>  -18.7659    1.0000 </r>
       <r>  -12.4040    1.0000 </r>
       <r>   -8.3241    1.0000 </r>
       <r>   -6.4778    1.0000 </r>
       <r>    1.9246    0.0000 </r>
       <r>    4.9640    0.0000 </r>
       <r>    5.3283    0.0000 </r>
       <r>    5.9327    0.0000 </r>
       <r>    6.5048    0.0000 </r>
       <r>    8.3095    0.0000 </r>
       <r>    9.0899    0.0000 </r>
       <r>   11.8736    0.0000 </r>
      </set>
      <set comment="kpoint 22">
       <r>  -18.0772    1.0000 </r>
       <r>  -13.4386    1.0000 </r>
       <r>   -8.5582    1.0000 </r>
       <r>   -5.7730    1.0000 </r>
       <r>    0.8777    0.0000 </r>
       <r>    5.1558    0.0000 </r>
       <r>    5.9928    0.0000 </r>
       <r>    6.9085    0.0000 </r>
       <r>    7.5085    0.0000 </r>
       <r>    9.2634    0.0000 </r>
       <r>   10.0652    0.0000 </r>
       <r>   12.0348    0.0000 </r>
      </set>
      <set comment="kpoint 23">
       <r>  -17.3410    1.0000 </r>
       <r>  -14.4105    1.0000 </r>
       <r>   -8.7170    1.0000 </r>
       <r>   -5.1160    1.0000 </r>
       <r>   -0.0167    0.0000 </r>
       <r>    5.0787    0.0000 </r>
       <r>    7.0629    0.0000 </r>
       <r>    7.9815    0.0000 </r>
       <r>    8.6235    0.0000 </r>
       <r>   10.2837    0.0000 </r>
       <r>   10.7896    0.0000 </r>
       <r>   11.1486    0.0000 </r>
      </set>
      <set comment="kpoint 24">
       <r>  -16.6496    1.0000 </r>
       <r>  -15.2211    1.0000 </r>
       <r>   -8.7972    1.0000 </r>
       <r>   -4.6704    1.0000 </r>
       <r>   -0.5838    0.0000 </r>
       <r>    5.0366    0.0000 </r>
       <r>    8.2316    0.0000 </r>
       <r>    9.1314    0.0000 </r>
       <r>    9.4933    0.0000 </r>
       <r>    9.8508    0.0000 </r>
       <r>   10.3704    0.0000 </r>
       <r>   11.1782    0.0000 </r>
      </set>
      <set comment="kpoint 25">
       <r>  -21.1822    1.0000 </r>
       <r>   -9.2226    1.0000 </r>
       <r>   -7.0339    1.0000 </r>
       <r>   -6.3541    1.0000 </r>
       <r>    1.6569    0.0000 </r>
       <r>    2.5641    0.0000 </r>
       <r>    3.0856    0.0000 </r>
       <r>    4.9882    0.0000 </r>
       <r>    5.7152    0.0000 </r>
       <r>    6.2406    0.0000 </r>
       <r>    7.3016    0.0000 </r>
       <r>    7.3728    0.0000 </r>
      </set>
      <set comment="kpoint 26">
       <r>  -20.9004    1.0000 </r>
       <r>   -8.8910    1.0000 </r>
       <r>   -7.8137    1.0000 </r>
       <r>   -6.8406    1.0000 </r>
       <r>    2.0416    0.0000 </r>
       <r>    2.9500    0.0000 </r>
       <r>    3.4775    0.0000 </r>
       <r>    5.3705    0.0000 </r>
       <r>    6.0682    0.0000 </r>
       <r>    6.4060    0.0000 </r>
       <r>    6.5185    0.0000 </r>
       <r>    7.9952    0.0000 </r>
      </set>
      <set comment="kpoint 27">
       <r>  -20.5396    1.0000 </r>
       <r>   -8.7286    1.0000 </r>
       <r>   -8.4692    1.0000 </r>
       <r>   -7.3331    1.0000 </r>
       <r>    2.5357    0.0000 </r>
       <r>    3.4440    0.0000 </r>
       <r>    3.9811    0.0000 </r>
       <r>    5.5863    0.0000 </r>
       <r>    5.8759    0.0000 </r>
       <r>    6.2794    0.0000 </r>
       <r>    6.6740    0.0000 </r>
       <r>    8.8463    0.0000 </r>
      </set>
      <set comment="kpoint 28">
       <r>  -20.1011    1.0000 </r>
       <r>   -9.7314    1.0000 </r>
       <r>   -7.9616    1.0000 </r>
       <r>   -7.7942    1.0000 </r>
       <r>    3.1385    0.0000 </r>
       <r>    4.0288    0.0000 </r>
       <r>    4.5961    0.0000 </r>
       <r>    4.5988    0.0000 </r>
       <r>    6.2004    0.0000 </r>
       <r>    6.4656    0.0000 </r>
       <r>    7.2435    0.0000 </r>
       <r>    9.8610    0.0000 </r>
      </set>
      <set comment="kpoint 29">
       <r>  -19.5867    1.0000 </r>
       <r>  -10.7783    1.0000 </r>
       <r>   -8.2043    1.0000 </r>
       <r>   -7.3751    1.0000 </r>
       <r>    3.4845    0.0000 </r>
       <r>    3.8491    0.0000 </r>
       <r>    4.7823    0.0000 </r>
       <r>    5.3204    0.0000 </r>
       <r>    6.0586    0.0000 </r>
       <r>    7.1684    0.0000 </r>
       <r>    7.9476    0.0000 </r>
       <r>   10.8697    0.0000 </r>
      </set>
      <set comment="kpoint 30">
       <r>  -18.9992    1.0000 </r>
       <r>  -11.8347    1.0000 </r>
       <r>   -8.5517    1.0000 </r>
       <r>   -6.7219    1.0000 </r>
       <r>    2.3988    0.0000 </r>
       <r>    4.6643    0.0000 </r>
       <r>    5.5946    0.0000 </r>
       <r>    5.8874    0.0000 </r>
       <r>    6.1807    0.0000 </r>
       <r>    7.9725    0.0000 </r>
       <r>    8.7634    0.0000 </r>
       <r>   11.5403    0.0000 </r>
      </set>
      <set comment="kpoint 31">
       <r>  -18.3432    1.0000 </r>
       <r>  -12.8741    1.0000 </r>
       <r>   -8.8285    1.0000 </r>
       <r>   -6.0240    1.0000 </r>
       <r>    1.3356    0.0000 </r>
       <r>    5.5461    0.0000 </r>
       <r>    5.8064    0.0000 </r>
       <r>    6.5144    0.0000 </r>
       <r>    7.1185    0.0000 </r>
       <r>    8.8691    0.0000 </r>
       <r>    9.6853    0.0000 </r>
       <r>   12.1109    0.0000 </r>
      </set>
      <set comment="kpoint 32">
       <r>  -17.6291    1.0000 </r>
       <r>  -13.8712    1.0000 </r>
       <r>   -9.0296    1.0000 </r>
       <r>   -5.3285    1.0000 </r>
       <r>    0.3650    0.0000 </r>
       <r>    5.6402    0.0000 </r>
       <r>    6.6358    0.0000 </r>
       <r>    7.5307    0.0000 </r>
       <r>    8.1773    0.0000 </r>
       <r>    9.8352    0.0000 </r>
       <r>   10.7057    0.0000 </r>
       <r>   11.4681    0.0000 </r>
      </set>
      <set comment="kpoint 33">
       <r>  -16.8928    1.0000 </r>
       <r>  -14.7807    1.0000 </r>
       <r>   -9.1515    1.0000 </r>
       <r>   -4.7447    1.0000 </r>
       <r>   -0.3894    0.0000 </r>
       <r>    5.5806    0.0000 </r>
       <r>    7.7532    0.0000 </r>
       <r>    8.6250    0.0000 </r>
       <r>    9.3456    0.0000 </r>
       <r>   10.2343    0.0000 </r>
       <r>   10.6584    0.0000 </r>
       <r>   11.3052    0.0000 </r>
      </set>
      <set comment="kpoint 34">
       <r>  -16.4161    1.0000 </r>
       <r>  -15.3158    1.0000 </r>
       <r>   -9.1923    1.0000 </r>
       <r>   -4.4947    1.0000 </r>
       <r>   -0.6972    0.0000 </r>
       <r>    5.5595    0.0000 </r>
       <r>    8.8825    0.0000 </r>
       <r>    9.0455    0.0000 </r>
       <r>    9.5773    0.0000 </r>
       <r>   10.0263    0.0000 </r>
       <r>   10.6092    0.0000 </r>
       <r>   10.6363    0.0000 </r>
      </set>
      <set comment="kpoint 35">
       <r>  -20.5796    1.0000 </r>
       <r>   -8.5229    1.0000 </r>
       <r>   -8.5156    1.0000 </r>
       <r>   -7.4226    1.0000 </r>
       <r>    2.4810    0.0000 </r>
       <r>    3.3901    0.0000 </r>
       <r>    3.9253    0.0000 </r>
       <r>    5.7132    0.0000 </r>
       <r>    5.8064    0.0000 </r>
       <r>    6.4880    0.0000 </r>
       <r>    6.8176    0.0000 </r>
       <r>    8.2575    0.0000 </r>
      </set>
      <set comment="kpoint 36">
       <r>  -20.1807    1.0000 </r>
       <r>   -9.3532    1.0000 </r>
       <r>   -8.0522    1.0000 </r>
       <r>   -7.9941    1.0000 </r>
       <r>    3.0296    0.0000 </r>
       <r>    3.9366    0.0000 </r>
       <r>    4.4850    0.0000 </r>
       <r>    4.8020    0.0000 </r>
       <r>    6.3487    0.0000 </r>
       <r>    6.8537    0.0000 </r>
       <r>    7.1943    0.0000 </r>
       <r>    8.8114    0.0000 </r>
      </set>
      <set comment="kpoint 37">
       <r>  -19.7052    1.0000 </r>
       <r>  -10.2866    1.0000 </r>
       <r>   -8.4966    1.0000 </r>
       <r>   -7.5064    1.0000 </r>
       <r>    3.6865    0.0000 </r>
       <r>    3.8029    0.0000 </r>
       <r>    4.6030    0.0000 </r>
       <r>    5.1560    0.0000 </r>
       <r>    6.8795    0.0000 </r>
       <r>    6.9949    0.0000 </r>
       <r>    7.7944    0.0000 </r>
       <r>    9.6763    0.0000 </r>
      </set>
      <set comment="kpoint 38">
       <r>  -19.1555    1.0000 </r>
       <r>  -11.2800    1.0000 </r>
       <r>   -8.9159    1.0000 </r>
       <r>   -6.8869    1.0000 </r>
       <r>    2.7744    0.0000 </r>
       <r>    4.4504    0.0000 </r>
       <r>    5.3614    0.0000 </r>
       <r>    5.9367    0.0000 </r>
       <r>    6.7712    0.0000 </r>
       <r>    7.7401    0.0000 </r>
       <r>    8.5476    0.0000 </r>
       <r>   10.6624    0.0000 </r>
      </set>
      <set comment="kpoint 39">
       <r>  -18.5352    1.0000 </r>
       <r>  -12.2914    1.0000 </r>
       <r>   -9.2516    1.0000 </r>
       <r>   -6.2092    1.0000 </r>
       <r>    1.7377    0.0000 </r>
       <r>    5.3182    0.0000 </r>
       <r>    6.2234    0.0000 </r>
       <r>    6.6176    0.0000 </r>
       <r>    6.8534    0.0000 </r>
       <r>    8.5738    0.0000 </r>
       <r>    9.4133    0.0000 </r>
       <r>   11.5400    0.0000 </r>
      </set>
      <set comment="kpoint 40">
       <r>  -17.8512    1.0000 </r>
       <r>  -13.2874    1.0000 </r>
       <r>   -9.5040    1.0000 </r>
       <r>   -5.5036    1.0000 </r>
       <r>    0.7443    0.0000 </r>
       <r>    6.2612    0.0000 </r>
       <r>    6.5449    0.0000 </r>
       <r>    7.1779    0.0000 </r>
       <r>    7.8433    0.0000 </r>
       <r>    9.4684    0.0000 </r>
       <r>   10.3811    0.0000 </r>
       <r>   11.7819    0.0000 </r>
      </set>
      <set comment="kpoint 41">
       <r>  -17.1214    1.0000 </r>
       <r>  -14.2332    1.0000 </r>
       <r>   -9.6728    1.0000 </r>
       <r>   -4.8390    1.0000 </r>
       <r>   -0.1211    0.0000 </r>
       <r>    6.4120    0.0000 </r>
       <r>    7.3813    0.0000 </r>
       <r>    8.2024    0.0000 </r>
       <r>    8.9556    0.0000 </r>
       <r>   10.3099    0.0000 </r>
       <r>   10.9539    0.0000 </r>
       <r>   11.4588    0.0000 </r>
      </set>
      <set comment="kpoint 42">
       <r>  -16.4377    1.0000 </r>
       <r>  -15.0272    1.0000 </r>
       <r>   -9.7573    1.0000 </r>
       <r>   -4.3796    1.0000 </r>
       <r>   -0.6838    0.0000 </r>
       <r>    6.3725    0.0000 </r>
       <r>    8.5324    0.0000 </r>
       <r>    9.2027    0.0000 </r>
       <r>    9.7636    0.0000 </r>
       <r>   10.1796    0.0000 </r>
       <r>   10.4145    0.0000 </r>
       <r>   11.4964    0.0000 </r>
      </set>
      <set comment="kpoint 43">
       <r>  -19.7448    1.0000 </r>
       <r>  -10.0530    1.0000 </r>
       <r>   -8.6683    1.0000 </r>
       <r>   -7.5503    1.0000 </r>
       <r>    3.6323    0.0000 </r>
       <r>    3.9231    0.0000 </r>
       <r>    4.5370    0.0000 </r>
       <r>    5.1006    0.0000 </r>
       <r>    6.9358    0.0000 </r>
       <r>    7.4434    0.0000 </r>
       <r>    7.8057    0.0000 </r>
       <r>    8.9061    0.0000 </r>
      </set>
      <set comment="kpoint 44">
       <r>  -19.2339    1.0000 </r>
       <r>  -10.8600    1.0000 </r>
       <r>   -9.2534    1.0000 </r>
       <r>   -6.9701    1.0000 </r>
       <r>    2.9875    0.0000 </r>
       <r>    4.3424    0.0000 </r>
       <r>    5.2402    0.0000 </r>
       <r>    5.8274    0.0000 </r>
       <r>    7.6205    0.0000 </r>
       <r>    7.7263    0.0000 </r>
       <r>    8.4584    0.0000 </r>
       <r>    9.4832    0.0000 </r>
      </set>
      <set comment="kpoint 45">
       <r>  -18.6511    1.0000 </r>
       <r>  -11.7598    1.0000 </r>
       <r>   -9.7101    1.0000 </r>
       <r>   -6.3225    1.0000 </r>
       <r>    2.0207    0.0000 </r>
       <r>    5.1584    0.0000 </r>
       <r>    6.0423    0.0000 </r>
       <r>    6.6642    0.0000 </r>
       <r>    7.6905    0.0000 </r>
       <r>    8.3885    0.0000 </r>
       <r>    9.2525    0.0000 </r>
       <r>   10.3863    0.0000 </r>
      </set>
      <set comment="kpoint 46">
       <r>  -18.0016    1.0000 </r>
       <r>  -12.7030    1.0000 </r>
       <r>  -10.0478    1.0000 </r>
       <r>   -5.6272    1.0000 </r>
       <r>    1.0575    0.0000 </r>
       <r>    6.0765    0.0000 </r>
       <r>    6.9312    0.0000 </r>
       <r>    7.5348    0.0000 </r>
       <r>    7.6601    0.0000 </r>
       <r>    9.2032    0.0000 </r>
       <r>   10.1616    0.0000 </r>
       <r>   11.2153    0.0000 </r>
      </set>
      <set comment="kpoint 47">
       <r>  -17.2960    1.0000 </r>
       <r>  -13.6404    1.0000 </r>
       <r>  -10.2813    1.0000 </r>
       <r>   -4.9262    1.0000 </r>
       <r>    0.1534    0.0000 </r>
       <r>    7.0795    0.0000 </r>
       <r>    7.4897    0.0000 </r>
       <r>    7.8760    0.0000 </r>
       <r>    8.6778    0.0000 </r>
       <r>    9.9489    0.0000 </r>
       <r>   11.1340    0.0000 </r>
       <r>   11.4215    0.0000 </r>
      </set>
      <set comment="kpoint 48">
       <r>  -16.5705    1.0000 </r>
       <r>  -14.5127    1.0000 </r>
       <r>  -10.4190    1.0000 </r>
       <r>   -4.3226    1.0000 </r>
       <r>   -0.5770    0.0000 </r>
       <r>    7.3911    0.0000 </r>
       <r>    8.2188    0.0000 </r>
       <r>    8.7715    0.0000 </r>
       <r>    9.8396    0.0000 </r>
       <r>   10.3857    0.0000 </r>
       <r>   10.5550    0.0000 </r>
       <r>   11.7867    0.0000 </r>
      </set>
      <set comment="kpoint 49">
       <r>  -16.1016    1.0000 </r>
       <r>  -15.0318    1.0000 </r>
       <r>  -10.4646    1.0000 </r>
       <r>   -4.0550    1.0000 </r>
       <r>   -0.8878    0.0000 </r>
       <r>    7.3728    0.0000 </r>
       <r>    9.2241    0.0000 </r>
       <r>    9.2901    0.0000 </r>
       <r>    9.4908    0.0000 </r>
       <r>   10.5261    0.0000 </r>
       <r>   11.0890    0.0000 </r>
       <r>   11.1269    0.0000 </r>
      </set>
      <set comment="kpoint 50">
       <r>  -18.6898    1.0000 </r>
       <r>  -11.4982    1.0000 </r>
       <r>   -9.9513    1.0000 </r>
       <r>   -6.3606    1.0000 </r>
       <r>    2.1239    0.0000 </r>
       <r>    5.1045    0.0000 </r>
       <r>    5.9802    0.0000 </r>
       <r>    6.6097    0.0000 </r>
       <r>    8.3248    0.0000 </r>
       <r>    8.5171    0.0000 </r>
       <r>    9.2329    0.0000 </r>
       <r>    9.4733    0.0000 </r>
      </set>
      <set comment="kpoint 51">
       <r>  -18.0773    1.0000 </r>
       <r>  -12.2457    1.0000 </r>
       <r>  -10.4948    1.0000 </r>
       <r>   -5.6910    1.0000 </r>
       <r>    1.2376    0.0000 </r>
       <r>    5.9701    0.0000 </r>
       <r>    6.8022    0.0000 </r>
       <r>    7.5016    0.0000 </r>
       <r>    8.7299    0.0000 </r>
       <r>    9.0614    0.0000 </r>
       <r>   10.0059    0.0000 </r>
       <r>   10.1985    0.0000 </r>
      </set>
      <set comment="kpoint 52">
       <r>  -17.4037    1.0000 </r>
       <r>  -13.0814    1.0000 </r>
       <r>  -10.8650    1.0000 </r>
       <r>   -4.9863    1.0000 </r>
       <r>    0.3608    0.0000 </r>
       <r>    6.9336    0.0000 </r>
       <r>    7.6633    0.0000 </r>
       <r>    8.4848    0.0000 </r>
       <r>    8.6681    0.0000 </r>
       <r>    9.6987    0.0000 </r>
       <r>   10.8358    0.0000 </r>
       <r>   11.1136    0.0000 </r>
      </set>
      <set comment="kpoint 53">
       <r>  -16.6874    1.0000 </r>
       <r>  -13.9361    1.0000 </r>
       <r>  -11.0919    1.0000 </r>
       <r>   -4.3041    1.0000 </r>
       <r>   -0.4417    0.0000 </r>
       <r>    7.9780    0.0000 </r>
       <r>    8.4299    0.0000 </r>
       <r>    8.5636    0.0000 </r>
       <r>    9.6190    0.0000 </r>
       <r>   10.1379    0.0000 </r>
       <r>   11.0411    0.0000 </r>
       <r>   11.9015    0.0000 </r>
      </set>
      <set comment="kpoint 54">
       <r>  -16.0170    1.0000 </r>
       <r>  -14.6838    1.0000 </r>
       <r>  -11.2001    1.0000 </r>
       <r>   -3.8051    1.0000 </r>
       <r>   -1.0027    0.0000 </r>
       <r>    8.4839    0.0000 </r>
       <r>    8.8366    0.0000 </r>
       <r>    9.1225    0.0000 </r>
       <r>   10.2499    0.0000 </r>
       <r>   10.7043    0.0000 </r>
       <r>   10.8335    0.0000 </r>
       <r>   12.1097    0.0000 </r>
      </set>
      <set comment="kpoint 55">
       <r>  -17.4401    1.0000 </r>
       <r>  -12.7974    1.0000 </r>
       <r>  -11.1598    1.0000 </r>
       <r>   -5.0076    1.0000 </r>
       <r>    0.4384    0.0000 </r>
       <r>    6.8807    0.0000 </r>
       <r>    7.5883    0.0000 </r>
       <r>    8.4472    0.0000 </r>
       <r>    9.6091    0.0000 </r>
       <r>    9.6983    0.0000 </r>
       <r>   10.0078    0.0000 </r>
       <r>   10.9937    0.0000 </r>
      </set>
      <set comment="kpoint 56">
       <r>  -16.7510    1.0000 </r>
       <r>  -13.4637    1.0000 </r>
       <r>  -11.6150    1.0000 </r>
       <r>   -4.3016    1.0000 </r>
       <r>   -0.3499    0.0000 </r>
       <r>    7.8797    0.0000 </r>
       <r>    8.2365    0.0000 </r>
       <r>    9.4860    0.0000 </r>
       <r>    9.7364    0.0000 </r>
       <r>    9.9822    0.0000 </r>
       <r>   10.6962    0.0000 </r>
       <r>   11.8627    0.0000 </r>
      </set>
      <set comment="kpoint 57">
       <r>  -16.0443    1.0000 </r>
       <r>  -14.1915    1.0000 </r>
       <r>  -11.8601    1.0000 </r>
       <r>   -3.6521    1.0000 </r>
       <r>   -1.0491    0.0000 </r>
       <r>    8.5131    0.0000 </r>
       <r>    8.9346    0.0000 </r>
       <r>    9.6359    0.0000 </r>
       <r>   10.6342    0.0000 </r>
       <r>   10.6350    0.0000 </r>
       <r>   10.8649    0.0000 </r>
       <r>   12.6067    0.0000 </r>
      </set>
      <set comment="kpoint 58">
       <r>  -15.5788    1.0000 </r>
       <r>  -14.6710    1.0000 </r>
       <r>  -11.9360    1.0000 </r>
       <r>   -3.3279    1.0000 </r>
       <r>   -1.3899    0.0000 </r>
       <r>    8.5539    0.0000 </r>
       <r>    9.5496    0.0000 </r>
       <r>    9.8891    0.0000 </r>
       <r>   10.2247    0.0000 </r>
       <r>   11.3577    0.0000 </r>
       <r>   11.8548    0.0000 </r>
       <r>   11.9329    0.0000 </r>
      </set>
      <set comment="kpoint 59">
       <r>  -16.0621    1.0000 </r>
       <r>  -13.9201    1.0000 </r>
       <r>  -12.1809    1.0000 </r>
       <r>   -3.6014    1.0000 </r>
       <r>   -1.0591    0.0000 </r>
       <r>    8.3931    0.0000 </r>
       <r>    8.8884    0.0000 </r>
       <r>   10.4207    0.0000 </r>
       <r>   10.5367    0.0000 </r>
       <r>   10.5912    0.0000 </r>
       <r>   10.7898    0.0000 </r>
       <r>   12.7196    0.0000 </r>
      </set>
      <set comment="kpoint 60">
       <r>  -15.4057    1.0000 </r>
       <r>  -14.4605    1.0000 </r>
       <r>  -12.4674    1.0000 </r>
       <r>   -2.9866    1.0000 </r>
       <r>   -1.6758    0.0000 </r>
       <r>    8.3467    0.0000 </r>
       <r>    9.8631    0.0000 </r>
       <r>   10.3708    0.0000 </r>
       <r>   10.8545    0.0000 </r>
       <r>   11.5503    0.0000 </r>
       <r>   11.7974    0.0000 </r>
       <r>   12.8634    0.0000 </r>
      </set>
      <set comment="kpoint 61">
       <r>  -14.8500    1.0000 </r>
       <r>  -14.8500    1.0000 </r>
       <r>  -12.7143    1.0000 </r>
       <r>   -2.3237    0.5003 </r>
       <r>   -2.3236    0.4997 </r>
       <r>    8.2645    0.0000 </r>
       <r>   10.4147    0.0000 </r>
       <r>   10.4147    0.0000 </r>
       <r>   11.0750    0.0000 </r>
       <r>   12.5185    0.0000 </r>
       <r>   12.6260    0.0000 </r>
       <r>   12.7471    0.0000 </r>
      </set>
     </set>
    </set>
   </array>
  </eigenvalues>
  <separator name="orbital magnetization" >
   <v name="MAGDIPOLOUT">      0.00000000      0.00000000      0.00000000</v>
  </separator>
  <dos>
   <i name="efermi">     -2.32365824 </i>
   <total>
    <array>
     <dimension dim="1">gridpoints</dimension>
     <dimension dim="2">spin</dimension>
     <field>energy</field>
     <field>total</field>
     <field>integrated</field>
     <set>
      <set comment="spin 1">
       <r>   -23.3940     0.0000     0.0000 </r>
       <r>   -23.2674     0.0000     0.0000 </r>
       <r>   -23.1408     0.0000     0.0000 </r>
       <r>   -23.0142     0.0000     0.0000 </r>
       <r>   -22.8875     0.0000     0.0000 </r>
       <r>   -22.7609     0.0000     0.0000 </r>
       <r>   -22.6343     0.0000     0.0000 </r>
       <r>   -22.5077     0.0000     0.0000 </r>
       <r>   -22.3811     0.0000     0.0000 </r>
       <r>   -22.2545     0.0000     0.0000 </r>
       <r>   -22.1279     0.0000     0.0000 </r>
       <r>   -22.0013     0.0000     0.0000 </r>
       <r>   -21.8746     0.0000     0.0000 </r>
       <r>   -21.7480     0.0000     0.0000 </r>
       <r>   -21.6214     0.1347     0.0171 </r>
       <r>   -21.4948     0.3491     0.0613 </r>
       <r>   -21.3682     0.3234     0.1022 </r>
       <r>   -21.2416     0.2075     0.1285 </r>
       <r>   -21.1150     0.4843     0.1898 </r>
       <r>   -20.9883     0.1722     0.2116 </r>
       <r>   -20.8617     0.3303     0.2534 </r>
       <r>   -20.7351     0.3286     0.2951 </r>
       <r>   -20.6085     0.1679     0.3164 </r>
       <r>   -20.4819     0.4902     0.3785 </r>
       <r>   -20.3553     0.3291     0.4201 </r>
       <r>   -20.2287     0.0456     0.4259 </r>
       <r>   -20.1021     0.6035     0.5023 </r>
       <r>   -19.9754     0.1767     0.5247 </r>
       <r>   -19.8488     0.3260     0.5660 </r>
       <r>   -19.7222     0.2109     0.5927 </r>
       <r>   -19.5956     0.5340     0.6603 </r>
       <r>   -19.4690     0.2423     0.6910 </r>
       <r>   -19.3424     0.3290     0.7326 </r>
       <r>   -19.2158     0.2962     0.7701 </r>
       <r>   -19.0891     0.5215     0.8362 </r>
       <r>   -18.9625     0.3325     0.8783 </r>
       <r>   -18.8359     0.0000     0.8785 </r>
       <r>   -18.7093     0.3430     0.9219 </r>
       <r>   -18.5827     0.4799     0.9827 </r>
       <r>   -18.4561     0.4187     1.0357 </r>
       <r>   -18.3295     0.3494     1.0799 </r>
       <r>   -18.2029     0.0545     1.0868 </r>
       <r>   -18.0762     0.3479     1.1308 </r>
       <r>   -17.9496     0.6394     1.2118 </r>
       <r>   -17.8230     0.3215     1.2525 </r>
       <r>   -17.6964     0.1720     1.2743 </r>
       <r>   -17.5698     0.3291     1.3160 </r>
       <r>   -17.4432     0.0689     1.3247 </r>
       <r>   -17.3166     0.7639     1.4214 </r>
       <r>   -17.1900     0.3190     1.4618 </r>
       <r>   -17.0633     0.3291     1.5035 </r>
       <r>   -16.9367     0.1649     1.5243 </r>
       <r>   -16.8101     0.3288     1.5660 </r>
       <r>   -16.6835     0.5321     1.6333 </r>
       <r>   -16.5569     0.7293     1.7257 </r>
       <r>   -16.4303     0.3936     1.7755 </r>
       <r>   -16.3037     0.2372     1.8056 </r>
       <r>   -16.1770     0.0000     1.8056 </r>
       <r>   -16.0504     0.4078     1.8572 </r>
       <r>   -15.9238     0.5794     1.9306 </r>
       <r>   -15.7972     0.0000     1.9306 </r>
       <r>   -15.6706     0.0000     1.9306 </r>
       <r>   -15.5440     0.1634     1.9512 </r>
       <r>   -15.4174     0.1059     1.9648 </r>
       <r>   -15.2908     0.4637     2.0235 </r>
       <r>   -15.1641     0.3354     2.0660 </r>
       <r>   -15.0375     0.1328     2.0828 </r>
       <r>   -14.9109     0.3620     2.1286 </r>
       <r>   -14.7843     0.4050     2.1799 </r>
       <r>   -14.6577     0.6517     2.2624 </r>
       <r>   -14.5311     0.0710     2.2714 </r>
       <r>   -14.4045     0.8449     2.3784 </r>
       <r>   -14.2778     0.1107     2.3924 </r>
       <r>   -14.1512     0.6572     2.4756 </r>
       <r>   -14.0246     0.0000     2.4757 </r>
       <r>   -13.8980     0.6568     2.5589 </r>
       <r>   -13.7714     0.3293     2.6007 </r>
       <r>   -13.6448     0.1244     2.6164 </r>
       <r>   -13.5182     0.2047     2.6424 </r>
       <r>   -13.3916     0.6580     2.7257 </r>
       <r>   -13.2649     0.3105     2.7650 </r>
       <r>   -13.1383     0.0185     2.7674 </r>
       <r>   -13.0117     0.3291     2.8090 </r>
       <r>   -12.8851     0.2365     2.8390 </r>
       <r>   -12.7585     0.4213     2.8923 </r>
       <r>   -12.6319     0.3839     2.9410 </r>
       <r>   -12.5053     0.0012     2.9411 </r>
       <r>   -12.3786     0.6449     3.0228 </r>
       <r>   -12.2520     0.4477     3.0795 </r>
       <r>   -12.1254     0.3862     3.1285 </r>
       <r>   -11.9988     0.0000     3.1285 </r>
       <r>   -11.8722     0.3665     3.1749 </r>
       <r>   -11.7456     0.8983     3.2886 </r>
       <r>   -11.6190     0.1799     3.3114 </r>
       <r>   -11.4924     0.3094     3.3506 </r>
       <r>   -11.3657     0.0600     3.3582 </r>
       <r>   -11.2391     0.6544     3.4410 </r>
       <r>   -11.1125     0.5164     3.5065 </r>
       <r>   -10.9859     0.3053     3.5451 </r>
       <r>   -10.8593     0.3872     3.5942 </r>
       <r>   -10.7327     0.7644     3.6909 </r>
       <r>   -10.6061     0.0000     3.6910 </r>
       <r>   -10.4794     0.3074     3.7299 </r>
       <r>   -10.3528     0.5153     3.7951 </r>
       <r>   -10.2262     0.9730     3.9183 </r>
       <r>   -10.0996     0.0144     3.9202 </r>
       <r>    -9.9730     0.5039     3.9839 </r>
       <r>    -9.8464     0.1542     4.0035 </r>
       <r>    -9.7198     0.8924     4.1165 </r>
       <r>    -9.5932     1.0749     4.2527 </r>
       <r>    -9.4665     0.4768     4.3131 </r>
       <r>    -9.3399     0.6439     4.3948 </r>
       <r>    -9.2133     0.8567     4.5033 </r>
       <r>    -9.0867     1.1791     4.6528 </r>
       <r>    -8.9601     0.4939     4.7153 </r>
       <r>    -8.8335     0.7809     4.8142 </r>
       <r>    -8.7069     1.4254     4.9947 </r>
       <r>    -8.5802     0.8611     5.1037 </r>
       <r>    -8.4536     1.7414     5.3242 </r>
       <r>    -8.3270     0.4138     5.3766 </r>
       <r>    -8.2004     0.6538     5.4594 </r>
       <r>    -8.0738     0.6441     5.5409 </r>
       <r>    -7.9472     1.4083     5.7192 </r>
       <r>    -7.8206     0.1647     5.7401 </r>
       <r>    -7.6940     1.0280     5.8703 </r>
       <r>    -7.5673     0.5224     5.9364 </r>
       <r>    -7.4407     0.6557     6.0194 </r>
       <r>    -7.3141     0.9167     6.1355 </r>
       <r>    -7.1875     0.7097     6.2254 </r>
       <r>    -7.0609     0.3363     6.2679 </r>
       <r>    -6.9343     0.4903     6.3300 </r>
       <r>    -6.8077     1.0612     6.4646 </r>
       <r>    -6.6810     0.7449     6.5589 </r>
       <r>    -6.5544     0.0000     6.5590 </r>
       <r>    -6.4278     0.6193     6.6374 </r>
       <r>    -6.3012     1.1682     6.7854 </r>
       <r>    -6.1746     0.3714     6.8324 </r>
       <r>    -6.0480     0.2369     6.8628 </r>
       <r>    -5.9214     0.8706     6.9730 </r>
       <r>    -5.7948     0.2062     6.9991 </r>
       <r>    -5.6681     0.7770     7.0975 </r>
       <r>    -5.5415     0.5486     7.1669 </r>
       <r>    -5.4149     0.7914     7.2671 </r>
       <r>    -5.2883     0.3850     7.3159 </r>
       <r>    -5.1617     0.0002     7.3160 </r>
       <r>    -5.0351     0.3332     7.3582 </r>
       <r>    -4.9085     0.7950     7.4588 </r>
       <r>    -4.7819     0.5184     7.5245 </r>
       <r>    -4.6552     0.6243     7.6035 </r>
       <r>    -4.5286     0.1161     7.6182 </r>
       <r>    -4.4020     0.1817     7.6412 </r>
       <r>    -4.2754     1.2802     7.8033 </r>
       <r>    -4.1488     0.0175     7.8056 </r>
       <r>    -4.0222     0.1629     7.8262 </r>
       <r>    -3.8956     0.0017     7.8264 </r>
       <r>    -3.7689     0.3273     7.8678 </r>
       <r>    -3.6423     0.2488     7.8996 </r>
       <r>    -3.5157     0.2448     7.9306 </r>
       <r>    -3.3891     0.0000     7.9306 </r>
       <r>    -3.2625     0.1645     7.9514 </r>
       <r>    -3.1359     0.0000     7.9514 </r>
       <r>    -3.0093     0.0179     7.9537 </r>
       <r>    -2.8827     0.3112     7.9931 </r>
       <r>    -2.7560     0.0000     7.9931 </r>
       <r>    -2.6294     0.0000     7.9931 </r>
       <r>    -2.5028     0.0000     7.9931 </r>
       <r>    -2.3762     0.0000     7.9931 </r>
       <r>    -2.2496     0.1097     8.0069 </r>
       <r>    -2.1230     0.0000     8.0069 </r>
       <r>    -1.9964     0.0000     8.0069 </r>
       <r>    -1.8697     0.0000     8.0069 </r>
       <r>    -1.7431     0.0000     8.0069 </r>
       <r>    -1.6165     0.3291     8.0486 </r>
       <r>    -1.4899     0.0000     8.0486 </r>
       <r>    -1.3633     0.1596     8.0688 </r>
       <r>    -1.2367     0.0049     8.0694 </r>
       <r>    -1.1101     0.0000     8.0694 </r>
       <r>    -0.9835     0.7942     8.1700 </r>
       <r>    -0.8568     0.1907     8.1941 </r>
       <r>    -0.7302     0.0041     8.1947 </r>
       <r>    -0.6036     0.6106     8.2720 </r>
       <r>    -0.4770     0.6237     8.3510 </r>
       <r>    -0.3504     0.8834     8.4628 </r>
       <r>    -0.2238     0.2654     8.4965 </r>
       <r>    -0.0972     0.3143     8.5363 </r>
       <r>     0.0295     0.3437     8.5798 </r>
       <r>     0.1561     0.1888     8.6038 </r>
       <r>     0.2827     0.1403     8.6215 </r>
       <r>     0.4093     0.7192     8.7126 </r>
       <r>     0.5359     0.2677     8.7465 </r>
       <r>     0.6625     0.0000     8.7465 </r>
       <r>     0.7891     0.3288     8.7882 </r>
       <r>     0.9157     0.3279     8.8297 </r>
       <r>     1.0424     0.1137     8.8443 </r>
       <r>     1.1690     0.5199     8.9101 </r>
       <r>     1.2956     0.5463     8.9793 </r>
       <r>     1.4222     0.8023     9.0808 </r>
       <r>     1.5488     0.1834     9.1042 </r>
       <r>     1.6754     0.1505     9.1232 </r>
       <r>     1.8020     0.6722     9.2083 </r>
       <r>     1.9287     0.3972     9.2586 </r>
       <r>     2.0553     0.9241     9.3756 </r>
       <r>     2.1819     0.8379     9.4820 </r>
       <r>     2.3085     0.3102     9.5213 </r>
       <r>     2.4351     0.7062     9.6107 </r>
       <r>     2.5617     0.8966     9.7246 </r>
       <r>     2.6883     0.8197     9.8283 </r>
       <r>     2.8149     0.9935     9.9541 </r>
       <r>     2.9416     0.3372     9.9969 </r>
       <r>     3.0682     1.6503    10.2059 </r>
       <r>     3.1948     0.8943    10.3194 </r>
       <r>     3.3214     0.2988    10.3573 </r>
       <r>     3.4480     0.7328    10.4501 </r>
       <r>     3.5746     0.8343    10.5557 </r>
       <r>     3.7012     1.3599    10.7279 </r>
       <r>     3.8279     0.5451    10.7969 </r>
       <r>     3.9545     1.1355    10.9407 </r>
       <r>     4.0811     1.0076    11.0683 </r>
       <r>     4.2077     0.6675    11.1528 </r>
       <r>     4.3343     0.1105    11.1668 </r>
       <r>     4.4609     1.1751    11.3155 </r>
       <r>     4.5875     1.2484    11.4738 </r>
       <r>     4.7141     1.4418    11.6564 </r>
       <r>     4.8408     1.4769    11.8434 </r>
       <r>     4.9674     0.6194    11.9220 </r>
       <r>     5.0940     1.8314    12.1539 </r>
       <r>     5.2206     1.9517    12.4011 </r>
       <r>     5.3472     1.9850    12.6524 </r>
       <r>     5.4738     1.8725    12.8895 </r>
       <r>     5.6004     1.8753    13.1270 </r>
       <r>     5.7271     1.7816    13.3526 </r>
       <r>     5.8537     1.7159    13.5699 </r>
       <r>     5.9803     2.8926    13.9362 </r>
       <r>     6.1069     3.2080    14.3428 </r>
       <r>     6.2335     0.9699    14.4659 </r>
       <r>     6.3601     2.1620    14.7396 </r>
       <r>     6.4867     1.8328    14.9717 </r>
       <r>     6.6133     1.8653    15.2079 </r>
       <r>     6.7400     1.5711    15.4068 </r>
       <r>     6.8666     1.9377    15.6521 </r>
       <r>     6.9932     2.3234    15.9464 </r>
       <r>     7.1198     1.3394    16.1160 </r>
       <r>     7.2464     1.6595    16.3263 </r>
       <r>     7.3730     0.7624    16.4228 </r>
       <r>     7.4996     2.1688    16.6974 </r>
       <r>     7.6262     1.7039    16.9132 </r>
       <r>     7.7529     2.3069    17.2054 </r>
       <r>     7.8795     1.7872    17.4316 </r>
       <r>     8.0061     2.2306    17.7143 </r>
       <r>     8.1327     0.1971    17.7396 </r>
       <r>     8.2593     2.1316    18.0095 </r>
       <r>     8.3859     1.7262    18.2283 </r>
       <r>     8.5125     2.0897    18.4930 </r>
       <r>     8.6392     2.5992    18.8221 </r>
       <r>     8.7658     1.9023    19.0630 </r>
       <r>     8.8924     1.9948    19.3158 </r>
       <r>     9.0190     0.9664    19.4382 </r>
       <r>     9.1456     1.4076    19.6164 </r>
       <r>     9.2722     1.7795    19.8417 </r>
       <r>     9.3988     0.6417    19.9230 </r>
       <r>     9.5254     2.0505    20.1826 </r>
       <r>     9.6521     1.4071    20.3611 </r>
       <r>     9.7787     1.9527    20.6084 </r>
       <r>     9.9053     2.2471    20.8932 </r>
       <r>    10.0319     1.2646    21.0534 </r>
       <r>    10.1585     1.1943    21.2046 </r>
       <r>    10.2851     1.8631    21.4405 </r>
       <r>    10.4117     2.3131    21.7336 </r>
       <r>    10.5384     1.1906    21.8845 </r>
       <r>    10.6650     2.0830    22.1483 </r>
       <r>    10.7916     1.8413    22.3814 </r>
       <r>    10.9182     1.8708    22.6183 </r>
       <r>    11.0448     0.6909    22.7058 </r>
       <r>    11.1714     2.0543    22.9659 </r>
       <r>    11.2980     0.6981    23.0545 </r>
       <r>    11.4246     0.6602    23.1381 </r>
       <r>    11.5513     2.0667    23.3997 </r>
       <r>    11.6779     0.2983    23.4375 </r>
       <r>    11.8045     0.8337    23.5431 </r>
       <r>    11.9311     1.3733    23.7169 </r>
       <r>    12.0577     0.4084    23.7686 </r>
       <r>    12.1843     0.6755    23.8542 </r>
       <r>    12.3109     0.1645    23.8750 </r>
       <r>    12.4376     0.0000    23.8750 </r>
       <r>    12.5642     0.0552    23.8820 </r>
       <r>    12.6908     0.3869    23.9310 </r>
       <r>    12.8174     0.2162    23.9584 </r>
       <r>    12.9440     0.3289    24.0000 </r>
       <r>    13.0706     0.0000    24.0000 </r>
       <r>    13.1972     0.0000    24.0000 </r>
       <r>    13.3238     0.0000    24.0000 </r>
       <r>    13.4505     0.0000    24.0000 </r>
       <r>    13.5771     0.0000    24.0000 </r>
       <r>    13.7037     0.0000    24.0000 </r>
       <r>    13.8303     0.0000    24.0000 </r>
       <r>    13.9569     0.0000    24.0000 </r>
       <r>    14.0835     0.0000    24.0000 </r>
       <r>    14.2101     0.0000    24.0000 </r>
       <r>    14.3368     0.0000    24.0000 </r>
       <r>    14.4634     0.0000    24.0000 </r>
       <r>    14.5900     0.0000    24.0000 </r>
      </set>
     </set>
    </array>
   </total>
  </dos>
 </calculation>
 <structure name="finalpos" >
  <crystal>
   <varray name="basis" >
    <v>       2.48338900       0.00000000       0.00000000 </v>
    <v>      -1.24169500       2.15067800       0.00000000 </v>
    <v>       0.00000000       0.00000000      15.00000000 </v>
   </varray>
   <i name="volume">     80.11455132 </i>
   <varray name="rec_basis" >
    <v>       0.40267554       0.23248492       0.00000000 </v>
    <v>       0.00000000       0.46496965       0.00000000 </v>
    <v>       0.00000000       0.00000000       0.06666667 </v>
   </varray>
  </crystal>
  <varray name="positions" >
   <v>       0.00000000       0.00000000       0.50000000 </v>
   <v>       0.33333300       0.66666700       0.50000000 </v>
  </varray>
 </structure>
</modeling>
