 running on   48 total cores
 distrk:  each k-point on   48 cores,    1 groups
 distr:  one band on    8 cores,    6 groups
 using from now: INCAR     
 vasp.5.4.1 24Jun15 (build Nov 20 2020 10:29:34) complex                        
  
 POSCAR found type information on POSCAR  C 
 POSCAR found :  1 types and       2 ions
 scaLAPACK will be used

 ----------------------------------------------------------------------------- 
|                                                                             |
|  ADVICE TO THIS USER RUNNING 'VASP/VAMP'   (HEAR YOUR MASTER'S VOICE ...):  |
|                                                                             |
|      You have a (more or less) 'small supercell' and for smaller cells      |
|      it is recommended  to use the reciprocal-space projection scheme!      |
|      The real space optimization is not  efficient for small cells and it   |
|      is also less accurate ...                                              |
|      Therefore set LREAL=.FALSE. in the  INCAR file                         |
|                                                                             |
 ----------------------------------------------------------------------------- 

 LDA part: xc-table for Pade appr. of Perdew
 POSCAR, INCAR and KPOINTS ok, starting setup
 WARNING: small aliasing (wrap around) errors must be expected
 FFT: planning ...
 WAVECAR not read
 entering main loop
       N       E                     dE             d eps       ncg     rms          rms(c)
DAV:   1     0.345640218517E+02    0.34564E+02   -0.37515E+03  1464   0.498E+02
DAV:   2    -0.179385067652E+02   -0.52503E+02   -0.47535E+02  1884   0.100E+02
DAV:   3    -0.196289369437E+02   -0.16904E+01   -0.16884E+01  2172   0.241E+01
DAV:   4    -0.196376085466E+02   -0.86716E-02   -0.86716E-02  2244   0.171E+00
DAV:   5    -0.196376155985E+02   -0.70519E-05   -0.70516E-05  1992   0.472E-02    0.614E+00
DAV:   6    -0.187825882971E+02    0.85503E+00   -0.83445E-01  1872   0.436E+00    0.362E+00
DAV:   7    -0.184522067569E+02    0.33038E+00   -0.10931E+00  2064   0.488E+00    0.902E-01
DAV:   8    -0.184451250525E+02    0.70817E-02   -0.91625E-03  1968   0.625E-01    0.912E-02
DAV:   9    -0.184432391545E+02    0.18859E-02   -0.12717E-03  2004   0.139E-01    0.709E-02
DAV:  10    -0.184419225789E+02    0.13166E-02   -0.22270E-03  1644   0.155E-01    0.352E-02
DAV:  11    -0.184421558962E+02   -0.23332E-03   -0.17555E-04  1572   0.555E-02    0.505E-02
DAV:  12    -0.184423535651E+02   -0.19767E-03   -0.30744E-05  1668   0.272E-02    0.101E-02
DAV:  13    -0.184430592988E+02   -0.70573E-03   -0.19096E-04  1644   0.361E-02    0.443E-03
DAV:  14    -0.184431105777E+02   -0.51279E-04   -0.57334E-07  1968   0.321E-03    0.284E-03
DAV:  15    -0.184432058493E+02   -0.95272E-04   -0.85648E-06  1584   0.710E-03    0.726E-04
DAV:  16    -0.184432130211E+02   -0.71718E-05   -0.19262E-07  1620   0.164E-03
   1 F= -.18443213E+02 E0= -.18443174E+02  d E =-.783596E-04
