<?xml version="1.0" encoding="ISO-8859-1"?>
<modeling>
 <generator>
  <i name="program" type="string">vasp </i>
  <i name="version" type="string">5.4.1  </i>
  <i name="subversion" type="string">24Jun15 (build Nov 20 2020 10:29:34) complex                          parallel </i>
  <i name="platform" type="string">IFC91_ompi </i>
  <i name="date" type="string">2021 09 13 </i>
  <i name="time" type="string">23:32:58 </i>
 </generator>
 <incar>
  <i type="int" name="ISTART">     1</i>
  <i type="string" name="PREC">a</i>
  <i type="string" name="ALGO"> Normal</i>
  <i type="int" name="ISPIN">     1</i>
  <i type="int" name="ICHARG">     2</i>
  <i type="int" name="NELM">   250</i>
  <i type="int" name="NELMDL">    -5</i>
  <i type="int" name="NELMIN">     6</i>
  <i type="int" name="IBRION">     2</i>
  <i name="EDIFF">      0.00001000</i>
  <i name="EDIFFG">     -0.00500000</i>
  <i type="int" name="NSW">     0</i>
  <i type="int" name="ISIF">     2</i>
  <i name="ENCUT">    520.00000000</i>
  <i name="POTIM">      0.25000000</i>
  <v name="MAGMOM">      0.60000000      0.60000000</v>
  <i type="string" name="LREAL"> Auto</i>
  <i type="int" name="ISMEAR">     0</i>
  <i name="SIGMA">      0.02000000</i>
  <i type="logical" name="LWAVE"> F  </i>
  <i type="logical" name="LCHARG"> F  </i>
  <i type="logical" name="LVHAR"> F  </i>
  <v type="int" name="KPOINT_BSE">    -1     0     0     0</v>
  <i type="int" name="NELM">   250</i>
 </incar>
 <kpoints>
  <generation param="Gamma">
   <v type="int" name="divisions">      24       24        1 </v>
   <v name="usershift">      0.00000000       0.00000000       0.00000000 </v>
   <v name="genvec1">      0.04166667       0.00000000       0.00000000 </v>
   <v name="genvec2">      0.00000000       0.04166667       0.00000000 </v>
   <v name="genvec3">      0.00000000       0.00000000       1.00000000 </v>
   <v name="shift">      0.00000000       0.00000000       0.00000000 </v>
  </generation>
  <varray name="kpointlist" >
   <v>       0.00000000       0.00000000       0.00000000 </v>
   <v>       0.04166667       0.00000000       0.00000000 </v>
   <v>       0.08333333       0.00000000       0.00000000 </v>
   <v>       0.12500000       0.00000000       0.00000000 </v>
   <v>       0.16666667       0.00000000       0.00000000 </v>
   <v>       0.20833333       0.00000000       0.00000000 </v>
   <v>       0.25000000       0.00000000       0.00000000 </v>
   <v>       0.29166667       0.00000000       0.00000000 </v>
   <v>       0.33333333       0.00000000       0.00000000 </v>
   <v>       0.37500000       0.00000000       0.00000000 </v>
   <v>       0.41666667       0.00000000       0.00000000 </v>
   <v>       0.45833333       0.00000000       0.00000000 </v>
   <v>       0.50000000       0.00000000       0.00000000 </v>
   <v>       0.00000000       0.04166667       0.00000000 </v>
   <v>       0.04166667       0.04166667       0.00000000 </v>
   <v>       0.08333333       0.04166667       0.00000000 </v>
   <v>       0.12500000       0.04166667       0.00000000 </v>
   <v>       0.16666667       0.04166667       0.00000000 </v>
   <v>       0.20833333       0.04166667       0.00000000 </v>
   <v>       0.25000000       0.04166667       0.00000000 </v>
   <v>       0.29166667       0.04166667       0.00000000 </v>
   <v>       0.33333333       0.04166667       0.00000000 </v>
   <v>       0.37500000       0.04166667       0.00000000 </v>
   <v>       0.41666667       0.04166667       0.00000000 </v>
   <v>       0.45833333       0.04166667       0.00000000 </v>
   <v>       0.50000000       0.04166667       0.00000000 </v>
   <v>      -0.45833333       0.04166667       0.00000000 </v>
   <v>      -0.41666667       0.04166667       0.00000000 </v>
   <v>      -0.37500000       0.04166667       0.00000000 </v>
   <v>      -0.33333333       0.04166667       0.00000000 </v>
   <v>      -0.29166667       0.04166667       0.00000000 </v>
   <v>      -0.25000000       0.04166667       0.00000000 </v>
   <v>      -0.20833333       0.04166667       0.00000000 </v>
   <v>      -0.16666667       0.04166667       0.00000000 </v>
   <v>      -0.12500000       0.04166667       0.00000000 </v>
   <v>      -0.08333333       0.04166667       0.00000000 </v>
   <v>      -0.04166667       0.04166667       0.00000000 </v>
   <v>       0.00000000       0.08333333       0.00000000 </v>
   <v>       0.04166667       0.08333333       0.00000000 </v>
   <v>       0.08333333       0.08333333       0.00000000 </v>
   <v>       0.12500000       0.08333333       0.00000000 </v>
   <v>       0.16666667       0.08333333       0.00000000 </v>
   <v>       0.20833333       0.08333333       0.00000000 </v>
   <v>       0.25000000       0.08333333       0.00000000 </v>
   <v>       0.29166667       0.08333333       0.00000000 </v>
   <v>       0.33333333       0.08333333       0.00000000 </v>
   <v>       0.37500000       0.08333333       0.00000000 </v>
   <v>       0.41666667       0.08333333       0.00000000 </v>
   <v>       0.45833333       0.08333333       0.00000000 </v>
   <v>       0.50000000       0.08333333       0.00000000 </v>
   <v>      -0.45833333       0.08333333       0.00000000 </v>
   <v>      -0.41666667       0.08333333       0.00000000 </v>
   <v>      -0.37500000       0.08333333       0.00000000 </v>
   <v>      -0.33333333       0.08333333       0.00000000 </v>
   <v>      -0.29166667       0.08333333       0.00000000 </v>
   <v>      -0.25000000       0.08333333       0.00000000 </v>
   <v>      -0.20833333       0.08333333       0.00000000 </v>
   <v>      -0.16666667       0.08333333       0.00000000 </v>
   <v>      -0.12500000       0.08333333       0.00000000 </v>
   <v>      -0.08333333       0.08333333       0.00000000 </v>
   <v>      -0.04166667       0.08333333       0.00000000 </v>
   <v>       0.00000000       0.12500000       0.00000000 </v>
   <v>       0.04166667       0.12500000       0.00000000 </v>
   <v>       0.08333333       0.12500000       0.00000000 </v>
   <v>       0.12500000       0.12500000       0.00000000 </v>
   <v>       0.16666667       0.12500000       0.00000000 </v>
   <v>       0.20833333       0.12500000       0.00000000 </v>
   <v>       0.25000000       0.12500000       0.00000000 </v>
   <v>       0.29166667       0.12500000       0.00000000 </v>
   <v>       0.33333333       0.12500000       0.00000000 </v>
   <v>       0.37500000       0.12500000       0.00000000 </v>
   <v>       0.41666667       0.12500000       0.00000000 </v>
   <v>       0.45833333       0.12500000       0.00000000 </v>
   <v>       0.50000000       0.12500000       0.00000000 </v>
   <v>      -0.45833333       0.12500000       0.00000000 </v>
   <v>      -0.41666667       0.12500000       0.00000000 </v>
   <v>      -0.37500000       0.12500000       0.00000000 </v>
   <v>      -0.33333333       0.12500000       0.00000000 </v>
   <v>      -0.29166667       0.12500000       0.00000000 </v>
   <v>      -0.25000000       0.12500000       0.00000000 </v>
   <v>      -0.20833333       0.12500000       0.00000000 </v>
   <v>      -0.16666667       0.12500000       0.00000000 </v>
   <v>      -0.12500000       0.12500000       0.00000000 </v>
   <v>      -0.08333333       0.12500000       0.00000000 </v>
   <v>      -0.04166667       0.12500000       0.00000000 </v>
   <v>       0.00000000       0.16666667       0.00000000 </v>
   <v>       0.04166667       0.16666667       0.00000000 </v>
   <v>       0.08333333       0.16666667       0.00000000 </v>
   <v>       0.12500000       0.16666667       0.00000000 </v>
   <v>       0.16666667       0.16666667       0.00000000 </v>
   <v>       0.20833333       0.16666667       0.00000000 </v>
   <v>       0.25000000       0.16666667       0.00000000 </v>
   <v>       0.29166667       0.16666667       0.00000000 </v>
   <v>       0.33333333       0.16666667       0.00000000 </v>
   <v>       0.37500000       0.16666667       0.00000000 </v>
   <v>       0.41666667       0.16666667       0.00000000 </v>
   <v>       0.45833333       0.16666667       0.00000000 </v>
   <v>       0.50000000       0.16666667       0.00000000 </v>
   <v>      -0.45833333       0.16666667       0.00000000 </v>
   <v>      -0.41666667       0.16666667       0.00000000 </v>
   <v>      -0.37500000       0.16666667       0.00000000 </v>
   <v>      -0.33333333       0.16666667       0.00000000 </v>
   <v>      -0.29166667       0.16666667       0.00000000 </v>
   <v>      -0.25000000       0.16666667       0.00000000 </v>
   <v>      -0.20833333       0.16666667       0.00000000 </v>
   <v>      -0.16666667       0.16666667       0.00000000 </v>
   <v>      -0.12500000       0.16666667       0.00000000 </v>
   <v>      -0.08333333       0.16666667       0.00000000 </v>
   <v>      -0.04166667       0.16666667       0.00000000 </v>
   <v>       0.00000000       0.20833333       0.00000000 </v>
   <v>       0.04166667       0.20833333       0.00000000 </v>
   <v>       0.08333333       0.20833333       0.00000000 </v>
   <v>       0.12500000       0.20833333       0.00000000 </v>
   <v>       0.16666667       0.20833333       0.00000000 </v>
   <v>       0.20833333       0.20833333       0.00000000 </v>
   <v>       0.25000000       0.20833333       0.00000000 </v>
   <v>       0.29166667       0.20833333       0.00000000 </v>
   <v>       0.33333333       0.20833333       0.00000000 </v>
   <v>       0.37500000       0.20833333       0.00000000 </v>
   <v>       0.41666667       0.20833333       0.00000000 </v>
   <v>       0.45833333       0.20833333       0.00000000 </v>
   <v>       0.50000000       0.20833333       0.00000000 </v>
   <v>      -0.45833333       0.20833333       0.00000000 </v>
   <v>      -0.41666667       0.20833333       0.00000000 </v>
   <v>      -0.37500000       0.20833333       0.00000000 </v>
   <v>      -0.33333333       0.20833333       0.00000000 </v>
   <v>      -0.29166667       0.20833333       0.00000000 </v>
   <v>      -0.25000000       0.20833333       0.00000000 </v>
   <v>      -0.20833333       0.20833333       0.00000000 </v>
   <v>      -0.16666667       0.20833333       0.00000000 </v>
   <v>      -0.12500000       0.20833333       0.00000000 </v>
   <v>      -0.08333333       0.20833333       0.00000000 </v>
   <v>      -0.04166667       0.20833333       0.00000000 </v>
   <v>       0.00000000       0.25000000       0.00000000 </v>
   <v>       0.04166667       0.25000000       0.00000000 </v>
   <v>       0.08333333       0.25000000       0.00000000 </v>
   <v>       0.12500000       0.25000000       0.00000000 </v>
   <v>       0.16666667       0.25000000       0.00000000 </v>
   <v>       0.20833333       0.25000000       0.00000000 </v>
   <v>       0.25000000       0.25000000       0.00000000 </v>
   <v>       0.29166667       0.25000000       0.00000000 </v>
   <v>       0.33333333       0.25000000       0.00000000 </v>
   <v>       0.37500000       0.25000000       0.00000000 </v>
   <v>       0.41666667       0.25000000       0.00000000 </v>
   <v>       0.45833333       0.25000000       0.00000000 </v>
   <v>       0.50000000       0.25000000       0.00000000 </v>
   <v>      -0.45833333       0.25000000       0.00000000 </v>
   <v>      -0.41666667       0.25000000       0.00000000 </v>
   <v>      -0.37500000       0.25000000       0.00000000 </v>
   <v>      -0.33333333       0.25000000       0.00000000 </v>
   <v>      -0.29166667       0.25000000       0.00000000 </v>
   <v>      -0.25000000       0.25000000       0.00000000 </v>
   <v>      -0.20833333       0.25000000       0.00000000 </v>
   <v>      -0.16666667       0.25000000       0.00000000 </v>
   <v>      -0.12500000       0.25000000       0.00000000 </v>
   <v>      -0.08333333       0.25000000       0.00000000 </v>
   <v>      -0.04166667       0.25000000       0.00000000 </v>
   <v>       0.00000000       0.29166667       0.00000000 </v>
   <v>       0.04166667       0.29166667       0.00000000 </v>
   <v>       0.08333333       0.29166667       0.00000000 </v>
   <v>       0.12500000       0.29166667       0.00000000 </v>
   <v>       0.16666667       0.29166667       0.00000000 </v>
   <v>       0.20833333       0.29166667       0.00000000 </v>
   <v>       0.25000000       0.29166667       0.00000000 </v>
   <v>       0.29166667       0.29166667       0.00000000 </v>
   <v>       0.33333333       0.29166667       0.00000000 </v>
   <v>       0.37500000       0.29166667       0.00000000 </v>
   <v>       0.41666667       0.29166667       0.00000000 </v>
   <v>       0.45833333       0.29166667       0.00000000 </v>
   <v>       0.50000000       0.29166667       0.00000000 </v>
   <v>      -0.45833333       0.29166667       0.00000000 </v>
   <v>      -0.41666667       0.29166667       0.00000000 </v>
   <v>      -0.37500000       0.29166667       0.00000000 </v>
   <v>      -0.33333333       0.29166667       0.00000000 </v>
   <v>      -0.29166667       0.29166667       0.00000000 </v>
   <v>      -0.25000000       0.29166667       0.00000000 </v>
   <v>      -0.20833333       0.29166667       0.00000000 </v>
   <v>      -0.16666667       0.29166667       0.00000000 </v>
   <v>      -0.12500000       0.29166667       0.00000000 </v>
   <v>      -0.08333333       0.29166667       0.00000000 </v>
   <v>      -0.04166667       0.29166667       0.00000000 </v>
   <v>       0.00000000       0.33333333       0.00000000 </v>
   <v>       0.04166667       0.33333333       0.00000000 </v>
   <v>       0.08333333       0.33333333       0.00000000 </v>
   <v>       0.12500000       0.33333333       0.00000000 </v>
   <v>       0.16666667       0.33333333       0.00000000 </v>
   <v>       0.20833333       0.33333333       0.00000000 </v>
   <v>       0.25000000       0.33333333       0.00000000 </v>
   <v>       0.29166667       0.33333333       0.00000000 </v>
   <v>       0.33333333       0.33333333       0.00000000 </v>
   <v>       0.37500000       0.33333333       0.00000000 </v>
   <v>       0.41666667       0.33333333       0.00000000 </v>
   <v>       0.45833333       0.33333333       0.00000000 </v>
   <v>       0.50000000       0.33333333       0.00000000 </v>
   <v>      -0.45833333       0.33333333       0.00000000 </v>
   <v>      -0.41666667       0.33333333       0.00000000 </v>
   <v>      -0.37500000       0.33333333       0.00000000 </v>
   <v>      -0.33333333       0.33333333       0.00000000 </v>
   <v>      -0.29166667       0.33333333       0.00000000 </v>
   <v>      -0.25000000       0.33333333       0.00000000 </v>
   <v>      -0.20833333       0.33333333       0.00000000 </v>
   <v>      -0.16666667       0.33333333       0.00000000 </v>
   <v>      -0.12500000       0.33333333       0.00000000 </v>
   <v>      -0.08333333       0.33333333       0.00000000 </v>
   <v>      -0.04166667       0.33333333       0.00000000 </v>
   <v>       0.00000000       0.37500000       0.00000000 </v>
   <v>       0.04166667       0.37500000       0.00000000 </v>
   <v>       0.08333333       0.37500000       0.00000000 </v>
   <v>       0.12500000       0.37500000       0.00000000 </v>
   <v>       0.16666667       0.37500000       0.00000000 </v>
   <v>       0.20833333       0.37500000       0.00000000 </v>
   <v>       0.25000000       0.37500000       0.00000000 </v>
   <v>       0.29166667       0.37500000       0.00000000 </v>
   <v>       0.33333333       0.37500000       0.00000000 </v>
   <v>       0.37500000       0.37500000       0.00000000 </v>
   <v>       0.41666667       0.37500000       0.00000000 </v>
   <v>       0.45833333       0.37500000       0.00000000 </v>
   <v>       0.50000000       0.37500000       0.00000000 </v>
   <v>      -0.45833333       0.37500000       0.00000000 </v>
   <v>      -0.41666667       0.37500000       0.00000000 </v>
   <v>      -0.37500000       0.37500000       0.00000000 </v>
   <v>      -0.33333333       0.37500000       0.00000000 </v>
   <v>      -0.29166667       0.37500000       0.00000000 </v>
   <v>      -0.25000000       0.37500000       0.00000000 </v>
   <v>      -0.20833333       0.37500000       0.00000000 </v>
   <v>      -0.16666667       0.37500000       0.00000000 </v>
   <v>      -0.12500000       0.37500000       0.00000000 </v>
   <v>      -0.08333333       0.37500000       0.00000000 </v>
   <v>      -0.04166667       0.37500000       0.00000000 </v>
   <v>       0.00000000       0.41666667       0.00000000 </v>
   <v>       0.04166667       0.41666667       0.00000000 </v>
   <v>       0.08333333       0.41666667       0.00000000 </v>
   <v>       0.12500000       0.41666667       0.00000000 </v>
   <v>       0.16666667       0.41666667       0.00000000 </v>
   <v>       0.20833333       0.41666667       0.00000000 </v>
   <v>       0.25000000       0.41666667       0.00000000 </v>
   <v>       0.29166667       0.41666667       0.00000000 </v>
   <v>       0.33333333       0.41666667       0.00000000 </v>
   <v>       0.37500000       0.41666667       0.00000000 </v>
   <v>       0.41666667       0.41666667       0.00000000 </v>
   <v>       0.45833333       0.41666667       0.00000000 </v>
   <v>       0.50000000       0.41666667       0.00000000 </v>
   <v>      -0.45833333       0.41666667       0.00000000 </v>
   <v>      -0.41666667       0.41666667       0.00000000 </v>
   <v>      -0.37500000       0.41666667       0.00000000 </v>
   <v>      -0.33333333       0.41666667       0.00000000 </v>
   <v>      -0.29166667       0.41666667       0.00000000 </v>
   <v>      -0.25000000       0.41666667       0.00000000 </v>
   <v>      -0.20833333       0.41666667       0.00000000 </v>
   <v>      -0.16666667       0.41666667       0.00000000 </v>
   <v>      -0.12500000       0.41666667       0.00000000 </v>
   <v>      -0.08333333       0.41666667       0.00000000 </v>
   <v>      -0.04166667       0.41666667       0.00000000 </v>
   <v>       0.00000000       0.45833333       0.00000000 </v>
   <v>       0.04166667       0.45833333       0.00000000 </v>
   <v>       0.08333333       0.45833333       0.00000000 </v>
   <v>       0.12500000       0.45833333       0.00000000 </v>
   <v>       0.16666667       0.45833333       0.00000000 </v>
   <v>       0.20833333       0.45833333       0.00000000 </v>
   <v>       0.25000000       0.45833333       0.00000000 </v>
   <v>       0.29166667       0.45833333       0.00000000 </v>
   <v>       0.33333333       0.45833333       0.00000000 </v>
   <v>       0.37500000       0.45833333       0.00000000 </v>
   <v>       0.41666667       0.45833333       0.00000000 </v>
   <v>       0.45833333       0.45833333       0.00000000 </v>
   <v>       0.50000000       0.45833333       0.00000000 </v>
   <v>      -0.45833333       0.45833333       0.00000000 </v>
   <v>      -0.41666667       0.45833333       0.00000000 </v>
   <v>      -0.37500000       0.45833333       0.00000000 </v>
   <v>      -0.33333333       0.45833333       0.00000000 </v>
   <v>      -0.29166667       0.45833333       0.00000000 </v>
   <v>      -0.25000000       0.45833333       0.00000000 </v>
   <v>      -0.20833333       0.45833333       0.00000000 </v>
   <v>      -0.16666667       0.45833333       0.00000000 </v>
   <v>      -0.12500000       0.45833333       0.00000000 </v>
   <v>      -0.08333333       0.45833333       0.00000000 </v>
   <v>      -0.04166667       0.45833333       0.00000000 </v>
   <v>       0.00000000       0.50000000       0.00000000 </v>
   <v>       0.04166667       0.50000000       0.00000000 </v>
   <v>       0.08333333       0.50000000       0.00000000 </v>
   <v>       0.12500000       0.50000000       0.00000000 </v>
   <v>       0.16666667       0.50000000       0.00000000 </v>
   <v>       0.20833333       0.50000000       0.00000000 </v>
   <v>       0.25000000       0.50000000       0.00000000 </v>
   <v>       0.29166667       0.50000000       0.00000000 </v>
   <v>       0.33333333       0.50000000       0.00000000 </v>
   <v>       0.37500000       0.50000000       0.00000000 </v>
   <v>       0.41666667       0.50000000       0.00000000 </v>
   <v>       0.45833333       0.50000000       0.00000000 </v>
   <v>       0.50000000       0.50000000       0.00000000 </v>
  </varray>
  <varray name="weights" >
   <v>       0.00173611 </v>
   <v>       0.00347222 </v>
   <v>       0.00347222 </v>
   <v>       0.00347222 </v>
   <v>       0.00347222 </v>
   <v>       0.00347222 </v>
   <v>       0.00347222 </v>
   <v>       0.00347222 </v>
   <v>       0.00347222 </v>
   <v>       0.00347222 </v>
   <v>       0.00347222 </v>
   <v>       0.00347222 </v>
   <v>       0.00173611 </v>
   <v>       0.00347222 </v>
   <v>       0.00347222 </v>
   <v>       0.00347222 </v>
   <v>       0.00347222 </v>
   <v>       0.00347222 </v>
   <v>       0.00347222 </v>
   <v>       0.00347222 </v>
   <v>       0.00347222 </v>
   <v>       0.00347222 </v>
   <v>       0.00347222 </v>
   <v>       0.00347222 </v>
   <v>       0.00347222 </v>
   <v>       0.00347222 </v>
   <v>       0.00347222 </v>
   <v>       0.00347222 </v>
   <v>       0.00347222 </v>
   <v>       0.00347222 </v>
   <v>       0.00347222 </v>
   <v>       0.00347222 </v>
   <v>       0.00347222 </v>
   <v>       0.00347222 </v>
   <v>       0.00347222 </v>
   <v>       0.00347222 </v>
   <v>       0.00347222 </v>
   <v>       0.00347222 </v>
   <v>       0.00347222 </v>
   <v>       0.00347222 </v>
   <v>       0.00347222 </v>
   <v>       0.00347222 </v>
   <v>       0.00347222 </v>
   <v>       0.00347222 </v>
   <v>       0.00347222 </v>
   <v>       0.00347222 </v>
   <v>       0.00347222 </v>
   <v>       0.00347222 </v>
   <v>       0.00347222 </v>
   <v>       0.00347222 </v>
   <v>       0.00347222 </v>
   <v>       0.00347222 </v>
   <v>       0.00347222 </v>
   <v>       0.00347222 </v>
   <v>       0.00347222 </v>
   <v>       0.00347222 </v>
   <v>       0.00347222 </v>
   <v>       0.00347222 </v>
   <v>       0.00347222 </v>
   <v>       0.00347222 </v>
   <v>       0.00347222 </v>
   <v>       0.00347222 </v>
   <v>       0.00347222 </v>
   <v>       0.00347222 </v>
   <v>       0.00347222 </v>
   <v>       0.00347222 </v>
   <v>       0.00347222 </v>
   <v>       0.00347222 </v>
   <v>       0.00347222 </v>
   <v>       0.00347222 </v>
   <v>       0.00347222 </v>
   <v>       0.00347222 </v>
   <v>       0.00347222 </v>
   <v>       0.00347222 </v>
   <v>       0.00347222 </v>
   <v>       0.00347222 </v>
   <v>       0.00347222 </v>
   <v>       0.00347222 </v>
   <v>       0.00347222 </v>
   <v>       0.00347222 </v>
   <v>       0.00347222 </v>
   <v>       0.00347222 </v>
   <v>       0.00347222 </v>
   <v>       0.00347222 </v>
   <v>       0.00347222 </v>
   <v>       0.00347222 </v>
   <v>       0.00347222 </v>
   <v>       0.00347222 </v>
   <v>       0.00347222 </v>
   <v>       0.00347222 </v>
   <v>       0.00347222 </v>
   <v>       0.00347222 </v>
   <v>       0.00347222 </v>
   <v>       0.00347222 </v>
   <v>       0.00347222 </v>
   <v>       0.00347222 </v>
   <v>       0.00347222 </v>
   <v>       0.00347222 </v>
   <v>       0.00347222 </v>
   <v>       0.00347222 </v>
   <v>       0.00347222 </v>
   <v>       0.00347222 </v>
   <v>       0.00347222 </v>
   <v>       0.00347222 </v>
   <v>       0.00347222 </v>
   <v>       0.00347222 </v>
   <v>       0.00347222 </v>
   <v>       0.00347222 </v>
   <v>       0.00347222 </v>
   <v>       0.00347222 </v>
   <v>       0.00347222 </v>
   <v>       0.00347222 </v>
   <v>       0.00347222 </v>
   <v>       0.00347222 </v>
   <v>       0.00347222 </v>
   <v>       0.00347222 </v>
   <v>       0.00347222 </v>
   <v>       0.00347222 </v>
   <v>       0.00347222 </v>
   <v>       0.00347222 </v>
   <v>       0.00347222 </v>
   <v>       0.00347222 </v>
   <v>       0.00347222 </v>
   <v>       0.00347222 </v>
   <v>       0.00347222 </v>
   <v>       0.00347222 </v>
   <v>       0.00347222 </v>
   <v>       0.00347222 </v>
   <v>       0.00347222 </v>
   <v>       0.00347222 </v>
   <v>       0.00347222 </v>
   <v>       0.00347222 </v>
   <v>       0.00347222 </v>
   <v>       0.00347222 </v>
   <v>       0.00347222 </v>
   <v>       0.00347222 </v>
   <v>       0.00347222 </v>
   <v>       0.00347222 </v>
   <v>       0.00347222 </v>
   <v>       0.00347222 </v>
   <v>       0.00347222 </v>
   <v>       0.00347222 </v>
   <v>       0.00347222 </v>
   <v>       0.00347222 </v>
   <v>       0.00347222 </v>
   <v>       0.00347222 </v>
   <v>       0.00347222 </v>
   <v>       0.00347222 </v>
   <v>       0.00347222 </v>
   <v>       0.00347222 </v>
   <v>       0.00347222 </v>
   <v>       0.00347222 </v>
   <v>       0.00347222 </v>
   <v>       0.00347222 </v>
   <v>       0.00347222 </v>
   <v>       0.00347222 </v>
   <v>       0.00347222 </v>
   <v>       0.00347222 </v>
   <v>       0.00347222 </v>
   <v>       0.00347222 </v>
   <v>       0.00347222 </v>
   <v>       0.00347222 </v>
   <v>       0.00347222 </v>
   <v>       0.00347222 </v>
   <v>       0.00347222 </v>
   <v>       0.00347222 </v>
   <v>       0.00347222 </v>
   <v>       0.00347222 </v>
   <v>       0.00347222 </v>
   <v>       0.00347222 </v>
   <v>       0.00347222 </v>
   <v>       0.00347222 </v>
   <v>       0.00347222 </v>
   <v>       0.00347222 </v>
   <v>       0.00347222 </v>
   <v>       0.00347222 </v>
   <v>       0.00347222 </v>
   <v>       0.00347222 </v>
   <v>       0.00347222 </v>
   <v>       0.00347222 </v>
   <v>       0.00347222 </v>
   <v>       0.00347222 </v>
   <v>       0.00347222 </v>
   <v>       0.00347222 </v>
   <v>       0.00347222 </v>
   <v>       0.00347222 </v>
   <v>       0.00347222 </v>
   <v>       0.00347222 </v>
   <v>       0.00347222 </v>
   <v>       0.00347222 </v>
   <v>       0.00347222 </v>
   <v>       0.00347222 </v>
   <v>       0.00347222 </v>
   <v>       0.00347222 </v>
   <v>       0.00347222 </v>
   <v>       0.00347222 </v>
   <v>       0.00347222 </v>
   <v>       0.00347222 </v>
   <v>       0.00347222 </v>
   <v>       0.00347222 </v>
   <v>       0.00347222 </v>
   <v>       0.00347222 </v>
   <v>       0.00347222 </v>
   <v>       0.00347222 </v>
   <v>       0.00347222 </v>
   <v>       0.00347222 </v>
   <v>       0.00347222 </v>
   <v>       0.00347222 </v>
   <v>       0.00347222 </v>
   <v>       0.00347222 </v>
   <v>       0.00347222 </v>
   <v>       0.00347222 </v>
   <v>       0.00347222 </v>
   <v>       0.00347222 </v>
   <v>       0.00347222 </v>
   <v>       0.00347222 </v>
   <v>       0.00347222 </v>
   <v>       0.00347222 </v>
   <v>       0.00347222 </v>
   <v>       0.00347222 </v>
   <v>       0.00347222 </v>
   <v>       0.00347222 </v>
   <v>       0.00347222 </v>
   <v>       0.00347222 </v>
   <v>       0.00347222 </v>
   <v>       0.00347222 </v>
   <v>       0.00347222 </v>
   <v>       0.00347222 </v>
   <v>       0.00347222 </v>
   <v>       0.00347222 </v>
   <v>       0.00347222 </v>
   <v>       0.00347222 </v>
   <v>       0.00347222 </v>
   <v>       0.00347222 </v>
   <v>       0.00347222 </v>
   <v>       0.00347222 </v>
   <v>       0.00347222 </v>
   <v>       0.00347222 </v>
   <v>       0.00347222 </v>
   <v>       0.00347222 </v>
   <v>       0.00347222 </v>
   <v>       0.00347222 </v>
   <v>       0.00347222 </v>
   <v>       0.00347222 </v>
   <v>       0.00347222 </v>
   <v>       0.00347222 </v>
   <v>       0.00347222 </v>
   <v>       0.00347222 </v>
   <v>       0.00347222 </v>
   <v>       0.00347222 </v>
   <v>       0.00347222 </v>
   <v>       0.00347222 </v>
   <v>       0.00347222 </v>
   <v>       0.00347222 </v>
   <v>       0.00347222 </v>
   <v>       0.00347222 </v>
   <v>       0.00347222 </v>
   <v>       0.00347222 </v>
   <v>       0.00347222 </v>
   <v>       0.00347222 </v>
   <v>       0.00347222 </v>
   <v>       0.00347222 </v>
   <v>       0.00347222 </v>
   <v>       0.00347222 </v>
   <v>       0.00347222 </v>
   <v>       0.00347222 </v>
   <v>       0.00347222 </v>
   <v>       0.00347222 </v>
   <v>       0.00347222 </v>
   <v>       0.00347222 </v>
   <v>       0.00347222 </v>
   <v>       0.00347222 </v>
   <v>       0.00347222 </v>
   <v>       0.00347222 </v>
   <v>       0.00347222 </v>
   <v>       0.00347222 </v>
   <v>       0.00347222 </v>
   <v>       0.00173611 </v>
   <v>       0.00347222 </v>
   <v>       0.00347222 </v>
   <v>       0.00347222 </v>
   <v>       0.00347222 </v>
   <v>       0.00347222 </v>
   <v>       0.00347222 </v>
   <v>       0.00347222 </v>
   <v>       0.00347222 </v>
   <v>       0.00347222 </v>
   <v>       0.00347222 </v>
   <v>       0.00347222 </v>
   <v>       0.00173611 </v>
  </varray>
 </kpoints>
 <parameters>
  <separator name="general" >
   <i type="string" name="SYSTEM">unknown system</i>
   <i type="logical" name="LCOMPAT"> F  </i>
  </separator>
  <separator name="electronic" >
   <i type="string" name="PREC">a</i>
   <i name="ENMAX">    520.00000000</i>
   <i name="ENAUG">    644.87300000</i>
   <i name="EDIFF">      0.00001000</i>
   <i type="int" name="IALGO">    38</i>
   <i type="int" name="IWAVPR">    10</i>
   <i type="int" name="NBANDS">    12</i>
   <i name="NELECT">      8.00000000</i>
   <i type="int" name="TURBO">     0</i>
   <i type="int" name="IRESTART">     0</i>
   <i type="int" name="NREBOOT">     0</i>
   <i type="int" name="NMIN">     0</i>
   <i name="EREF">      0.00000000</i>
   <separator name="electronic smearing" >
    <i type="int" name="ISMEAR">     0</i>
    <i name="SIGMA">      0.02000000</i>
    <i name="KSPACING">      0.50000000</i>
    <i type="logical" name="KGAMMA"> T  </i>
   </separator>
   <separator name="electronic projectors" >
    <i type="logical" name="LREAL"> T  </i>
    <v name="ROPT">     -0.00025000</v>
    <i type="int" name="LMAXPAW">  -100</i>
    <i type="int" name="LMAXMIX">     2</i>
    <i type="logical" name="NLSPLINE"> F  </i>
   </separator>
   <separator name="electronic startup" >
    <i type="int" name="ISTART">     0</i>
    <i type="int" name="ICHARG">     2</i>
    <i type="int" name="INIWAV">     1</i>
   </separator>
   <separator name="electronic spin" >
    <i type="int" name="ISPIN">     1</i>
    <i type="logical" name="LNONCOLLINEAR"> F  </i>
    <v name="MAGMOM">      0.60000000      0.60000000</v>
    <i name="NUPDOWN">     -1.00000000</i>
    <i type="logical" name="LSORBIT"> F  </i>
    <v name="SAXIS">      0.00000000      0.00000000      1.00000000</v>
    <i type="logical" name="LSPIRAL"> F  </i>
    <v name="QSPIRAL">      0.00000000      0.00000000      0.00000000</v>
    <i type="logical" name="LZEROZ"> F  </i>
   </separator>
   <separator name="electronic exchange-correlation" >
    <i type="logical" name="LASPH"> F  </i>
    <i type="logical" name="LMETAGGA"> F  </i>
   </separator>
   <separator name="electronic convergence" >
    <i type="int" name="NELM">   250</i>
    <i type="int" name="NELMDL">    -5</i>
    <i type="int" name="NELMIN">     6</i>
    <i name="ENINI">    520.00000000</i>
    <separator name="electronic convergence detail" >
     <i type="logical" name="LDIAG"> T  </i>
     <i type="logical" name="LSUBROT"> F  </i>
     <i name="WEIMIN">      0.00000000</i>
     <i name="EBREAK">      0.00000021</i>
     <i name="DEPER">      0.30000000</i>
     <i type="int" name="NRMM">     4</i>
     <i name="TIME">      0.40000000</i>
    </separator>
   </separator>
   <separator name="electronic mixer" >
    <i name="AMIX">      0.40000000</i>
    <i name="BMIX">      1.00000000</i>
    <i name="AMIN">      0.10000000</i>
    <i name="AMIX_MAG">      1.60000000</i>
    <i name="BMIX_MAG">      1.00000000</i>
    <separator name="electronic mixer details" >
     <i type="int" name="IMIX">     4</i>
     <i type="logical" name="MIXFIRST"> F  </i>
     <i type="int" name="MAXMIX">   -45</i>
     <i name="WC">    100.00000000</i>
     <i type="int" name="INIMIX">     1</i>
     <i type="int" name="MIXPRE">     1</i>
     <i type="int" name="MREMOVE">     5</i>
    </separator>
   </separator>
   <separator name="electronic dipolcorrection" >
    <i type="logical" name="LDIPOL"> F  </i>
    <i type="logical" name="LMONO"> F  </i>
    <i type="int" name="IDIPOL">     0</i>
    <i name="EPSILON">      1.00000000</i>
    <v name="DIPOL">   -100.00000000   -100.00000000   -100.00000000</v>
    <i name="EFIELD">      0.00000000</i>
   </separator>
  </separator>
  <separator name="grids" >
   <i type="int" name="NGX">    20</i>
   <i type="int" name="NGY">    18</i>
   <i type="int" name="NGZ">   112</i>
   <i type="int" name="NGXF">    40</i>
   <i type="int" name="NGYF">    36</i>
   <i type="int" name="NGZF">   224</i>
   <i type="logical" name="ADDGRID"> F  </i>
  </separator>
  <separator name="ionic" >
   <i type="int" name="NSW">     0</i>
   <i type="int" name="IBRION">    -1</i>
   <i type="int" name="ISIF">     2</i>
   <i name="PSTRESS">      0.00000000</i>
   <i name="EDIFFG">     -0.00500000</i>
   <i type="int" name="NFREE">     1</i>
   <i name="POTIM">      0.25000000</i>
   <i name="SMASS">     -3.00000000</i>
   <i name="SCALEE">      1.00000000</i>
  </separator>
  <separator name="ionic md" >
   <i name="TEBEG">      0.00010000</i>
   <i name="TEEND">      0.00010000</i>
   <i type="int" name="NBLOCK">     1</i>
   <i type="int" name="KBLOCK">     1</i>
   <i type="int" name="NPACO">   256</i>
   <i name="APACO">     16.00000000</i>
  </separator>
  <separator name="symmetry" >
   <i type="int" name="ISYM">     2</i>
   <i name="SYMPREC">      0.00001000</i>
  </separator>
  <separator name="dos" >
   <i type="logical" name="LORBIT"> F  </i>
   <v name="RWIGS">     -1.00000000</v>
   <i type="int" name="NEDOS">   301</i>
   <i name="EMIN">     10.00000000</i>
   <i name="EMAX">    -10.00000000</i>
   <i name="EFERMI">      0.00000000</i>
  </separator>
  <separator name="writing" >
   <i type="int" name="NWRITE">     2</i>
   <i type="logical" name="LWAVE"> F  </i>
   <i type="logical" name="LCHARG"> F  </i>
   <i type="logical" name="LPARD"> F  </i>
   <i type="logical" name="LVTOT"> F  </i>
   <i type="logical" name="LVHAR"> F  </i>
   <i type="logical" name="LELF"> F  </i>
   <i type="logical" name="LOPTICS"> F  </i>
   <v name="STM">      0.00000000      0.00000000      0.00000000      0.00000000      0.00000000      0.00000000      0.00000000</v>
  </separator>
  <separator name="performance" >
   <i type="int" name="NPAR">     6</i>
   <i type="int" name="NSIM">     4</i>
   <i type="int" name="NBLK">    -1</i>
   <i type="logical" name="LPLANE"> T  </i>
   <i type="logical" name="LSCALAPACK"> T  </i>
   <i type="logical" name="LSCAAWARE"> F  </i>
   <i type="logical" name="LSCALU"> F  </i>
   <i type="logical" name="LASYNC"> F  </i>
   <i type="logical" name="LORBITALREAL"> F  </i>
  </separator>
  <separator name="miscellaneous" >
   <i type="int" name="IDIOT">     3</i>
   <i type="logical" name="LMUSIC"> F  </i>
   <v name="POMASS">     12.01100000</v>
   <v name="DARWINR">      0.00000000</v>
   <v name="DARWINV">      1.00000000</v>
   <i type="logical" name="LCORR"> T  </i>
  </separator>
  <i type="logical" name="GGA_COMPAT"> T  </i>
  <i type="logical" name="LBERRY"> F  </i>
  <i type="int" name="ICORELEVEL">     0</i>
  <i type="logical" name="LDAU"> F  </i>
  <i type="int" name="I_CONSTRAINED_M">     0</i>
  <separator name="electronic exchange-correlation" >
   <i type="string" name="GGA">--</i>
   <i type="int" name="VOSKOWN">     0</i>
   <i type="logical" name="LHFCALC"> F  </i>
   <i type="string" name="PRECFOCK"></i>
   <i type="logical" name="LSYMGRAD"> F  </i>
   <i type="logical" name="LHFONE"> F  </i>
   <i type="logical" name="LRHFCALC"> F  </i>
   <i type="logical" name="LTHOMAS"> F  </i>
   <i type="logical" name="LMODELHF"> F  </i>
   <i name="ENCUT4O">     -1.00000000</i>
   <i type="int" name="EXXOEP">     0</i>
   <i type="int" name="FOURORBIT">     0</i>
   <i name="AEXX">      0.00000000</i>
   <i name="HFALPHA">      0.00000000</i>
   <i name="MCALPHA">      0.00000000</i>
   <i name="ALDAX">      1.00000000</i>
   <i name="AGGAX">      1.00000000</i>
   <i name="ALDAC">      1.00000000</i>
   <i name="AGGAC">      1.00000000</i>
   <i type="int" name="NKREDX">     1</i>
   <i type="int" name="NKREDY">     1</i>
   <i type="int" name="NKREDZ">     1</i>
   <i type="logical" name="SHIFTRED"> F  </i>
   <i type="logical" name="ODDONLY"> F  </i>
   <i type="logical" name="EVENONLY"> F  </i>
   <i type="int" name="LMAXFOCK">     0</i>
   <i type="int" name="NMAXFOCKAE">     0</i>
   <i type="logical" name="LFOCKAEDFT"> F  </i>
   <i name="HFSCREEN">      0.00000000</i>
   <i name="HFSCREENC">      0.00000000</i>
   <i type="int" name="NBANDSGWLOW">     0</i>
  </separator>
  <separator name="vdW DFT" >
   <i type="logical" name="LUSE_VDW"> F  </i>
   <i name="Zab_VDW">     -0.84910000</i>
   <i name="PARAM1">      0.12340000</i>
   <i name="PARAM2">      1.00000000</i>
   <i name="PARAM3">      0.00000000</i>
  </separator>
  <separator name="model GW" >
   <i type="int" name="MODEL_GW">     0</i>
   <i name="MODEL_EPS0">     23.99726509</i>
   <i name="MODEL_ALPHA">      1.00000000</i>
  </separator>
  <separator name="linear response parameters" >
   <i type="logical" name="LEPSILON"> F  </i>
   <i type="logical" name="LRPA"> F  </i>
   <i type="logical" name="LNABLA"> F  </i>
   <i type="logical" name="LVEL"> F  </i>
   <i type="int" name="KINTER">     0</i>
   <i name="CSHIFT">      0.10000000</i>
   <i name="OMEGAMAX">     -1.00000000</i>
   <i name="DEG_THRESHOLD">      0.00200000</i>
  </separator>
  <separator name="orbital magnetization" >
   <i type="logical" name="NUCIND"> F  </i>
   <v name="MAGPOS">      0.00000000      0.00000000      0.00000000</v>
   <i type="logical" name="LNICSALL"> T  </i>
   <i type="logical" name="ORBITALMAG"> F  </i>
   <i type="logical" name="LMAGBLOCH"> F  </i>
   <i type="logical" name="LCHIMAG"> F  </i>
   <i type="logical" name="LGAUGE"> T  </i>
   <i type="int" name="MAGATOM">     0</i>
   <v name="MAGDIPOL">      0.00000000      0.00000000      0.00000000</v>
   <v name="AVECCONST">      0.00000000      0.00000000      0.00000000</v>
  </separator>
  <separator name="response functions" >
   <i type="logical" name="LADDER"> F  </i>
   <i type="logical" name="LFXC"> F  </i>
   <i type="logical" name="LHARTREE"> T  </i>
   <i type="int" name="IBSE">     0</i>
   <v type="int" name="KPOINT">    -1     0     0     0</v>
   <i type="logical" name="LTCTE"> F  </i>
   <i type="logical" name="LTETE"> F  </i>
   <i type="logical" name="LTRIPLET"> F  </i>
   <i type="logical" name="LFXCEPS"> F  </i>
   <i type="logical" name="LFXHEG"> F  </i>
   <i type="int" name="NATURALO">     0</i>
   <i type="logical" name="L2ORDER"> F  </i>
   <i type="logical" name="LUSEW"> F  </i>
   <i name="ENCUTGW">     -2.00000000</i>
   <i name="ENCUTGWSOFT">     -2.00000000</i>
   <i name="ENCUTLF">     -1.00000000</i>
   <i type="int" name="LMAXMP2">    -1</i>
   <i name="SCISSOR">      0.00000000</i>
   <i type="int" name="NOMEGA">     0</i>
   <i type="int" name="NOMEGAR">     0</i>
   <i type="int" name="NBANDSGW">    -1</i>
   <i type="int" name="NBANDSO">    -1</i>
   <i type="int" name="NBANDSV">    -1</i>
   <i type="int" name="NELM">   250</i>
   <i type="int" name="NELMHF">     1</i>
   <i type="int" name="DIM">     3</i>
   <i type="int" name="ANTIRES">     0</i>
   <i name="OMEGAMAX">    -30.00000000</i>
   <i name="OMEGAMIN">    -30.00000000</i>
   <i name="OMEGATL">   -200.00000000</i>
   <i type="int" name="OMEGAGRID">     0</i>
   <i name="CSHIFT">     -0.10000000</i>
   <i type="logical" name="SELFENERGY"> F  </i>
   <i type="logical" name="LSPECTRAL"> F  </i>
   <i type="logical" name="LSPECTRALGW"> F  </i>
   <i type="logical" name="LSINGLES"> F  </i>
   <i type="logical" name="LFERMIGW"> F  </i>
   <i type="logical" name="ODDONLYGW"> F  </i>
   <i type="logical" name="EVENONLYGW"> F  </i>
   <i type="int" name="NKREDLFX">     1</i>
   <i type="int" name="NKREDLFY">     1</i>
   <i type="int" name="NKREDLFZ">     1</i>
   <i type="int" name="MAXMEM">  1800</i>
   <i type="int" name="TELESCOPE">     0</i>
   <i type="int" name="TAUPAR">     1</i>
   <i type="int" name="OMEGAPAR">    -1</i>
   <i name="LAMBDA">      1.00000000</i>
  </separator>
  <separator name="External order field" >
   <i name="OFIELD_KAPPA">      0.00000000</i>
   <v name="OFIELD_K">      0.00000000      0.00000000      0.00000000</v>
   <i name="OFIELD_Q6_NEAR">      0.00000000</i>
   <i name="OFIELD_Q6_FAR">      0.00000000</i>
   <i name="OFIELD_A">      0.00000000</i>
  </separator>
 </parameters>
 <atominfo>
  <atoms>       2 </atoms>
  <types>       1 </types>
  <array name="atoms" >
   <dimension dim="1">ion</dimension>
   <field type="string">element</field>
   <field type="int">atomtype</field>
   <set>
    <rc><c>C </c><c>   1</c></rc>
    <rc><c>C </c><c>   1</c></rc>
   </set>
  </array>
  <array name="atomtypes" >
   <dimension dim="1">type</dimension>
   <field type="int">atomspertype</field>
   <field type="string">element</field>
   <field>mass</field>
   <field>valence</field>
   <field type="string">pseudopotential</field>
   <set>
    <rc><c>   2</c><c>C </c><c>     12.01100000</c><c>      4.00000000</c><c>  PAW_PBE C 08Apr2002                   </c></rc>
   </set>
  </array>
 </atominfo>
 <structure name="initialpos" >
  <crystal>
   <varray name="basis" >
    <v>       2.49547000       0.02761200       0.00000000 </v>
    <v>      -1.22382200       2.12342100       0.00000000 </v>
    <v>       0.00000000       0.00000000      15.00000000 </v>
   </varray>
   <i name="volume">     79.99088364 </i>
   <varray name="rec_basis" >
    <v>       0.39818681       0.22949278       0.00000000 </v>
    <v>      -0.00517784       0.46795395       0.00000000 </v>
    <v>       0.00000000       0.00000000       0.06666667 </v>
   </varray>
  </crystal>
  <varray name="positions" >
   <v>       0.99957154       0.99983114       0.50000000 </v>
   <v>       0.33376146       0.66683586       0.50000000 </v>
  </varray>
 </structure>
 <calculation>
  <scstep>
   <time name="dav">    0.82    0.82</time>
   <time name="total">    0.84    0.84</time>
   <energy>
    <i name="alphaZ">      4.10780390 </i>
    <i name="ewald">    822.92060428 </i>
    <i name="hartreedc">  -1042.68385259 </i>
    <i name="XCdc">     26.27598927 </i>
    <i name="pawpsdc">    217.04409276 </i>
    <i name="pawaedc">   -218.18290438 </i>
    <i name="eentropy">     -0.00015705 </i>
    <i name="bandstr">    -68.75027072 </i>
    <i name="atom">    294.29778662 </i>
    <i name="e_fr_energy">     35.02909209 </i>
    <i name="e_wo_entrp">     35.02924914 </i>
    <i name="e_0_energy">     35.02917062 </i>
   </energy>
  </scstep>
  <scstep>
   <time name="dav">    1.11    1.11</time>
   <time name="total">    1.11    1.11</time>
   <energy>
    <i name="e_fr_energy">    -18.08169609 </i>
    <i name="e_wo_entrp">    -18.08169609 </i>
    <i name="e_0_energy">    -18.08169609 </i>
   </energy>
  </scstep>
  <scstep>
   <time name="dav">    1.23    1.23</time>
   <time name="total">    1.23    1.23</time>
   <energy>
    <i name="e_fr_energy">    -19.62972776 </i>
    <i name="e_wo_entrp">    -19.62972776 </i>
    <i name="e_0_energy">    -19.62972776 </i>
   </energy>
  </scstep>
  <scstep>
   <time name="dav">    1.21    1.21</time>
   <time name="total">    1.21    1.21</time>
   <energy>
    <i name="e_fr_energy">    -19.63674218 </i>
    <i name="e_wo_entrp">    -19.63674218 </i>
    <i name="e_0_energy">    -19.63674218 </i>
   </energy>
  </scstep>
  <scstep>
   <time name="dav">    1.20    1.20</time>
   <time name="total">    1.23    1.23</time>
   <energy>
    <i name="e_fr_energy">    -19.63675391 </i>
    <i name="e_wo_entrp">    -19.63675391 </i>
    <i name="e_0_energy">    -19.63675391 </i>
   </energy>
  </scstep>
  <scstep>
   <time name="dav">    1.10    1.10</time>
   <time name="total">    1.13    1.14</time>
   <energy>
    <i name="e_fr_energy">    -18.77319663 </i>
    <i name="e_wo_entrp">    -18.77319663 </i>
    <i name="e_0_energy">    -18.77319663 </i>
   </energy>
  </scstep>
  <scstep>
   <time name="dav">    1.17    1.17</time>
   <time name="total">    1.21    1.21</time>
   <energy>
    <i name="e_fr_energy">    -18.44004438 </i>
    <i name="e_wo_entrp">    -18.44004438 </i>
    <i name="e_0_energy">    -18.44004438 </i>
   </energy>
  </scstep>
  <scstep>
   <time name="dav">    1.13    1.13</time>
   <time name="total">    1.16    1.17</time>
   <energy>
    <i name="e_fr_energy">    -18.43284867 </i>
    <i name="e_wo_entrp">    -18.43284867 </i>
    <i name="e_0_energy">    -18.43284867 </i>
   </energy>
  </scstep>
  <scstep>
   <time name="dav">    1.08    1.08</time>
   <time name="total">    1.11    1.11</time>
   <energy>
    <i name="e_fr_energy">    -18.43097053 </i>
    <i name="e_wo_entrp">    -18.43097053 </i>
    <i name="e_0_energy">    -18.43097053 </i>
   </energy>
  </scstep>
  <scstep>
   <time name="dav">    0.93    0.93</time>
   <time name="total">    0.96    0.96</time>
   <energy>
    <i name="e_fr_energy">    -18.42964964 </i>
    <i name="e_wo_entrp">    -18.42964964 </i>
    <i name="e_0_energy">    -18.42964964 </i>
   </energy>
  </scstep>
  <scstep>
   <time name="dav">    0.89    0.89</time>
   <time name="total">    0.92    0.93</time>
   <energy>
    <i name="e_fr_energy">    -18.42980931 </i>
    <i name="e_wo_entrp">    -18.42980931 </i>
    <i name="e_0_energy">    -18.42980931 </i>
   </energy>
  </scstep>
  <scstep>
   <time name="dav">    0.94    0.94</time>
   <time name="total">    0.97    0.97</time>
   <energy>
    <i name="e_fr_energy">    -18.43005660 </i>
    <i name="e_wo_entrp">    -18.43005660 </i>
    <i name="e_0_energy">    -18.43005660 </i>
   </energy>
  </scstep>
  <scstep>
   <time name="dav">    0.90    0.90</time>
   <time name="total">    0.93    0.93</time>
   <energy>
    <i name="e_fr_energy">    -18.43076198 </i>
    <i name="e_wo_entrp">    -18.43076198 </i>
    <i name="e_0_energy">    -18.43076198 </i>
   </energy>
  </scstep>
  <scstep>
   <time name="dav">    1.08    1.08</time>
   <time name="total">    1.11    1.12</time>
   <energy>
    <i name="e_fr_energy">    -18.43081974 </i>
    <i name="e_wo_entrp">    -18.43081974 </i>
    <i name="e_0_energy">    -18.43081974 </i>
   </energy>
  </scstep>
  <scstep>
   <time name="dav">    0.90    0.90</time>
   <time name="total">    0.93    0.93</time>
   <energy>
    <i name="e_fr_energy">    -18.43091659 </i>
    <i name="e_wo_entrp">    -18.43091659 </i>
    <i name="e_0_energy">    -18.43091659 </i>
   </energy>
  </scstep>
  <scstep>
   <time name="dav">    0.92    0.92</time>
   <time name="total">    0.96    0.96</time>
   <energy>
    <i name="e_fr_energy">    -18.43092691 </i>
    <i name="e_wo_entrp">    -18.43092691 </i>
    <i name="e_0_energy">    -18.43092691 </i>
   </energy>
  </scstep>
  <scstep>
   <time name="dav">    0.89    0.89</time>
   <time name="total">    0.90    0.90</time>
   <energy>
    <i name="alphaZ">      4.10780390 </i>
    <i name="ewald">    822.92060428 </i>
    <i name="hartreedc">  -1074.80780946 </i>
    <i name="XCdc">     27.43097554 </i>
    <i name="pawpsdc">    811.88372297 </i>
    <i name="pawaedc">   -813.24253513 </i>
    <i name="eentropy">     -0.00000000 </i>
    <i name="bandstr">    -91.02147761 </i>
    <i name="atom">    294.29778662 </i>
    <i name="e_fr_energy">    -18.43092888 </i>
    <i name="e_wo_entrp">    -18.43092888 </i>
    <i name="e_0_energy">    -18.43092888 </i>
   </energy>
  </scstep>
  <structure>
   <crystal>
    <varray name="basis" >
     <v>       2.49547000       0.02761200       0.00000000 </v>
     <v>      -1.22382200       2.12342100       0.00000000 </v>
     <v>       0.00000000       0.00000000      15.00000000 </v>
    </varray>
    <i name="volume">     79.99088364 </i>
    <varray name="rec_basis" >
     <v>       0.39818681       0.22949278       0.00000000 </v>
     <v>      -0.00517784       0.46795395       0.00000000 </v>
     <v>       0.00000000       0.00000000       0.06666667 </v>
    </varray>
   </crystal>
   <varray name="positions" >
    <v>       0.99957154       0.99983114       0.50000000 </v>
    <v>       0.33376146       0.66683586       0.50000000 </v>
   </varray>
  </structure>
  <varray name="forces" >
   <v>      -0.10436045      -0.05151733       0.00000000 </v>
   <v>       0.10436045       0.05151733       0.00000000 </v>
  </varray>
  <varray name="stress" >
   <v>     -24.65726506     -21.15556576       0.00000000 </v>
   <v>     -21.15556565      -3.42837815       0.00000000 </v>
   <v>       0.00000000       0.00000000      -0.21298910 </v>
  </varray>
  <energy>
   <i name="e_fr_energy">    -18.43092888 </i>
   <i name="e_wo_entrp">    -18.43092888 </i>
   <i name="e_0_energy">     -0.00000000 </i>
  </energy>
  <time name="totalsc">   18.60   18.64</time>
  <eigenvalues>
   <array>
    <dimension dim="1">band</dimension>
    <dimension dim="2">kpoint</dimension>
    <dimension dim="3">spin</dimension>
    <field>eigene</field>
    <field>occ</field>
    <set>
     <set comment="spin 1">
      <set comment="kpoint 1">
       <r>  -21.6787    1.0000 </r>
       <r>   -9.8045    1.0000 </r>
       <r>   -5.4383    1.0000 </r>
       <r>   -5.2598    1.0000 </r>
       <r>    1.0002    0.0000 </r>
       <r>    1.9062    0.0000 </r>
       <r>    2.4054    0.0000 </r>
       <r>    4.3334    0.0000 </r>
       <r>    5.0796    0.0000 </r>
       <r>    5.5830    0.0000 </r>
       <r>    6.1282    0.0000 </r>
       <r>    8.2142    0.0000 </r>
      </set>
      <set comment="kpoint 2">
       <r>  -21.6391    1.0000 </r>
       <r>   -9.7575    1.0000 </r>
       <r>   -5.6143    1.0000 </r>
       <r>   -5.3405    1.0000 </r>
       <r>    1.0537    0.0000 </r>
       <r>    1.9602    0.0000 </r>
       <r>    2.4600    0.0000 </r>
       <r>    4.3871    0.0000 </r>
       <r>    5.1300    0.0000 </r>
       <r>    5.6575    0.0000 </r>
       <r>    6.2941    0.0000 </r>
       <r>    8.2658    0.0000 </r>
      </set>
      <set comment="kpoint 3">
       <r>  -21.5206    1.0000 </r>
       <r>   -9.6169    1.0000 </r>
       <r>   -6.1118    1.0000 </r>
       <r>   -5.5665    1.0000 </r>
       <r>    1.2144    0.0000 </r>
       <r>    2.1223    0.0000 </r>
       <r>    2.6238    0.0000 </r>
       <r>    4.5480    0.0000 </r>
       <r>    5.2830    0.0000 </r>
       <r>    5.8357    0.0000 </r>
       <r>    6.7749    0.0000 </r>
       <r>    8.2986    0.0000 </r>
      </set>
      <set comment="kpoint 4">
       <r>  -21.3234    1.0000 </r>
       <r>   -9.3837    1.0000 </r>
       <r>   -6.8585    1.0000 </r>
       <r>   -5.8990    1.0000 </r>
       <r>    1.4824    0.0000 </r>
       <r>    2.3921    0.0000 </r>
       <r>    2.8971    0.0000 </r>
       <r>    4.8155    0.0000 </r>
       <r>    5.5365    0.0000 </r>
       <r>    6.0217    0.0000 </r>
       <r>    7.5277    0.0000 </r>
       <r>    7.6525    0.0000 </r>
      </set>
      <set comment="kpoint 5">
       <r>  -21.0482    1.0000 </r>
       <r>   -9.0596    1.0000 </r>
       <r>   -7.7744    1.0000 </r>
       <r>   -6.2922    1.0000 </r>
       <r>    1.8577    0.0000 </r>
       <r>    2.7687    0.0000 </r>
       <r>    3.2797    0.0000 </r>
       <r>    5.1865    0.0000 </r>
       <r>    5.8591    0.0000 </r>
       <r>    6.1680    0.0000 </r>
       <r>    6.8117    0.0000 </r>
       <r>    8.5000    0.0000 </r>
      </set>
      <set comment="kpoint 6">
       <r>  -20.6959    1.0000 </r>
       <r>   -8.7925    1.0000 </r>
       <r>   -8.6475    1.0000 </r>
       <r>   -6.7053    1.0000 </r>
       <r>    2.3399    0.0000 </r>
       <r>    3.2493    0.0000 </r>
       <r>    3.7714    0.0000 </r>
       <r>    5.5900    0.0000 </r>
       <r>    5.9067    0.0000 </r>
       <r>    6.0246    0.0000 </r>
       <r>    6.4821    0.0000 </r>
       <r>    9.5112    0.0000 </r>
      </set>
      <set comment="kpoint 7">
       <r>  -20.2677    1.0000 </r>
       <r>   -9.8626    1.0000 </r>
       <r>   -8.1522    1.0000 </r>
       <r>   -7.1070    1.0000 </r>
       <r>    2.9284    0.0000 </r>
       <r>    3.8111    0.0000 </r>
       <r>    4.3719    0.0000 </r>
       <r>    4.7483    0.0000 </r>
       <r>    5.9822    0.0000 </r>
       <r>    6.2855    0.0000 </r>
       <r>    7.0398    0.0000 </r>
       <r>   10.0713    0.0000 </r>
      </set>
      <set comment="kpoint 8">
       <r>  -19.7657    1.0000 </r>
       <r>  -10.9486    1.0000 </r>
       <r>   -7.5809    1.0000 </r>
       <r>   -7.4742    1.0000 </r>
       <r>    3.5310    0.0000 </r>
       <r>    3.6221    0.0000 </r>
       <r>    4.6051    0.0000 </r>
       <r>    5.0791    0.0000 </r>
       <r>    5.8840    0.0000 </r>
       <r>    6.9724    0.0000 </r>
       <r>    7.7258    0.0000 </r>
       <r>   10.7218    0.0000 </r>
      </set>
      <set comment="kpoint 9">
       <r>  -19.1932    1.0000 </r>
       <r>  -12.0235    1.0000 </r>
       <r>   -7.7913    1.0000 </r>
       <r>   -6.9467    1.0000 </r>
       <r>    2.4277    0.0000 </r>
       <r>    4.4180    0.0000 </r>
       <r>    5.3833    0.0000 </r>
       <r>    5.7307    0.0000 </r>
       <r>    5.9394    0.0000 </r>
       <r>    7.7670    0.0000 </r>
       <r>    8.5218    0.0000 </r>
       <r>   11.4485    0.0000 </r>
      </set>
      <set comment="kpoint 10">
       <r>  -18.5558    1.0000 </r>
       <r>  -13.0654    1.0000 </r>
       <r>   -8.0471    1.0000 </r>
       <r>   -6.2733    1.0000 </r>
       <r>    1.3485    0.0000 </r>
       <r>    5.2899    0.0000 </r>
       <r>    5.6828    0.0000 </r>
       <r>    6.2871    0.0000 </r>
       <r>    6.8396    0.0000 </r>
       <r>    8.6623    0.0000 </r>
       <r>    9.4226    0.0000 </r>
       <r>   12.1972    0.0000 </r>
      </set>
      <set comment="kpoint 11">
       <r>  -17.8672    1.0000 </r>
       <r>  -14.0497    1.0000 </r>
       <r>   -8.2344    1.0000 </r>
       <r>   -5.6103    1.0000 </r>
       <r>    0.3808    0.0000 </r>
       <r>    5.5366    0.0000 </r>
       <r>    6.3579    0.0000 </r>
       <r>    7.2951    0.0000 </r>
       <r>    7.8736    0.0000 </r>
       <r>    9.6500    0.0000 </r>
       <r>   10.4205    0.0000 </r>
       <r>   11.1952    0.0000 </r>
      </set>
      <set comment="kpoint 12">
       <r>  -17.1757    1.0000 </r>
       <r>  -14.9210    1.0000 </r>
       <r>   -8.3485    1.0000 </r>
       <r>   -5.0662    1.0000 </r>
       <r>   -0.3515    0.0000 </r>
       <r>    5.4939    0.0000 </r>
       <r>    7.4475    0.0000 </r>
       <r>    8.3992    0.0000 </r>
       <r>    9.0154    0.0000 </r>
       <r>    9.9051    0.0000 </r>
       <r>   10.6382    0.0000 </r>
       <r>   10.9652    0.0000 </r>
      </set>
      <set comment="kpoint 13">
       <r>  -16.7672    1.0000 </r>
       <r>  -15.3900    1.0000 </r>
       <r>   -8.3868    1.0000 </r>
       <r>   -4.8393    1.0000 </r>
       <r>   -0.6421    0.0000 </r>
       <r>    5.4773    0.0000 </r>
       <r>    8.5445    0.0000 </r>
       <r>    8.7337    0.0000 </r>
       <r>    9.5089    0.0000 </r>
       <r>    9.6771    0.0000 </r>
       <r>   10.2504    0.0000 </r>
       <r>   10.2830    0.0000 </r>
      </set>
      <set comment="kpoint 14">
       <r>  -21.6376    1.0000 </r>
       <r>   -9.7556    1.0000 </r>
       <r>   -5.5502    1.0000 </r>
       <r>   -5.4033    1.0000 </r>
       <r>    1.0559    0.0000 </r>
       <r>    1.9623    0.0000 </r>
       <r>    2.4620    0.0000 </r>
       <r>    4.3891    0.0000 </r>
       <r>    5.1337    0.0000 </r>
       <r>    5.7045    0.0000 </r>
       <r>    6.1886    0.0000 </r>
       <r>    8.2683    0.0000 </r>
      </set>
      <set comment="kpoint 15">
       <r>  -21.5587    1.0000 </r>
       <r>   -9.6619    1.0000 </r>
       <r>   -5.8966    1.0000 </r>
       <r>   -5.5485    1.0000 </r>
       <r>    1.1628    0.0000 </r>
       <r>    2.0702    0.0000 </r>
       <r>    2.5711    0.0000 </r>
       <r>    4.4963    0.0000 </r>
       <r>    5.2348    0.0000 </r>
       <r>    5.7991    0.0000 </r>
       <r>    6.5535    0.0000 </r>
       <r>    8.3675    0.0000 </r>
      </set>
      <set comment="kpoint 16">
       <r>  -21.4009    1.0000 </r>
       <r>   -9.4751    1.0000 </r>
       <r>   -6.5122    1.0000 </r>
       <r>   -5.8363    1.0000 </r>
       <r>    1.3770    0.0000 </r>
       <r>    2.2861    0.0000 </r>
       <r>    2.7896    0.0000 </r>
       <r>    4.7106    0.0000 </r>
       <r>    5.4394    0.0000 </r>
       <r>    5.9966    0.0000 </r>
       <r>    7.1553    0.0000 </r>
       <r>    7.9169    0.0000 </r>
      </set>
      <set comment="kpoint 17">
       <r>  -21.1648    1.0000 </r>
       <r>   -9.1965    1.0000 </r>
       <r>   -7.3322    1.0000 </r>
       <r>   -6.2122    1.0000 </r>
       <r>    1.6986    0.0000 </r>
       <r>    2.6093    0.0000 </r>
       <r>    3.1173    0.0000 </r>
       <r>    5.0305    0.0000 </r>
       <r>    5.7419    0.0000 </r>
       <r>    6.1963    0.0000 </r>
       <r>    7.1737    0.0000 </r>
       <r>    7.9445    0.0000 </r>
      </set>
      <set comment="kpoint 18">
       <r>  -20.8512    1.0000 </r>
       <r>   -8.8284    1.0000 </r>
       <r>   -8.2887    1.0000 </r>
       <r>   -6.6270    1.0000 </r>
       <r>    2.1272    0.0000 </r>
       <r>    3.0383    0.0000 </r>
       <r>    3.5545    0.0000 </r>
       <r>    5.4468    0.0000 </r>
       <r>    6.0788    0.0000 </r>
       <r>    6.2775    0.0000 </r>
       <r>    6.3726    0.0000 </r>
       <r>    8.9006    0.0000 </r>
      </set>
      <set comment="kpoint 19">
       <r>  -20.4610    1.0000 </r>
       <r>   -9.3246    1.0000 </r>
       <r>   -8.3744    1.0000 </r>
       <r>   -7.0432    1.0000 </r>
       <r>    2.6626    0.0000 </r>
       <r>    3.5668    0.0000 </r>
       <r>    4.1006    0.0000 </r>
       <r>    5.2163    0.0000 </r>
       <r>    6.0255    0.0000 </r>
       <r>    6.1776    0.0000 </r>
       <r>    6.7912    0.0000 </r>
       <r>    9.8137    0.0000 </r>
      </set>
      <set comment="kpoint 20">
       <r>  -19.9960    1.0000 </r>
       <r>  -10.3969    1.0000 </r>
       <r>   -7.8404    1.0000 </r>
       <r>   -7.4336    1.0000 </r>
       <r>    3.3039    0.0000 </r>
       <r>    3.9626    0.0000 </r>
       <r>    4.3818    0.0000 </r>
       <r>    4.7552    0.0000 </r>
       <r>    6.1156    0.0000 </r>
       <r>    6.6515    0.0000 </r>
       <r>    7.4116    0.0000 </r>
       <r>   10.4160    0.0000 </r>
      </set>
      <set comment="kpoint 21">
       <r>  -19.4587    1.0000 </r>
       <r>  -11.4734    1.0000 </r>
       <r>   -7.7796    1.0000 </r>
       <r>   -7.2360    1.0000 </r>
       <r>    2.9627    0.0000 </r>
       <r>    4.0494    0.0000 </r>
       <r>    5.0104    0.0000 </r>
       <r>    5.5130    0.0000 </r>
       <r>    6.0176    0.0000 </r>
       <r>    7.3929    0.0000 </r>
       <r>    8.1518    0.0000 </r>
       <r>   11.0994    0.0000 </r>
      </set>
      <set comment="kpoint 22">
       <r>  -18.8532    1.0000 </r>
       <r>  -12.5297    1.0000 </r>
       <r>   -8.0683    1.0000 </r>
       <r>   -6.5783    1.0000 </r>
       <r>    1.8656    0.0000 </r>
       <r>    4.8943    0.0000 </r>
       <r>    5.8579    0.0000 </r>
       <r>    5.8895    0.0000 </r>
       <r>    6.4097    0.0000 </r>
       <r>    8.2365    0.0000 </r>
       <r>    8.9998    0.0000 </r>
       <r>   11.8329    0.0000 </r>
      </set>
      <set comment="kpoint 23">
       <r>  -18.1883    1.0000 </r>
       <r>  -13.5432    1.0000 </r>
       <r>   -8.2911    1.0000 </r>
       <r>   -5.9012    1.0000 </r>
       <r>    0.8363    0.0000 </r>
       <r>    5.6961    0.0000 </r>
       <r>    5.9519    0.0000 </r>
       <r>    6.8133    0.0000 </r>
       <r>    7.3845    0.0000 </r>
       <r>    9.1754    0.0000 </r>
       <r>    9.9498    0.0000 </r>
       <r>   11.7970    0.0000 </r>
      </set>
      <set comment="kpoint 24">
       <r>  -17.4878    1.0000 </r>
       <r>  -14.4806    1.0000 </r>
       <r>   -8.4423    1.0000 </r>
       <r>   -5.2774    1.0000 </r>
       <r>   -0.0316    0.0000 </r>
       <r>    5.7025    0.0000 </r>
       <r>    6.9289    0.0000 </r>
       <r>    7.8674    0.0000 </r>
       <r>    8.4726    0.0000 </r>
       <r>   10.1905    0.0000 </r>
       <r>   10.5687    0.0000 </r>
       <r>   11.0112    0.0000 </r>
      </set>
      <set comment="kpoint 25">
       <r>  -16.8652    1.0000 </r>
       <r>  -15.2231    1.0000 </r>
       <r>   -8.5185    1.0000 </r>
       <r>   -4.8618    1.0000 </r>
       <r>   -0.5719    0.0000 </r>
       <r>    5.6710    0.0000 </r>
       <r>    8.0645    0.0000 </r>
       <r>    9.0067    0.0000 </r>
       <r>    9.3041    0.0000 </r>
       <r>    9.6730    0.0000 </r>
       <r>   10.2333    0.0000 </r>
       <r>   10.9721    0.0000 </r>
      </set>
      <set comment="kpoint 26">
       <r>  -16.8638    1.0000 </r>
       <r>  -15.2247    1.0000 </r>
       <r>   -8.5181    1.0000 </r>
       <r>   -4.8612    1.0000 </r>
       <r>   -0.5726    0.0000 </r>
       <r>    5.6706    0.0000 </r>
       <r>    8.0680    0.0000 </r>
       <r>    9.0099    0.0000 </r>
       <r>    9.3000    0.0000 </r>
       <r>    9.6764    0.0000 </r>
       <r>   10.2301    0.0000 </r>
       <r>   10.9683    0.0000 </r>
      </set>
      <set comment="kpoint 27">
       <r>  -17.4857    1.0000 </r>
       <r>  -14.4835    1.0000 </r>
       <r>   -8.4410    1.0000 </r>
       <r>   -5.2759    1.0000 </r>
       <r>   -0.0333    0.0000 </r>
       <r>    5.7014    0.0000 </r>
       <r>    6.9319    0.0000 </r>
       <r>    7.8705    0.0000 </r>
       <r>    8.4757    0.0000 </r>
       <r>   10.1935    0.0000 </r>
       <r>   10.5634    0.0000 </r>
       <r>   11.0143    0.0000 </r>
      </set>
      <set comment="kpoint 28">
       <r>  -18.1862    1.0000 </r>
       <r>  -13.5465    1.0000 </r>
       <r>   -8.2889    1.0000 </r>
       <r>   -5.8993    1.0000 </r>
       <r>    0.8341    0.0000 </r>
       <r>    5.6965    0.0000 </r>
       <r>    5.9525    0.0000 </r>
       <r>    6.8161    0.0000 </r>
       <r>    7.3872    0.0000 </r>
       <r>    9.1783    0.0000 </r>
       <r>    9.9526    0.0000 </r>
       <r>   11.7867    0.0000 </r>
      </set>
      <set comment="kpoint 29">
       <r>  -18.8514    1.0000 </r>
       <r>  -12.5333    1.0000 </r>
       <r>   -8.0653    1.0000 </r>
       <r>   -6.5764    1.0000 </r>
       <r>    1.8634    0.0000 </r>
       <r>    4.8969    0.0000 </r>
       <r>    5.8604    0.0000 </r>
       <r>    5.8871    0.0000 </r>
       <r>    6.4120    0.0000 </r>
       <r>    8.2391    0.0000 </r>
       <r>    9.0023    0.0000 </r>
       <r>   11.8358    0.0000 </r>
      </set>
      <set comment="kpoint 30">
       <r>  -19.4570    1.0000 </r>
       <r>  -11.4772    1.0000 </r>
       <r>   -7.7758    1.0000 </r>
       <r>   -7.2342    1.0000 </r>
       <r>    2.9607    0.0000 </r>
       <r>    4.0517    0.0000 </r>
       <r>    5.0127    0.0000 </r>
       <r>    5.5152    0.0000 </r>
       <r>    6.0146    0.0000 </r>
       <r>    7.3952    0.0000 </r>
       <r>    8.1539    0.0000 </r>
       <r>   11.1020    0.0000 </r>
      </set>
      <set comment="kpoint 31">
       <r>  -19.9946    1.0000 </r>
       <r>  -10.4008    1.0000 </r>
       <r>   -7.8388    1.0000 </r>
       <r>   -7.4293    1.0000 </r>
       <r>    3.3058    0.0000 </r>
       <r>    3.9617    0.0000 </r>
       <r>    4.3830    0.0000 </r>
       <r>    4.7572    0.0000 </r>
       <r>    6.1127    0.0000 </r>
       <r>    6.6535    0.0000 </r>
       <r>    7.4133    0.0000 </r>
       <r>   10.4182    0.0000 </r>
      </set>
      <set comment="kpoint 32">
       <r>  -20.4598    1.0000 </r>
       <r>   -9.3285    1.0000 </r>
       <r>   -8.3730    1.0000 </r>
       <r>   -7.0386    1.0000 </r>
       <r>    2.6643    0.0000 </r>
       <r>    3.5682    0.0000 </r>
       <r>    4.1023    0.0000 </r>
       <r>    5.2153    0.0000 </r>
       <r>    6.0273    0.0000 </r>
       <r>    6.1757    0.0000 </r>
       <r>    6.7921    0.0000 </r>
       <r>    9.8155    0.0000 </r>
      </set>
      <set comment="kpoint 33">
       <r>  -20.8502    1.0000 </r>
       <r>   -8.8272    1.0000 </r>
       <r>   -8.2922    1.0000 </r>
       <r>   -6.6227    1.0000 </r>
       <r>    2.1286    0.0000 </r>
       <r>    3.0396    0.0000 </r>
       <r>    3.5558    0.0000 </r>
       <r>    5.4479    0.0000 </r>
       <r>    6.0799    0.0000 </r>
       <r>    6.2775    0.0000 </r>
       <r>    6.3719    0.0000 </r>
       <r>    8.8601    0.0000 </r>
      </set>
      <set comment="kpoint 34">
       <r>  -21.1641    1.0000 </r>
       <r>   -9.1956    1.0000 </r>
       <r>   -7.3347    1.0000 </r>
       <r>   -6.2089    1.0000 </r>
       <r>    1.6996    0.0000 </r>
       <r>    2.6103    0.0000 </r>
       <r>    3.1184    0.0000 </r>
       <r>    5.0314    0.0000 </r>
       <r>    5.7434    0.0000 </r>
       <r>    6.1974    0.0000 </r>
       <r>    7.1740    0.0000 </r>
       <r>    7.9120    0.0000 </r>
      </set>
      <set comment="kpoint 35">
       <r>  -21.4004    1.0000 </r>
       <r>   -9.4745    1.0000 </r>
       <r>   -6.5127    1.0000 </r>
       <r>   -5.8352    1.0000 </r>
       <r>    1.3778    0.0000 </r>
       <r>    2.2868    0.0000 </r>
       <r>    2.7903    0.0000 </r>
       <r>    4.7113    0.0000 </r>
       <r>    5.4406    0.0000 </r>
       <r>    6.0006    0.0000 </r>
       <r>    7.1302    0.0000 </r>
       <r>    7.9173    0.0000 </r>
      </set>
      <set comment="kpoint 36">
       <r>  -21.5583    1.0000 </r>
       <r>   -9.6615    1.0000 </r>
       <r>   -5.8941    1.0000 </r>
       <r>   -5.5507    1.0000 </r>
       <r>    1.1633    0.0000 </r>
       <r>    2.0707    0.0000 </r>
       <r>    2.5716    0.0000 </r>
       <r>    4.4968    0.0000 </r>
       <r>    5.2355    0.0000 </r>
       <r>    5.8050    0.0000 </r>
       <r>    6.5358    0.0000 </r>
       <r>    8.3674    0.0000 </r>
      </set>
      <set comment="kpoint 37">
       <r>  -21.6375    1.0000 </r>
       <r>   -9.7555    1.0000 </r>
       <r>   -5.5465    1.0000 </r>
       <r>   -5.4070    1.0000 </r>
       <r>    1.0560    0.0000 </r>
       <r>    1.9624    0.0000 </r>
       <r>    2.4622    0.0000 </r>
       <r>    4.3893    0.0000 </r>
       <r>    5.1339    0.0000 </r>
       <r>    5.7085    0.0000 </r>
       <r>    6.1809    0.0000 </r>
       <r>    8.2684    0.0000 </r>
      </set>
      <set comment="kpoint 38">
       <r>  -21.5145    1.0000 </r>
       <r>   -9.6093    1.0000 </r>
       <r>   -5.9582    1.0000 </r>
       <r>   -5.7182    1.0000 </r>
       <r>    1.2230    0.0000 </r>
       <r>    2.1305    0.0000 </r>
       <r>    2.6322    0.0000 </r>
       <r>    4.5563    0.0000 </r>
       <r>    5.2953    0.0000 </r>
       <r>    5.8776    0.0000 </r>
       <r>    6.5202    0.0000 </r>
       <r>    8.4302    0.0000 </r>
      </set>
      <set comment="kpoint 39">
       <r>  -21.3964    1.0000 </r>
       <r>   -9.4694    1.0000 </r>
       <r>   -6.4049    1.0000 </r>
       <r>   -5.9456    1.0000 </r>
       <r>    1.3834    0.0000 </r>
       <r>    2.2922    0.0000 </r>
       <r>    2.7957    0.0000 </r>
       <r>    4.7169    0.0000 </r>
       <r>    5.4459    0.0000 </r>
       <r>    5.9495    0.0000 </r>
       <r>    7.0725    0.0000 </r>
       <r>    7.9343    0.0000 </r>
      </set>
      <set comment="kpoint 40">
       <r>  -21.1997    1.0000 </r>
       <r>   -9.2371    1.0000 </r>
       <r>   -7.0607    1.0000 </r>
       <r>   -6.3130    1.0000 </r>
       <r>    1.6511    0.0000 </r>
       <r>    2.5616    0.0000 </r>
       <r>    3.0687    0.0000 </r>
       <r>    4.9840    0.0000 </r>
       <r>    5.7030    0.0000 </r>
       <r>    6.2152    0.0000 </r>
       <r>    7.3165    0.0000 </r>
       <r>    7.6524    0.0000 </r>
      </set>
      <set comment="kpoint 41">
       <r>  -20.9251    1.0000 </r>
       <r>   -8.9143    1.0000 </r>
       <r>   -7.8880    1.0000 </r>
       <r>   -6.7463    1.0000 </r>
       <r>    2.0261    0.0000 </r>
       <r>    2.9378    0.0000 </r>
       <r>    3.4511    0.0000 </r>
       <r>    5.3553    0.0000 </r>
       <r>    6.0610    0.0000 </r>
       <r>    6.5209    0.0000 </r>
       <r>    6.5273    0.0000 </r>
       <r>    8.2588    0.0000 </r>
      </set>
      <set comment="kpoint 42">
       <r>  -20.5736    1.0000 </r>
       <r>   -8.8364    1.0000 </r>
       <r>   -8.5037    1.0000 </r>
       <r>   -7.1917    1.0000 </r>
       <r>    2.5081    0.0000 </r>
       <r>    3.4184    0.0000 </r>
       <r>    3.9428    0.0000 </r>
       <r>    5.5507    0.0000 </r>
       <r>    5.8736    0.0000 </r>
       <r>    6.4631    0.0000 </r>
       <r>    6.7799    0.0000 </r>
       <r>    9.0018    0.0000 </r>
      </set>
      <set comment="kpoint 43">
       <r>  -20.1466    1.0000 </r>
       <r>   -9.8562    1.0000 </r>
       <r>   -8.0100    1.0000 </r>
       <r>   -7.6158    1.0000 </r>
       <r>    3.0965    0.0000 </r>
       <r>    3.9752    0.0000 </r>
       <r>    4.5435    0.0000 </r>
       <r>    4.5800    0.0000 </r>
       <r>    6.4347    0.0000 </r>
       <r>    6.6244    0.0000 </r>
       <r>    7.2284    0.0000 </r>
       <r>   10.2033    0.0000 </r>
      </set>
      <set comment="kpoint 44">
       <r>  -19.6460    1.0000 </r>
       <r>  -10.9069    1.0000 </r>
       <r>   -7.9976    1.0000 </r>
       <r>   -7.4404    1.0000 </r>
       <r>    3.4303    0.0000 </r>
       <r>    3.7903    0.0000 </r>
       <r>    4.7419    0.0000 </r>
       <r>    5.2525    0.0000 </r>
       <r>    6.5821    0.0000 </r>
       <r>    7.1217    0.0000 </r>
       <r>    7.8971    0.0000 </r>
       <r>   10.8293    0.0000 </r>
      </set>
      <set comment="kpoint 45">
       <r>  -19.0752    1.0000 </r>
       <r>  -11.9573    1.0000 </r>
       <r>   -8.3235    1.0000 </r>
       <r>   -6.8075    1.0000 </r>
       <r>    2.3502    0.0000 </r>
       <r>    4.5875    0.0000 </r>
       <r>    5.5317    0.0000 </r>
       <r>    6.0632    0.0000 </r>
       <r>    6.4963    0.0000 </r>
       <r>    7.9101    0.0000 </r>
       <r>    8.6879    0.0000 </r>
       <r>   11.5030    0.0000 </r>
      </set>
      <set comment="kpoint 46">
       <r>  -18.4400    1.0000 </r>
       <r>  -12.9820    1.0000 </r>
       <r>   -8.5844    1.0000 </r>
       <r>   -6.1344    1.0000 </r>
       <r>    1.2979    0.0000 </r>
       <r>    5.4822    0.0000 </r>
       <r>    6.3816    0.0000 </r>
       <r>    6.4319    0.0000 </r>
       <r>    7.0121    0.0000 </r>
       <r>    8.7924    0.0000 </r>
       <r>    9.5847    0.0000 </r>
       <r>   12.1065    0.0000 </r>
      </set>
      <set comment="kpoint 47">
       <r>  -17.7543    1.0000 </r>
       <r>  -13.9542    1.0000 </r>
       <r>   -8.7742    1.0000 </r>
       <r>   -5.4694    1.0000 </r>
       <r>    0.3478    0.0000 </r>
       <r>    6.2374    0.0000 </r>
       <r>    6.5500    0.0000 </r>
       <r>    7.4300    0.0000 </r>
       <r>    8.0422    0.0000 </r>
       <r>    9.7517    0.0000 </r>
       <r>   10.5750    0.0000 </r>
       <r>   11.2510    0.0000 </r>
      </set>
      <set comment="kpoint 48">
       <r>  -17.0665    1.0000 </r>
       <r>  -14.8171    1.0000 </r>
       <r>   -8.8891    1.0000 </r>
       <r>   -4.9199    1.0000 </r>
       <r>   -0.3783    0.0000 </r>
       <r>    6.2242    0.0000 </r>
       <r>    7.6049    0.0000 </r>
       <r>    8.5126    0.0000 </r>
       <r>    9.1817    0.0000 </r>
       <r>   10.0362    0.0000 </r>
       <r>   10.6062    0.0000 </r>
       <r>   11.1262    0.0000 </r>
      </set>
      <set comment="kpoint 49">
       <r>  -16.6593    1.0000 </r>
       <r>  -15.2835    1.0000 </r>
       <r>   -8.9271    1.0000 </r>
       <r>   -4.6881    1.0000 </r>
       <r>   -0.6699    0.0000 </r>
       <r>    6.2082    0.0000 </r>
       <r>    8.6884    0.0000 </r>
       <r>    8.8901    0.0000 </r>
       <r>    9.5123    0.0000 </r>
       <r>    9.8483    0.0000 </r>
       <r>   10.4158    0.0000 </r>
       <r>   10.4522    0.0000 </r>
      </set>
      <set comment="kpoint 50">
       <r>  -17.0626    1.0000 </r>
       <r>  -14.8220    1.0000 </r>
       <r>   -8.8874    1.0000 </r>
       <r>   -4.9175    1.0000 </r>
       <r>   -0.3810    0.0000 </r>
       <r>    6.2229    0.0000 </r>
       <r>    7.6114    0.0000 </r>
       <r>    8.5188    0.0000 </r>
       <r>    9.1882    0.0000 </r>
       <r>   10.0267    0.0000 </r>
       <r>   10.6078    0.0000 </r>
       <r>   11.1246    0.0000 </r>
      </set>
      <set comment="kpoint 51">
       <r>  -17.7501    1.0000 </r>
       <r>  -13.9604    1.0000 </r>
       <r>   -8.7708    1.0000 </r>
       <r>   -5.4660    1.0000 </r>
       <r>    0.3438    0.0000 </r>
       <r>    6.2369    0.0000 </r>
       <r>    6.5537    0.0000 </r>
       <r>    7.4358    0.0000 </r>
       <r>    8.0480    0.0000 </r>
       <r>    9.7575    0.0000 </r>
       <r>   10.5808    0.0000 </r>
       <r>   11.2361    0.0000 </r>
      </set>
      <set comment="kpoint 52">
       <r>  -18.4361    1.0000 </r>
       <r>  -12.9889    1.0000 </r>
       <r>   -8.5794    1.0000 </r>
       <r>   -6.1307    1.0000 </r>
       <r>    1.2936    0.0000 </r>
       <r>    5.4877    0.0000 </r>
       <r>    6.3776    0.0000 </r>
       <r>    6.4372    0.0000 </r>
       <r>    7.0171    0.0000 </r>
       <r>    8.7977    0.0000 </r>
       <r>    9.5900    0.0000 </r>
       <r>   12.1118    0.0000 </r>
      </set>
      <set comment="kpoint 53">
       <r>  -19.0716    1.0000 </r>
       <r>  -11.9647    1.0000 </r>
       <r>   -8.3171    1.0000 </r>
       <r>   -6.8038    1.0000 </r>
       <r>    2.3461    0.0000 </r>
       <r>    4.5924    0.0000 </r>
       <r>    5.5365    0.0000 </r>
       <r>    6.0679    0.0000 </r>
       <r>    6.4913    0.0000 </r>
       <r>    7.9149    0.0000 </r>
       <r>    8.6924    0.0000 </r>
       <r>   11.5084    0.0000 </r>
      </set>
      <set comment="kpoint 54">
       <r>  -19.6429    1.0000 </r>
       <r>  -10.9146    1.0000 </r>
       <r>   -7.9901    1.0000 </r>
       <r>   -7.4371    1.0000 </r>
       <r>    3.4269    0.0000 </r>
       <r>    3.7945    0.0000 </r>
       <r>    4.7462    0.0000 </r>
       <r>    5.2566    0.0000 </r>
       <r>    6.5770    0.0000 </r>
       <r>    7.1260    0.0000 </r>
       <r>    7.9008    0.0000 </r>
       <r>   10.8340    0.0000 </r>
      </set>
      <set comment="kpoint 55">
       <r>  -20.1439    1.0000 </r>
       <r>   -9.8638    1.0000 </r>
       <r>   -8.0070    1.0000 </r>
       <r>   -7.6077    1.0000 </r>
       <r>    3.1001    0.0000 </r>
       <r>    3.9777    0.0000 </r>
       <r>    4.5471    0.0000 </r>
       <r>    4.5787    0.0000 </r>
       <r>    6.4385    0.0000 </r>
       <r>    6.6207    0.0000 </r>
       <r>    7.2306    0.0000 </r>
       <r>    9.8434    0.0000 </r>
      </set>
      <set comment="kpoint 56">
       <r>  -20.5714    1.0000 </r>
       <r>   -8.8432    1.0000 </r>
       <r>   -8.5012    1.0000 </r>
       <r>   -7.1839    1.0000 </r>
       <r>    2.5112    0.0000 </r>
       <r>    3.4212    0.0000 </r>
       <r>    3.9458    0.0000 </r>
       <r>    5.5494    0.0000 </r>
       <r>    5.8771    0.0000 </r>
       <r>    6.4647    0.0000 </r>
       <r>    6.7774    0.0000 </r>
       <r>    8.9390    0.0000 </r>
      </set>
      <set comment="kpoint 57">
       <r>  -20.9234    1.0000 </r>
       <r>   -8.9122    1.0000 </r>
       <r>   -7.8927    1.0000 </r>
       <r>   -6.7406    1.0000 </r>
       <r>    2.0286    0.0000 </r>
       <r>    2.9401    0.0000 </r>
       <r>    3.4535    0.0000 </r>
       <r>    5.3575    0.0000 </r>
       <r>    6.0636    0.0000 </r>
       <r>    6.5214    0.0000 </r>
       <r>    6.5242    0.0000 </r>
       <r>    8.2046    0.0000 </r>
      </set>
      <set comment="kpoint 58">
       <r>  -21.1984    1.0000 </r>
       <r>   -9.2355    1.0000 </r>
       <r>   -7.0609    1.0000 </r>
       <r>   -6.3120    1.0000 </r>
       <r>    1.6529    0.0000 </r>
       <r>    2.5633    0.0000 </r>
       <r>    3.0705    0.0000 </r>
       <r>    4.9858    0.0000 </r>
       <r>    5.7052    0.0000 </r>
       <r>    6.2120    0.0000 </r>
       <r>    7.3177    0.0000 </r>
       <r>    7.6120    0.0000 </r>
      </set>
      <set comment="kpoint 59">
       <r>  -21.3955    1.0000 </r>
       <r>   -9.4683    1.0000 </r>
       <r>   -6.3984    1.0000 </r>
       <r>   -5.9517    1.0000 </r>
       <r>    1.3846    0.0000 </r>
       <r>    2.2934    0.0000 </r>
       <r>    2.7969    0.0000 </r>
       <r>    4.7180    0.0000 </r>
       <r>    5.4474    0.0000 </r>
       <r>    5.9479    0.0000 </r>
       <r>    7.0467    0.0000 </r>
       <r>    7.9357    0.0000 </r>
      </set>
      <set comment="kpoint 60">
       <r>  -21.5141    1.0000 </r>
       <r>   -9.6088    1.0000 </r>
       <r>   -5.9460    1.0000 </r>
       <r>   -5.7302    1.0000 </r>
       <r>    1.2236    0.0000 </r>
       <r>    2.1311    0.0000 </r>
       <r>    2.6327    0.0000 </r>
       <r>    4.5569    0.0000 </r>
       <r>    5.2961    0.0000 </r>
       <r>    5.8799    0.0000 </r>
       <r>    6.5054    0.0000 </r>
       <r>    8.4306    0.0000 </r>
      </set>
      <set comment="kpoint 61">
       <r>  -21.5538    1.0000 </r>
       <r>   -9.6558    1.0000 </r>
       <r>   -5.7620    1.0000 </r>
       <r>   -5.6782    1.0000 </r>
       <r>    1.1697    0.0000 </r>
       <r>    2.0768    0.0000 </r>
       <r>    2.5778    0.0000 </r>
       <r>    4.5029    0.0000 </r>
       <r>    5.2461    0.0000 </r>
       <r>    6.0108    0.0000 </r>
       <r>    6.1527    0.0000 </r>
       <r>    8.3786    0.0000 </r>
      </set>
      <set comment="kpoint 62">
       <r>  -21.3097    1.0000 </r>
       <r>   -9.3665    1.0000 </r>
       <r>   -6.6624    1.0000 </r>
       <r>   -6.0986    1.0000 </r>
       <r>    1.5014    0.0000 </r>
       <r>    2.4106    0.0000 </r>
       <r>    2.9157    0.0000 </r>
       <r>    4.8345    0.0000 </r>
       <r>    5.5529    0.0000 </r>
       <r>    5.8933    0.0000 </r>
       <r>    7.2573    0.0000 </r>
       <r>    7.6951    0.0000 </r>
      </set>
      <set comment="kpoint 63">
       <r>  -21.1526    1.0000 </r>
       <r>   -9.1811    1.0000 </r>
       <r>   -7.1416    1.0000 </r>
       <r>   -6.4148    1.0000 </r>
       <r>    1.7152    0.0000 </r>
       <r>    2.6259    0.0000 </r>
       <r>    3.1338    0.0000 </r>
       <r>    5.0480    0.0000 </r>
       <r>    5.7333    0.0000 </r>
       <r>    6.0074    0.0000 </r>
       <r>    7.2137    0.0000 </r>
       <r>    7.8972    0.0000 </r>
      </set>
      <set comment="kpoint 64">
       <r>  -20.9175    1.0000 </r>
       <r>   -8.9046    1.0000 </r>
       <r>   -7.7628    1.0000 </r>
       <r>   -6.8830    1.0000 </r>
       <r>    2.0364    0.0000 </r>
       <r>    2.9484    0.0000 </r>
       <r>    3.4613    0.0000 </r>
       <r>    5.3678    0.0000 </r>
       <r>    6.0448    0.0000 </r>
       <r>    6.3622    0.0000 </r>
       <r>    6.5440    0.0000 </r>
       <r>    8.3562    0.0000 </r>
      </set>
      <set comment="kpoint 65">
       <r>  -20.6051    1.0000 </r>
       <r>   -8.5391    1.0000 </r>
       <r>   -8.5228    1.0000 </r>
[...]
       <r>   10.0552    0.0000 </r>
       <r>   11.1636    0.0000 </r>
       <r>   11.3829    0.0000 </r>
      </set>
      <set comment="kpoint 283">
       <r>  -17.2904    1.0000 </r>
       <r>  -13.1929    1.0000 </r>
       <r>  -10.8559    1.0000 </r>
       <r>   -4.8635    1.0000 </r>
       <r>    0.3016    0.0000 </r>
       <r>    7.1000    0.0000 </r>
       <r>    7.8057    0.0000 </r>
       <r>    8.3501    0.0000 </r>
       <r>    8.6659    0.0000 </r>
       <r>    9.8112    0.0000 </r>
       <r>   10.5825    0.0000 </r>
       <r>   11.2038    0.0000 </r>
      </set>
      <set comment="kpoint 284">
       <r>  -17.3246    1.0000 </r>
       <r>  -12.9375    1.0000 </r>
       <r>  -11.1230    1.0000 </r>
       <r>   -4.8816    1.0000 </r>
       <r>    0.3746    0.0000 </r>
       <r>    7.0500    0.0000 </r>
       <r>    7.7326    0.0000 </r>
       <r>    8.6042    0.0000 </r>
       <r>    9.4849    0.0000 </r>
       <r>    9.5741    0.0000 </r>
       <r>    9.7236    0.0000 </r>
       <r>   11.1451    0.0000 </r>
      </set>
      <set comment="kpoint 285">
       <r>  -17.2873    1.0000 </r>
       <r>  -13.1811    1.0000 </r>
       <r>  -10.8723    1.0000 </r>
       <r>   -4.8592    1.0000 </r>
       <r>    0.3036    0.0000 </r>
       <r>    7.1032    0.0000 </r>
       <r>    7.8069    0.0000 </r>
       <r>    8.2861    0.0000 </r>
       <r>    8.6684    0.0000 </r>
       <r>    9.8105    0.0000 </r>
       <r>   10.6420    0.0000 </r>
       <r>   11.2085    0.0000 </r>
      </set>
      <set comment="kpoint 286">
       <r>  -17.1795    1.0000 </r>
       <r>  -13.6970    1.0000 </r>
       <r>  -10.3384    1.0000 </r>
       <r>   -4.7997    1.0000 </r>
       <r>    0.1112    0.0000 </r>
       <r>    7.0947    0.0000 </r>
       <r>    7.2940    0.0000 </r>
       <r>    8.0169    0.0000 </r>
       <r>    8.8304    0.0000 </r>
       <r>   10.0548    0.0000 </r>
       <r>   11.2042    0.0000 </r>
       <r>   11.3974    0.0000 </r>
      </set>
      <set comment="kpoint 287">
       <r>  -17.0050    1.0000 </r>
       <r>  -14.2626    1.0000 </r>
       <r>   -9.7664    1.0000 </r>
       <r>   -4.7146    1.0000 </r>
       <r>   -0.1453    0.0000 </r>
       <r>    6.0871    0.0000 </r>
       <r>    7.5360    0.0000 </r>
       <r>    8.3389    0.0000 </r>
       <r>    9.1045    0.0000 </r>
       <r>   10.4061    0.0000 </r>
       <r>   10.9757    0.0000 </r>
       <r>   11.6164    0.0000 </r>
      </set>
      <set comment="kpoint 288">
       <r>  -16.7744    1.0000 </r>
       <r>  -14.7952    1.0000 </r>
       <r>   -9.2720    1.0000 </r>
       <r>   -4.6232    1.0000 </r>
       <r>   -0.3972    0.0000 </r>
       <r>    5.2697    0.0000 </r>
       <r>    7.9034    0.0000 </r>
       <r>    8.7540    0.0000 </r>
       <r>    9.4872    0.0000 </r>
       <r>   10.3085    0.0000 </r>
       <r>   10.7273    0.0000 </r>
       <r>   11.4260    0.0000 </r>
      </set>
      <set comment="kpoint 289">
       <r>  -16.5227    1.0000 </r>
       <r>  -15.2348    1.0000 </r>
       <r>   -8.9352    1.0000 </r>
       <r>   -4.5514    1.0000 </r>
       <r>   -0.5804    0.0000 </r>
       <r>    4.7382    0.0000 </r>
       <r>    8.3718    0.0000 </r>
       <r>    9.2474    0.0000 </r>
       <r>    9.5976    0.0000 </r>
       <r>    9.9810    0.0000 </r>
       <r>   10.4569    0.0000 </r>
       <r>   11.2799    0.0000 </r>
      </set>
      <set comment="kpoint 290">
       <r>  -16.3826    1.0000 </r>
       <r>  -15.4384    1.0000 </r>
       <r>   -8.8152    1.0000 </r>
       <r>   -4.5239    1.0000 </r>
       <r>   -0.6474    0.0000 </r>
       <r>    4.5531    0.0000 </r>
       <r>    8.8763    0.0000 </r>
       <r>    9.0083    0.0000 </r>
       <r>    9.6893    0.0000 </r>
       <r>    9.9914    0.0000 </r>
       <r>   10.5683    0.0000 </r>
       <r>   10.5877    0.0000 </r>
      </set>
     </set>
    </set>
   </array>
  </eigenvalues>
  <separator name="orbital magnetization" >
   <v name="MAGDIPOLOUT">      0.00000000      0.00000000      0.00000000</v>
  </separator>
  <dos>
   <i name="efermi">     -2.34431237 </i>
   <total>
    <array>
     <dimension dim="1">gridpoints</dimension>
     <dimension dim="2">spin</dimension>
     <field>energy</field>
     <field>total</field>
     <field>integrated</field>
     <set>
      <set comment="spin 1">
       <r>   -23.4202     0.0000     0.0000 </r>
       <r>   -23.2925     0.0000     0.0000 </r>
       <r>   -23.1648     0.0000     0.0000 </r>
       <r>   -23.0370     0.0000     0.0000 </r>
       <r>   -22.9093     0.0000     0.0000 </r>
       <r>   -22.7816     0.0000     0.0000 </r>
       <r>   -22.6539     0.0000     0.0000 </r>
       <r>   -22.5262     0.0000     0.0000 </r>
       <r>   -22.3985     0.0000     0.0000 </r>
       <r>   -22.2708     0.0000     0.0000 </r>
       <r>   -22.1431     0.0000     0.0000 </r>
       <r>   -22.0154     0.0000     0.0000 </r>
       <r>   -21.8877     0.0000     0.0000 </r>
       <r>   -21.7600     0.0000     0.0000 </r>
       <r>   -21.6323     0.1348     0.0172 </r>
       <r>   -21.5045     0.3481     0.0617 </r>
       <r>   -21.3768     0.3219     0.1028 </r>
       <r>   -21.2491     0.2012     0.1285 </r>
       <r>   -21.1214     0.4780     0.1895 </r>
       <r>   -20.9937     0.1722     0.2115 </r>
       <r>   -20.8660     0.3396     0.2549 </r>
       <r>   -20.7383     0.3152     0.2951 </r>
       <r>   -20.6106     0.1974     0.3204 </r>
       <r>   -20.4829     0.4608     0.3792 </r>
       <r>   -20.3552     0.3201     0.4201 </r>
       <r>   -20.2275     0.0922     0.4319 </r>
       <r>   -20.0998     0.5957     0.5080 </r>
       <r>   -19.9720     0.2321     0.5376 </r>
       <r>   -19.8443     0.2218     0.5660 </r>
       <r>   -19.7166     0.3615     0.6121 </r>
       <r>   -19.5889     0.4647     0.6716 </r>
       <r>   -19.4612     0.1960     0.6966 </r>
       <r>   -19.3335     0.2751     0.7318 </r>
       <r>   -19.2058     0.3228     0.7730 </r>
       <r>   -19.0781     0.5066     0.8377 </r>
       <r>   -18.9504     0.2552     0.8703 </r>
       <r>   -18.8227     0.1709     0.8921 </r>
       <r>   -18.6950     0.4435     0.9488 </r>
       <r>   -18.5673     0.3687     0.9959 </r>
       <r>   -18.4395     0.3310     1.0381 </r>
       <r>   -18.3118     0.2663     1.0721 </r>
       <r>   -18.1841     0.1790     1.0950 </r>
       <r>   -18.0564     0.4017     1.1463 </r>
       <r>   -17.9287     0.5181     1.2125 </r>
       <r>   -17.8010     0.2666     1.2466 </r>
       <r>   -17.6733     0.3047     1.2855 </r>
       <r>   -17.5456     0.1803     1.3085 </r>
       <r>   -17.4179     0.5196     1.3749 </r>
       <r>   -17.2902     0.3544     1.4202 </r>
       <r>   -17.1625     0.4704     1.4803 </r>
       <r>   -17.0348     0.2392     1.5108 </r>
       <r>   -16.9070     0.1923     1.5354 </r>
       <r>   -16.7793     0.6285     1.6157 </r>
       <r>   -16.6516     0.3683     1.6627 </r>
       <r>   -16.5239     0.5867     1.7377 </r>
       <r>   -16.3962     0.1954     1.7626 </r>
       <r>   -16.2685     0.3759     1.8106 </r>
       <r>   -16.1408     0.3210     1.8517 </r>
       <r>   -16.0131     0.1636     1.8726 </r>
       <r>   -15.8854     0.2602     1.9058 </r>
       <r>   -15.7577     0.2479     1.9375 </r>
       <r>   -15.6300     0.0000     1.9375 </r>
       <r>   -15.5023     0.1396     1.9553 </r>
       <r>   -15.3745     0.2650     1.9892 </r>
       <r>   -15.2468     0.2017     2.0149 </r>
       <r>   -15.1191     0.3995     2.0660 </r>
       <r>   -14.9914     0.4197     2.1196 </r>
       <r>   -14.8637     0.2001     2.1452 </r>
       <r>   -14.7360     0.4255     2.1995 </r>
       <r>   -14.6083     0.5455     2.2692 </r>
       <r>   -14.4806     0.3699     2.3165 </r>
       <r>   -14.3529     0.4084     2.3687 </r>
       <r>   -14.2252     0.5110     2.4340 </r>
       <r>   -14.0975     0.2397     2.4646 </r>
       <r>   -13.9698     0.3432     2.5085 </r>
       <r>   -13.8420     0.4037     2.5601 </r>
       <r>   -13.7143     0.3650     2.6067 </r>
       <r>   -13.5866     0.2732     2.6416 </r>
       <r>   -13.4589     0.2298     2.6709 </r>
       <r>   -13.3312     0.5045     2.7354 </r>
       <r>   -13.2035     0.1570     2.7555 </r>
       <r>   -13.0758     0.3220     2.7966 </r>
       <r>   -12.9481     0.1811     2.8197 </r>
       <r>   -12.8204     0.3509     2.8646 </r>
       <r>   -12.6927     0.4859     2.9267 </r>
       <r>   -12.5650     0.0260     2.9300 </r>
       <r>   -12.4373     0.4287     2.9848 </r>
       <r>   -12.3095     0.5328     3.0528 </r>
       <r>   -12.1818     0.2856     3.0893 </r>
       <r>   -12.0541     0.3076     3.1286 </r>
       <r>   -11.9264     0.3574     3.1742 </r>
       <r>   -11.7987     0.5660     3.2465 </r>
       <r>   -11.6710     0.3562     3.2921 </r>
       <r>   -11.5433     0.3562     3.3376 </r>
       <r>   -11.4156     0.2678     3.3718 </r>
       <r>   -11.2879     0.3275     3.4136 </r>
       <r>   -11.1602     0.5049     3.4781 </r>
       <r>   -11.0325     0.3424     3.5219 </r>
       <r>   -10.9048     0.5487     3.5919 </r>
       <r>   -10.7770     0.2628     3.6255 </r>
       <r>   -10.6493     0.4420     3.6820 </r>
       <r>   -10.5216     0.3817     3.7307 </r>
       <r>   -10.3939     0.5214     3.7973 </r>
       <r>   -10.2662     0.3715     3.8447 </r>
       <r>   -10.1385     0.5169     3.9107 </r>
       <r>   -10.0108     0.4440     3.9675 </r>
       <r>    -9.8831     0.2498     3.9994 </r>
       <r>    -9.7554     0.7933     4.1007 </r>
       <r>    -9.6277     0.6723     4.1866 </r>
       <r>    -9.5000     0.6486     4.2696 </r>
       <r>    -9.3723     0.8152     4.3737 </r>
       <r>    -9.2445     0.9837     4.4994 </r>
       <r>    -9.1168     0.9499     4.6207 </r>
       <r>    -8.9891     0.6092     4.6985 </r>
       <r>    -8.8614     1.0252     4.8295 </r>
       <r>    -8.7337     1.0108     4.9586 </r>
       <r>    -8.6060     1.0699     5.0953 </r>
       <r>    -8.4783     1.0504     5.2295 </r>
       <r>    -8.3506     0.9334     5.3488 </r>
       <r>    -8.2229     0.7933     5.4501 </r>
       <r>    -8.0952     0.4827     5.5117 </r>
       <r>    -7.9675     1.1520     5.6588 </r>
       <r>    -7.8398     0.6569     5.7428 </r>
       <r>    -7.7121     1.0772     5.8804 </r>
       <r>    -7.5843     0.2196     5.9084 </r>
       <r>    -7.4566     0.6916     5.9968 </r>
       <r>    -7.3289     1.0290     6.1282 </r>
       <r>    -7.2012     0.4012     6.1795 </r>
       <r>    -7.0735     0.5981     6.2560 </r>
       <r>    -6.9458     0.6830     6.3433 </r>
       <r>    -6.8181     0.8450     6.4513 </r>
       <r>    -6.6904     0.4987     6.5150 </r>
       <r>    -6.5627     0.4475     6.5721 </r>
       <r>    -6.4350     0.3270     6.6139 </r>
       <r>    -6.3073     1.0354     6.7461 </r>
       <r>    -6.1796     0.5956     6.8222 </r>
       <r>    -6.0518     0.4938     6.8854 </r>
       <r>    -5.9241     0.5274     6.9528 </r>
       <r>    -5.7964     0.3970     7.0035 </r>
       <r>    -5.6687     0.7426     7.0984 </r>
       <r>    -5.5410     0.6677     7.1837 </r>
       <r>    -5.4133     0.4652     7.2431 </r>
       <r>    -5.2856     0.3992     7.2941 </r>
       <r>    -5.1579     0.2800     7.3299 </r>
       <r>    -5.0302     0.4871     7.3921 </r>
       <r>    -4.9025     0.5153     7.4579 </r>
       <r>    -4.7748     0.6216     7.5373 </r>
       <r>    -4.6471     0.3137     7.5774 </r>
       <r>    -4.5193     0.4695     7.6374 </r>
       <r>    -4.3916     0.3196     7.6782 </r>
       <r>    -4.2639     0.5863     7.7532 </r>
       <r>    -4.1362     0.4584     7.8117 </r>
       <r>    -4.0085     0.0061     7.8125 </r>
       <r>    -3.8808     0.2171     7.8403 </r>
       <r>    -3.7531     0.1457     7.8589 </r>
       <r>    -3.6254     0.3946     7.9093 </r>
       <r>    -3.4977     0.1018     7.9223 </r>
       <r>    -3.3700     0.1189     7.9375 </r>
       <r>    -3.2423     0.0515     7.9441 </r>
       <r>    -3.1146     0.1058     7.9576 </r>
       <r>    -2.9868     0.1409     7.9756 </r>
       <r>    -2.8591     0.0467     7.9815 </r>
       <r>    -2.7314     0.0901     7.9931 </r>
       <r>    -2.6037     0.0000     7.9931 </r>
       <r>    -2.4760     0.0059     7.9938 </r>
       <r>    -2.3483     0.0485     8.0000 </r>
       <r>    -2.2206     0.0000     8.0000 </r>
       <r>    -2.0929     0.0544     8.0069 </r>
       <r>    -1.9652     0.0000     8.0069 </r>
       <r>    -1.8375     0.0000     8.0069 </r>
       <r>    -1.7098     0.1088     8.0208 </r>
       <r>    -1.5821     0.1123     8.0352 </r>
       <r>    -1.4543     0.1094     8.0492 </r>
       <r>    -1.3266     0.1045     8.0625 </r>
       <r>    -1.1989     0.0546     8.0695 </r>
       <r>    -1.0712     0.1814     8.0926 </r>
       <r>    -0.9435     0.5109     8.1579 </r>
       <r>    -0.8158     0.2648     8.1917 </r>
       <r>    -0.6881     0.2111     8.2187 </r>
       <r>    -0.5604     0.7704     8.3171 </r>
       <r>    -0.4327     0.4229     8.3711 </r>
       <r>    -0.3050     0.7847     8.4713 </r>
       <r>    -0.1773     0.1994     8.4968 </r>
       <r>    -0.0496     0.3284     8.5387 </r>
       <r>     0.0782     0.3238     8.5800 </r>
       <r>     0.2059     0.2357     8.6102 </r>
       <r>     0.3336     0.2191     8.6382 </r>
       <r>     0.4613     0.7151     8.7295 </r>
       <r>     0.5890     0.1327     8.7465 </r>
       <r>     0.7167     0.0399     8.7516 </r>
       <r>     0.8444     0.3646     8.7982 </r>
       <r>     0.9721     0.2481     8.8299 </r>
       <r>     1.0998     0.4083     8.8821 </r>
       <r>     1.2275     0.4897     8.9447 </r>
       <r>     1.3552     0.5016     9.0089 </r>
       <r>     1.4829     0.6173     9.0877 </r>
       <r>     1.6107     0.1292     9.1042 </r>
       <r>     1.7384     0.6232     9.1838 </r>
       <r>     1.8661     0.2942     9.2214 </r>
       <r>     1.9938     0.5527     9.2920 </r>
       <r>     2.1215     0.9798     9.4172 </r>
       <r>     2.2492     0.5123     9.4827 </r>
       <r>     2.3769     0.5091     9.5477 </r>
       <r>     2.5046     0.8638     9.6581 </r>
       <r>     2.6323     1.0694     9.7947 </r>
       <r>     2.7600     0.6258     9.8747 </r>
       <r>     2.8877     0.7256     9.9673 </r>
       <r>     3.0154     1.0800    10.1053 </r>
       <r>     3.1432     1.4059    10.2850 </r>
       <r>     3.2709     0.3365    10.3281 </r>
       <r>     3.3986     0.6088    10.4058 </r>
       <r>     3.5263     1.0014    10.5337 </r>
       <r>     3.6540     1.0425    10.6669 </r>
       <r>     3.7817     0.6706    10.7525 </r>
       <r>     3.9094     0.8770    10.8645 </r>
       <r>     4.0371     1.2122    11.0194 </r>
       <r>     4.1648     0.8326    11.1257 </r>
       <r>     4.2925     0.2543    11.1582 </r>
       <r>     4.4202     0.7934    11.2596 </r>
       <r>     4.5479     1.3137    11.4275 </r>
       <r>     4.6757     1.5452    11.6249 </r>
       <r>     4.8034     1.4428    11.8093 </r>
       <r>     4.9311     1.4032    11.9885 </r>
       <r>     5.0588     0.9359    12.1081 </r>
       <r>     5.1865     1.5499    12.3061 </r>
       <r>     5.3142     2.0410    12.5669 </r>
       <r>     5.4419     1.9745    12.8191 </r>
       <r>     5.5696     1.8782    13.0590 </r>
       <r>     5.6973     1.6693    13.2724 </r>
       <r>     5.8250     1.9094    13.5163 </r>
       <r>     5.9527     2.0849    13.7827 </r>
       <r>     6.0804     2.9280    14.1568 </r>
       <r>     6.2082     2.3306    14.4546 </r>
       <r>     6.3359     1.6086    14.6601 </r>
       <r>     6.4636     1.8293    14.8938 </r>
       <r>     6.5913     2.2495    15.1811 </r>
       <r>     6.7190     1.3284    15.3509 </r>
       <r>     6.8467     1.9438    15.5991 </r>
       <r>     6.9744     1.4522    15.7848 </r>
       <r>     7.1021     1.8930    16.0266 </r>
       <r>     7.2298     1.9591    16.2770 </r>
       <r>     7.3575     1.7984    16.5066 </r>
       <r>     7.4852     1.5213    16.7011 </r>
       <r>     7.6129     1.7574    16.9256 </r>
       <r>     7.7406     1.3662    17.1001 </r>
       <r>     7.8684     1.8012    17.3302 </r>
       <r>     7.9961     1.6576    17.5420 </r>
       <r>     8.1238     1.2816    17.7058 </r>
       <r>     8.2515     1.6642    17.9184 </r>
       <r>     8.3792     2.9070    18.2898 </r>
       <r>     8.5069     2.1987    18.5707 </r>
       <r>     8.6346     1.8424    18.8061 </r>
       <r>     8.7623     1.4986    18.9975 </r>
       <r>     8.8900     1.5841    19.1998 </r>
       <r>     9.0177     1.3179    19.3682 </r>
       <r>     9.1454     0.8955    19.4826 </r>
       <r>     9.2731     2.2594    19.7712 </r>
       <r>     9.4009     2.1299    20.0434 </r>
       <r>     9.5286     1.1311    20.1879 </r>
       <r>     9.6563     1.6209    20.3949 </r>
       <r>     9.7840     1.4691    20.5826 </r>
       <r>     9.9117     1.2183    20.7382 </r>
       <r>    10.0394     1.9001    20.9810 </r>
       <r>    10.1671     1.6638    21.1935 </r>
       <r>    10.2948     1.8995    21.4362 </r>
       <r>    10.4225     1.8882    21.6774 </r>
       <r>    10.5502     2.1442    21.9513 </r>
       <r>    10.6779     1.7272    22.1720 </r>
       <r>    10.8056     1.5340    22.3680 </r>
       <r>    10.9334     1.3491    22.5403 </r>
       <r>    11.0611     1.2736    22.7030 </r>
       <r>    11.1888     1.0778    22.8406 </r>
       <r>    11.3165     1.7920    23.0696 </r>
       <r>    11.4442     0.8736    23.1812 </r>
       <r>    11.5719     1.2508    23.3411 </r>
       <r>    11.6996     0.9047    23.4567 </r>
       <r>    11.8273     0.9667    23.5801 </r>
       <r>    11.9550     0.9419    23.7005 </r>
       <r>    12.0827     0.4642    23.7598 </r>
       <r>    12.2104     0.6191    23.8390 </r>
       <r>    12.3381     0.2818    23.8750 </r>
       <r>    12.4659     0.0898    23.8865 </r>
       <r>    12.5936     0.1273    23.9027 </r>
       <r>    12.7213     0.3718    23.9503 </r>
       <r>    12.8490     0.2262    23.9792 </r>
       <r>    12.9767     0.0544    23.9861 </r>
       <r>    13.1044     0.0001    23.9861 </r>
       <r>    13.2321     0.1087    24.0000 </r>
       <r>    13.3598     0.0000    24.0000 </r>
       <r>    13.4875     0.0000    24.0000 </r>
       <r>    13.6152     0.0000    24.0000 </r>
       <r>    13.7429     0.0000    24.0000 </r>
       <r>    13.8706     0.0000    24.0000 </r>
       <r>    13.9984     0.0000    24.0000 </r>
       <r>    14.1261     0.0000    24.0000 </r>
       <r>    14.2538     0.0000    24.0000 </r>
       <r>    14.3815     0.0000    24.0000 </r>
       <r>    14.5092     0.0000    24.0000 </r>
       <r>    14.6369     0.0000    24.0000 </r>
       <r>    14.7646     0.0000    24.0000 </r>
       <r>    14.8923     0.0000    24.0000 </r>
      </set>
     </set>
    </array>
   </total>
  </dos>
 </calculation>
 <structure name="finalpos" >
  <crystal>
   <varray name="basis" >
    <v>       2.49547000       0.02761200       0.00000000 </v>
    <v>      -1.22382200       2.12342100       0.00000000 </v>
    <v>       0.00000000       0.00000000      15.00000000 </v>
   </varray>
   <i name="volume">     79.99088364 </i>
   <varray name="rec_basis" >
    <v>       0.39818681       0.22949278       0.00000000 </v>
    <v>      -0.00517784       0.46795395       0.00000000 </v>
    <v>       0.00000000       0.00000000       0.06666667 </v>
   </varray>
  </crystal>
  <varray name="positions" >
   <v>       0.99957154       0.99983114       0.50000000 </v>
   <v>       0.33376146       0.66683586       0.50000000 </v>
  </varray>
 </structure>
</modeling>
