<?xml version="1.0" encoding="ISO-8859-1"?>
<modeling>
 <generator>
  <i name="program" type="string">vasp </i>
  <i name="version" type="string">5.4.1  </i>
  <i name="subversion" type="string">24Jun15 (build Nov 20 2020 10:29:34) complex                          parallel </i>
  <i name="platform" type="string">IFC91_ompi </i>
  <i name="date" type="string">2021 09 09 </i>
  <i name="time" type="string">14:54:42 </i>
 </generator>
 <incar>
  <i type="string" name="PREC">a</i>
  <i type="string" name="ALGO"> Normal</i>
  <i type="int" name="ISPIN">     1</i>
  <i type="int" name="ICHARG">     2</i>
  <i type="int" name="NELM">   250</i>
  <i type="int" name="NELMDL">    -5</i>
  <i type="int" name="NELMIN">     6</i>
  <i type="int" name="IBRION">     2</i>
  <i name="EDIFF">      0.00001000</i>
  <i name="EDIFFG">     -0.01000000</i>
  <i type="int" name="NSW">   200</i>
  <i type="int" name="ISIF">     2</i>
  <i name="ENCUT">    520.00000000</i>
  <i name="POTIM">      0.30000000</i>
  <i type="logical" name="LREAL"> F  </i>
  <i type="int" name="ISMEAR">     0</i>
  <i name="SIGMA">      0.02000000</i>
  <i type="logical" name="LWAVE"> F  </i>
  <i type="logical" name="LCHARG"> F  </i>
  <i type="logical" name="LAECHG"> F  </i>
  <v type="int" name="KPOINT_BSE">    -1     0     0     0</v>
  <i type="int" name="NELM">   250</i>
 </incar>
 <kpoints>
  <generation param="Gamma">
   <v type="int" name="divisions">      21       15        1 </v>
   <v name="usershift">      0.00000000       0.00000000       0.00000000 </v>
   <v name="genvec1">      0.04761905       0.00000000       0.00000000 </v>
   <v name="genvec2">      0.00000000       0.06666667       0.00000000 </v>
   <v name="genvec3">      0.00000000      -0.00000000       1.00000000 </v>
   <v name="shift">      0.00000000       0.00000000       0.00000000 </v>
  </generation>
  <varray name="kpointlist" >
   <v>       0.00000000       0.00000000       0.00000000 </v>
   <v>       0.04761905       0.00000000       0.00000000 </v>
   <v>       0.09523810       0.00000000       0.00000000 </v>
   <v>       0.14285714       0.00000000       0.00000000 </v>
   <v>       0.19047619       0.00000000       0.00000000 </v>
   <v>       0.23809524       0.00000000       0.00000000 </v>
   <v>       0.28571429       0.00000000       0.00000000 </v>
   <v>       0.33333333       0.00000000       0.00000000 </v>
   <v>       0.38095238       0.00000000       0.00000000 </v>
   <v>       0.42857143       0.00000000       0.00000000 </v>
   <v>       0.47619048       0.00000000       0.00000000 </v>
   <v>       0.00000000       0.06666667       0.00000000 </v>
   <v>       0.04761905       0.06666667       0.00000000 </v>
   <v>       0.09523810       0.06666667       0.00000000 </v>
   <v>       0.14285714       0.06666667       0.00000000 </v>
   <v>       0.19047619       0.06666667       0.00000000 </v>
   <v>       0.23809524       0.06666667       0.00000000 </v>
   <v>       0.28571429       0.06666667       0.00000000 </v>
   <v>       0.33333333       0.06666667       0.00000000 </v>
   <v>       0.38095238       0.06666667       0.00000000 </v>
   <v>       0.42857143       0.06666667       0.00000000 </v>
   <v>       0.47619048       0.06666667       0.00000000 </v>
   <v>      -0.47619048       0.06666667       0.00000000 </v>
   <v>      -0.42857143       0.06666667       0.00000000 </v>
   <v>      -0.38095238       0.06666667       0.00000000 </v>
   <v>      -0.33333333       0.06666667       0.00000000 </v>
   <v>      -0.28571429       0.06666667       0.00000000 </v>
   <v>      -0.23809524       0.06666667       0.00000000 </v>
   <v>      -0.19047619       0.06666667       0.00000000 </v>
   <v>      -0.14285714       0.06666667       0.00000000 </v>
   <v>      -0.09523810       0.06666667       0.00000000 </v>
   <v>      -0.04761905       0.06666667       0.00000000 </v>
   <v>       0.00000000       0.13333333       0.00000000 </v>
   <v>       0.04761905       0.13333333       0.00000000 </v>
   <v>       0.09523810       0.13333333       0.00000000 </v>
   <v>       0.14285714       0.13333333       0.00000000 </v>
   <v>       0.19047619       0.13333333       0.00000000 </v>
   <v>       0.23809524       0.13333333       0.00000000 </v>
   <v>       0.28571429       0.13333333       0.00000000 </v>
   <v>       0.33333333       0.13333333       0.00000000 </v>
   <v>       0.38095238       0.13333333       0.00000000 </v>
   <v>       0.42857143       0.13333333       0.00000000 </v>
   <v>       0.47619048       0.13333333       0.00000000 </v>
   <v>      -0.47619048       0.13333333       0.00000000 </v>
   <v>      -0.42857143       0.13333333       0.00000000 </v>
   <v>      -0.38095238       0.13333333       0.00000000 </v>
   <v>      -0.33333333       0.13333333       0.00000000 </v>
   <v>      -0.28571429       0.13333333       0.00000000 </v>
   <v>      -0.23809524       0.13333333       0.00000000 </v>
   <v>      -0.19047619       0.13333333       0.00000000 </v>
   <v>      -0.14285714       0.13333333       0.00000000 </v>
   <v>      -0.09523810       0.13333333       0.00000000 </v>
   <v>      -0.04761905       0.13333333       0.00000000 </v>
   <v>       0.00000000       0.20000000       0.00000000 </v>
   <v>       0.04761905       0.20000000       0.00000000 </v>
   <v>       0.09523810       0.20000000       0.00000000 </v>
   <v>       0.14285714       0.20000000       0.00000000 </v>
   <v>       0.19047619       0.20000000       0.00000000 </v>
   <v>       0.23809524       0.20000000       0.00000000 </v>
   <v>       0.28571429       0.20000000       0.00000000 </v>
   <v>       0.33333333       0.20000000       0.00000000 </v>
   <v>       0.38095238       0.20000000       0.00000000 </v>
   <v>       0.42857143       0.20000000       0.00000000 </v>
   <v>       0.47619048       0.20000000       0.00000000 </v>
   <v>      -0.47619048       0.20000000       0.00000000 </v>
   <v>      -0.42857143       0.20000000       0.00000000 </v>
   <v>      -0.38095238       0.20000000       0.00000000 </v>
   <v>      -0.33333333       0.20000000       0.00000000 </v>
   <v>      -0.28571429       0.20000000       0.00000000 </v>
   <v>      -0.23809524       0.20000000       0.00000000 </v>
   <v>      -0.19047619       0.20000000       0.00000000 </v>
   <v>      -0.14285714       0.20000000       0.00000000 </v>
   <v>      -0.09523810       0.20000000       0.00000000 </v>
   <v>      -0.04761905       0.20000000       0.00000000 </v>
   <v>       0.00000000       0.26666667       0.00000000 </v>
   <v>       0.04761905       0.26666667       0.00000000 </v>
   <v>       0.09523810       0.26666667       0.00000000 </v>
   <v>       0.14285714       0.26666667       0.00000000 </v>
   <v>       0.19047619       0.26666667       0.00000000 </v>
   <v>       0.23809524       0.26666667       0.00000000 </v>
   <v>       0.28571429       0.26666667       0.00000000 </v>
   <v>       0.33333333       0.26666667       0.00000000 </v>
   <v>       0.38095238       0.26666667       0.00000000 </v>
   <v>       0.42857143       0.26666667       0.00000000 </v>
   <v>       0.47619048       0.26666667       0.00000000 </v>
   <v>      -0.47619048       0.26666667       0.00000000 </v>
   <v>      -0.42857143       0.26666667       0.00000000 </v>
   <v>      -0.38095238       0.26666667       0.00000000 </v>
   <v>      -0.33333333       0.26666667       0.00000000 </v>
   <v>      -0.28571429       0.26666667       0.00000000 </v>
   <v>      -0.23809524       0.26666667       0.00000000 </v>
   <v>      -0.19047619       0.26666667       0.00000000 </v>
   <v>      -0.14285714       0.26666667       0.00000000 </v>
   <v>      -0.09523810       0.26666667       0.00000000 </v>
   <v>      -0.04761905       0.26666667       0.00000000 </v>
   <v>       0.00000000       0.33333333       0.00000000 </v>
   <v>       0.04761905       0.33333333       0.00000000 </v>
   <v>       0.09523810       0.33333333       0.00000000 </v>
   <v>       0.14285714       0.33333333       0.00000000 </v>
   <v>       0.19047619       0.33333333       0.00000000 </v>
   <v>       0.23809524       0.33333333       0.00000000 </v>
   <v>       0.28571429       0.33333333       0.00000000 </v>
   <v>       0.33333333       0.33333333       0.00000000 </v>
   <v>       0.38095238       0.33333333       0.00000000 </v>
   <v>       0.42857143       0.33333333       0.00000000 </v>
   <v>       0.47619048       0.33333333       0.00000000 </v>
   <v>      -0.47619048       0.33333333       0.00000000 </v>
   <v>      -0.42857143       0.33333333       0.00000000 </v>
   <v>      -0.38095238       0.33333333       0.00000000 </v>
   <v>      -0.33333333       0.33333333       0.00000000 </v>
   <v>      -0.28571429       0.33333333       0.00000000 </v>
   <v>      -0.23809524       0.33333333       0.00000000 </v>
   <v>      -0.19047619       0.33333333       0.00000000 </v>
   <v>      -0.14285714       0.33333333       0.00000000 </v>
   <v>      -0.09523810       0.33333333       0.00000000 </v>
   <v>      -0.04761905       0.33333333       0.00000000 </v>
   <v>       0.00000000       0.40000000       0.00000000 </v>
   <v>       0.04761905       0.40000000       0.00000000 </v>
   <v>       0.09523810       0.40000000       0.00000000 </v>
   <v>       0.14285714       0.40000000       0.00000000 </v>
   <v>       0.19047619       0.40000000       0.00000000 </v>
   <v>       0.23809524       0.40000000       0.00000000 </v>
   <v>       0.28571429       0.40000000       0.00000000 </v>
   <v>       0.33333333       0.40000000       0.00000000 </v>
   <v>       0.38095238       0.40000000       0.00000000 </v>
   <v>       0.42857143       0.40000000       0.00000000 </v>
   <v>       0.47619048       0.40000000       0.00000000 </v>
   <v>      -0.47619048       0.40000000       0.00000000 </v>
   <v>      -0.42857143       0.40000000       0.00000000 </v>
   <v>      -0.38095238       0.40000000       0.00000000 </v>
   <v>      -0.33333333       0.40000000       0.00000000 </v>
   <v>      -0.28571429       0.40000000       0.00000000 </v>
   <v>      -0.23809524       0.40000000       0.00000000 </v>
   <v>      -0.19047619       0.40000000       0.00000000 </v>
   <v>      -0.14285714       0.40000000       0.00000000 </v>
   <v>      -0.09523810       0.40000000       0.00000000 </v>
   <v>      -0.04761905       0.40000000       0.00000000 </v>
   <v>       0.00000000       0.46666667       0.00000000 </v>
   <v>       0.04761905       0.46666667       0.00000000 </v>
   <v>       0.09523810       0.46666667       0.00000000 </v>
   <v>       0.14285714       0.46666667       0.00000000 </v>
   <v>       0.19047619       0.46666667       0.00000000 </v>
   <v>       0.23809524       0.46666667       0.00000000 </v>
   <v>       0.28571429       0.46666667       0.00000000 </v>
   <v>       0.33333333       0.46666667       0.00000000 </v>
   <v>       0.38095238       0.46666667       0.00000000 </v>
   <v>       0.42857143       0.46666667       0.00000000 </v>
   <v>       0.47619048       0.46666667       0.00000000 </v>
   <v>      -0.47619048       0.46666667       0.00000000 </v>
   <v>      -0.42857143       0.46666667       0.00000000 </v>
   <v>      -0.38095238       0.46666667       0.00000000 </v>
   <v>      -0.33333333       0.46666667       0.00000000 </v>
   <v>      -0.28571429       0.46666667       0.00000000 </v>
   <v>      -0.23809524       0.46666667       0.00000000 </v>
   <v>      -0.19047619       0.46666667       0.00000000 </v>
   <v>      -0.14285714       0.46666667       0.00000000 </v>
   <v>      -0.09523810       0.46666667       0.00000000 </v>
   <v>      -0.04761905       0.46666667       0.00000000 </v>
  </varray>
  <varray name="weights" >
   <v>       0.00317460 </v>
   <v>       0.00634921 </v>
   <v>       0.00634921 </v>
   <v>       0.00634921 </v>
   <v>       0.00634921 </v>
   <v>       0.00634921 </v>
   <v>       0.00634921 </v>
   <v>       0.00634921 </v>
   <v>       0.00634921 </v>
   <v>       0.00634921 </v>
   <v>       0.00634921 </v>
   <v>       0.00634921 </v>
   <v>       0.00634921 </v>
   <v>       0.00634921 </v>
   <v>       0.00634921 </v>
   <v>       0.00634921 </v>
   <v>       0.00634921 </v>
   <v>       0.00634921 </v>
   <v>       0.00634921 </v>
   <v>       0.00634921 </v>
   <v>       0.00634921 </v>
   <v>       0.00634921 </v>
   <v>       0.00634921 </v>
   <v>       0.00634921 </v>
   <v>       0.00634921 </v>
   <v>       0.00634921 </v>
   <v>       0.00634921 </v>
   <v>       0.00634921 </v>
   <v>       0.00634921 </v>
   <v>       0.00634921 </v>
   <v>       0.00634921 </v>
   <v>       0.00634921 </v>
   <v>       0.00634921 </v>
   <v>       0.00634921 </v>
   <v>       0.00634921 </v>
   <v>       0.00634921 </v>
   <v>       0.00634921 </v>
   <v>       0.00634921 </v>
   <v>       0.00634921 </v>
   <v>       0.00634921 </v>
   <v>       0.00634921 </v>
   <v>       0.00634921 </v>
   <v>       0.00634921 </v>
   <v>       0.00634921 </v>
   <v>       0.00634921 </v>
   <v>       0.00634921 </v>
   <v>       0.00634921 </v>
   <v>       0.00634921 </v>
   <v>       0.00634921 </v>
   <v>       0.00634921 </v>
   <v>       0.00634921 </v>
   <v>       0.00634921 </v>
   <v>       0.00634921 </v>
   <v>       0.00634921 </v>
   <v>       0.00634921 </v>
   <v>       0.00634921 </v>
   <v>       0.00634921 </v>
   <v>       0.00634921 </v>
   <v>       0.00634921 </v>
   <v>       0.00634921 </v>
   <v>       0.00634921 </v>
   <v>       0.00634921 </v>
   <v>       0.00634921 </v>
   <v>       0.00634921 </v>
   <v>       0.00634921 </v>
   <v>       0.00634921 </v>
   <v>       0.00634921 </v>
   <v>       0.00634921 </v>
   <v>       0.00634921 </v>
   <v>       0.00634921 </v>
   <v>       0.00634921 </v>
   <v>       0.00634921 </v>
   <v>       0.00634921 </v>
   <v>       0.00634921 </v>
   <v>       0.00634921 </v>
   <v>       0.00634921 </v>
   <v>       0.00634921 </v>
   <v>       0.00634921 </v>
   <v>       0.00634921 </v>
   <v>       0.00634921 </v>
   <v>       0.00634921 </v>
   <v>       0.00634921 </v>
   <v>       0.00634921 </v>
   <v>       0.00634921 </v>
   <v>       0.00634921 </v>
   <v>       0.00634921 </v>
   <v>       0.00634921 </v>
   <v>       0.00634921 </v>
   <v>       0.00634921 </v>
   <v>       0.00634921 </v>
   <v>       0.00634921 </v>
   <v>       0.00634921 </v>
   <v>       0.00634921 </v>
   <v>       0.00634921 </v>
   <v>       0.00634921 </v>
   <v>       0.00634921 </v>
   <v>       0.00634921 </v>
   <v>       0.00634921 </v>
   <v>       0.00634921 </v>
   <v>       0.00634921 </v>
   <v>       0.00634921 </v>
   <v>       0.00634921 </v>
   <v>       0.00634921 </v>
   <v>       0.00634921 </v>
   <v>       0.00634921 </v>
   <v>       0.00634921 </v>
   <v>       0.00634921 </v>
   <v>       0.00634921 </v>
   <v>       0.00634921 </v>
   <v>       0.00634921 </v>
   <v>       0.00634921 </v>
   <v>       0.00634921 </v>
   <v>       0.00634921 </v>
   <v>       0.00634921 </v>
   <v>       0.00634921 </v>
   <v>       0.00634921 </v>
   <v>       0.00634921 </v>
   <v>       0.00634921 </v>
   <v>       0.00634921 </v>
   <v>       0.00634921 </v>
   <v>       0.00634921 </v>
   <v>       0.00634921 </v>
   <v>       0.00634921 </v>
   <v>       0.00634921 </v>
   <v>       0.00634921 </v>
   <v>       0.00634921 </v>
   <v>       0.00634921 </v>
   <v>       0.00634921 </v>
   <v>       0.00634921 </v>
   <v>       0.00634921 </v>
   <v>       0.00634921 </v>
   <v>       0.00634921 </v>
   <v>       0.00634921 </v>
   <v>       0.00634921 </v>
   <v>       0.00634921 </v>
   <v>       0.00634921 </v>
   <v>       0.00634921 </v>
   <v>       0.00634921 </v>
   <v>       0.00634921 </v>
   <v>       0.00634921 </v>
   <v>       0.00634921 </v>
   <v>       0.00634921 </v>
   <v>       0.00634921 </v>
   <v>       0.00634921 </v>
   <v>       0.00634921 </v>
   <v>       0.00634921 </v>
   <v>       0.00634921 </v>
   <v>       0.00634921 </v>
   <v>       0.00634921 </v>
   <v>       0.00634921 </v>
   <v>       0.00634921 </v>
   <v>       0.00634921 </v>
   <v>       0.00634921 </v>
   <v>       0.00634921 </v>
   <v>       0.00634921 </v>
   <v>       0.00634921 </v>
   <v>       0.00634921 </v>
   <v>       0.00634921 </v>
  </varray>
 </kpoints>
 <parameters>
  <separator name="general" >
   <i type="string" name="SYSTEM">unknown system</i>
   <i type="logical" name="LCOMPAT"> F  </i>
  </separator>
  <separator name="electronic" >
   <i type="string" name="PREC">a</i>
   <i name="ENMAX">    520.00000000</i>
   <i name="ENAUG">    342.92400000</i>
   <i name="EDIFF">      0.00001000</i>
   <i type="int" name="IALGO">    38</i>
   <i type="int" name="IWAVPR">    11</i>
   <i type="int" name="NBANDS">    16</i>
   <i name="NELECT">     20.00000000</i>
   <i type="int" name="TURBO">     0</i>
   <i type="int" name="IRESTART">     0</i>
   <i type="int" name="NREBOOT">     0</i>
   <i type="int" name="NMIN">     0</i>
   <i name="EREF">      0.00000000</i>
   <separator name="electronic smearing" >
    <i type="int" name="ISMEAR">     0</i>
    <i name="SIGMA">      0.02000000</i>
    <i name="KSPACING">      0.50000000</i>
    <i type="logical" name="KGAMMA"> T  </i>
   </separator>
   <separator name="electronic projectors" >
    <i type="logical" name="LREAL"> F  </i>
    <v name="ROPT">      0.00000000</v>
    <i type="int" name="LMAXPAW">  -100</i>
    <i type="int" name="LMAXMIX">     2</i>
    <i type="logical" name="NLSPLINE"> F  </i>
   </separator>
   <separator name="electronic startup" >
    <i type="int" name="ISTART">     0</i>
    <i type="int" name="ICHARG">     2</i>
    <i type="int" name="INIWAV">     1</i>
   </separator>
   <separator name="electronic spin" >
    <i type="int" name="ISPIN">     1</i>
    <i type="logical" name="LNONCOLLINEAR"> F  </i>
    <v name="MAGMOM">      1.00000000      1.00000000      1.00000000      1.00000000</v>
    <i name="NUPDOWN">     -1.00000000</i>
    <i type="logical" name="LSORBIT"> F  </i>
    <v name="SAXIS">      0.00000000      0.00000000      1.00000000</v>
    <i type="logical" name="LSPIRAL"> F  </i>
    <v name="QSPIRAL">      0.00000000      0.00000000      0.00000000</v>
    <i type="logical" name="LZEROZ"> F  </i>
   </separator>
   <separator name="electronic exchange-correlation" >
    <i type="logical" name="LASPH"> F  </i>
    <i type="logical" name="LMETAGGA"> F  </i>
   </separator>
   <separator name="electronic convergence" >
    <i type="int" name="NELM">   250</i>
    <i type="int" name="NELMDL">    -5</i>
    <i type="int" name="NELMIN">     6</i>
    <i name="ENINI">    520.00000000</i>
    <separator name="electronic convergence detail" >
     <i type="logical" name="LDIAG"> T  </i>
     <i type="logical" name="LSUBROT"> F  </i>
     <i name="WEIMIN">      0.00100000</i>
     <i name="EBREAK">      0.00000016</i>
     <i name="DEPER">      0.30000000</i>
     <i type="int" name="NRMM">     4</i>
     <i name="TIME">      0.40000000</i>
    </separator>
   </separator>
   <separator name="electronic mixer" >
    <i name="AMIX">      0.40000000</i>
    <i name="BMIX">      1.00000000</i>
    <i name="AMIN">      0.10000000</i>
    <i name="AMIX_MAG">      1.60000000</i>
    <i name="BMIX_MAG">      1.00000000</i>
    <separator name="electronic mixer details" >
     <i type="int" name="IMIX">     4</i>
     <i type="logical" name="MIXFIRST"> F  </i>
     <i type="int" name="MAXMIX">   -45</i>
     <i name="WC">    100.00000000</i>
     <i type="int" name="INIMIX">     1</i>
     <i type="int" name="MIXPRE">     1</i>
     <i type="int" name="MREMOVE">     5</i>
    </separator>
   </separator>
   <separator name="electronic dipolcorrection" >
    <i type="logical" name="LDIPOL"> F  </i>
    <i type="logical" name="LMONO"> F  </i>
    <i type="int" name="IDIPOL">     0</i>
    <i name="EPSILON">      1.00000000</i>
    <v name="DIPOL">   -100.00000000   -100.00000000   -100.00000000</v>
    <i name="EFIELD">      0.00000000</i>
   </separator>
  </separator>
  <separator name="grids" >
   <i type="int" name="NGX">    28</i>
   <i type="int" name="NGY">    36</i>
   <i type="int" name="NGZ">   150</i>
   <i type="int" name="NGXF">    56</i>
   <i type="int" name="NGYF">    72</i>
   <i type="int" name="NGZF">   300</i>
   <i type="logical" name="ADDGRID"> F  </i>
  </separator>
  <separator name="ionic" >
   <i type="int" name="NSW">   200</i>
   <i type="int" name="IBRION">     2</i>
   <i type="int" name="ISIF">     2</i>
   <i name="PSTRESS">      0.00000000</i>
   <i name="EDIFFG">     -0.01000000</i>
   <i type="int" name="NFREE">     1</i>
   <i name="POTIM">      0.30000000</i>
   <i name="SMASS">     -3.00000000</i>
   <i name="SCALEE">      1.00000000</i>
  </separator>
  <separator name="ionic md" >
   <i name="TEBEG">      0.00010000</i>
   <i name="TEEND">      0.00010000</i>
   <i type="int" name="NBLOCK">     1</i>
   <i type="int" name="KBLOCK">   200</i>
   <i type="int" name="NPACO">   256</i>
   <i name="APACO">     16.00000000</i>
  </separator>
  <separator name="symmetry" >
   <i type="int" name="ISYM">     2</i>
   <i name="SYMPREC">      0.00001000</i>
  </separator>
  <separator name="dos" >
   <i type="logical" name="LORBIT"> F  </i>
   <v name="RWIGS">     -1.00000000</v>
   <i type="int" name="NEDOS">   301</i>
   <i name="EMIN">     10.00000000</i>
   <i name="EMAX">    -10.00000000</i>
   <i name="EFERMI">      0.00000000</i>
  </separator>
  <separator name="writing" >
   <i type="int" name="NWRITE">     2</i>
   <i type="logical" name="LWAVE"> F  </i>
   <i type="logical" name="LCHARG"> F  </i>
   <i type="logical" name="LPARD"> F  </i>
   <i type="logical" name="LVTOT"> F  </i>
   <i type="logical" name="LVHAR"> F  </i>
   <i type="logical" name="LELF"> F  </i>
   <i type="logical" name="LOPTICS"> F  </i>
   <v name="STM">      0.00000000      0.00000000      0.00000000      0.00000000      0.00000000      0.00000000      0.00000000</v>
  </separator>
  <separator name="performance" >
   <i type="int" name="NPAR">     4</i>
   <i type="int" name="NSIM">     4</i>
   <i type="int" name="NBLK">    -1</i>
   <i type="logical" name="LPLANE"> T  </i>
   <i type="logical" name="LSCALAPACK"> T  </i>
   <i type="logical" name="LSCAAWARE"> F  </i>
   <i type="logical" name="LSCALU"> F  </i>
   <i type="logical" name="LASYNC"> F  </i>
   <i type="logical" name="LORBITALREAL"> F  </i>
  </separator>
  <separator name="miscellaneous" >
   <i type="int" name="IDIOT">     3</i>
   <i type="logical" name="LMUSIC"> F  </i>
   <v name="POMASS">     30.97400000</v>
   <v name="DARWINR">      0.00000000</v>
   <v name="DARWINV">      1.00000000</v>
   <i type="logical" name="LCORR"> T  </i>
  </separator>
  <i type="logical" name="GGA_COMPAT"> T  </i>
  <i type="logical" name="LBERRY"> F  </i>
  <i type="int" name="ICORELEVEL">     0</i>
  <i type="logical" name="LDAU"> F  </i>
  <i type="int" name="I_CONSTRAINED_M">     0</i>
  <separator name="electronic exchange-correlation" >
   <i type="string" name="GGA">--</i>
   <i type="int" name="VOSKOWN">     0</i>
   <i type="logical" name="LHFCALC"> F  </i>
   <i type="string" name="PRECFOCK"></i>
   <i type="logical" name="LSYMGRAD"> F  </i>
   <i type="logical" name="LHFONE"> F  </i>
   <i type="logical" name="LRHFCALC"> F  </i>
   <i type="logical" name="LTHOMAS"> F  </i>
   <i type="logical" name="LMODELHF"> F  </i>
   <i name="ENCUT4O">     -1.00000000</i>
   <i type="int" name="EXXOEP">     0</i>
   <i type="int" name="FOURORBIT">     0</i>
   <i name="AEXX">      0.00000000</i>
   <i name="HFALPHA">      0.00000000</i>
   <i name="MCALPHA">      0.00000000</i>
   <i name="ALDAX">      1.00000000</i>
   <i name="AGGAX">      1.00000000</i>
   <i name="ALDAC">      1.00000000</i>
   <i name="AGGAC">      1.00000000</i>
   <i type="int" name="NKREDX">     1</i>
   <i type="int" name="NKREDY">     1</i>
   <i type="int" name="NKREDZ">     1</i>
   <i type="logical" name="SHIFTRED"> F  </i>
   <i type="logical" name="ODDONLY"> F  </i>
   <i type="logical" name="EVENONLY"> F  </i>
   <i type="int" name="LMAXFOCK">     0</i>
   <i type="int" name="NMAXFOCKAE">     0</i>
   <i type="logical" name="LFOCKAEDFT"> F  </i>
   <i name="HFSCREEN">      0.00000000</i>
   <i name="HFSCREENC">      0.00000000</i>
   <i type="int" name="NBANDSGWLOW">     0</i>
  </separator>
  <separator name="vdW DFT" >
   <i type="logical" name="LUSE_VDW"> F  </i>
   <i name="Zab_VDW">     -0.84910000</i>
   <i name="PARAM1">      0.12340000</i>
   <i name="PARAM2">      1.00000000</i>
   <i name="PARAM3">      0.00000000</i>
  </separator>
  <separator name="model GW" >
   <i type="int" name="MODEL_GW">     0</i>
   <i name="MODEL_EPS0">     46.46991778</i>
   <i name="MODEL_ALPHA">      1.00000000</i>
  </separator>
  <separator name="linear response parameters" >
   <i type="logical" name="LEPSILON"> F  </i>
   <i type="logical" name="LRPA"> F  </i>
   <i type="logical" name="LNABLA"> F  </i>
   <i type="logical" name="LVEL"> F  </i>
   <i type="int" name="KINTER">     0</i>
   <i name="CSHIFT">      0.10000000</i>
   <i name="OMEGAMAX">     -1.00000000</i>
   <i name="DEG_THRESHOLD">      0.00200000</i>
  </separator>
  <separator name="orbital magnetization" >
   <i type="logical" name="NUCIND"> F  </i>
   <v name="MAGPOS">      0.00000000      0.00000000      0.00000000</v>
   <i type="logical" name="LNICSALL"> T  </i>
   <i type="logical" name="ORBITALMAG"> F  </i>
   <i type="logical" name="LMAGBLOCH"> F  </i>
   <i type="logical" name="LCHIMAG"> F  </i>
   <i type="logical" name="LGAUGE"> T  </i>
   <i type="int" name="MAGATOM">     0</i>
   <v name="MAGDIPOL">      0.00000000      0.00000000      0.00000000</v>
   <v name="AVECCONST">      0.00000000      0.00000000      0.00000000</v>
  </separator>
  <separator name="response functions" >
   <i type="logical" name="LADDER"> F  </i>
   <i type="logical" name="LFXC"> F  </i>
   <i type="logical" name="LHARTREE"> T  </i>
   <i type="int" name="IBSE">     0</i>
   <v type="int" name="KPOINT">    -1     0     0     0</v>
   <i type="logical" name="LTCTE"> F  </i>
   <i type="logical" name="LTETE"> F  </i>
   <i type="logical" name="LTRIPLET"> F  </i>
   <i type="logical" name="LFXCEPS"> F  </i>
   <i type="logical" name="LFXHEG"> F  </i>
   <i type="int" name="NATURALO">     0</i>
   <i type="logical" name="L2ORDER"> F  </i>
   <i type="logical" name="LUSEW"> F  </i>
   <i name="ENCUTGW">     -2.00000000</i>
   <i name="ENCUTGWSOFT">     -2.00000000</i>
   <i name="ENCUTLF">     -1.00000000</i>
   <i type="int" name="LMAXMP2">    -1</i>
   <i name="SCISSOR">      0.00000000</i>
   <i type="int" name="NOMEGA">     0</i>
   <i type="int" name="NOMEGAR">     0</i>
   <i type="int" name="NBANDSGW">    -1</i>
   <i type="int" name="NBANDSO">    -1</i>
   <i type="int" name="NBANDSV">    -1</i>
   <i type="int" name="NELM">   250</i>
   <i type="int" name="NELMHF">     1</i>
   <i type="int" name="DIM">     3</i>
   <i type="int" name="ANTIRES">     0</i>
   <i name="OMEGAMAX">    -30.00000000</i>
   <i name="OMEGAMIN">    -30.00000000</i>
   <i name="OMEGATL">   -200.00000000</i>
   <i type="int" name="OMEGAGRID">     0</i>
   <i name="CSHIFT">     -0.10000000</i>
   <i type="logical" name="SELFENERGY"> F  </i>
   <i type="logical" name="LSPECTRAL"> F  </i>
   <i type="logical" name="LSPECTRALGW"> F  </i>
   <i type="logical" name="LSINGLES"> F  </i>
   <i type="logical" name="LFERMIGW"> F  </i>
   <i type="logical" name="ODDONLYGW"> F  </i>
   <i type="logical" name="EVENONLYGW"> F  </i>
   <i type="int" name="NKREDLFX">     1</i>
   <i type="int" name="NKREDLFY">     1</i>
   <i type="int" name="NKREDLFZ">     1</i>
   <i type="int" name="MAXMEM">  1800</i>
   <i type="int" name="TELESCOPE">     0</i>
   <i type="int" name="TAUPAR">     1</i>
   <i type="int" name="OMEGAPAR">    -1</i>
   <i name="LAMBDA">      1.00000000</i>
  </separator>
  <separator name="External order field" >
   <i name="OFIELD_KAPPA">      0.00000000</i>
   <v name="OFIELD_K">      0.00000000      0.00000000      0.00000000</v>
   <i name="OFIELD_Q6_NEAR">      0.00000000</i>
   <i name="OFIELD_Q6_FAR">      0.00000000</i>
   <i name="OFIELD_A">      0.00000000</i>
  </separator>
 </parameters>
 <atominfo>
  <atoms>       4 </atoms>
  <types>       1 </types>
  <array name="atoms" >
   <dimension dim="1">ion</dimension>
   <field type="string">element</field>
   <field type="int">atomtype</field>
   <set>
    <rc><c>P </c><c>   1</c></rc>
    <rc><c>P </c><c>   1</c></rc>
    <rc><c>P </c><c>   1</c></rc>
    <rc><c>P </c><c>   1</c></rc>
   </set>
  </array>
  <array name="atomtypes" >
   <dimension dim="1">type</dimension>
   <field type="int">atomspertype</field>
   <field type="string">element</field>
   <field>mass</field>
   <field>valence</field>
   <field type="string">pseudopotential</field>
   <set>
    <rc><c>   4</c><c>P </c><c>     30.97400000</c><c>      5.00000000</c><c>  PAW_PBE P 06Sep2000                   </c></rc>
   </set>
  </array>
 </atominfo>
 <structure name="initialpos" >
  <crystal>
   <varray name="basis" >
    <v>       3.34629700       0.00000000       0.00000000 </v>
    <v>       0.00000000       4.62335100      -0.00005300 </v>
    <v>       0.00000000       0.00000000      20.02439000 </v>
   </varray>
   <i name="volume">    309.79945189 </i>
   <varray name="rec_basis" >
    <v>       0.29883779       0.00000000       0.00000000 </v>
    <v>       0.00000000       0.21629333       0.00000000 </v>
    <v>       0.00000000       0.00000057       0.04993910 </v>
   </varray>
  </crystal>
  <varray name="positions" >
   <v>       0.50000000       0.91077300       0.55252100 </v>
   <v>       0.50000000       0.08922700       0.44747900 </v>
   <v>       0.00000000       0.41076900       0.44747900 </v>
   <v>       0.00000000       0.58923100       0.55252100 </v>
  </varray>
 </structure>
 <calculation>
  <scstep>
   <time name="dav">    1.49    1.49</time>
   <time name="total">    1.52    1.52</time>
   <energy>
    <i name="alphaZ">      5.17806287 </i>
    <i name="ewald">   1827.91029127 </i>
    <i name="hartreedc">  -2421.98719006 </i>
    <i name="XCdc">     12.88587328 </i>
    <i name="pawpsdc">    559.04011960 </i>
    <i name="pawaedc">   -526.39432044 </i>
    <i name="eentropy">     -0.00053180 </i>
    <i name="bandstr">    -28.58981033 </i>
    <i name="atom">    704.16778566 </i>
    <i name="e_fr_energy">    132.21028006 </i>
    <i name="e_wo_entrp">    132.21081185 </i>
    <i name="e_0_energy">    132.21054596 </i>
   </energy>
  </scstep>
  <scstep>
   <time name="dav">    1.97    1.97</time>
   <time name="total">    1.97    1.97</time>
   <energy>
    <i name="e_fr_energy">     -6.25258315 </i>
    <i name="e_wo_entrp">     -6.25258315 </i>
    <i name="e_0_energy">     -6.25258315 </i>
   </energy>
  </scstep>
  <scstep>
   <time name="dav">    1.82    1.82</time>
   <time name="total">    1.82    1.83</time>
   <energy>
    <i name="e_fr_energy">    -21.32198324 </i>
    <i name="e_wo_entrp">    -21.32198324 </i>
    <i name="e_0_energy">    -21.32198324 </i>
   </energy>
  </scstep>
  <scstep>
   <time name="dav">    1.88    1.88</time>
   <time name="total">    1.88    1.88</time>
   <energy>
    <i name="e_fr_energy">    -21.63361410 </i>
    <i name="e_wo_entrp">    -21.63361410 </i>
    <i name="e_0_energy">    -21.63361410 </i>
   </energy>
  </scstep>
  <scstep>
   <time name="dav">    1.97    1.97</time>
   <time name="total">    2.06    2.06</time>
   <energy>
    <i name="e_fr_energy">    -21.64330429 </i>
    <i name="e_wo_entrp">    -21.64330429 </i>
    <i name="e_0_energy">    -21.64330429 </i>
   </energy>
  </scstep>
  <scstep>
   <time name="dav">    1.82    1.82</time>
   <time name="total">    1.93    1.93</time>
   <energy>
    <i name="e_fr_energy">    -21.51165014 </i>
    <i name="e_wo_entrp">    -21.51165014 </i>
    <i name="e_0_energy">    -21.51165014 </i>
   </energy>
  </scstep>
  <scstep>
   <time name="dav">    1.74    1.74</time>
   <time name="total">    1.85    1.85</time>
   <energy>
    <i name="e_fr_energy">    -21.44700187 </i>
    <i name="e_wo_entrp">    -21.44700187 </i>
    <i name="e_0_energy">    -21.44700187 </i>
   </energy>
  </scstep>
  <scstep>
   <time name="dav">    1.80    1.80</time>
   <time name="total">    1.91    1.92</time>
   <energy>
    <i name="e_fr_energy">    -21.44664148 </i>
    <i name="e_wo_entrp">    -21.44664148 </i>
    <i name="e_0_energy">    -21.44664148 </i>
   </energy>
  </scstep>
  <scstep>
   <time name="dav">    2.10    2.10</time>
   <time name="total">    2.21    2.22</time>
   <energy>
    <i name="e_fr_energy">    -21.44650806 </i>
    <i name="e_wo_entrp">    -21.44650806 </i>
    <i name="e_0_energy">    -21.44650806 </i>
   </energy>
  </scstep>
  <scstep>
   <time name="dav">    1.84    1.84</time>
   <time name="total">    1.95    1.95</time>
   <energy>
    <i name="e_fr_energy">    -21.44639897 </i>
    <i name="e_wo_entrp">    -21.44639897 </i>
    <i name="e_0_energy">    -21.44639897 </i>
   </energy>
  </scstep>
  <scstep>
   <time name="dav">    1.79    1.80</time>
   <time name="total">    1.91    1.91</time>
   <energy>
    <i name="e_fr_energy">    -21.44631844 </i>
    <i name="e_wo_entrp">    -21.44631844 </i>
    <i name="e_0_energy">    -21.44631844 </i>
   </energy>
  </scstep>
  <scstep>
   <time name="dav">    1.63    1.63</time>
   <time name="total">    1.74    1.75</time>
   <energy>
    <i name="e_fr_energy">    -21.44670316 </i>
    <i name="e_wo_entrp">    -21.44670316 </i>
    <i name="e_0_energy">    -21.44670316 </i>
   </energy>
  </scstep>
  <scstep>
   <time name="dav">    1.59    1.60</time>
   <time name="total">    1.71    1.71</time>
   <energy>
    <i name="e_fr_energy">    -21.44679960 </i>
    <i name="e_wo_entrp">    -21.44679960 </i>
    <i name="e_0_energy">    -21.44679960 </i>
   </energy>
  </scstep>
  <scstep>
   <time name="dav">    1.50    1.50</time>
   <time name="total">    1.61    1.62</time>
   <energy>
    <i name="e_fr_energy">    -21.44690966 </i>
    <i name="e_wo_entrp">    -21.44690966 </i>
    <i name="e_0_energy">    -21.44690966 </i>
   </energy>
  </scstep>
  <scstep>
   <time name="dav">    1.53    1.54</time>
   <time name="total">    1.65    1.65</time>
   <energy>
    <i name="e_fr_energy">    -21.44694431 </i>
    <i name="e_wo_entrp">    -21.44694431 </i>
    <i name="e_0_energy">    -21.44694431 </i>
   </energy>
  </scstep>
  <scstep>
   <time name="dav">    1.48    1.48</time>
   <time name="total">    1.59    1.60</time>
   <energy>
    <i name="e_fr_energy">    -21.44697197 </i>
    <i name="e_wo_entrp">    -21.44697197 </i>
    <i name="e_0_energy">    -21.44697197 </i>
   </energy>
  </scstep>
  <scstep>
   <time name="dav">    1.48    1.48</time>
   <time name="total">    1.50    1.50</time>
   <energy>
    <i name="alphaZ">      5.17806287 </i>
    <i name="ewald">   1827.91029127 </i>
    <i name="hartreedc">  -2436.62503669 </i>
    <i name="XCdc">     13.92853003 </i>
    <i name="pawpsdc">   2036.64590137 </i>
    <i name="pawaedc">  -2004.31549081 </i>
    <i name="eentropy">     -0.00000000 </i>
    <i name="bandstr">   -168.33701787 </i>
    <i name="atom">    704.16778566 </i>
    <i name="e_fr_energy">    -21.44697418 </i>
    <i name="e_wo_entrp">    -21.44697418 </i>
    <i name="e_0_energy">    -21.44697418 </i>
   </energy>
  </scstep>
  <structure>
   <crystal>
    <varray name="basis" >
     <v>       3.34629700       0.00000000       0.00000000 </v>
     <v>       0.00000000       4.62335100      -0.00005300 </v>
     <v>       0.00000000       0.00000000      20.02439000 </v>
    </varray>
    <i name="volume">    309.79945189 </i>
    <varray name="rec_basis" >
     <v>       0.29883779       0.00000000       0.00000000 </v>
     <v>       0.00000000       0.21629333       0.00000000 </v>
     <v>       0.00000000       0.00000057       0.04993910 </v>
    </varray>
   </crystal>
   <varray name="positions" >
    <v>       0.50000000       0.91077300       0.55252100 </v>
    <v>       0.50000000       0.08922700       0.44747900 </v>
    <v>       0.00000000       0.41076900       0.44747900 </v>
    <v>       0.00000000       0.58923100       0.55252100 </v>
   </varray>
  </structure>
  <varray name="forces" >
   <v>      -0.00000008      -0.05437746      -0.02265922 </v>
   <v>       0.00000008       0.05437746       0.02265922 </v>
   <v>       0.00000008      -0.05440842       0.02266314 </v>
   <v>      -0.00000008       0.05440842      -0.02266314 </v>
  </varray>
  <varray name="stress" >
   <v>      -7.43201523       0.00000225      -0.00000064 </v>
   <v>       0.00000225      -2.17386791       0.00036175 </v>
   <v>      -0.00000073       0.00036175      -0.55667677 </v>
  </varray>
  <energy>
   <i name="e_fr_energy">    -21.44697418 </i>
   <i name="e_wo_entrp">    -21.44697418 </i>
   <i name="e_0_energy">     -0.00000000 </i>
  </energy>
  <time name="totalsc">   31.60   31.65</time>
 </calculation>
 <calculation>
  <scstep>
   <time name="dav">    1.59    1.59</time>
   <time name="total">    1.70    1.70</time>
   <energy>
    <i name="alphaZ">      5.17806287 </i>
    <i name="ewald">   1828.73302417 </i>
    <i name="hartreedc">  -2437.35249531 </i>
    <i name="XCdc">     13.93970439 </i>
    <i name="pawpsdc">   2036.54695969 </i>
    <i name="pawaedc">  -2004.21657204 </i>
    <i name="eentropy">     -0.00000000 </i>
    <i name="bandstr">   -168.44371716 </i>
    <i name="atom">    704.16778566 </i>
    <i name="e_fr_energy">    -21.44724773 </i>
    <i name="e_wo_entrp">    -21.44724773 </i>
    <i name="e_0_energy">    -21.44724773 </i>
   </energy>
  </scstep>
  <scstep>
   <time name="dav">    1.88    1.88</time>
   <time name="total">    1.99    1.99</time>
   <energy>
    <i name="e_fr_energy">    -21.44728649 </i>
    <i name="e_wo_entrp">    -21.44728649 </i>
    <i name="e_0_energy">    -21.44728649 </i>
   </energy>
  </scstep>
  <scstep>
   <time name="dav">    1.44    1.44</time>
   <time name="total">    1.55    1.55</time>
   <energy>
    <i name="e_fr_energy">    -21.44728772 </i>
    <i name="e_wo_entrp">    -21.44728772 </i>
    <i name="e_0_energy">    -21.44728772 </i>
   </energy>
  </scstep>
  <scstep>
   <time name="dav">    1.31    1.31</time>
   <time name="total">    1.42    1.42</time>
   <energy>
    <i name="e_fr_energy">    -21.44729078 </i>
    <i name="e_wo_entrp">    -21.44729078 </i>
    <i name="e_0_energy">    -21.44729078 </i>
   </energy>
  </scstep>
  <scstep>
   <time name="dav">    1.22    1.22</time>
   <time name="total">    1.33    1.33</time>
   <energy>
    <i name="e_fr_energy">    -21.44729076 </i>
    <i name="e_wo_entrp">    -21.44729076 </i>
    <i name="e_0_energy">    -21.44729076 </i>
   </energy>
  </scstep>
  <scstep>
   <time name="dav">    1.18    1.18</time>
   <time name="total">    1.20    1.20</time>
   <energy>
    <i name="alphaZ">      5.17806287 </i>
    <i name="ewald">   1828.73302417 </i>
    <i name="hartreedc">  -2437.35896201 </i>
    <i name="XCdc">     13.94074144 </i>
    <i name="pawpsdc">   2042.79569537 </i>
    <i name="pawaedc">  -2010.46773629 </i>
    <i name="eentropy">     -0.00000000 </i>
    <i name="bandstr">   -168.43590244 </i>
    <i name="atom">    704.16778566 </i>
    <i name="e_fr_energy">    -21.44729123 </i>
    <i name="e_wo_entrp">    -21.44729123 </i>
    <i name="e_0_energy">    -21.44729123 </i>
   </energy>
  </scstep>
  <structure>
   <crystal>
    <varray name="basis" >
     <v>       3.34629700       0.00000000       0.00000000 </v>
     <v>       0.00000000       4.62335100      -0.00005300 </v>
     <v>       0.00000000       0.00000000      20.02439000 </v>
    </varray>
    <i name="volume">    309.79945189 </i>
    <varray name="rec_basis" >
     <v>       0.29883779       0.00000000       0.00000000 </v>
     <v>       0.00000000       0.21629333       0.00000000 </v>
     <v>       0.00000000       0.00000057       0.04993910 </v>
    </varray>
   </crystal>
   <varray name="positions" >
    <v>       0.50000000       0.91043256       0.55248824 </v>
    <v>       0.50000000       0.08956744       0.44751176 </v>
    <v>       0.00000000       0.41042836       0.44751176 </v>
    <v>      -0.00000000       0.58957164       0.55248824 </v>
   </varray>
  </structure>
  <varray name="forces" >
   <v>      -0.00000009      -0.02335382      -0.01798742 </v>
   <v>       0.00000009       0.02335382       0.01798742 </v>
   <v>      -0.00000003      -0.02337982       0.01798808 </v>
   <v>       0.00000003       0.02337982      -0.01798808 </v>
  </varray>
  <varray name="stress" >
   <v>      -7.29359572      -0.00000047      -0.00000021 </v>
   <v>      -0.00000050      -1.69890107       0.00030154 </v>
   <v>      -0.00000022       0.00030154      -0.47098511 </v>
  </varray>
  <energy>
   <i name="e_fr_energy">    -21.44729123 </i>
   <i name="e_wo_entrp">    -21.44729123 </i>
   <i name="e_0_energy">     -0.00000000 </i>
  </energy>
  <time name="totalsc">    9.98   10.00</time>
 </calculation>
 <calculation>
  <scstep>
   <time name="dav">    1.55    1.56</time>
   <time name="total">    1.67    1.67</time>
   <energy>
    <i name="alphaZ">      5.17806287 </i>
    <i name="ewald">   1829.50350860 </i>
    <i name="hartreedc">  -2438.02752980 </i>
    <i name="XCdc">     13.95116252 </i>
    <i name="pawpsdc">   2042.94213648 </i>
    <i name="pawaedc">  -2010.61417001 </i>
    <i name="eentropy">     -0.00000000 </i>
    <i name="bandstr">   -168.54830782 </i>
    <i name="atom">    704.16778566 </i>
    <i name="e_fr_energy">    -21.44735149 </i>
    <i name="e_wo_entrp">    -21.44735149 </i>
    <i name="e_0_energy">    -21.44735149 </i>
   </energy>
  </scstep>
  <scstep>
   <time name="dav">    1.90    1.90</time>
   <time name="total">    2.02    2.02</time>
   <energy>
    <i name="e_fr_energy">    -21.44738559 </i>
    <i name="e_wo_entrp">    -21.44738559 </i>
    <i name="e_0_energy">    -21.44738559 </i>
   </energy>
  </scstep>
  <scstep>
   <time name="dav">    1.38    1.38</time>
   <time name="total">    1.49    1.50</time>
   <energy>
    <i name="e_fr_energy">    -21.44738597 </i>
    <i name="e_wo_entrp">    -21.44738597 </i>
    <i name="e_0_energy">    -21.44738597 </i>
   </energy>
  </scstep>
  <scstep>
   <time name="dav">    1.20    1.20</time>
   <time name="total">    1.31    1.32</time>
   <energy>
    <i name="e_fr_energy">    -21.44738725 </i>
    <i name="e_wo_entrp">    -21.44738725 </i>
    <i name="e_0_energy">    -21.44738725 </i>
   </energy>
  </scstep>
  <scstep>
   <time name="dav">    1.15    1.15</time>
   <time name="total">    1.26    1.26</time>
   <energy>
    <i name="e_fr_energy">    -21.44738708 </i>
    <i name="e_wo_entrp">    -21.44738708 </i>
    <i name="e_0_energy">    -21.44738708 </i>
   </energy>
  </scstep>
  <scstep>
   <time name="dav">    1.15    1.15</time>
   <time name="total">    1.17    1.17</time>
   <energy>
    <i name="alphaZ">      5.17806287 </i>
    <i name="ewald">   1829.50350860 </i>
    <i name="hartreedc">  -2438.02741678 </i>
    <i name="XCdc">     13.95215911 </i>
    <i name="pawpsdc">   2049.13429538 </i>
    <i name="pawaedc">  -2016.80861705 </i>
    <i name="eentropy">     -0.00000000 </i>
    <i name="bandstr">   -168.54716500 </i>
    <i name="atom">    704.16778566 </i>
    <i name="e_fr_energy">    -21.44738721 </i>
    <i name="e_wo_entrp">    -21.44738721 </i>
    <i name="e_0_energy">    -21.44738721 </i>
   </energy>
  </scstep>
  <structure>
   <crystal>
    <varray name="basis" >
     <v>       3.34629700       0.00000000       0.00000000 </v>
     <v>       0.00000000       4.62335100      -0.00005300 </v>
     <v>       0.00000000       0.00000000      20.02439000 </v>
    </varray>
    <i name="volume">    309.79945189 </i>
    <varray name="rec_basis" >
     <v>       0.29883779       0.00000000       0.00000000 </v>
     <v>       0.00000000       0.21629333       0.00000000 </v>
     <v>       0.00000000       0.00000057       0.04993910 </v>
    </varray>
   </crystal>
   <varray name="positions" >
    <v>       0.50000000       0.91011392       0.55245759 </v>
    <v>       0.50000000       0.08988608       0.44754241 </v>
    <v>       0.00000000       0.41010955       0.44754242 </v>
    <v>      -0.00000000       0.58989045       0.55245758 </v>
   </varray>
  </structure>
  <varray name="forces" >
   <v>      -0.00000002       0.00574477      -0.01383674 </v>
   <v>       0.00000002      -0.00574477       0.01383674 </v>
   <v>       0.00000000       0.00572344       0.01383475 </v>
   <v>      -0.00000000      -0.00572344      -0.01383475 </v>
  </varray>
  <varray name="stress" >
   <v>      -7.16200083      -0.00000007       0.00000015 </v>
   <v>      -0.00000005      -1.24950260       0.00024566 </v>
   <v>       0.00000027       0.00024562      -0.38110129 </v>
  </varray>
  <energy>
   <i name="e_fr_energy">    -21.44738721 </i>
   <i name="e_wo_entrp">    -21.44738721 </i>
   <i name="e_0_energy">     -0.00000000 </i>
  </energy>
  <time name="totalsc">    9.70    9.72</time>
 </calculation>
 <calculation>
  <scstep>
   <time name="dav">    1.47    1.47</time>
   <time name="total">    1.59    1.59</time>
   <energy>
    <i name="alphaZ">      5.17806287 </i>
    <i name="ewald">   1829.97006284 </i>
    <i name="hartreedc">  -2438.46977181 </i>
    <i name="XCdc">     13.95504430 </i>
    <i name="pawpsdc">   2049.26952707 </i>
    <i name="pawaedc">  -2016.94384613 </i>
    <i name="eentropy">     -0.00000000 </i>
    <i name="bandstr">   -168.57426954 </i>
    <i name="atom">    704.16778566 </i>
    <i name="e_fr_energy">    -21.44740474 </i>
    <i name="e_wo_entrp">    -21.44740474 </i>
    <i name="e_0_energy">    -21.44740474 </i>
   </energy>
  </scstep>
  <scstep>
   <time name="dav">    1.70    1.70</time>
   <time name="total">    1.81    1.81</time>
   <energy>
    <i name="e_fr_energy">    -21.44741016 </i>
    <i name="e_wo_entrp">    -21.44741016 </i>
    <i name="e_0_energy">    -21.44741016 </i>
   </energy>
  </scstep>
  <scstep>
   <time name="dav">    1.16    1.16</time>
   <time name="total">    1.28    1.28</time>
   <energy>
    <i name="e_fr_energy">    -21.44741023 </i>
    <i name="e_wo_entrp">    -21.44741023 </i>
    <i name="e_0_energy">    -21.44741023 </i>
   </energy>
  </scstep>
  <scstep>
   <time name="dav">    1.15    1.15</time>
   <time name="total">    1.27    1.27</time>
   <energy>
    <i name="e_fr_energy">    -21.44741053 </i>
    <i name="e_wo_entrp">    -21.44741053 </i>
    <i name="e_0_energy">    -21.44741053 </i>
   </energy>
  </scstep>
  <scstep>
   <time name="dav">    1.15    1.15</time>
   <time name="total">    1.26    1.26</time>
   <energy>
    <i name="e_fr_energy">    -21.44741060 </i>
    <i name="e_wo_entrp">    -21.44741060 </i>
    <i name="e_0_energy">    -21.44741060 </i>
   </energy>
  </scstep>
  <scstep>
   <time name="dav">    1.12    1.12</time>
   <time name="total">    1.14    1.14</time>
   <energy>
    <i name="alphaZ">      5.17806287 </i>
    <i name="ewald">   1829.97006284 </i>
    <i name="hartreedc">  -2438.46680171 </i>
    <i name="XCdc">     13.95520841 </i>
    <i name="pawpsdc">   2050.82356809 </i>
    <i name="pawaedc">  -2018.49833613 </i>
    <i name="eentropy">     -0.00000000 </i>
    <i name="bandstr">   -168.57696071 </i>
    <i name="atom">    704.16778566 </i>
    <i name="e_fr_energy">    -21.44741067 </i>
    <i name="e_wo_entrp">    -21.44741067 </i>
    <i name="e_0_energy">    -21.44741067 </i>
   </energy>
  </scstep>
  <structure>
   <crystal>
    <varray name="basis" >
     <v>       3.34629700       0.00000000       0.00000000 </v>
     <v>       0.00000000       4.62335100      -0.00005300 </v>
     <v>       0.00000000       0.00000000      20.02439000 </v>
    </varray>
    <i name="volume">    309.79945189 </i>
    <varray name="rec_basis" >
     <v>       0.29883779       0.00000000       0.00000000 </v>
     <v>       0.00000000       0.21629333       0.00000000 </v>
     <v>       0.00000000       0.00000057       0.04993910 </v>
    </varray>
   </crystal>
   <varray name="positions" >
    <v>       0.50000000       0.91013070       0.55243135 </v>
    <v>       0.50000000       0.08986930       0.44756865 </v>
    <v>       0.00000000       0.41012615       0.44756866 </v>
    <v>      -0.00000000       0.58987385       0.55243134 </v>
   </varray>
  </structure>
  <varray name="forces" >
   <v>       0.00000003       0.00225784      -0.00592588 </v>
   <v>      -0.00000003      -0.00225784       0.00592588 </v>
   <v>      -0.00000005       0.00224098       0.00592481 </v>
   <v>       0.00000005      -0.00224098      -0.00592481 </v>
  </varray>
  <varray name="stress" >
   <v>      -7.15574154       0.00000053       0.00000032 </v>
   <v>       0.00000055      -1.24343968       0.00019956 </v>
   <v>       0.00000035       0.00019959      -0.20231661 </v>
  </varray>
  <energy>
   <i name="e_fr_energy">    -21.44741067 </i>
   <i name="e_wo_entrp">    -21.44741067 </i>
   <i name="e_0_energy">     -0.00000000 </i>
  </energy>
  <time name="totalsc">    9.05    9.07</time>
  <eigenvalues>
   <array>
    <dimension dim="1">band</dimension>
    <dimension dim="2">kpoint</dimension>
    <dimension dim="3">spin</dimension>
    <field>eigene</field>
    <field>occ</field>
    <set>
     <set comment="spin 1">
      <set comment="kpoint 1">
       <r>  -17.1778    1.0000 </r>
       <r>  -14.6997    1.0000 </r>
       <r>  -11.4892    1.0000 </r>
       <r>   -7.8993    1.0000 </r>
       <r>   -7.0004    1.0000 </r>
       <r>   -6.7206    1.0000 </r>
       <r>   -5.7903    1.0000 </r>
       <r>   -4.1974    1.0000 </r>
       <r>   -3.8791    1.0000 </r>
       <r>   -2.3148    1.0000 </r>
       <r>   -1.3323    0.0000 </r>
       <r>   -0.8570    0.0000 </r>
       <r>    0.1251    0.0000 </r>
       <r>    0.8392    0.0000 </r>
       <r>    2.1314    0.0000 </r>
       <r>    2.2788    0.0000 </r>
      </set>
      <set comment="kpoint 2">
       <r>  -17.1517    1.0000 </r>
       <r>  -14.6724    1.0000 </r>
       <r>  -11.5014    1.0000 </r>
       <r>   -7.8797    1.0000 </r>
       <r>   -7.0261    1.0000 </r>
       <r>   -6.6977    1.0000 </r>
       <r>   -5.9490    1.0000 </r>
       <r>   -4.3631    1.0000 </r>
       <r>   -3.8700    1.0000 </r>
       <r>   -2.3178    1.0000 </r>
       <r>   -1.3080    0.0000 </r>
       <r>   -0.6279    0.0000 </r>
       <r>    0.3542    0.0000 </r>
       <r>    0.6855    0.0000 </r>
       <r>    2.1584    0.0000 </r>
       <r>    2.3080    0.0000 </r>
      </set>
      <set comment="kpoint 3">
       <r>  -17.0735    1.0000 </r>
       <r>  -14.5904    1.0000 </r>
       <r>  -11.5434    1.0000 </r>
       <r>   -7.8216    1.0000 </r>
       <r>   -7.1242    1.0000 </r>
       <r>   -6.6294    1.0000 </r>
       <r>   -6.3377    1.0000 </r>
       <r>   -4.7397    1.0000 </r>
       <r>   -3.8465    1.0000 </r>
       <r>   -2.3444    1.0000 </r>
       <r>   -1.2354    0.0000 </r>
       <r>   -0.0098    0.0000 </r>
       <r>    0.3027    0.0000 </r>
       <r>    0.9189    0.0000 </r>
       <r>    2.2346    0.0000 </r>
       <r>    2.3954    0.0000 </r>
      </set>
      <set comment="kpoint 4">
       <r>  -16.9437    1.0000 </r>
       <r>  -14.4539    1.0000 </r>
       <r>  -11.6303    1.0000 </r>
       <r>   -7.7273    1.0000 </r>
       <r>   -7.3529    1.0000 </r>
       <r>   -6.8009    1.0000 </r>
       <r>   -6.5171    1.0000 </r>
       <r>   -5.1101    1.0000 </r>
       <r>   -3.8209    1.0000 </r>
       <r>   -2.4136    1.0000 </r>
       <r>   -1.1161    0.0000 </r>
       <r>   -0.1699    0.0000 </r>
       <r>    0.8595    0.0000 </r>
       <r>    1.5316    0.0000 </r>
       <r>    2.2821    0.0000 </r>
       <r>    2.5404    0.0000 </r>
      </set>
      <set comment="kpoint 5">
       <r>  -16.7627    1.0000 </r>
       <r>  -14.2633    1.0000 </r>
       <r>  -11.7846    1.0000 </r>
       <r>   -7.7616    1.0000 </r>
       <r>   -7.6016    1.0000 </r>
       <r>   -7.2212    1.0000 </r>
       <r>   -6.3633    1.0000 </r>
       <r>   -5.3275    1.0000 </r>
       <r>   -3.8162    1.0000 </r>
       <r>   -2.5346    1.0000 </r>
       <r>   -0.9534    0.0000 </r>
       <r>   -0.6200    0.0000 </r>
       <r>    1.6288    0.0000 </r>
       <r>    1.8422    0.0000 </r>
       <r>    1.8677    0.0000 </r>
       <r>    2.6609    0.0000 </r>
      </set>
      <set comment="kpoint 6">
       <r>  -16.5317    1.0000 </r>
       <r>  -14.0189    1.0000 </r>
       <r>  -12.0270    1.0000 </r>
       <r>   -8.3210    1.0000 </r>
       <r>   -7.5287    1.0000 </r>
       <r>   -7.4527    1.0000 </r>
       <r>   -6.1720    1.0000 </r>
       <r>   -5.3768    1.0000 </r>
       <r>   -3.8647    1.0000 </r>
       <r>   -2.7143    1.0000 </r>
       <r>   -0.9614    0.0000 </r>
       <r>   -0.7551    0.0000 </r>
       <r>    1.1320    0.0000 </r>
       <r>    1.3102    0.0000 </r>
       <r>    2.4159    0.0000 </r>
       <r>    2.9094    0.0000 </r>
      </set>
      <set comment="kpoint 7">
       <r>  -16.2520    1.0000 </r>
       <r>  -13.7213    1.0000 </r>
       <r>  -12.3633    1.0000 </r>
       <r>   -8.9576    1.0000 </r>
       <r>   -7.6939    1.0000 </r>
       <r>   -7.2944    1.0000 </r>
       <r>   -5.9498    1.0000 </r>
       <r>   -5.3156    1.0000 </r>
       <r>   -3.9888    1.0000 </r>
       <r>   -2.9532    1.0000 </r>
       <r>   -1.1336    0.0000 </r>
       <r>   -0.5462    0.0000 </r>
       <r>    0.5265    0.0000 </r>
       <r>    0.7961    0.0000 </r>
       <r>    2.0560    0.0000 </r>
       <r>    3.2106    0.0000 </r>
      </set>
      <set comment="kpoint 8">
       <r>  -15.9254    1.0000 </r>
       <r>  -13.3713    1.0000 </r>
       <r>  -12.7787    1.0000 </r>
       <r>   -9.6158    1.0000 </r>
       <r>   -7.7220    1.0000 </r>
       <r>   -7.1500    1.0000 </r>
       <r>   -5.7074    1.0000 </r>
       <r>   -5.2006    1.0000 </r>
       <r>   -4.1681    1.0000 </r>
       <r>   -3.2414    1.0000 </r>
       <r>   -1.1215    0.0000 </r>
       <r>   -0.4264    0.0000 </r>
       <r>   -0.0407    0.0000 </r>
       <r>    0.4597    0.0000 </r>
       <r>    1.5749    0.0000 </r>
       <r>    2.9254    0.0000 </r>
      </set>
      <set comment="kpoint 9">
       <r>  -15.5548    1.0000 </r>
       <r>  -13.2452    1.0000 </r>
       <r>  -12.9699    1.0000 </r>
       <r>  -10.2646    1.0000 </r>
       <r>   -7.6404    1.0000 </r>
       <r>   -7.0545    1.0000 </r>
       <r>   -5.4611    1.0000 </r>
       <r>   -5.0780    1.0000 </r>
       <r>   -4.3333    1.0000 </r>
       <r>   -3.5576    1.0000 </r>
       <r>   -0.9530    0.0000 </r>
       <r>   -0.5770    0.0000 </r>
       <r>   -0.5157    0.0000 </r>
       <r>    0.5086    0.0000 </r>
       <r>    1.0823    0.0000 </r>
       <r>    2.5304    0.0000 </r>
      </set>
      <set comment="kpoint 10">
       <r>  -15.1438    1.0000 </r>
       <r>  -13.7347    1.0000 </r>
       <r>  -12.5185    1.0000 </r>
       <r>  -10.8872    1.0000 </r>
       <r>   -7.4864    1.0000 </r>
       <r>   -7.0460    1.0000 </r>
       <r>   -5.2361    1.0000 </r>
       <r>   -4.9913    1.0000 </r>
       <r>   -4.4047    1.0000 </r>
       <r>   -3.8720    1.0000 </r>
       <r>   -0.8567    0.0000 </r>
       <r>   -0.8381    0.0000 </r>
       <r>   -0.6685    0.0000 </r>
       <r>    0.5941    0.0000 </r>
       <r>    0.8115    0.0000 </r>
       <r>    2.0889    0.0000 </r>
      </set>
      <set comment="kpoint 11">
       <r>  -14.6977    1.0000 </r>
       <r>  -14.2243    1.0000 </r>
       <r>  -12.0190    1.0000 </r>
       <r>  -11.4739    1.0000 </r>
       <r>   -7.3025    1.0000 </r>
       <r>   -7.1384    1.0000 </r>
       <r>   -5.0652    1.0000 </r>
       <r>   -4.9801    1.0000 </r>
       <r>   -4.3387    1.0000 </r>
       <r>   -4.1471    1.0000 </r>
       <r>   -1.0275    0.0000 </r>
       <r>   -1.0133    0.0000 </r>
       <r>   -0.3004    0.0000 </r>
       <r>    0.1270    0.0000 </r>
       <r>    1.2044    0.0000 </r>
       <r>    1.6384    0.0000 </r>
      </set>
      <set comment="kpoint 12">
       <r>  -17.1564    1.0000 </r>
       <r>  -14.7310    1.0000 </r>
       <r>  -11.4935    1.0000 </r>
       <r>   -8.0622    1.0000 </r>
       <r>   -6.8946    1.0000 </r>
       <r>   -6.6325    1.0000 </r>
       <r>   -5.7737    1.0000 </r>
       <r>   -4.2129    1.0000 </r>
       <r>   -3.7887    1.0000 </r>
       <r>   -2.5020    1.0000 </r>
       <r>   -1.1588    0.0000 </r>
       <r>   -0.8392    0.0000 </r>
       <r>    0.0768    0.0000 </r>
       <r>    0.8253    0.0000 </r>
       <r>    2.1874    0.0000 </r>
       <r>    2.3090    0.0000 </r>
      </set>
      <set comment="kpoint 13">
       <r>  -17.1303    1.0000 </r>
       <r>  -14.7039    1.0000 </r>
       <r>  -11.5043    1.0000 </r>
       <r>   -8.0476    1.0000 </r>
       <r>   -6.9131    1.0000 </r>
       <r>   -6.6216    1.0000 </r>
       <r>   -5.9209    1.0000 </r>
       <r>   -4.3851    1.0000 </r>
       <r>   -3.7796    1.0000 </r>
       <r>   -2.5011    1.0000 </r>
       <r>   -1.1383    0.0000 </r>
       <r>   -0.6108    0.0000 </r>
       <r>    0.3001    0.0000 </r>
       <r>    0.6833    0.0000 </r>
       <r>    2.2132    0.0000 </r>
       <r>    2.3381    0.0000 </r>
      </set>
      <set comment="kpoint 14">
       <r>  -17.0522    1.0000 </r>
       <r>  -14.6225    1.0000 </r>
       <r>  -11.5420    1.0000 </r>
       <r>   -8.0086    1.0000 </r>
       <r>   -6.9855    1.0000 </r>
       <r>   -6.6334    1.0000 </r>
       <r>   -6.2324    1.0000 </r>
       <r>   -4.7733    1.0000 </r>
       <r>   -3.7626    1.0000 </r>
       <r>   -2.5127    1.0000 </r>
       <r>   -1.0811    0.0000 </r>
       <r>    0.0062    0.0000 </r>
       <r>    0.2845    0.0000 </r>
       <r>    0.8986    0.0000 </r>
       <r>    2.2853    0.0000 </r>
       <r>    2.4252    0.0000 </r>
      </set>
      <set comment="kpoint 15">
       <r>  -16.9225    1.0000 </r>
       <r>  -14.4872    1.0000 </r>
       <r>  -11.6220    1.0000 </r>
       <r>   -7.9708    1.0000 </r>
       <r>   -7.1502    1.0000 </r>
       <r>   -6.9026    1.0000 </r>
       <r>   -6.3204    1.0000 </r>
       <r>   -5.1535    1.0000 </r>
       <r>   -3.7530    1.0000 </r>
       <r>   -2.5562    1.0000 </r>
       <r>   -0.9861    0.0000 </r>
       <r>   -0.1620    0.0000 </r>
       <r>    0.8700    0.0000 </r>
       <r>    1.5274    0.0000 </r>
       <r>    2.2606    0.0000 </r>
       <r>    2.5063    0.0000 </r>
      </set>
      <set comment="kpoint 16">
       <r>  -16.7417    1.0000 </r>
       <r>  -14.2987    1.0000 </r>
       <r>  -11.7668    1.0000 </r>
       <r>   -8.0454    1.0000 </r>
       <r>   -7.3565    1.0000 </r>
       <r>   -7.2918    1.0000 </r>
       <r>   -6.2078    1.0000 </r>
       <r>   -5.3742    1.0000 </r>
       <r>   -3.7739    1.0000 </r>
       <r>   -2.6465    1.0000 </r>
       <r>   -0.8517    0.0000 </r>
       <r>   -0.5811    0.0000 </r>
       <r>    1.6191    0.0000 </r>
       <r>    1.6909    0.0000 </r>
       <r>    1.9736    0.0000 </r>
       <r>    2.6255    0.0000 </r>
      </set>
      <set comment="kpoint 17">
       <r>  -16.5110    1.0000 </r>
       <r>  -14.0581    1.0000 </r>
       <r>  -11.9978    1.0000 </r>
       <r>   -8.4284    1.0000 </r>
       <r>   -7.5928    1.0000 </r>
       <r>   -7.3856    1.0000 </r>
       <r>   -6.0361    1.0000 </r>
       <r>   -5.4235    1.0000 </r>
       <r>   -3.8536    1.0000 </r>
       <r>   -2.7951    1.0000 </r>
       <r>   -0.8847    0.0000 </r>
       <r>   -0.6814    0.0000 </r>
       <r>    1.1222    0.0000 </r>
       <r>    1.2274    0.0000 </r>
       <r>    2.5178    0.0000 </r>
       <r>    2.9524    0.0000 </r>
      </set>
      <set comment="kpoint 18">
       <r>  -16.2317    1.0000 </r>
       <r>  -13.7689    1.0000 </r>
       <r>  -12.3197    1.0000 </r>
       <r>   -9.0117    1.0000 </r>
       <r>   -7.7554    1.0000 </r>
       <r>   -7.2804    1.0000 </r>
       <r>   -5.8326    1.0000 </r>
       <r>   -5.3687    1.0000 </r>
       <r>   -4.0009    1.0000 </r>
       <r>   -3.0050    1.0000 </r>
       <r>   -1.0215    0.0000 </r>
       <r>   -0.4988    0.0000 </r>
       <r>    0.6142    0.0000 </r>
       <r>    0.6281    0.0000 </r>
       <r>    2.2373    0.0000 </r>
       <r>    3.1462    0.0000 </r>
      </set>
      <set comment="kpoint 19">
       <r>  -15.9058    1.0000 </r>
       <r>  -13.4470    1.0000 </r>
       <r>  -12.7031    1.0000 </r>
       <r>   -9.6505    1.0000 </r>
       <r>   -7.7799    1.0000 </r>
       <r>   -7.1512    1.0000 </r>
       <r>   -5.6149    1.0000 </r>
       <r>   -5.2780    1.0000 </r>
       <r>   -4.1743    1.0000 </r>
       <r>   -3.2652    1.0000 </r>
       <r>   -0.9900    0.0000 </r>
       <r>   -0.4235    0.0000 </r>
       <r>    0.0606    0.0000 </r>
       <r>    0.3043    0.0000 </r>
       <r>    1.8018    0.0000 </r>
       <r>    2.8753    0.0000 </r>
      </set>
      <set comment="kpoint 20">
       <r>  -15.5361    1.0000 </r>
       <r>  -13.3304    1.0000 </r>
       <r>  -12.8831    1.0000 </r>
       <r>  -10.2900    1.0000 </r>
       <r>   -7.6922    1.0000 </r>
       <r>   -7.0588    1.0000 </r>
       <r>   -5.4065    1.0000 </r>
       <r>   -5.2063    1.0000 </r>
       <r>   -4.2895    1.0000 </r>
       <r>   -3.5502    1.0000 </r>
       <r>   -0.8453    0.0000 </r>
       <r>   -0.6347    0.0000 </r>
       <r>   -0.3945    0.0000 </r>
       <r>    0.3869    0.0000 </r>
       <r>    1.3513    0.0000 </r>
       <r>    2.4886    0.0000 </r>
      </set>
      <set comment="kpoint 21">
       <r>  -15.1266    1.0000 </r>
       <r>  -13.7400    1.0000 </r>
       <r>  -12.5111    1.0000 </r>
       <r>  -10.9067    1.0000 </r>
       <r>   -7.5290    1.0000 </r>
       <r>   -7.0539    1.0000 </r>
       <r>   -5.2411    1.0000 </r>
       <r>   -5.1699    1.0000 </r>
       <r>   -4.2914    1.0000 </r>
       <r>   -3.8232    1.0000 </r>
       <r>   -0.9056    0.0000 </r>
       <r>   -0.8871    0.0000 </r>
       <r>   -0.4324    0.0000 </r>
       <r>    0.5546    0.0000 </r>
       <r>    1.0220    0.0000 </r>
       <r>    2.0565    0.0000 </r>
      </set>
      <set comment="kpoint 22">
       <r>  -14.6833    1.0000 </r>
       <r>  -14.2153    1.0000 </r>
       <r>  -12.0264    1.0000 </r>
       <r>  -11.4883    1.0000 </r>
       <r>   -7.3332    1.0000 </r>
       <r>   -7.1560    1.0000 </r>
       <r>   -5.1536    1.0000 </r>
       <r>   -5.1453    1.0000 </r>
       <r>   -4.2020    1.0000 </r>
       <r>   -4.0465    1.0000 </r>
       <r>   -1.0654    0.0000 </r>
       <r>   -1.0565    0.0000 </r>
       <r>   -0.1050    0.0000 </r>
       <r>    0.2862    0.0000 </r>
       <r>    1.2201    0.0000 </r>
       <r>    1.6204    0.0000 </r>
      </set>
      <set comment="kpoint 23">
       <r>  -14.6833    1.0000 </r>
       <r>  -14.2153    1.0000 </r>
       <r>  -12.0264    1.0000 </r>
       <r>  -11.4883    1.0000 </r>
       <r>   -7.3332    1.0000 </r>
       <r>   -7.1560    1.0000 </r>
       <r>   -5.1536    1.0000 </r>
       <r>   -5.1453    1.0000 </r>
       <r>   -4.2020    1.0000 </r>
       <r>   -4.0465    1.0000 </r>
       <r>   -1.0654    0.0000 </r>
       <r>   -1.0565    0.0000 </r>
       <r>   -0.1050    0.0000 </r>
       <r>    0.2862    0.0000 </r>
       <r>    1.2201    0.0000 </r>
       <r>    1.6204    0.0000 </r>
      </set>
      <set comment="kpoint 24">
       <r>  -15.1266    1.0000 </r>
       <r>  -13.7400    1.0000 </r>
       <r>  -12.5111    1.0000 </r>
       <r>  -10.9067    1.0000 </r>
       <r>   -7.5290    1.0000 </r>
       <r>   -7.0539    1.0000 </r>
       <r>   -5.2411    1.0000 </r>
       <r>   -5.1699    1.0000 </r>
       <r>   -4.2914    1.0000 </r>
       <r>   -3.8232    1.0000 </r>
       <r>   -0.9056    0.0000 </r>
       <r>   -0.8871    0.0000 </r>
       <r>   -0.4324    0.0000 </r>
       <r>    0.5546    0.0000 </r>
       <r>    1.0220    0.0000 </r>
       <r>    2.0565    0.0000 </r>
      </set>
      <set comment="kpoint 25">
       <r>  -15.5361    1.0000 </r>
       <r>  -13.3304    1.0000 </r>
       <r>  -12.8831    1.0000 </r>
       <r>  -10.2900    1.0000 </r>
       <r>   -7.6922    1.0000 </r>
       <r>   -7.0588    1.0000 </r>
       <r>   -5.4065    1.0000 </r>
       <r>   -5.2063    1.0000 </r>
       <r>   -4.2895    1.0000 </r>
       <r>   -3.5502    1.0000 </r>
       <r>   -0.8453    0.0000 </r>
       <r>   -0.6347    0.0000 </r>
       <r>   -0.3945    0.0000 </r>
       <r>    0.3869    0.0000 </r>
       <r>    1.3513    0.0000 </r>
       <r>    2.4886    0.0000 </r>
      </set>
      <set comment="kpoint 26">
       <r>  -15.9058    1.0000 </r>
       <r>  -13.4470    1.0000 </r>
       <r>  -12.7031    1.0000 </r>
       <r>   -9.6505    1.0000 </r>
       <r>   -7.7799    1.0000 </r>
       <r>   -7.1512    1.0000 </r>
       <r>   -5.6149    1.0000 </r>
       <r>   -5.2780    1.0000 </r>
       <r>   -4.1743    1.0000 </r>
       <r>   -3.2652    1.0000 </r>
       <r>   -0.9900    0.0000 </r>
       <r>   -0.4235    0.0000 </r>
       <r>    0.0606    0.0000 </r>
       <r>    0.3043    0.0000 </r>
       <r>    1.8018    0.0000 </r>
       <r>    2.8753    0.0000 </r>
      </set>
      <set comment="kpoint 27">
       <r>  -16.2317    1.0000 </r>
       <r>  -13.7689    1.0000 </r>
       <r>  -12.3197    1.0000 </r>
       <r>   -9.0117    1.0000 </r>
       <r>   -7.7554    1.0000 </r>
       <r>   -7.2804    1.0000 </r>
       <r>   -5.8326    1.0000 </r>
       <r>   -5.3687    1.0000 </r>
       <r>   -4.0009    1.0000 </r>
       <r>   -3.0050    1.0000 </r>
       <r>   -1.0215    0.0000 </r>
       <r>   -0.4988    0.0000 </r>
       <r>    0.6142    0.0000 </r>
       <r>    0.6281    0.0000 </r>
       <r>    2.2373    0.0000 </r>
       <r>    3.1462    0.0000 </r>
      </set>
      <set comment="kpoint 28">
       <r>  -16.5110    1.0000 </r>
       <r>  -14.0581    1.0000 </r>
       <r>  -11.9978    1.0000 </r>
       <r>   -8.4284    1.0000 </r>
       <r>   -7.5928    1.0000 </r>
       <r>   -7.3856    1.0000 </r>
       <r>   -6.0361    1.0000 </r>
       <r>   -5.4235    1.0000 </r>
       <r>   -3.8536    1.0000 </r>
       <r>   -2.7951    1.0000 </r>
       <r>   -0.8847    0.0000 </r>
       <r>   -0.6814    0.0000 </r>
       <r>    1.1222    0.0000 </r>
       <r>    1.2274    0.0000 </r>
       <r>    2.5178    0.0000 </r>
       <r>    2.9524    0.0000 </r>
      </set>
      <set comment="kpoint 29">
       <r>  -16.7417    1.0000 </r>
       <r>  -14.2987    1.0000 </r>
       <r>  -11.7668    1.0000 </r>
       <r>   -8.0454    1.0000 </r>
       <r>   -7.3565    1.0000 </r>
       <r>   -7.2918    1.0000 </r>
       <r>   -6.2078    1.0000 </r>
       <r>   -5.3742    1.0000 </r>
       <r>   -3.7739    1.0000 </r>
       <r>   -2.6465    1.0000 </r>
       <r>   -0.8517    0.0000 </r>
       <r>   -0.5811    0.0000 </r>
       <r>    1.6191    0.0000 </r>
       <r>    1.6909    0.0000 </r>
       <r>    1.9736    0.0000 </r>
       <r>    2.6255    0.0000 </r>
      </set>
      <set comment="kpoint 30">
       <r>  -16.9225    1.0000 </r>
       <r>  -14.4872    1.0000 </r>
       <r>  -11.6220    1.0000 </r>
       <r>   -7.9708    1.0000 </r>
       <r>   -7.1502    1.0000 </r>
       <r>   -6.9026    1.0000 </r>
       <r>   -6.3204    1.0000 </r>
       <r>   -5.1535    1.0000 </r>
       <r>   -3.7530    1.0000 </r>
       <r>   -2.5562    1.0000 </r>
       <r>   -0.9861    0.0000 </r>
       <r>   -0.1620    0.0000 </r>
       <r>    0.8700    0.0000 </r>
       <r>    1.5274    0.0000 </r>
       <r>    2.2606    0.0000 </r>
       <r>    2.5063    0.0000 </r>
      </set>
      <set comment="kpoint 31">
       <r>  -17.0522    1.0000 </r>
       <r>  -14.6225    1.0000 </r>
       <r>  -11.5420    1.0000 </r>
       <r>   -8.0086    1.0000 </r>
       <r>   -6.9855    1.0000 </r>
       <r>   -6.6334    1.0000 </r>
       <r>   -6.2324    1.0000 </r>
       <r>   -4.7733    1.0000 </r>
       <r>   -3.7626    1.0000 </r>
       <r>   -2.5127    1.0000 </r>
       <r>   -1.0811    0.0000 </r>
       <r>    0.0062    0.0000 </r>
       <r>    0.2845    0.0000 </r>
       <r>    0.8986    0.0000 </r>
       <r>    2.2853    0.0000 </r>
       <r>    2.4252    0.0000 </r>
      </set>
      <set comment="kpoint 32">
       <r>  -17.1303    1.0000 </r>
       <r>  -14.7039    1.0000 </r>
       <r>  -11.5043    1.0000 </r>
       <r>   -8.0476    1.0000 </r>
       <r>   -6.9131    1.0000 </r>
       <r>   -6.6216    1.0000 </r>
       <r>   -5.9209    1.0000 </r>
       <r>   -4.3851    1.0000 </r>
       <r>   -3.7796    1.0000 </r>
       <r>   -2.5011    1.0000 </r>
       <r>   -1.1383    0.0000 </r>
       <r>   -0.6108    0.0000 </r>
       <r>    0.3001    0.0000 </r>
       <r>    0.6833    0.0000 </r>
       <r>    2.2132    0.0000 </r>
       <r>    2.3381    0.0000 </r>
      </set>
      <set comment="kpoint 33">
       <r>  -17.0926    1.0000 </r>
       <r>  -14.8245    1.0000 </r>
       <r>  -11.4957    1.0000 </r>
       <r>   -8.4212    1.0000 </r>
       <r>   -6.6871    1.0000 </r>
       <r>   -6.3808    1.0000 </r>
       <r>   -5.7244    1.0000 </r>
       <r>   -4.2596    1.0000 </r>
       <r>   -3.5460    1.0000 </r>
       <r>   -2.8849    1.0000 </r>
       <r>   -0.8117    0.0000 </r>
       <r>   -0.7868    0.0000 </r>
       <r>   -0.0624    0.0000 </r>
       <r>    0.7928    0.0000 </r>
       <r>    2.3488    0.0000 </r>
       <r>    2.3987    0.0000 </r>
      </set>
      <set comment="kpoint 34">
       <r>  -17.0666    1.0000 </r>
       <r>  -14.7978    1.0000 </r>
       <r>  -11.5029    1.0000 </r>
       <r>   -8.4107    1.0000 </r>
       <r>   -6.6959    1.0000 </r>
       <r>   -6.4155    1.0000 </r>
       <r>   -5.8273    1.0000 </r>
       <r>   -4.4434    1.0000 </r>
       <r>   -3.5439    1.0000 </r>
       <r>   -2.8798    1.0000 </r>
       <r>   -0.7985    0.0000 </r>
       <r>   -0.5577    0.0000 </r>
       <r>    0.1569    0.0000 </r>
       <r>    0.6739    0.0000 </r>
       <r>    2.3710    0.0000 </r>
       <r>    2.4275    0.0000 </r>
      </set>
      <set comment="kpoint 35">
       <r>  -16.9887    1.0000 </r>
       <r>  -14.7181    1.0000 </r>
       <r>  -11.5297    1.0000 </r>
       <r>   -8.3848    1.0000 </r>
       <r>   -6.7393    1.0000 </r>
       <r>   -6.6105    1.0000 </r>
       <r>   -5.9629    1.0000 </r>
       <r>   -4.8579    1.0000 </r>
       <r>   -3.5517    1.0000 </r>
       <r>   -2.8736    1.0000 </r>
       <r>   -0.7597    0.0000 </r>
       <r>    0.0550    0.0000 </r>
       <r>    0.2543    0.0000 </r>
       <r>    0.8316    0.0000 </r>
       <r>    2.4307    0.0000 </r>
       <r>    2.5140    0.0000 </r>
      </set>
      <set comment="kpoint 36">
       <r>  -16.8593    1.0000 </r>
       <r>  -14.5858    1.0000 </r>
       <r>  -11.5913    1.0000 </r>
       <r>   -8.3680    1.0000 </r>
       <r>   -6.9992    1.0000 </r>
       <r>   -6.8659    1.0000 </r>
       <r>   -5.9491    1.0000 </r>
       <r>   -5.2625    1.0000 </r>
       <r>   -3.5896    1.0000 </r>
       <r>   -2.8820    1.0000 </r>
       <r>   -0.6951    0.0000 </r>
       <r>   -0.1119    0.0000 </r>
       <r>    0.8956    0.0000 </r>
       <r>    1.4933    0.0000 </r>
       <r>    2.0012    0.0000 </r>
       <r>    2.5383    0.0000 </r>
      </set>
      <set comment="kpoint 37">
       <r>  -16.6791    1.0000 </r>
       <r>  -14.4025    1.0000 </r>
       <r>  -11.7112    1.0000 </r>
       <r>   -8.4276    1.0000 </r>
       <r>   -7.4070    1.0000 </r>
       <r>   -7.0873    1.0000 </r>
       <r>   -5.8470    1.0000 </r>
       <r>   -5.4877    1.0000 </r>
       <r>   -3.6799    1.0000 </r>
       <r>   -2.9209    1.0000 </r>
       <r>   -0.6040    0.0000 </r>
       <r>   -0.4441    0.0000 </r>
       <r>    1.2633    0.0000 </r>
       <r>    1.8285    0.0000 </r>
       <r>    2.0546    0.0000 </r>
       <r>    2.6500    0.0000 </r>
      </set>
      <set comment="kpoint 38">
       <r>  -16.4492    1.0000 </r>
       <r>  -14.1711    1.0000 </r>
       <r>  -11.9125    1.0000 </r>
       <r>   -8.6853    1.0000 </r>
       <r>   -7.7192    1.0000 </r>
       <r>   -7.2522    1.0000 </r>
       <r>   -5.7037    1.0000 </r>
       <r>   -5.5332    1.0000 </r>
       <r>   -3.8355    1.0000 </r>
       <r>   -3.0059    1.0000 </r>
       <r>   -0.6518    0.0000 </r>
       <r>   -0.4871    0.0000 </r>
       <r>    0.7519    0.0000 </r>
       <r>    1.4810    0.0000 </r>
       <r>    2.6576    0.0000 </r>
       <r>    3.0421    0.0000 </r>
      </set>
      <set comment="kpoint 39">
       <r>  -16.1711    1.0000 </r>
       <r>  -13.8995    1.0000 </r>
       <r>  -12.1999    1.0000 </r>
       <r>   -9.1647    1.0000 </r>
       <r>   -7.8884    1.0000 </r>
       <r>   -7.2520    1.0000 </r>
       <r>   -5.5444    1.0000 </r>
       <r>   -5.4963    1.0000 </r>
       <r>   -4.0305    1.0000 </r>
       <r>   -3.1444    1.0000 </r>
       <r>   -0.7069    0.0000 </r>
       <r>   -0.3680    0.0000 </r>
       <r>    0.2720    0.0000 </r>
       <r>    0.9085    0.0000 </r>
       <r>    2.5362    0.0000 </r>
       <r>    2.9987    0.0000 </r>
      </set>
      <set comment="kpoint 40">
       <r>  -15.8471    1.0000 </r>
       <r>  -13.6179    1.0000 </r>
       <r>  -12.5324    1.0000 </r>
       <r>   -9.7530    1.0000 </r>
       <r>   -7.9116    1.0000 </r>
       <r>   -7.1604    1.0000 </r>
       <r>   -5.4673    1.0000 </r>
       <r>   -5.3964    1.0000 </r>
       <r>   -4.1863    1.0000 </r>
       <r>   -3.3252    1.0000 </r>
       <r>   -0.6317    0.0000 </r>
       <r>   -0.4457    0.0000 </r>
       <r>    0.0901    0.0000 </r>
       <r>    0.3446    0.0000 </r>
       <r>    2.2429    0.0000 </r>
       <r>    2.7382    0.0000 </r>
      </set>
      <set comment="kpoint 41">
       <r>  -15.4803    1.0000 </r>
       <r>  -13.4883    1.0000 </r>
       <r>  -12.7206    1.0000 </r>
       <r>  -10.3662    1.0000 </r>
       <r>   -7.8139    1.0000 </r>
       <r>   -7.0729    1.0000 </r>
       <r>   -5.4918    1.0000 </r>
       <r>   -5.2970    1.0000 </r>
       <r>   -4.2181    1.0000 </r>
       <r>   -3.5173    1.0000 </r>
       <r>   -0.7579    0.0000 </r>
       <r>   -0.5387    0.0000 </r>
       <r>   -0.0634    0.0000 </r>
       <r>    0.2676    0.0000 </r>
       <r>    1.8646    0.0000 </r>
       <r>    2.3724    0.0000 </r>
      </set>
      <set comment="kpoint 42">
       <r>  -15.0757    1.0000 </r>
       <r>  -13.7590    1.0000 </r>
       <r>  -12.4866    1.0000 </r>
       <r>  -10.9656    1.0000 </r>
       <r>   -7.6320    1.0000 </r>
       <r>   -7.0729    1.0000 </r>
       <r>   -5.5143    1.0000 </r>
       <r>   -5.2830    1.0000 </r>
       <r>   -4.1275    1.0000 </r>
       <r>   -3.6879    1.0000 </r>
       <r>   -1.0054    0.0000 </r>
       <r>   -0.7496    0.0000 </r>
       <r>    0.0141    0.0000 </r>
       <r>    0.5048    0.0000 </r>
       <r>    1.4910    0.0000 </r>
       <r>    1.9696    0.0000 </r>
      </set>
      <set comment="kpoint 43">
       <r>  -14.6409    1.0000 </r>
       <r>  -14.1903    1.0000 </r>
       <r>  -12.0479    1.0000 </r>
       <r>  -11.5313    1.0000 </r>
       <r>   -7.4087    1.0000 </r>
       <r>   -7.1990    1.0000 </r>
       <r>   -5.4603    1.0000 </r>
       <r>   -5.3562    1.0000 </r>
       <r>   -3.9828    1.0000 </r>
       <r>   -3.8352    1.0000 </r>
       <r>   -1.0963    0.0000 </r>
       <r>   -1.0010    0.0000 </r>
       <r>    0.3148    0.0000 </r>
       <r>    0.5688    0.0000 </r>
       <r>    1.3451    0.0000 </r>
       <r>    1.5878    0.0000 </r>
      </set>
      <set comment="kpoint 44">
       <r>  -14.6409    1.0000 </r>
       <r>  -14.1903    1.0000 </r>
       <r>  -12.0479    1.0000 </r>
       <r>  -11.5313    1.0000 </r>
       <r>   -7.4087    1.0000 </r>
       <r>   -7.1990    1.0000 </r>
       <r>   -5.4603    1.0000 </r>
       <r>   -5.3562    1.0000 </r>
       <r>   -3.9828    1.0000 </r>
       <r>   -3.8352    1.0000 </r>
       <r>   -1.0963    0.0000 </r>
       <r>   -1.0010    0.0000 </r>
       <r>    0.3148    0.0000 </r>
       <r>    0.5688    0.0000 </r>
       <r>    1.3451    0.0000 </r>
       <r>    1.5878    0.0000 </r>
      </set>
      <set comment="kpoint 45">
       <r>  -15.0757    1.0000 </r>
       <r>  -13.7590    1.0000 </r>
       <r>  -12.4866    1.0000 </r>
       <r>  -10.9656    1.0000 </r>
       <r>   -7.6320    1.0000 </r>
       <r>   -7.0729    1.0000 </r>
       <r>   -5.5143    1.0000 </r>
       <r>   -5.2830    1.0000 </r>
       <r>   -4.1275    1.0000 </r>
       <r>   -3.6879    1.0000 </r>
       <r>   -1.0054    0.0000 </r>
       <r>   -0.7496    0.0000 </r>
       <r>    0.0141    0.0000 </r>
       <r>    0.5048    0.0000 </r>
       <r>    1.4910    0.0000 </r>
       <r>    1.9696    0.0000 </r>
      </set>
      <set comment="kpoint 46">
       <r>  -15.4803    1.0000 </r>
       <r>  -13.4883    1.0000 </r>
       <r>  -12.7206    1.0000 </r>
       <r>  -10.3662    1.0000 </r>
       <r>   -7.8139    1.0000 </r>
       <r>   -7.0729    1.0000 </r>
       <r>   -5.4918    1.0000 </r>
       <r>   -5.2970    1.0000 </r>
       <r>   -4.2181    1.0000 </r>
       <r>   -3.5173    1.0000 </r>
       <r>   -0.7579    0.0000 </r>
       <r>   -0.5387    0.0000 </r>
       <r>   -0.0634    0.0000 </r>
       <r>    0.2676    0.0000 </r>
       <r>    1.8646    0.0000 </r>
       <r>    2.3724    0.0000 </r>
      </set>
      <set comment="kpoint 47">
       <r>  -15.8471    1.0000 </r>
       <r>  -13.6179    1.0000 </r>
       <r>  -12.5324    1.0000 </r>
       <r>   -9.7530    1.0000 </r>
       <r>   -7.9116    1.0000 </r>
       <r>   -7.1604    1.0000 </r>
       <r>   -5.4673    1.0000 </r>
       <r>   -5.3964    1.0000 </r>
       <r>   -4.1863    1.0000 </r>
       <r>   -3.3252    1.0000 </r>
       <r>   -0.6317    0.0000 </r>
       <r>   -0.4457    0.0000 </r>
       <r>    0.0901    0.0000 </r>
       <r>    0.3446    0.0000 </r>
       <r>    2.2429    0.0000 </r>
       <r>    2.7382    0.0000 </r>
      </set>
      <set comment="kpoint 48">
       <r>  -16.1711    1.0000 </r>
       <r>  -13.8995    1.0000 </r>
       <r>  -12.1999    1.0000 </r>
       <r>   -9.1647    1.0000 </r>
       <r>   -7.8884    1.0000 </r>
       <r>   -7.2520    1.0000 </r>
       <r>   -5.5444    1.0000 </r>
       <r>   -5.4963    1.0000 </r>
       <r>   -4.0305    1.0000 </r>
       <r>   -3.1444    1.0000 </r>
       <r>   -0.7069    0.0000 </r>
       <r>   -0.3680    0.0000 </r>
       <r>    0.2720    0.0000 </r>
       <r>    0.9085    0.0000 </r>
       <r>    2.5362    0.0000 </r>
       <r>    2.9987    0.0000 </r>
      </set>
      <set comment="kpoint 49">
       <r>  -16.4492    1.0000 </r>
       <r>  -14.1711    1.0000 </r>
       <r>  -11.9125    1.0000 </r>
       <r>   -8.6853    1.0000 </r>
       <r>   -7.7192    1.0000 </r>
       <r>   -7.2522    1.0000 </r>
       <r>   -5.7037    1.0000 </r>
       <r>   -5.5332    1.0000 </r>
       <r>   -3.8355    1.0000 </r>
[...]
       <r>    3.2947    0.0000 </r>
       <r>    3.3549    0.0000 </r>
      </set>
      <set comment="kpoint 153">
       <r>  -15.3329    1.0000 </r>
       <r>  -15.0859    1.0000 </r>
       <r>  -10.9742    1.0000 </r>
       <r>  -10.6540    1.0000 </r>
       <r>   -7.9346    1.0000 </r>
       <r>   -7.7768    1.0000 </r>
       <r>   -5.3180    1.0000 </r>
       <r>   -5.1016    1.0000 </r>
       <r>   -3.8624    1.0000 </r>
       <r>   -3.7681    1.0000 </r>
       <r>    0.2395    0.0000 </r>
       <r>    0.6337    0.0000 </r>
       <r>    1.0629    0.0000 </r>
       <r>    1.3585    0.0000 </r>
       <r>    3.2162    0.0000 </r>
       <r>    3.2978    0.0000 </r>
      </set>
      <set comment="kpoint 154">
       <r>  -15.5921    1.0000 </r>
       <r>  -15.3396    1.0000 </r>
       <r>  -10.8037    1.0000 </r>
       <r>  -10.4737    1.0000 </r>
       <r>   -7.6460    1.0000 </r>
       <r>   -7.4855    1.0000 </r>
       <r>   -5.1755    1.0000 </r>
       <r>   -4.9078    1.0000 </r>
       <r>   -3.7637    1.0000 </r>
       <r>   -3.7489    1.0000 </r>
       <r>    0.2267    0.0000 </r>
       <r>    0.5355    0.0000 </r>
       <r>    1.1663    0.0000 </r>
       <r>    1.5024    0.0000 </r>
       <r>    2.8478    0.0000 </r>
       <r>    3.1080    0.0000 </r>
      </set>
      <set comment="kpoint 155">
       <r>  -15.8102    1.0000 </r>
       <r>  -15.5547    1.0000 </r>
       <r>  -10.7424    1.0000 </r>
       <r>  -10.4136    1.0000 </r>
       <r>   -7.1683    1.0000 </r>
       <r>   -6.9974    1.0000 </r>
       <r>   -5.1700    1.0000 </r>
       <r>   -4.8604    1.0000 </r>
       <r>   -3.6841    1.0000 </r>
       <r>   -3.5425    1.0000 </r>
       <r>    0.2864    0.0000 </r>
       <r>    0.4802    0.0000 </r>
       <r>    1.1766    0.0000 </r>
       <r>    1.5392    0.0000 </r>
       <r>    2.2013    0.0000 </r>
       <r>    2.4244    0.0000 </r>
      </set>
      <set comment="kpoint 156">
       <r>  -15.9829    1.0000 </r>
       <r>  -15.7257    1.0000 </r>
       <r>  -10.7456    1.0000 </r>
       <r>  -10.4218    1.0000 </r>
       <r>   -6.5685    1.0000 </r>
       <r>   -6.3863    1.0000 </r>
       <r>   -5.2222    1.0000 </r>
       <r>   -4.8921    1.0000 </r>
       <r>   -3.6175    1.0000 </r>
       <r>   -3.3551    1.0000 </r>
       <r>    0.3552    0.0000 </r>
       <r>    0.4224    0.0000 </r>
       <r>    1.0853    0.0000 </r>
       <r>    1.3355    0.0000 </r>
       <r>    1.6975    0.0000 </r>
       <r>    1.7423    0.0000 </r>
      </set>
      <set comment="kpoint 157">
       <r>  -16.1077    1.0000 </r>
       <r>  -15.8496    1.0000 </r>
       <r>  -10.7720    1.0000 </r>
       <r>  -10.4526    1.0000 </r>
       <r>   -5.9261    1.0000 </r>
       <r>   -5.7410    1.0000 </r>
       <r>   -5.2776    1.0000 </r>
       <r>   -4.9417    1.0000 </r>
       <r>   -3.6385    1.0000 </r>
       <r>   -3.2696    1.0000 </r>
       <r>    0.1394    0.0000 </r>
       <r>    0.1567    0.0000 </r>
       <r>    1.0328    0.0000 </r>
       <r>    1.0539    0.0000 </r>
       <r>    1.4209    0.0000 </r>
       <r>    1.5896    0.0000 </r>
      </set>
      <set comment="kpoint 158">
       <r>  -16.1830    1.0000 </r>
       <r>  -15.9245    1.0000 </r>
       <r>  -10.7962    1.0000 </r>
       <r>  -10.4796    1.0000 </r>
       <r>   -5.3516    1.0000 </r>
       <r>   -5.3429    1.0000 </r>
       <r>   -5.1514    1.0000 </r>
       <r>   -4.9795    1.0000 </r>
       <r>   -3.7656    1.0000 </r>
       <r>   -3.3121    1.0000 </r>
       <r>   -0.2739    0.0000 </r>
       <r>   -0.2263    0.0000 </r>
       <r>    1.0612    0.0000 </r>
       <r>    1.1372    0.0000 </r>
       <r>    1.3357    0.0000 </r>
       <r>    1.5389    0.0000 </r>
      </set>
     </set>
    </set>
   </array>
  </eigenvalues>
  <separator name="orbital magnetization" >
   <v name="MAGDIPOLOUT">      0.00000000      0.00000000      0.00000000</v>
  </separator>
  <dos>
   <i name="efermi">     -2.21639721 </i>
   <total>
    <array>
     <dimension dim="1">gridpoints</dimension>
     <dimension dim="2">spin</dimension>
     <field>energy</field>
     <field>total</field>
     <field>integrated</field>
     <set>
      <set comment="spin 1">
       <r>   -18.2161     0.0000     0.0000 </r>
       <r>   -18.1400     0.0000     0.0000 </r>
       <r>   -18.0638     0.0000     0.0000 </r>
       <r>   -17.9877     0.0000     0.0000 </r>
       <r>   -17.9115     0.0000     0.0000 </r>
       <r>   -17.8354     0.0000     0.0000 </r>
       <r>   -17.7592     0.0000     0.0000 </r>
       <r>   -17.6831     0.0000     0.0000 </r>
       <r>   -17.6070     0.0000     0.0000 </r>
       <r>   -17.5308     0.0000     0.0000 </r>
       <r>   -17.4547     0.0000     0.0000 </r>
       <r>   -17.3785     0.0000     0.0000 </r>
       <r>   -17.3024     0.0000     0.0000 </r>
       <r>   -17.2262     0.0000     0.0000 </r>
       <r>   -17.1501     0.3113     0.0237 </r>
       <r>   -17.0740     0.7928     0.0841 </r>
       <r>   -16.9978     0.7738     0.1430 </r>
       <r>   -16.9217     1.0387     0.2221 </r>
       <r>   -16.8455     0.8579     0.2874 </r>
       <r>   -16.7694     0.5985     0.3330 </r>
       <r>   -16.6932     1.1019     0.4169 </r>
       <r>   -16.6171     0.8695     0.4831 </r>
       <r>   -16.5409     0.9250     0.5535 </r>
       <r>   -16.4648     0.5596     0.5961 </r>
       <r>   -16.3887     1.4246     0.7046 </r>
       <r>   -16.3125     0.6643     0.7552 </r>
       <r>   -16.2364     0.6361     0.8036 </r>
       <r>   -16.1602     1.6119     0.9264 </r>
       <r>   -16.0841     0.4722     0.9623 </r>
       <r>   -16.0079     0.9506     1.0347 </r>
       <r>   -15.9318     0.8433     1.0989 </r>
       <r>   -15.8557     1.0349     1.1777 </r>
       <r>   -15.7795     1.1683     1.2667 </r>
       <r>   -15.7034     0.9520     1.3392 </r>
       <r>   -15.6272     0.5916     1.3842 </r>
       <r>   -15.5511     1.5119     1.4993 </r>
       <r>   -15.4749     0.8536     1.5643 </r>
       <r>   -15.3988     1.0960     1.6478 </r>
       <r>   -15.3226     1.1601     1.7361 </r>
       <r>   -15.2465     1.1944     1.8271 </r>
       <r>   -15.1704     0.6046     1.8731 </r>
       <r>   -15.0942     1.3189     1.9735 </r>
       <r>   -15.0181     1.7494     2.1067 </r>
       <r>   -14.9419     1.1626     2.1953 </r>
       <r>   -14.8658     0.9575     2.2682 </r>
       <r>   -14.7896     1.5703     2.3877 </r>
       <r>   -14.7135     1.8299     2.5271 </r>
       <r>   -14.6373     1.4142     2.6348 </r>
       <r>   -14.5612     2.2735     2.8079 </r>
       <r>   -14.4851     1.3354     2.9096 </r>
       <r>   -14.4089     0.8904     2.9774 </r>
       <r>   -14.3328     0.9211     3.0475 </r>
       <r>   -14.2566     1.9582     3.1966 </r>
       <r>   -14.1805     1.3178     3.2969 </r>
       <r>   -14.1043     1.6485     3.4225 </r>
       <r>   -14.0282     2.1151     3.5835 </r>
       <r>   -13.9521     0.4365     3.6167 </r>
       <r>   -13.8759     0.5242     3.6567 </r>
       <r>   -13.7998     1.0002     3.7328 </r>
       <r>   -13.7236     1.3339     3.8344 </r>
       <r>   -13.6475     0.4915     3.8718 </r>
       <r>   -13.5713     0.3492     3.8984 </r>
       <r>   -13.4952     0.1046     3.9064 </r>
       <r>   -13.4190     0.5547     3.9486 </r>
       <r>   -13.3429     0.2337     3.9664 </r>
       <r>   -13.2668     0.2853     3.9881 </r>
       <r>   -13.1906     0.1561     4.0000 </r>
       <r>   -13.1145     0.0000     4.0000 </r>
       <r>   -13.0383     0.0000     4.0000 </r>
       <r>   -12.9622     0.1180     4.0090 </r>
       <r>   -12.8860     0.1883     4.0233 </r>
       <r>   -12.8099     0.1963     4.0383 </r>
       <r>   -12.7338     0.2280     4.0556 </r>
       <r>   -12.6576     0.6033     4.1016 </r>
       <r>   -12.5815     0.0004     4.1016 </r>
       <r>   -12.5053     1.0373     4.1806 </r>
       <r>   -12.4292     0.7168     4.2352 </r>
       <r>   -12.3530     0.4682     4.2708 </r>
       <r>   -12.2769     1.1221     4.3563 </r>
       <r>   -12.2007     0.4826     4.3930 </r>
       <r>   -12.1246     0.9368     4.4643 </r>
       <r>   -12.0485     2.1476     4.6279 </r>
       <r>   -11.9723     1.7498     4.7611 </r>
       <r>   -11.8962     0.9675     4.8348 </r>
       <r>   -11.8200     0.7348     4.8907 </r>
       <r>   -11.7439     1.6387     5.0155 </r>
       <r>   -11.6677     0.8344     5.0790 </r>
       <r>   -11.5916     1.7260     5.2105 </r>
       <r>   -11.5155     2.9580     5.4357 </r>
       <r>   -11.4393     2.9051     5.6569 </r>
       <r>   -11.3632     1.6702     5.7841 </r>
       <r>   -11.2870     0.6613     5.8344 </r>
       <r>   -11.2109     2.0696     5.9920 </r>
       <r>   -11.1347     0.2847     6.0137 </r>
       <r>   -11.0586     1.1803     6.1036 </r>
       <r>   -10.9824     1.4825     6.2164 </r>
       <r>   -10.9063     1.0142     6.2937 </r>
       <r>   -10.8302     0.6652     6.3443 </r>
       <r>   -10.7540     1.2748     6.4414 </r>
       <r>   -10.6779     0.7213     6.4963 </r>
       <r>   -10.6017     0.8198     6.5587 </r>
       <r>   -10.5256     0.0041     6.5590 </r>
       <r>   -10.4494     1.3495     6.6618 </r>
       <r>   -10.3733     1.2135     6.7542 </r>
       <r>   -10.2972     0.6956     6.8072 </r>
       <r>   -10.2210     0.4061     6.8381 </r>
       <r>   -10.1449     0.1098     6.8464 </r>
       <r>   -10.0687     1.4530     6.9571 </r>
       <r>    -9.9926     0.7832     7.0167 </r>
       <r>    -9.9164     0.3328     7.0421 </r>
       <r>    -9.8403     0.1564     7.0540 </r>
       <r>    -9.7641     0.1233     7.0634 </r>
       <r>    -9.6880     1.2615     7.1594 </r>
       <r>    -9.6119     1.5503     7.2775 </r>
       <r>    -9.5357     0.0667     7.2825 </r>
       <r>    -9.4596     0.0000     7.2825 </r>
       <r>    -9.3834     0.3637     7.3102 </r>
       <r>    -9.3073     0.3352     7.3358 </r>
       <r>    -9.2311     1.2692     7.4324 </r>
       <r>    -9.1550     0.4515     7.4668 </r>
       <r>    -9.0789     0.0819     7.4730 </r>
       <r>    -9.0027     0.5081     7.5117 </r>
       <r>    -8.9266     0.3234     7.5363 </r>
       <r>    -8.8504     0.1893     7.5507 </r>
       <r>    -8.7743     1.2963     7.6494 </r>
       <r>    -8.6981     0.0783     7.6554 </r>
       <r>    -8.6220     0.2729     7.6762 </r>
       <r>    -8.5458     0.0000     7.6762 </r>
       <r>    -8.4697     0.0011     7.6763 </r>
       <r>    -8.3936     1.2205     7.7692 </r>
       <r>    -8.3174     0.7128     7.8235 </r>
       <r>    -8.2413     0.0668     7.8286 </r>
       <r>    -8.1651     0.1599     7.8407 </r>
       <r>    -8.0890     1.3193     7.9412 </r>
       <r>    -8.0128     2.9634     8.1668 </r>
       <r>    -7.9367     1.4492     8.2772 </r>
       <r>    -7.8606     1.9270     8.4239 </r>
       <r>    -7.7844     2.5945     8.6215 </r>
       <r>    -7.7083     2.6010     8.8195 </r>
       <r>    -7.6321     1.7611     8.9536 </r>
       <r>    -7.5560     1.3015     9.0527 </r>
       <r>    -7.4798     2.7151     9.2595 </r>
       <r>    -7.4037     2.3712     9.4400 </r>
       <r>    -7.3275     1.9002     9.5847 </r>
       <r>    -7.2514     3.7841     9.8728 </r>
       <r>    -7.1753     3.1281    10.1110 </r>
       <r>    -7.0991     3.8801    10.4065 </r>
       <r>    -7.0230     2.7047    10.6124 </r>
       <r>    -6.9468     1.6289    10.7365 </r>
       <r>    -6.8707     1.3363    10.8382 </r>
       <r>    -6.7945     1.2486    10.9333 </r>
       <r>    -6.7184     1.4949    11.0471 </r>
       <r>    -6.6423     1.5266    11.1633 </r>
       <r>    -6.5661     1.6973    11.2926 </r>
       <r>    -6.4900     1.1511    11.3802 </r>
       <r>    -6.4138     2.4519    11.5669 </r>
       <r>    -6.3377     1.2778    11.6642 </r>
       <r>    -6.2615     1.0079    11.7410 </r>
       <r>    -6.1854     2.6532    11.9430 </r>
       <r>    -6.1092     1.9602    12.0923 </r>
       <r>    -6.0331     1.0098    12.1692 </r>
       <r>    -5.9570     1.4671    12.2809 </r>
       <r>    -5.8808     2.4407    12.4667 </r>
       <r>    -5.8047     2.7012    12.6724 </r>
       <r>    -5.7285     1.6339    12.7968 </r>
       <r>    -5.6524     3.1143    13.0339 </r>
       <r>    -5.5762     4.3890    13.3681 </r>
       <r>    -5.5001     3.0310    13.5989 </r>
       <r>    -5.4240     3.4939    13.8650 </r>
       <r>    -5.3478     3.9058    14.1624 </r>
       <r>    -5.2717     3.4143    14.4223 </r>
       <r>    -5.1955     3.1205    14.6600 </r>
       <r>    -5.1194     3.2444    14.9070 </r>
       <r>    -5.0432     1.8882    15.0508 </r>
       <r>    -4.9671     1.7030    15.1804 </r>
       <r>    -4.8909     2.4162    15.3644 </r>
       <r>    -4.8148     1.4549    15.4752 </r>
       <r>    -4.7387     1.1382    15.5619 </r>
       <r>    -4.6625     0.5110    15.6008 </r>
       <r>    -4.5864     1.5390    15.7180 </r>
       <r>    -4.5102     2.0562    15.8745 </r>
       <r>    -4.4341     0.4677    15.9101 </r>
       <r>    -4.3579     0.8950    15.9783 </r>
       <r>    -4.2818     1.1319    16.0645 </r>
       <r>    -4.2057     1.2192    16.1573 </r>
       <r>    -4.1295     3.1397    16.3964 </r>
       <r>    -4.0534     2.1363    16.5591 </r>
       <r>    -3.9772     2.7440    16.7680 </r>
       <r>    -3.9011     1.6727    16.8954 </r>
       <r>    -3.8249     3.6226    17.1712 </r>
       <r>    -3.7488     5.5511    17.5939 </r>
       <r>    -3.6726     3.5031    17.8606 </r>
       <r>    -3.5965     2.5254    18.0529 </r>
       <r>    -3.5204     4.3093    18.3810 </r>
       <r>    -3.4442     3.2581    18.6291 </r>
       <r>    -3.3681     3.4604    18.8926 </r>
       <r>    -3.2919     3.1534    19.1327 </r>
       <r>    -3.2158     2.9756    19.3593 </r>
       <r>    -3.1396     0.7037    19.4129 </r>
       <r>    -3.0635     0.4315    19.4457 </r>
       <r>    -2.9874     1.3834    19.5511 </r>
       <r>    -2.9112     1.4093    19.6584 </r>
       <r>    -2.8351     1.6425    19.7834 </r>
       <r>    -2.7589     0.4244    19.8157 </r>
       <r>    -2.6828     0.1680    19.8285 </r>
       <r>    -2.6066     0.3332    19.8539 </r>
       <r>    -2.5305     0.4698    19.8897 </r>
       <r>    -2.4543     0.8652    19.9556 </r>
       <r>    -2.3782     0.1671    19.9683 </r>
       <r>    -2.3021     0.3789    19.9971 </r>
       <r>    -2.2259     0.0377    20.0000 </r>
       <r>    -2.1498     0.0000    20.0000 </r>
       <r>    -2.0736     0.0000    20.0000 </r>
       <r>    -1.9975     0.0000    20.0000 </r>
       <r>    -1.9213     0.0000    20.0000 </r>
       <r>    -1.8452     0.0000    20.0000 </r>
       <r>    -1.7691     0.0000    20.0000 </r>
       <r>    -1.6929     0.0000    20.0000 </r>
       <r>    -1.6168     0.0000    20.0000 </r>
       <r>    -1.5406     0.0000    20.0000 </r>
       <r>    -1.4645     0.0000    20.0000 </r>
       <r>    -1.3883     0.0000    20.0000 </r>
       <r>    -1.3122     0.1407    20.0107 </r>
       <r>    -1.2360     0.1900    20.0252 </r>
       <r>    -1.1599     0.1917    20.0398 </r>
       <r>    -1.0838     1.3467    20.1423 </r>
       <r>    -1.0076     1.7787    20.2778 </r>
       <r>    -0.9315     2.2585    20.4497 </r>
       <r>    -0.8553     1.4115    20.5572 </r>
       <r>    -0.7792     2.1977    20.7245 </r>
       <r>    -0.7030     2.2410    20.8952 </r>
       <r>    -0.6269     2.2275    21.0648 </r>
       <r>    -0.5508     2.6562    21.2670 </r>
       <r>    -0.4746     2.6213    21.4666 </r>
       <r>    -0.3985     3.6925    21.7478 </r>
       <r>    -0.3223     2.5942    21.9453 </r>
       <r>    -0.2462     2.9623    22.1709 </r>
       <r>    -0.1700     2.1119    22.3317 </r>
       <r>    -0.0939     2.7130    22.5383 </r>
       <r>    -0.0177     2.4751    22.7267 </r>
       <r>     0.0584     4.0858    23.0379 </r>
       <r>     0.1345     3.5563    23.3086 </r>
       <r>     0.2107     3.4540    23.5716 </r>
       <r>     0.2868     4.8081    23.9378 </r>
       <r>     0.3630     4.3201    24.2667 </r>
       <r>     0.4391     4.6717    24.6224 </r>
       <r>     0.5153     2.5232    24.8146 </r>
       <r>     0.5914     3.6504    25.0925 </r>
       <r>     0.6675     3.7154    25.3754 </r>
       <r>     0.7437     4.1451    25.6910 </r>
       <r>     0.8198     4.6391    26.0443 </r>
       <r>     0.8960     3.7052    26.3264 </r>
       <r>     0.9721     3.3328    26.5802 </r>
       <r>     1.0483     1.5158    26.6956 </r>
       <r>     1.1244     2.2117    26.8640 </r>
       <r>     1.2006     2.7917    27.0766 </r>
       <r>     1.2767     2.4333    27.2619 </r>
       <r>     1.3528     2.4531    27.4486 </r>
       <r>     1.4290     2.6794    27.6527 </r>
       <r>     1.5051     1.8483    27.7934 </r>
       <r>     1.5813     3.3904    28.0516 </r>
       <r>     1.6574     2.1459    28.2150 </r>
       <r>     1.7336     1.9528    28.3637 </r>
       <r>     1.8097     2.3028    28.5390 </r>
       <r>     1.8858     3.1736    28.7806 </r>
       <r>     1.9620     1.6501    28.9063 </r>
       <r>     2.0381     1.9249    29.0529 </r>
       <r>     2.1143     1.5699    29.1724 </r>
       <r>     2.1904     2.3339    29.3501 </r>
       <r>     2.2666     3.2321    29.5962 </r>
       <r>     2.3427     2.1424    29.7594 </r>
       <r>     2.4189     2.6602    29.9619 </r>
       <r>     2.4950     2.6736    30.1655 </r>
       <r>     2.5711     4.3921    30.4999 </r>
       <r>     2.6473     2.7142    30.7066 </r>
       <r>     2.7234     2.1214    30.8681 </r>
       <r>     2.7996     1.8984    31.0127 </r>
       <r>     2.8757     1.5235    31.1287 </r>
       <r>     2.9519     2.7620    31.3390 </r>
       <r>     3.0280     1.3395    31.4410 </r>
       <r>     3.1041     1.3024    31.5402 </r>
       <r>     3.1803     1.6307    31.6643 </r>
       <r>     3.2564     1.6974    31.7936 </r>
       <r>     3.3326     1.0615    31.8744 </r>
       <r>     3.4087     0.7427    31.9309 </r>
       <r>     3.4849     0.5724    31.9745 </r>
       <r>     3.5610     0.0093    31.9752 </r>
       <r>     3.6372     0.3251    32.0000 </r>
       <r>     3.7133     0.0001    32.0000 </r>
       <r>     3.7894     0.0000    32.0000 </r>
       <r>     3.8656     0.0000    32.0000 </r>
       <r>     3.9417     0.0000    32.0000 </r>
       <r>     4.0179     0.0000    32.0000 </r>
       <r>     4.0940     0.0000    32.0000 </r>
       <r>     4.1702     0.0000    32.0000 </r>
       <r>     4.2463     0.0000    32.0000 </r>
       <r>     4.3224     0.0000    32.0000 </r>
       <r>     4.3986     0.0000    32.0000 </r>
       <r>     4.4747     0.0000    32.0000 </r>
       <r>     4.5509     0.0000    32.0000 </r>
       <r>     4.6270     0.0000    32.0000 </r>
      </set>
     </set>
    </array>
   </total>
  </dos>
 </calculation>
 <structure name="finalpos" >
  <crystal>
   <varray name="basis" >
    <v>       3.34629700       0.00000000       0.00000000 </v>
    <v>       0.00000000       4.62335100      -0.00005300 </v>
    <v>       0.00000000       0.00000000      20.02439000 </v>
   </varray>
   <i name="volume">    309.79945189 </i>
   <varray name="rec_basis" >
    <v>       0.29883779       0.00000000       0.00000000 </v>
    <v>       0.00000000       0.21629333       0.00000000 </v>
    <v>       0.00000000       0.00000057       0.04993910 </v>
   </varray>
  </crystal>
  <varray name="positions" >
   <v>       0.50000000       0.91013070       0.55243135 </v>
   <v>       0.50000000       0.08986930       0.44756865 </v>
   <v>       0.00000000       0.41012615       0.44756866 </v>
   <v>      -0.00000000       0.58987385       0.55243134 </v>
  </varray>
 </structure>
</modeling>
