<?xml version="1.0" encoding="ISO-8859-1"?>
<modeling>
 <generator>
  <i name="program" type="string">vasp </i>
  <i name="version" type="string">5.4.1  </i>
  <i name="subversion" type="string">24Jun15 (build Nov 20 2020 10:29:34) complex                          parallel </i>
  <i name="platform" type="string">IFC91_ompi </i>
  <i name="date" type="string">2021 09 09 </i>
  <i name="time" type="string">14:52:51 </i>
 </generator>
 <incar>
  <i type="string" name="PREC">a</i>
  <i type="string" name="ALGO"> Normal</i>
  <i type="int" name="ISPIN">     1</i>
  <i type="int" name="ICHARG">     2</i>
  <i type="int" name="NELM">   250</i>
  <i type="int" name="NELMDL">    -5</i>
  <i type="int" name="NELMIN">     6</i>
  <i type="int" name="IBRION">     2</i>
  <i name="EDIFF">      0.00001000</i>
  <i name="EDIFFG">     -0.01000000</i>
  <i type="int" name="NSW">   200</i>
  <i type="int" name="ISIF">     2</i>
  <i name="ENCUT">    520.00000000</i>
  <i name="POTIM">      0.30000000</i>
  <i type="logical" name="LREAL"> F  </i>
  <i type="int" name="ISMEAR">     0</i>
  <i name="SIGMA">      0.02000000</i>
  <i type="logical" name="LWAVE"> F  </i>
  <i type="logical" name="LCHARG"> F  </i>
  <i type="logical" name="LAECHG"> F  </i>
  <v type="int" name="KPOINT_BSE">    -1     0     0     0</v>
  <i type="int" name="NELM">   250</i>
 </incar>
 <kpoints>
  <generation param="Gamma">
   <v type="int" name="divisions">      22       15        1 </v>
   <v name="usershift">      0.00000000       0.00000000       0.00000000 </v>
   <v name="genvec1">      0.04545455       0.00000000       0.00000000 </v>
   <v name="genvec2">      0.00000000       0.06666667       0.00000000 </v>
   <v name="genvec3">      0.00000000       0.00000000       1.00000000 </v>
   <v name="shift">      0.00000000       0.00000000       0.00000000 </v>
  </generation>
  <varray name="kpointlist" >
   <v>       0.00000000       0.00000000       0.00000000 </v>
   <v>       0.04545455       0.00000000       0.00000000 </v>
   <v>       0.09090909       0.00000000       0.00000000 </v>
   <v>       0.13636364       0.00000000       0.00000000 </v>
   <v>       0.18181818       0.00000000       0.00000000 </v>
   <v>       0.22727273       0.00000000       0.00000000 </v>
   <v>       0.27272727       0.00000000       0.00000000 </v>
   <v>       0.31818182       0.00000000       0.00000000 </v>
   <v>       0.36363636       0.00000000       0.00000000 </v>
   <v>       0.40909091       0.00000000       0.00000000 </v>
   <v>       0.45454545       0.00000000       0.00000000 </v>
   <v>       0.50000000       0.00000000       0.00000000 </v>
   <v>       0.00000000       0.06666667       0.00000000 </v>
   <v>       0.04545455       0.06666667       0.00000000 </v>
   <v>       0.09090909       0.06666667       0.00000000 </v>
   <v>       0.13636364       0.06666667       0.00000000 </v>
   <v>       0.18181818       0.06666667       0.00000000 </v>
   <v>       0.22727273       0.06666667       0.00000000 </v>
   <v>       0.27272727       0.06666667       0.00000000 </v>
   <v>       0.31818182       0.06666667       0.00000000 </v>
   <v>       0.36363636       0.06666667       0.00000000 </v>
   <v>       0.40909091       0.06666667       0.00000000 </v>
   <v>       0.45454545       0.06666667       0.00000000 </v>
   <v>       0.50000000       0.06666667       0.00000000 </v>
   <v>      -0.45454545       0.06666667       0.00000000 </v>
   <v>      -0.40909091       0.06666667       0.00000000 </v>
   <v>      -0.36363636       0.06666667       0.00000000 </v>
   <v>      -0.31818182       0.06666667       0.00000000 </v>
   <v>      -0.27272727       0.06666667       0.00000000 </v>
   <v>      -0.22727273       0.06666667       0.00000000 </v>
   <v>      -0.18181818       0.06666667       0.00000000 </v>
   <v>      -0.13636364       0.06666667       0.00000000 </v>
   <v>      -0.09090909       0.06666667       0.00000000 </v>
   <v>      -0.04545455       0.06666667       0.00000000 </v>
   <v>       0.00000000       0.13333333       0.00000000 </v>
   <v>       0.04545455       0.13333333       0.00000000 </v>
   <v>       0.09090909       0.13333333       0.00000000 </v>
   <v>       0.13636364       0.13333333       0.00000000 </v>
   <v>       0.18181818       0.13333333       0.00000000 </v>
   <v>       0.22727273       0.13333333       0.00000000 </v>
   <v>       0.27272727       0.13333333       0.00000000 </v>
   <v>       0.31818182       0.13333333       0.00000000 </v>
   <v>       0.36363636       0.13333333       0.00000000 </v>
   <v>       0.40909091       0.13333333       0.00000000 </v>
   <v>       0.45454545       0.13333333       0.00000000 </v>
   <v>       0.50000000       0.13333333       0.00000000 </v>
   <v>      -0.45454545       0.13333333       0.00000000 </v>
   <v>      -0.40909091       0.13333333       0.00000000 </v>
   <v>      -0.36363636       0.13333333       0.00000000 </v>
   <v>      -0.31818182       0.13333333       0.00000000 </v>
   <v>      -0.27272727       0.13333333       0.00000000 </v>
   <v>      -0.22727273       0.13333333       0.00000000 </v>
   <v>      -0.18181818       0.13333333       0.00000000 </v>
   <v>      -0.13636364       0.13333333       0.00000000 </v>
   <v>      -0.09090909       0.13333333       0.00000000 </v>
   <v>      -0.04545455       0.13333333       0.00000000 </v>
   <v>       0.00000000       0.20000000       0.00000000 </v>
   <v>       0.04545455       0.20000000       0.00000000 </v>
   <v>       0.09090909       0.20000000       0.00000000 </v>
   <v>       0.13636364       0.20000000       0.00000000 </v>
   <v>       0.18181818       0.20000000       0.00000000 </v>
   <v>       0.22727273       0.20000000       0.00000000 </v>
   <v>       0.27272727       0.20000000       0.00000000 </v>
   <v>       0.31818182       0.20000000       0.00000000 </v>
   <v>       0.36363636       0.20000000       0.00000000 </v>
   <v>       0.40909091       0.20000000       0.00000000 </v>
   <v>       0.45454545       0.20000000       0.00000000 </v>
   <v>       0.50000000       0.20000000       0.00000000 </v>
   <v>      -0.45454545       0.20000000       0.00000000 </v>
   <v>      -0.40909091       0.20000000       0.00000000 </v>
   <v>      -0.36363636       0.20000000       0.00000000 </v>
   <v>      -0.31818182       0.20000000       0.00000000 </v>
   <v>      -0.27272727       0.20000000       0.00000000 </v>
   <v>      -0.22727273       0.20000000       0.00000000 </v>
   <v>      -0.18181818       0.20000000       0.00000000 </v>
   <v>      -0.13636364       0.20000000       0.00000000 </v>
   <v>      -0.09090909       0.20000000       0.00000000 </v>
   <v>      -0.04545455       0.20000000       0.00000000 </v>
   <v>       0.00000000       0.26666667       0.00000000 </v>
   <v>       0.04545455       0.26666667       0.00000000 </v>
   <v>       0.09090909       0.26666667       0.00000000 </v>
   <v>       0.13636364       0.26666667       0.00000000 </v>
   <v>       0.18181818       0.26666667       0.00000000 </v>
   <v>       0.22727273       0.26666667       0.00000000 </v>
   <v>       0.27272727       0.26666667       0.00000000 </v>
   <v>       0.31818182       0.26666667       0.00000000 </v>
   <v>       0.36363636       0.26666667       0.00000000 </v>
   <v>       0.40909091       0.26666667       0.00000000 </v>
   <v>       0.45454545       0.26666667       0.00000000 </v>
   <v>       0.50000000       0.26666667       0.00000000 </v>
   <v>      -0.45454545       0.26666667       0.00000000 </v>
   <v>      -0.40909091       0.26666667       0.00000000 </v>
   <v>      -0.36363636       0.26666667       0.00000000 </v>
   <v>      -0.31818182       0.26666667       0.00000000 </v>
   <v>      -0.27272727       0.26666667       0.00000000 </v>
   <v>      -0.22727273       0.26666667       0.00000000 </v>
   <v>      -0.18181818       0.26666667       0.00000000 </v>
   <v>      -0.13636364       0.26666667       0.00000000 </v>
   <v>      -0.09090909       0.26666667       0.00000000 </v>
   <v>      -0.04545455       0.26666667       0.00000000 </v>
   <v>       0.00000000       0.33333333       0.00000000 </v>
   <v>       0.04545455       0.33333333       0.00000000 </v>
   <v>       0.09090909       0.33333333       0.00000000 </v>
   <v>       0.13636364       0.33333333       0.00000000 </v>
   <v>       0.18181818       0.33333333       0.00000000 </v>
   <v>       0.22727273       0.33333333       0.00000000 </v>
   <v>       0.27272727       0.33333333       0.00000000 </v>
   <v>       0.31818182       0.33333333       0.00000000 </v>
   <v>       0.36363636       0.33333333       0.00000000 </v>
   <v>       0.40909091       0.33333333       0.00000000 </v>
   <v>       0.45454545       0.33333333       0.00000000 </v>
   <v>       0.50000000       0.33333333       0.00000000 </v>
   <v>      -0.45454545       0.33333333       0.00000000 </v>
   <v>      -0.40909091       0.33333333       0.00000000 </v>
   <v>      -0.36363636       0.33333333       0.00000000 </v>
   <v>      -0.31818182       0.33333333       0.00000000 </v>
   <v>      -0.27272727       0.33333333       0.00000000 </v>
   <v>      -0.22727273       0.33333333       0.00000000 </v>
   <v>      -0.18181818       0.33333333       0.00000000 </v>
   <v>      -0.13636364       0.33333333       0.00000000 </v>
   <v>      -0.09090909       0.33333333       0.00000000 </v>
   <v>      -0.04545455       0.33333333       0.00000000 </v>
   <v>       0.00000000       0.40000000       0.00000000 </v>
   <v>       0.04545455       0.40000000       0.00000000 </v>
   <v>       0.09090909       0.40000000       0.00000000 </v>
   <v>       0.13636364       0.40000000       0.00000000 </v>
   <v>       0.18181818       0.40000000       0.00000000 </v>
   <v>       0.22727273       0.40000000       0.00000000 </v>
   <v>       0.27272727       0.40000000       0.00000000 </v>
   <v>       0.31818182       0.40000000       0.00000000 </v>
   <v>       0.36363636       0.40000000       0.00000000 </v>
   <v>       0.40909091       0.40000000       0.00000000 </v>
   <v>       0.45454545       0.40000000       0.00000000 </v>
   <v>       0.50000000       0.40000000       0.00000000 </v>
   <v>      -0.45454545       0.40000000       0.00000000 </v>
   <v>      -0.40909091       0.40000000       0.00000000 </v>
   <v>      -0.36363636       0.40000000       0.00000000 </v>
   <v>      -0.31818182       0.40000000       0.00000000 </v>
   <v>      -0.27272727       0.40000000       0.00000000 </v>
   <v>      -0.22727273       0.40000000       0.00000000 </v>
   <v>      -0.18181818       0.40000000       0.00000000 </v>
   <v>      -0.13636364       0.40000000       0.00000000 </v>
   <v>      -0.09090909       0.40000000       0.00000000 </v>
   <v>      -0.04545455       0.40000000       0.00000000 </v>
   <v>       0.00000000       0.46666667       0.00000000 </v>
   <v>       0.04545455       0.46666667       0.00000000 </v>
   <v>       0.09090909       0.46666667       0.00000000 </v>
   <v>       0.13636364       0.46666667       0.00000000 </v>
   <v>       0.18181818       0.46666667       0.00000000 </v>
   <v>       0.22727273       0.46666667       0.00000000 </v>
   <v>       0.27272727       0.46666667       0.00000000 </v>
   <v>       0.31818182       0.46666667       0.00000000 </v>
   <v>       0.36363636       0.46666667       0.00000000 </v>
   <v>       0.40909091       0.46666667       0.00000000 </v>
   <v>       0.45454545       0.46666667       0.00000000 </v>
   <v>       0.50000000       0.46666667       0.00000000 </v>
   <v>      -0.45454545       0.46666667       0.00000000 </v>
   <v>      -0.40909091       0.46666667       0.00000000 </v>
   <v>      -0.36363636       0.46666667       0.00000000 </v>
   <v>      -0.31818182       0.46666667       0.00000000 </v>
   <v>      -0.27272727       0.46666667       0.00000000 </v>
   <v>      -0.22727273       0.46666667       0.00000000 </v>
   <v>      -0.18181818       0.46666667       0.00000000 </v>
   <v>      -0.13636364       0.46666667       0.00000000 </v>
   <v>      -0.09090909       0.46666667       0.00000000 </v>
   <v>      -0.04545455       0.46666667       0.00000000 </v>
  </varray>
  <varray name="weights" >
   <v>       0.00303030 </v>
   <v>       0.00606061 </v>
   <v>       0.00606061 </v>
   <v>       0.00606061 </v>
   <v>       0.00606061 </v>
   <v>       0.00606061 </v>
   <v>       0.00606061 </v>
   <v>       0.00606061 </v>
   <v>       0.00606061 </v>
   <v>       0.00606061 </v>
   <v>       0.00606061 </v>
   <v>       0.00303030 </v>
   <v>       0.00606061 </v>
   <v>       0.00606061 </v>
   <v>       0.00606061 </v>
   <v>       0.00606061 </v>
   <v>       0.00606061 </v>
   <v>       0.00606061 </v>
   <v>       0.00606061 </v>
   <v>       0.00606061 </v>
   <v>       0.00606061 </v>
   <v>       0.00606061 </v>
   <v>       0.00606061 </v>
   <v>       0.00606061 </v>
   <v>       0.00606061 </v>
   <v>       0.00606061 </v>
   <v>       0.00606061 </v>
   <v>       0.00606061 </v>
   <v>       0.00606061 </v>
   <v>       0.00606061 </v>
   <v>       0.00606061 </v>
   <v>       0.00606061 </v>
   <v>       0.00606061 </v>
   <v>       0.00606061 </v>
   <v>       0.00606061 </v>
   <v>       0.00606061 </v>
   <v>       0.00606061 </v>
   <v>       0.00606061 </v>
   <v>       0.00606061 </v>
   <v>       0.00606061 </v>
   <v>       0.00606061 </v>
   <v>       0.00606061 </v>
   <v>       0.00606061 </v>
   <v>       0.00606061 </v>
   <v>       0.00606061 </v>
   <v>       0.00606061 </v>
   <v>       0.00606061 </v>
   <v>       0.00606061 </v>
   <v>       0.00606061 </v>
   <v>       0.00606061 </v>
   <v>       0.00606061 </v>
   <v>       0.00606061 </v>
   <v>       0.00606061 </v>
   <v>       0.00606061 </v>
   <v>       0.00606061 </v>
   <v>       0.00606061 </v>
   <v>       0.00606061 </v>
   <v>       0.00606061 </v>
   <v>       0.00606061 </v>
   <v>       0.00606061 </v>
   <v>       0.00606061 </v>
   <v>       0.00606061 </v>
   <v>       0.00606061 </v>
   <v>       0.00606061 </v>
   <v>       0.00606061 </v>
   <v>       0.00606061 </v>
   <v>       0.00606061 </v>
   <v>       0.00606061 </v>
   <v>       0.00606061 </v>
   <v>       0.00606061 </v>
   <v>       0.00606061 </v>
   <v>       0.00606061 </v>
   <v>       0.00606061 </v>
   <v>       0.00606061 </v>
   <v>       0.00606061 </v>
   <v>       0.00606061 </v>
   <v>       0.00606061 </v>
   <v>       0.00606061 </v>
   <v>       0.00606061 </v>
   <v>       0.00606061 </v>
   <v>       0.00606061 </v>
   <v>       0.00606061 </v>
   <v>       0.00606061 </v>
   <v>       0.00606061 </v>
   <v>       0.00606061 </v>
   <v>       0.00606061 </v>
   <v>       0.00606061 </v>
   <v>       0.00606061 </v>
   <v>       0.00606061 </v>
   <v>       0.00606061 </v>
   <v>       0.00606061 </v>
   <v>       0.00606061 </v>
   <v>       0.00606061 </v>
   <v>       0.00606061 </v>
   <v>       0.00606061 </v>
   <v>       0.00606061 </v>
   <v>       0.00606061 </v>
   <v>       0.00606061 </v>
   <v>       0.00606061 </v>
   <v>       0.00606061 </v>
   <v>       0.00606061 </v>
   <v>       0.00606061 </v>
   <v>       0.00606061 </v>
   <v>       0.00606061 </v>
   <v>       0.00606061 </v>
   <v>       0.00606061 </v>
   <v>       0.00606061 </v>
   <v>       0.00606061 </v>
   <v>       0.00606061 </v>
   <v>       0.00606061 </v>
   <v>       0.00606061 </v>
   <v>       0.00606061 </v>
   <v>       0.00606061 </v>
   <v>       0.00606061 </v>
   <v>       0.00606061 </v>
   <v>       0.00606061 </v>
   <v>       0.00606061 </v>
   <v>       0.00606061 </v>
   <v>       0.00606061 </v>
   <v>       0.00606061 </v>
   <v>       0.00606061 </v>
   <v>       0.00606061 </v>
   <v>       0.00606061 </v>
   <v>       0.00606061 </v>
   <v>       0.00606061 </v>
   <v>       0.00606061 </v>
   <v>       0.00606061 </v>
   <v>       0.00606061 </v>
   <v>       0.00606061 </v>
   <v>       0.00606061 </v>
   <v>       0.00606061 </v>
   <v>       0.00606061 </v>
   <v>       0.00606061 </v>
   <v>       0.00606061 </v>
   <v>       0.00606061 </v>
   <v>       0.00606061 </v>
   <v>       0.00606061 </v>
   <v>       0.00606061 </v>
   <v>       0.00606061 </v>
   <v>       0.00606061 </v>
   <v>       0.00606061 </v>
   <v>       0.00606061 </v>
   <v>       0.00606061 </v>
   <v>       0.00606061 </v>
   <v>       0.00606061 </v>
   <v>       0.00606061 </v>
   <v>       0.00606061 </v>
   <v>       0.00606061 </v>
   <v>       0.00606061 </v>
   <v>       0.00606061 </v>
   <v>       0.00606061 </v>
   <v>       0.00606061 </v>
   <v>       0.00606061 </v>
   <v>       0.00606061 </v>
   <v>       0.00606061 </v>
   <v>       0.00606061 </v>
   <v>       0.00606061 </v>
   <v>       0.00606061 </v>
   <v>       0.00606061 </v>
   <v>       0.00606061 </v>
   <v>       0.00606061 </v>
   <v>       0.00606061 </v>
   <v>       0.00606061 </v>
   <v>       0.00606061 </v>
   <v>       0.00606061 </v>
   <v>       0.00606061 </v>
  </varray>
 </kpoints>
 <parameters>
  <separator name="general" >
   <i type="string" name="SYSTEM">unknown system</i>
   <i type="logical" name="LCOMPAT"> F  </i>
  </separator>
  <separator name="electronic" >
   <i type="string" name="PREC">a</i>
   <i name="ENMAX">    520.00000000</i>
   <i name="ENAUG">    342.92400000</i>
   <i name="EDIFF">      0.00001000</i>
   <i type="int" name="IALGO">    38</i>
   <i type="int" name="IWAVPR">    11</i>
   <i type="int" name="NBANDS">    16</i>
   <i name="NELECT">     20.00000000</i>
   <i type="int" name="TURBO">     0</i>
   <i type="int" name="IRESTART">     0</i>
   <i type="int" name="NREBOOT">     0</i>
   <i type="int" name="NMIN">     0</i>
   <i name="EREF">      0.00000000</i>
   <separator name="electronic smearing" >
    <i type="int" name="ISMEAR">     0</i>
    <i name="SIGMA">      0.02000000</i>
    <i name="KSPACING">      0.50000000</i>
    <i type="logical" name="KGAMMA"> T  </i>
   </separator>
   <separator name="electronic projectors" >
    <i type="logical" name="LREAL"> F  </i>
    <v name="ROPT">      0.00000000</v>
    <i type="int" name="LMAXPAW">  -100</i>
    <i type="int" name="LMAXMIX">     2</i>
    <i type="logical" name="NLSPLINE"> F  </i>
   </separator>
   <separator name="electronic startup" >
    <i type="int" name="ISTART">     0</i>
    <i type="int" name="ICHARG">     2</i>
    <i type="int" name="INIWAV">     1</i>
   </separator>
   <separator name="electronic spin" >
    <i type="int" name="ISPIN">     1</i>
    <i type="logical" name="LNONCOLLINEAR"> F  </i>
    <v name="MAGMOM">      1.00000000      1.00000000      1.00000000      1.00000000</v>
    <i name="NUPDOWN">     -1.00000000</i>
    <i type="logical" name="LSORBIT"> F  </i>
    <v name="SAXIS">      0.00000000      0.00000000      1.00000000</v>
    <i type="logical" name="LSPIRAL"> F  </i>
    <v name="QSPIRAL">      0.00000000      0.00000000      0.00000000</v>
    <i type="logical" name="LZEROZ"> F  </i>
   </separator>
   <separator name="electronic exchange-correlation" >
    <i type="logical" name="LASPH"> F  </i>
    <i type="logical" name="LMETAGGA"> F  </i>
   </separator>
   <separator name="electronic convergence" >
    <i type="int" name="NELM">   250</i>
    <i type="int" name="NELMDL">    -5</i>
    <i type="int" name="NELMIN">     6</i>
    <i name="ENINI">    520.00000000</i>
    <separator name="electronic convergence detail" >
     <i type="logical" name="LDIAG"> T  </i>
     <i type="logical" name="LSUBROT"> F  </i>
     <i name="WEIMIN">      0.00100000</i>
     <i name="EBREAK">      0.00000016</i>
     <i name="DEPER">      0.30000000</i>
     <i type="int" name="NRMM">     4</i>
     <i name="TIME">      0.40000000</i>
    </separator>
   </separator>
   <separator name="electronic mixer" >
    <i name="AMIX">      0.40000000</i>
    <i name="BMIX">      1.00000000</i>
    <i name="AMIN">      0.10000000</i>
    <i name="AMIX_MAG">      1.60000000</i>
    <i name="BMIX_MAG">      1.00000000</i>
    <separator name="electronic mixer details" >
     <i type="int" name="IMIX">     4</i>
     <i type="logical" name="MIXFIRST"> F  </i>
     <i type="int" name="MAXMIX">   -45</i>
     <i name="WC">    100.00000000</i>
     <i type="int" name="INIMIX">     1</i>
     <i type="int" name="MIXPRE">     1</i>
     <i type="int" name="MREMOVE">     5</i>
    </separator>
   </separator>
   <separator name="electronic dipolcorrection" >
    <i type="logical" name="LDIPOL"> F  </i>
    <i type="logical" name="LMONO"> F  </i>
    <i type="int" name="IDIPOL">     0</i>
    <i name="EPSILON">      1.00000000</i>
    <v name="DIPOL">   -100.00000000   -100.00000000   -100.00000000</v>
    <i name="EFIELD">      0.00000000</i>
   </separator>
  </separator>
  <separator name="grids" >
   <i type="int" name="NGX">    24</i>
   <i type="int" name="NGY">    36</i>
   <i type="int" name="NGZ">   150</i>
   <i type="int" name="NGXF">    48</i>
   <i type="int" name="NGYF">    72</i>
   <i type="int" name="NGZF">   300</i>
   <i type="logical" name="ADDGRID"> F  </i>
  </separator>
  <separator name="ionic" >
   <i type="int" name="NSW">   200</i>
   <i type="int" name="IBRION">     2</i>
   <i type="int" name="ISIF">     2</i>
   <i name="PSTRESS">      0.00000000</i>
   <i name="EDIFFG">     -0.01000000</i>
   <i type="int" name="NFREE">     1</i>
   <i name="POTIM">      0.30000000</i>
   <i name="SMASS">     -3.00000000</i>
   <i name="SCALEE">      1.00000000</i>
  </separator>
  <separator name="ionic md" >
   <i name="TEBEG">      0.00010000</i>
   <i name="TEEND">      0.00010000</i>
   <i type="int" name="NBLOCK">     1</i>
   <i type="int" name="KBLOCK">   200</i>
   <i type="int" name="NPACO">   256</i>
   <i name="APACO">     16.00000000</i>
  </separator>
  <separator name="symmetry" >
   <i type="int" name="ISYM">     2</i>
   <i name="SYMPREC">      0.00001000</i>
  </separator>
  <separator name="dos" >
   <i type="logical" name="LORBIT"> F  </i>
   <v name="RWIGS">     -1.00000000</v>
   <i type="int" name="NEDOS">   301</i>
   <i name="EMIN">     10.00000000</i>
   <i name="EMAX">    -10.00000000</i>
   <i name="EFERMI">      0.00000000</i>
  </separator>
  <separator name="writing" >
   <i type="int" name="NWRITE">     2</i>
   <i type="logical" name="LWAVE"> F  </i>
   <i type="logical" name="LCHARG"> F  </i>
   <i type="logical" name="LPARD"> F  </i>
   <i type="logical" name="LVTOT"> F  </i>
   <i type="logical" name="LVHAR"> F  </i>
   <i type="logical" name="LELF"> F  </i>
   <i type="logical" name="LOPTICS"> F  </i>
   <v name="STM">      0.00000000      0.00000000      0.00000000      0.00000000      0.00000000      0.00000000      0.00000000</v>
  </separator>
  <separator name="performance" >
   <i type="int" name="NPAR">     4</i>
   <i type="int" name="NSIM">     4</i>
   <i type="int" name="NBLK">    -1</i>
   <i type="logical" name="LPLANE"> T  </i>
   <i type="logical" name="LSCALAPACK"> T  </i>
   <i type="logical" name="LSCAAWARE"> F  </i>
   <i type="logical" name="LSCALU"> F  </i>
   <i type="logical" name="LASYNC"> F  </i>
   <i type="logical" name="LORBITALREAL"> F  </i>
  </separator>
  <separator name="miscellaneous" >
   <i type="int" name="IDIOT">     3</i>
   <i type="logical" name="LMUSIC"> F  </i>
   <v name="POMASS">     30.97400000</v>
   <v name="DARWINR">      0.00000000</v>
   <v name="DARWINV">      1.00000000</v>
   <i type="logical" name="LCORR"> T  </i>
  </separator>
  <i type="logical" name="GGA_COMPAT"> T  </i>
  <i type="logical" name="LBERRY"> F  </i>
  <i type="int" name="ICORELEVEL">     0</i>
  <i type="logical" name="LDAU"> F  </i>
  <i type="int" name="I_CONSTRAINED_M">     0</i>
  <separator name="electronic exchange-correlation" >
   <i type="string" name="GGA">--</i>
   <i type="int" name="VOSKOWN">     0</i>
   <i type="logical" name="LHFCALC"> F  </i>
   <i type="string" name="PRECFOCK"></i>
   <i type="logical" name="LSYMGRAD"> F  </i>
   <i type="logical" name="LHFONE"> F  </i>
   <i type="logical" name="LRHFCALC"> F  </i>
   <i type="logical" name="LTHOMAS"> F  </i>
   <i type="logical" name="LMODELHF"> F  </i>
   <i name="ENCUT4O">     -1.00000000</i>
   <i type="int" name="EXXOEP">     0</i>
   <i type="int" name="FOURORBIT">     0</i>
   <i name="AEXX">      0.00000000</i>
   <i name="HFALPHA">      0.00000000</i>
   <i name="MCALPHA">      0.00000000</i>
   <i name="ALDAX">      1.00000000</i>
   <i name="AGGAX">      1.00000000</i>
   <i name="ALDAC">      1.00000000</i>
   <i name="AGGAC">      1.00000000</i>
   <i type="int" name="NKREDX">     1</i>
   <i type="int" name="NKREDY">     1</i>
   <i type="int" name="NKREDZ">     1</i>
   <i type="logical" name="SHIFTRED"> F  </i>
   <i type="logical" name="ODDONLY"> F  </i>
   <i type="logical" name="EVENONLY"> F  </i>
   <i type="int" name="LMAXFOCK">     0</i>
   <i type="int" name="NMAXFOCKAE">     0</i>
   <i type="logical" name="LFOCKAEDFT"> F  </i>
   <i name="HFSCREEN">      0.00000000</i>
   <i name="HFSCREENC">      0.00000000</i>
   <i type="int" name="NBANDSGWLOW">     0</i>
  </separator>
  <separator name="vdW DFT" >
   <i type="logical" name="LUSE_VDW"> F  </i>
   <i name="Zab_VDW">     -0.84910000</i>
   <i name="PARAM1">      0.12340000</i>
   <i name="PARAM2">      1.00000000</i>
   <i name="PARAM3">      0.00000000</i>
  </separator>
  <separator name="model GW" >
   <i type="int" name="MODEL_GW">     0</i>
   <i name="MODEL_EPS0">     45.32796467</i>
   <i name="MODEL_ALPHA">      1.00000000</i>
  </separator>
  <separator name="linear response parameters" >
   <i type="logical" name="LEPSILON"> F  </i>
   <i type="logical" name="LRPA"> F  </i>
   <i type="logical" name="LNABLA"> F  </i>
   <i type="logical" name="LVEL"> F  </i>
   <i type="int" name="KINTER">     0</i>
   <i name="CSHIFT">      0.10000000</i>
   <i name="OMEGAMAX">     -1.00000000</i>
   <i name="DEG_THRESHOLD">      0.00200000</i>
  </separator>
  <separator name="orbital magnetization" >
   <i type="logical" name="NUCIND"> F  </i>
   <v name="MAGPOS">      0.00000000      0.00000000      0.00000000</v>
   <i type="logical" name="LNICSALL"> T  </i>
   <i type="logical" name="ORBITALMAG"> F  </i>
   <i type="logical" name="LMAGBLOCH"> F  </i>
   <i type="logical" name="LCHIMAG"> F  </i>
   <i type="logical" name="LGAUGE"> T  </i>
   <i type="int" name="MAGATOM">     0</i>
   <v name="MAGDIPOL">      0.00000000      0.00000000      0.00000000</v>
   <v name="AVECCONST">      0.00000000      0.00000000      0.00000000</v>
  </separator>
  <separator name="response functions" >
   <i type="logical" name="LADDER"> F  </i>
   <i type="logical" name="LFXC"> F  </i>
   <i type="logical" name="LHARTREE"> T  </i>
   <i type="int" name="IBSE">     0</i>
   <v type="int" name="KPOINT">    -1     0     0     0</v>
   <i type="logical" name="LTCTE"> F  </i>
   <i type="logical" name="LTETE"> F  </i>
   <i type="logical" name="LTRIPLET"> F  </i>
   <i type="logical" name="LFXCEPS"> F  </i>
   <i type="logical" name="LFXHEG"> F  </i>
   <i type="int" name="NATURALO">     0</i>
   <i type="logical" name="L2ORDER"> F  </i>
   <i type="logical" name="LUSEW"> F  </i>
   <i name="ENCUTGW">     -2.00000000</i>
   <i name="ENCUTGWSOFT">     -2.00000000</i>
   <i name="ENCUTLF">     -1.00000000</i>
   <i type="int" name="LMAXMP2">    -1</i>
   <i name="SCISSOR">      0.00000000</i>
   <i type="int" name="NOMEGA">     0</i>
   <i type="int" name="NOMEGAR">     0</i>
   <i type="int" name="NBANDSGW">    -1</i>
   <i type="int" name="NBANDSO">    -1</i>
   <i type="int" name="NBANDSV">    -1</i>
   <i type="int" name="NELM">   250</i>
   <i type="int" name="NELMHF">     1</i>
   <i type="int" name="DIM">     3</i>
   <i type="int" name="ANTIRES">     0</i>
   <i name="OMEGAMAX">    -30.00000000</i>
   <i name="OMEGAMIN">    -30.00000000</i>
   <i name="OMEGATL">   -200.00000000</i>
   <i type="int" name="OMEGAGRID">     0</i>
   <i name="CSHIFT">     -0.10000000</i>
   <i type="logical" name="SELFENERGY"> F  </i>
   <i type="logical" name="LSPECTRAL"> F  </i>
   <i type="logical" name="LSPECTRALGW"> F  </i>
   <i type="logical" name="LSINGLES"> F  </i>
   <i type="logical" name="LFERMIGW"> F  </i>
   <i type="logical" name="ODDONLYGW"> F  </i>
   <i type="logical" name="EVENONLYGW"> F  </i>
   <i type="int" name="NKREDLFX">     1</i>
   <i type="int" name="NKREDLFY">     1</i>
   <i type="int" name="NKREDLFZ">     1</i>
   <i type="int" name="MAXMEM">  1800</i>
   <i type="int" name="TELESCOPE">     0</i>
   <i type="int" name="TAUPAR">     1</i>
   <i type="int" name="OMEGAPAR">    -1</i>
   <i name="LAMBDA">      1.00000000</i>
  </separator>
  <separator name="External order field" >
   <i name="OFIELD_KAPPA">      0.00000000</i>
   <v name="OFIELD_K">      0.00000000      0.00000000      0.00000000</v>
   <i name="OFIELD_Q6_NEAR">      0.00000000</i>
   <i name="OFIELD_Q6_FAR">      0.00000000</i>
   <i name="OFIELD_A">      0.00000000</i>
  </separator>
 </parameters>
 <atominfo>
  <atoms>       4 </atoms>
  <types>       1 </types>
  <array name="atoms" >
   <dimension dim="1">ion</dimension>
   <field type="string">element</field>
   <field type="int">atomtype</field>
   <set>
    <rc><c>P </c><c>   1</c></rc>
    <rc><c>P </c><c>   1</c></rc>
    <rc><c>P </c><c>   1</c></rc>
    <rc><c>P </c><c>   1</c></rc>
   </set>
  </array>
  <array name="atomtypes" >
   <dimension dim="1">type</dimension>
   <field type="int">atomspertype</field>
   <field type="string">element</field>
   <field>mass</field>
   <field>valence</field>
   <field type="string">pseudopotential</field>
   <set>
    <rc><c>   4</c><c>P </c><c>     30.97400000</c><c>      5.00000000</c><c>  PAW_PBE P 06Sep2000                   </c></rc>
   </set>
  </array>
 </atominfo>
 <structure name="initialpos" >
  <crystal>
   <varray name="basis" >
    <v>       3.26406500       0.00000000       0.00000000 </v>
    <v>       0.00000000       4.62335100      -0.00005300 </v>
    <v>       0.00000000       0.00000000      20.02439000 </v>
   </varray>
   <i name="volume">    302.18643113 </i>
   <varray name="rec_basis" >
    <v>       0.30636645       0.00000000       0.00000000 </v>
    <v>       0.00000000       0.21629333       0.00000000 </v>
    <v>       0.00000000       0.00000057       0.04993910 </v>
   </varray>
  </crystal>
  <varray name="positions" >
   <v>       0.50000000       0.91077300       0.55252100 </v>
   <v>       0.50000000       0.08922700       0.44747900 </v>
   <v>       0.00000000       0.41076900       0.44747900 </v>
   <v>       0.00000000       0.58923100       0.55252100 </v>
  </varray>
 </structure>
 <calculation>
  <scstep>
   <time name="dav">    1.31    1.31</time>
   <time name="total">    1.33    1.33</time>
   <energy>
    <i name="alphaZ">      5.30851446 </i>
    <i name="ewald">   1887.43213483 </i>
    <i name="hartreedc">  -2480.93910863 </i>
    <i name="XCdc">     13.12891311 </i>
    <i name="pawpsdc">    559.04011960 </i>
    <i name="pawaedc">   -526.39432044 </i>
    <i name="eentropy">     -0.00046538 </i>
    <i name="bandstr">    -28.50685146 </i>
    <i name="atom">    704.16778566 </i>
    <i name="e_fr_energy">    133.23672175 </i>
    <i name="e_wo_entrp">    133.23718713 </i>
    <i name="e_0_energy">    133.23695444 </i>
   </energy>
  </scstep>
  <scstep>
   <time name="dav">    1.75    1.75</time>
   <time name="total">    1.75    1.75</time>
   <energy>
    <i name="e_fr_energy">     -6.50454578 </i>
    <i name="e_wo_entrp">     -6.50454578 </i>
    <i name="e_0_energy">     -6.50454578 </i>
   </energy>
  </scstep>
  <scstep>
   <time name="dav">    1.59    1.59</time>
   <time name="total">    1.59    1.59</time>
   <energy>
    <i name="e_fr_energy">    -21.36348054 </i>
    <i name="e_wo_entrp">    -21.36348054 </i>
    <i name="e_0_energy">    -21.36348054 </i>
   </energy>
  </scstep>
  <scstep>
   <time name="dav">    1.66    1.66</time>
   <time name="total">    1.66    1.66</time>
   <energy>
    <i name="e_fr_energy">    -21.66771905 </i>
    <i name="e_wo_entrp">    -21.66771905 </i>
    <i name="e_0_energy">    -21.66771905 </i>
   </energy>
  </scstep>
  <scstep>
   <time name="dav">    1.73    1.73</time>
   <time name="total">    1.81    1.81</time>
   <energy>
    <i name="e_fr_energy">    -21.67696724 </i>
    <i name="e_wo_entrp">    -21.67696724 </i>
    <i name="e_0_energy">    -21.67696724 </i>
   </energy>
  </scstep>
  <scstep>
   <time name="dav">    1.57    1.57</time>
   <time name="total">    1.66    1.66</time>
   <energy>
    <i name="e_fr_energy">    -21.52288482 </i>
    <i name="e_wo_entrp">    -21.52288482 </i>
    <i name="e_0_energy">    -21.52288482 </i>
   </energy>
  </scstep>
  <scstep>
   <time name="dav">    1.52    1.52</time>
   <time name="total">    1.61    1.61</time>
   <energy>
    <i name="e_fr_energy">    -21.45221072 </i>
    <i name="e_wo_entrp">    -21.45221072 </i>
    <i name="e_0_energy">    -21.45221072 </i>
   </energy>
  </scstep>
  <scstep>
   <time name="dav">    1.58    1.58</time>
   <time name="total">    1.67    1.67</time>
   <energy>
    <i name="e_fr_energy">    -21.45129778 </i>
    <i name="e_wo_entrp">    -21.45129778 </i>
    <i name="e_0_energy">    -21.45129778 </i>
   </energy>
  </scstep>
  <scstep>
   <time name="dav">    1.84    1.84</time>
   <time name="total">    1.92    1.92</time>
   <energy>
    <i name="e_fr_energy">    -21.45113900 </i>
    <i name="e_wo_entrp">    -21.45113900 </i>
    <i name="e_0_energy">    -21.45113900 </i>
   </energy>
  </scstep>
  <scstep>
   <time name="dav">    1.56    1.56</time>
   <time name="total">    1.65    1.65</time>
   <energy>
    <i name="e_fr_energy">    -21.45091059 </i>
    <i name="e_wo_entrp">    -21.45091059 </i>
    <i name="e_0_energy">    -21.45091059 </i>
   </energy>
  </scstep>
  <scstep>
   <time name="dav">    1.58    1.58</time>
   <time name="total">    1.67    1.67</time>
   <energy>
    <i name="e_fr_energy">    -21.45080472 </i>
    <i name="e_wo_entrp">    -21.45080472 </i>
    <i name="e_0_energy">    -21.45080472 </i>
   </energy>
  </scstep>
  <scstep>
   <time name="dav">    1.40    1.40</time>
   <time name="total">    1.49    1.49</time>
   <energy>
    <i name="e_fr_energy">    -21.45119383 </i>
    <i name="e_wo_entrp">    -21.45119383 </i>
    <i name="e_0_energy">    -21.45119383 </i>
   </energy>
  </scstep>
  <scstep>
   <time name="dav">    1.41    1.41</time>
   <time name="total">    1.50    1.50</time>
   <energy>
    <i name="e_fr_energy">    -21.45128408 </i>
    <i name="e_wo_entrp">    -21.45128408 </i>
    <i name="e_0_energy">    -21.45128408 </i>
   </energy>
  </scstep>
  <scstep>
   <time name="dav">    1.30    1.30</time>
   <time name="total">    1.38    1.38</time>
   <energy>
    <i name="e_fr_energy">    -21.45143739 </i>
    <i name="e_wo_entrp">    -21.45143739 </i>
    <i name="e_0_energy">    -21.45143739 </i>
   </energy>
  </scstep>
  <scstep>
   <time name="dav">    1.35    1.35</time>
   <time name="total">    1.43    1.43</time>
   <energy>
    <i name="e_fr_energy">    -21.45148016 </i>
    <i name="e_wo_entrp">    -21.45148016 </i>
    <i name="e_0_energy">    -21.45148016 </i>
   </energy>
  </scstep>
  <scstep>
   <time name="dav">    1.27    1.27</time>
   <time name="total">    1.36    1.36</time>
   <energy>
    <i name="e_fr_energy">    -21.45151652 </i>
    <i name="e_wo_entrp">    -21.45151652 </i>
    <i name="e_0_energy">    -21.45151652 </i>
   </energy>
  </scstep>
  <scstep>
   <time name="dav">    1.31    1.31</time>
   <time name="total">    1.32    1.32</time>
   <energy>
    <i name="alphaZ">      5.30851446 </i>
    <i name="ewald">   1887.43213483 </i>
    <i name="hartreedc">  -2496.85075349 </i>
    <i name="XCdc">     14.21315951 </i>
    <i name="pawpsdc">   2149.23020655 </i>
    <i name="pawaedc">  -2116.93960945 </i>
    <i name="eentropy">     -0.00000000 </i>
    <i name="bandstr">   -168.01295647 </i>
    <i name="atom">    704.16778566 </i>
    <i name="e_fr_energy">    -21.45151839 </i>
    <i name="e_wo_entrp">    -21.45151839 </i>
    <i name="e_0_energy">    -21.45151839 </i>
   </energy>
  </scstep>
  <structure>
   <crystal>
    <varray name="basis" >
     <v>       3.26406500       0.00000000       0.00000000 </v>
     <v>       0.00000000       4.62335100      -0.00005300 </v>
     <v>       0.00000000       0.00000000      20.02439000 </v>
    </varray>
    <i name="volume">    302.18643113 </i>
    <varray name="rec_basis" >
     <v>       0.30636645       0.00000000       0.00000000 </v>
     <v>       0.00000000       0.21629333       0.00000000 </v>
     <v>       0.00000000       0.00000057       0.04993910 </v>
    </varray>
   </crystal>
   <varray name="positions" >
    <v>       0.50000000       0.91077300       0.55252100 </v>
    <v>       0.50000000       0.08922700       0.44747900 </v>
    <v>       0.00000000       0.41076900       0.44747900 </v>
    <v>       0.00000000       0.58923100       0.55252100 </v>
   </varray>
  </structure>
  <varray name="forces" >
   <v>      -0.00000028       0.05294595       0.01006968 </v>
   <v>       0.00000028      -0.05294595      -0.01006968 </v>
   <v>       0.00000019       0.05291256      -0.01006901 </v>
   <v>      -0.00000019      -0.05291256       0.01006901 </v>
  </varray>
  <varray name="stress" >
   <v>       5.82035138       0.00000736       0.00000055 </v>
   <v>       0.00000736       1.72684562       0.00034883 </v>
   <v>       0.00000058       0.00034874       0.16029960 </v>
  </varray>
  <energy>
   <i name="e_fr_energy">    -21.45151839 </i>
   <i name="e_wo_entrp">    -21.45151839 </i>
   <i name="e_0_energy">     -0.00000000 </i>
  </energy>
  <time name="totalsc">   27.53   27.58</time>
 </calculation>
 <calculation>
  <scstep>
   <time name="dav">    1.38    1.38</time>
   <time name="total">    1.46    1.46</time>
   <energy>
    <i name="alphaZ">      5.30851446 </i>
    <i name="ewald">   1886.92235379 </i>
    <i name="hartreedc">  -2496.45026994 </i>
    <i name="XCdc">     14.20408872 </i>
    <i name="pawpsdc">   2148.77501193 </i>
    <i name="pawaedc">  -2116.48446729 </i>
    <i name="eentropy">     -0.00000000 </i>
    <i name="bandstr">   -167.89474686 </i>
    <i name="atom">    704.16778566 </i>
    <i name="e_fr_energy">    -21.45172954 </i>
    <i name="e_wo_entrp">    -21.45172954 </i>
    <i name="e_0_energy">    -21.45172954 </i>
   </energy>
  </scstep>
  <scstep>
   <time name="dav">    1.69    1.69</time>
   <time name="total">    1.77    1.78</time>
   <energy>
    <i name="e_fr_energy">    -21.45176280 </i>
    <i name="e_wo_entrp">    -21.45176280 </i>
    <i name="e_0_energy">    -21.45176280 </i>
   </energy>
  </scstep>
  <scstep>
   <time name="dav">    1.19    1.19</time>
   <time name="total">    1.28    1.28</time>
   <energy>
    <i name="e_fr_energy">    -21.45176295 </i>
    <i name="e_wo_entrp">    -21.45176295 </i>
    <i name="e_0_energy">    -21.45176295 </i>
   </energy>
  </scstep>
  <scstep>
   <time name="dav">    1.20    1.20</time>
   <time name="total">    1.29    1.29</time>
   <energy>
    <i name="e_fr_energy">    -21.45176519 </i>
    <i name="e_wo_entrp">    -21.45176519 </i>
    <i name="e_0_energy">    -21.45176519 </i>
   </energy>
  </scstep>
  <scstep>
   <time name="dav">    1.10    1.10</time>
   <time name="total">    1.18    1.18</time>
   <energy>
    <i name="e_fr_energy">    -21.45176588 </i>
    <i name="e_wo_entrp">    -21.45176588 </i>
    <i name="e_0_energy">    -21.45176588 </i>
   </energy>
  </scstep>
  <scstep>
   <time name="dav">    1.06    1.06</time>
   <time name="total">    1.08    1.08</time>
   <energy>
    <i name="alphaZ">      5.30851446 </i>
    <i name="ewald">   1886.92235379 </i>
    <i name="hartreedc">  -2496.45199167 </i>
    <i name="XCdc">     14.20295113 </i>
    <i name="pawpsdc">   2142.84224803 </i>
    <i name="pawaedc">  -2110.54939091 </i>
    <i name="eentropy">     -0.00000000 </i>
    <i name="bandstr">   -167.89423692 </i>
    <i name="atom">    704.16778566 </i>
    <i name="e_fr_energy">    -21.45176644 </i>
    <i name="e_wo_entrp">    -21.45176644 </i>
    <i name="e_0_energy">    -21.45176644 </i>
   </energy>
  </scstep>
  <structure>
   <crystal>
    <varray name="basis" >
     <v>       3.26406500       0.00000000       0.00000000 </v>
     <v>       0.00000000       4.62335100      -0.00005300 </v>
     <v>       0.00000000       0.00000000      20.02439000 </v>
    </varray>
    <i name="volume">    302.18643113 </i>
    <varray name="rec_basis" >
     <v>       0.30636645       0.00000000       0.00000000 </v>
     <v>       0.00000000       0.21629333       0.00000000 </v>
     <v>       0.00000000       0.00000057       0.04993910 </v>
    </varray>
   </crystal>
   <varray name="positions" >
    <v>       0.50000000       0.91110448       0.55253556 </v>
    <v>       0.50000000       0.08889552       0.44746444 </v>
    <v>       0.00000000       0.41110027       0.44746445 </v>
    <v>      -0.00000000       0.58889973       0.55253555 </v>
   </varray>
  </structure>
  <varray name="forces" >
   <v>       0.00000006       0.01872975       0.01058119 </v>
   <v>      -0.00000006      -0.01872975      -0.01058119 </v>
   <v>       0.00000003       0.01870255      -0.01057995 </v>
   <v>      -0.00000003      -0.01870255       0.01057995 </v>
  </varray>
  <varray name="stress" >
   <v>       5.65017279      -0.00000054       0.00000062 </v>
   <v>      -0.00000046       1.22084200       0.00028958 </v>
   <v>       0.00000059       0.00028952       0.17110479 </v>
  </varray>
  <energy>
   <i name="e_fr_energy">    -21.45176644 </i>
   <i name="e_wo_entrp">    -21.45176644 </i>
   <i name="e_0_energy">     -0.00000000 </i>
  </energy>
  <time name="totalsc">    8.82    8.84</time>
 </calculation>
 <calculation>
  <scstep>
   <time name="dav">    1.38    1.38</time>
   <time name="total">    1.47    1.47</time>
   <energy>
    <i name="alphaZ">      5.30851446 </i>
    <i name="ewald">   1886.61296434 </i>
    <i name="hartreedc">  -2496.20161659 </i>
    <i name="XCdc">     14.19742427 </i>
    <i name="pawpsdc">   2142.72224933 </i>
    <i name="pawaedc">  -2110.42938670 </i>
    <i name="eentropy">     -0.00000000 </i>
    <i name="bandstr">   -167.82972933 </i>
    <i name="atom">    704.16778566 </i>
    <i name="e_fr_energy">    -21.45179456 </i>
    <i name="e_wo_entrp">    -21.45179456 </i>
    <i name="e_0_energy">    -21.45179456 </i>
   </energy>
  </scstep>
  <scstep>
   <time name="dav">    1.66    1.66</time>
   <time name="total">    1.74    1.74</time>
   <energy>
    <i name="e_fr_energy">    -21.45180620 </i>
    <i name="e_wo_entrp">    -21.45180620 </i>
    <i name="e_0_energy">    -21.45180620 </i>
   </energy>
  </scstep>
  <scstep>
   <time name="dav">    1.13    1.13</time>
   <time name="total">    1.21    1.21</time>
   <energy>
    <i name="e_fr_energy">    -21.45180581 </i>
    <i name="e_wo_entrp">    -21.45180581 </i>
    <i name="e_0_energy">    -21.45180581 </i>
   </energy>
  </scstep>
  <scstep>
   <time name="dav">    1.06    1.06</time>
   <time name="total">    1.14    1.15</time>
   <energy>
    <i name="e_fr_energy">    -21.45180571 </i>
    <i name="e_wo_entrp">    -21.45180571 </i>
    <i name="e_0_energy">    -21.45180571 </i>
   </energy>
  </scstep>
  <scstep>
   <time name="dav">    1.01    1.01</time>
   <time name="total">    1.10    1.10</time>
   <energy>
    <i name="e_fr_energy">    -21.45180590 </i>
    <i name="e_wo_entrp">    -21.45180590 </i>
    <i name="e_0_energy">    -21.45180590 </i>
   </energy>
  </scstep>
  <scstep>
   <time name="dav">    0.99    0.99</time>
   <time name="total">    1.01    1.01</time>
   <energy>
    <i name="alphaZ">      5.30851446 </i>
    <i name="ewald">   1886.61296434 </i>
    <i name="hartreedc">  -2496.20423841 </i>
    <i name="XCdc">     14.19676493 </i>
    <i name="pawpsdc">   2138.90654487 </i>
    <i name="pawaedc">  -2106.61230922 </i>
    <i name="eentropy">     -0.00000000 </i>
    <i name="bandstr">   -167.82783258 </i>
    <i name="atom">    704.16778566 </i>
    <i name="e_fr_energy">    -21.45180595 </i>
    <i name="e_wo_entrp">    -21.45180595 </i>
    <i name="e_0_energy">    -21.45180595 </i>
   </energy>
  </scstep>
  <structure>
   <crystal>
    <varray name="basis" >
     <v>       3.26406500       0.00000000       0.00000000 </v>
     <v>       0.00000000       4.62335100      -0.00005300 </v>
     <v>       0.00000000       0.00000000      20.02439000 </v>
    </varray>
    <i name="volume">    302.18643113 </i>
    <varray name="rec_basis" >
     <v>       0.30636645       0.00000000       0.00000000 </v>
     <v>       0.00000000       0.21629333       0.00000000 </v>
     <v>       0.00000000       0.00000057       0.04993910 </v>
    </varray>
   </crystal>
   <varray name="positions" >
    <v>       0.50000000       0.91130589       0.55254440 </v>
    <v>       0.50000000       0.08869411       0.44745560 </v>
    <v>       0.00000000       0.41130155       0.44745560 </v>
    <v>      -0.00000000       0.58869845       0.55254440 </v>
   </varray>
  </structure>
  <varray name="forces" >
   <v>       0.00000008      -0.00180528       0.01084049 </v>
   <v>      -0.00000008       0.00180528      -0.01084049 </v>
   <v>       0.00000000      -0.00182910      -0.01083970 </v>
   <v>      -0.00000000       0.00182910       0.01083970 </v>
  </varray>
  <varray name="stress" >
   <v>       5.54973471       0.00000059       0.00000096 </v>
   <v>       0.00000056       0.91634866       0.00025580 </v>
   <v>       0.00000097       0.00025582       0.17467028 </v>
  </varray>
  <energy>
   <i name="e_fr_energy">    -21.45180595 </i>
   <i name="e_wo_entrp">    -21.45180595 </i>
   <i name="e_0_energy">     -0.00000000 </i>
  </energy>
  <time name="totalsc">    8.43    8.45</time>
 </calculation>
 <calculation>
  <scstep>
   <time name="dav">    1.28    1.28</time>
   <time name="total">    1.37    1.37</time>
   <energy>
    <i name="alphaZ">      5.30851446 </i>
    <i name="ewald">   1886.27330707 </i>
    <i name="hartreedc">  -2495.88446979 </i>
    <i name="XCdc">     14.19448459 </i>
    <i name="pawpsdc">   2138.81467634 </i>
    <i name="pawaedc">  -2106.52044010 </i>
    <i name="eentropy">     -0.00000000 </i>
    <i name="bandstr">   -167.80567396 </i>
    <i name="atom">    704.16778566 </i>
    <i name="e_fr_energy">    -21.45181573 </i>
    <i name="e_wo_entrp">    -21.45181573 </i>
    <i name="e_0_energy">    -21.45181573 </i>
   </energy>
  </scstep>
  <scstep>
   <time name="dav">    1.21    1.21</time>
   <time name="total">    1.30    1.30</time>
   <energy>
    <i name="e_fr_energy">    -21.45181767 </i>
    <i name="e_wo_entrp">    -21.45181767 </i>
    <i name="e_0_energy">    -21.45181767 </i>
   </energy>
  </scstep>
  <scstep>
   <time name="dav">    1.00    1.00</time>
   <time name="total">    1.08    1.09</time>
   <energy>
    <i name="e_fr_energy">    -21.45181762 </i>
    <i name="e_wo_entrp">    -21.45181762 </i>
    <i name="e_0_energy">    -21.45181762 </i>
   </energy>
  </scstep>
  <scstep>
   <time name="dav">    0.99    0.99</time>
   <time name="total">    1.07    1.07</time>
   <energy>
    <i name="e_fr_energy">    -21.45181760 </i>
    <i name="e_wo_entrp">    -21.45181760 </i>
    <i name="e_0_energy">    -21.45181760 </i>
   </energy>
  </scstep>
  <scstep>
   <time name="dav">    0.99    0.99</time>
   <time name="total">    1.07    1.08</time>
   <energy>
    <i name="e_fr_energy">    -21.45181765 </i>
    <i name="e_wo_entrp">    -21.45181765 </i>
    <i name="e_0_energy">    -21.45181765 </i>
   </energy>
  </scstep>
  <scstep>
   <time name="dav">    0.99    0.99</time>
   <time name="total">    1.00    1.00</time>
   <energy>
    <i name="alphaZ">      5.30851446 </i>
    <i name="ewald">   1886.27330707 </i>
    <i name="hartreedc">  -2495.88695581 </i>
    <i name="XCdc">     14.19434816 </i>
    <i name="pawpsdc">   2137.62136868 </i>
    <i name="pawaedc">  -2105.32675205 </i>
    <i name="eentropy">     -0.00000000 </i>
    <i name="bandstr">   -167.80343385 </i>
    <i name="atom">    704.16778566 </i>
    <i name="e_fr_energy">    -21.45181767 </i>
    <i name="e_wo_entrp">    -21.45181767 </i>
    <i name="e_0_energy">    -21.45181767 </i>
   </energy>
  </scstep>
  <structure>
   <crystal>
    <varray name="basis" >
     <v>       3.26406500       0.00000000       0.00000000 </v>
     <v>       0.00000000       4.62335100      -0.00005300 </v>
     <v>       0.00000000       0.00000000      20.02439000 </v>
    </varray>
    <i name="volume">    302.18643113 </i>
    <varray name="rec_basis" >
     <v>       0.30636645       0.00000000       0.00000000 </v>
     <v>       0.00000000       0.21629333       0.00000000 </v>
     <v>       0.00000000       0.00000057       0.04993910 </v>
    </varray>
   </crystal>
   <varray name="positions" >
    <v>       0.50000000       0.91130703       0.55256258 </v>
    <v>       0.50000000       0.08869297       0.44743742 </v>
    <v>       0.00000000       0.41130251       0.44743742 </v>
    <v>      -0.00000000       0.58869749       0.55256258 </v>
   </varray>
  </structure>
  <varray name="forces" >
   <v>       0.00000005      -0.00073841       0.00549219 </v>
   <v>      -0.00000005       0.00073841      -0.00549219 </v>
   <v>      -0.00000002      -0.00075719      -0.00549221 </v>
   <v>       0.00000002       0.00075719       0.00549221 </v>
  </varray>
  <varray name="stress" >
   <v>       5.54058837       0.00000033       0.00000088 </v>
   <v>       0.00000031       0.89585816       0.00020147 </v>
   <v>       0.00000089       0.00020145       0.05381708 </v>
  </varray>
  <energy>
   <i name="e_fr_energy">    -21.45181767 </i>
   <i name="e_wo_entrp">    -21.45181767 </i>
   <i name="e_0_energy">     -0.00000000 </i>
  </energy>
  <time name="totalsc">    7.59    7.61</time>
  <eigenvalues>
   <array>
    <dimension dim="1">band</dimension>
    <dimension dim="2">kpoint</dimension>
    <dimension dim="3">spin</dimension>
    <field>eigene</field>
    <field>occ</field>
    <set>
     <set comment="spin 1">
      <set comment="kpoint 1">
       <r>  -17.2687    1.0000 </r>
       <r>  -14.8222    1.0000 </r>
       <r>  -11.4229    1.0000 </r>
       <r>   -7.9638    1.0000 </r>
       <r>   -6.9718    1.0000 </r>
       <r>   -6.8036    1.0000 </r>
       <r>   -5.4394    1.0000 </r>
       <r>   -3.9662    1.0000 </r>
       <r>   -3.8729    1.0000 </r>
       <r>   -2.2592    1.0000 </r>
       <r>   -1.4039    0.0000 </r>
       <r>   -0.4565    0.0000 </r>
       <r>    0.6159    0.0000 </r>
       <r>    1.1847    0.0000 </r>
       <r>    2.1359    0.0000 </r>
       <r>    2.3115    0.0000 </r>
      </set>
      <set comment="kpoint 2">
       <r>  -17.2435    1.0000 </r>
       <r>  -14.7959    1.0000 </r>
       <r>  -11.4289    1.0000 </r>
       <r>   -7.9444    1.0000 </r>
       <r>   -6.9833    1.0000 </r>
       <r>   -6.7812    1.0000 </r>
       <r>   -5.6113    1.0000 </r>
       <r>   -4.0534    1.0000 </r>
       <r>   -3.9547    1.0000 </r>
       <r>   -2.2566    1.0000 </r>
       <r>   -1.3801    0.0000 </r>
       <r>   -0.2241    0.0000 </r>
       <r>    0.8451    0.0000 </r>
       <r>    1.0233    0.0000 </r>
       <r>    2.1622    0.0000 </r>
       <r>    2.3397    0.0000 </r>
      </set>
      <set comment="kpoint 3">
       <r>  -17.1679    1.0000 </r>
       <r>  -14.7171    1.0000 </r>
       <r>  -11.4515    1.0000 </r>
       <r>   -7.8869    1.0000 </r>
       <r>   -7.0332    1.0000 </r>
       <r>   -6.7144    1.0000 </r>
       <r>   -6.0358    1.0000 </r>
       <r>   -4.4814    1.0000 </r>
       <r>   -3.9231    1.0000 </r>
       <r>   -2.2670    1.0000 </r>
       <r>   -1.3091    0.0000 </r>
       <r>    0.4003    0.0000 </r>
       <r>    0.6195    0.0000 </r>
       <r>    1.4125    0.0000 </r>
       <r>    2.2381    0.0000 </r>
       <r>    2.4239    0.0000 </r>
      </set>
      <set comment="kpoint 4">
       <r>  -17.0422    1.0000 </r>
       <r>  -14.5859    1.0000 </r>
       <r>  -11.5049    1.0000 </r>
       <r>   -7.7933    1.0000 </r>
       <r>   -7.1730    1.0000 </r>
       <r>   -6.6043    1.0000 </r>
       <r>   -6.5528    1.0000 </r>
       <r>   -4.9468    1.0000 </r>
       <r>   -3.8807    1.0000 </r>
       <r>   -2.3115    1.0000 </r>
       <r>   -1.1919    0.0000 </r>
       <r>    0.1119    0.0000 </r>
       <r>    1.2774    0.0000 </r>
       <r>    2.0355    0.0000 </r>
       <r>    2.3356    0.0000 </r>
       <r>    2.5636    0.0000 </r>
      </set>
      <set comment="kpoint 5">
       <r>  -16.8670    1.0000 </r>
       <r>  -14.4026    1.0000 </r>
       <r>  -11.6117    1.0000 </r>
       <r>   -7.6675    1.0000 </r>
       <r>   -7.4787    1.0000 </r>
       <r>   -7.0425    1.0000 </r>
       <r>   -6.4529    1.0000 </r>
       <r>   -5.2755    1.0000 </r>
       <r>   -3.8457    1.0000 </r>
       <r>   -2.4011    1.0000 </r>
       <r>   -1.0305    0.0000 </r>
       <r>   -0.3925    0.0000 </r>
       <r>    2.0914    0.0000 </r>
       <r>    2.1238    0.0000 </r>
       <r>    2.2756    0.0000 </r>
       <r>    2.6813    0.0000 </r>
      </set>
      <set comment="kpoint 6">
       <r>  -16.6431    1.0000 </r>
       <r>  -14.1675    1.0000 </r>
       <r>  -11.7986    1.0000 </r>
       <r>   -7.9703    1.0000 </r>
       <r>   -7.5160    1.0000 </r>
       <r>   -7.4288    1.0000 </r>
       <r>   -6.2636    1.0000 </r>
       <r>   -5.4011    1.0000 </r>
       <r>   -3.8473    1.0000 </r>
       <r>   -2.5454    1.0000 </r>
       <r>   -0.8297    0.0000 </r>
       <r>   -0.8128    0.0000 </r>
       <r>    1.5301    0.0000 </r>
       <r>    1.5702    0.0000 </r>
       <r>    2.7697    0.0000 </r>
       <r>    2.8938    0.0000 </r>
      </set>
      <set comment="kpoint 7">
       <r>  -16.3715    1.0000 </r>
       <r>  -13.8811    1.0000 </r>
       <r>  -12.0831    1.0000 </r>
       <r>   -8.5802    1.0000 </r>
       <r>   -7.6700    1.0000 </r>
       <r>   -7.3502    1.0000 </r>
       <r>   -6.0417    1.0000 </r>
       <r>   -5.3733    1.0000 </r>
       <r>   -3.9175    1.0000 </r>
       <r>   -2.7504    1.0000 </r>
       <r>   -1.0815    0.0000 </r>
       <r>   -0.6028    0.0000 </r>
       <r>    0.8796    0.0000 </r>
       <r>    1.0144    0.0000 </r>
       <r>    2.3201    0.0000 </r>
       <r>    3.1955    0.0000 </r>
      </set>
      <set comment="kpoint 8">
       <r>  -16.0540    1.0000 </r>
       <r>  -13.5440    1.0000 </r>
       <r>  -12.4613    1.0000 </r>
       <r>   -9.2355    1.0000 </r>
       <r>   -7.7594    1.0000 </r>
       <r>   -7.1890    1.0000 </r>
       <r>   -5.7957    1.0000 </r>
       <r>   -5.2628    1.0000 </r>
       <r>   -4.0619    1.0000 </r>
       <r>   -3.0128    1.0000 </r>
       <r>   -1.1613    0.0000 </r>
       <r>   -0.4021    0.0000 </r>
       <r>    0.2642    0.0000 </r>
       <r>    0.5599    0.0000 </r>
       <r>    1.8206    0.0000 </r>
       <r>    3.2259    0.0000 </r>
      </set>
      <set comment="kpoint 9">
       <r>  -15.6926    1.0000 </r>
       <r>  -13.1572    1.0000 </r>
       <r>  -12.9089    1.0000 </r>
       <r>   -9.8937    1.0000 </r>
       <r>   -7.7194    1.0000 </r>
       <r>   -7.0630    1.0000 </r>
       <r>   -5.5391    1.0000 </r>
       <r>   -5.1227    1.0000 </r>
       <r>   -4.2319    1.0000 </r>
       <r>   -3.3174    1.0000 </r>
       <r>   -1.0639    0.0000 </r>
       <r>   -0.4272    0.0000 </r>
       <r>   -0.2722    0.0000 </r>
       <r>    0.4326    0.0000 </r>
       <r>    1.3246    0.0000 </r>
       <r>    2.8423    0.0000 </r>
      </set>
      <set comment="kpoint 10">
       <r>  -15.2905    1.0000 </r>
       <r>  -13.3950    1.0000 </r>
       <r>  -12.7216    1.0000 </r>
       <r>  -10.5327    1.0000 </r>
       <r>   -7.5861    1.0000 </r>
       <r>   -7.0118    1.0000 </r>
       <r>   -5.2931    1.0000 </r>
       <r>   -4.9978    1.0000 </r>
       <r>   -4.3452    1.0000 </r>
       <r>   -3.6386    1.0000 </r>
       <r>   -0.8297    0.0000 </r>
       <r>   -0.6967    0.0000 </r>
       <r>   -0.6926    0.0000 </r>
       <r>    0.6778    0.0000 </r>
       <r>    0.8323    0.0000 </r>
       <r>    2.4011    0.0000 </r>
      </set>
      <set comment="kpoint 11">
       <r>  -14.8519    1.0000 </r>
       <r>  -13.8929    1.0000 </r>
       <r>  -12.2389    1.0000 </r>
       <r>  -11.1408    1.0000 </r>
       <r>   -7.4008    1.0000 </r>
       <r>   -7.0643    1.0000 </r>
       <r>   -5.0881    1.0000 </r>
       <r>   -4.9319    1.0000 </r>
       <r>   -4.3356    1.0000 </r>
       <r>   -3.9432    1.0000 </r>
       <r>   -0.9585    0.0000 </r>
       <r>   -0.9386    0.0000 </r>
       <r>   -0.4975    0.0000 </r>
       <r>    0.3535    0.0000 </r>
       <r>    1.0550    0.0000 </r>
       <r>    1.9399    0.0000 </r>
      </set>
      <set comment="kpoint 12">
       <r>  -14.3830    1.0000 </r>
       <r>  -14.3830    1.0000 </r>
       <r>  -11.7110    1.0000 </r>
       <r>  -11.7110    1.0000 </r>
       <r>   -7.2093    1.0000 </r>
       <r>   -7.2093    1.0000 </r>
       <r>   -4.9598    1.0000 </r>
       <r>   -4.9598    1.0000 </r>
       <r>   -4.1906    1.0000 </r>
       <r>   -4.1906    1.0000 </r>
       <r>   -1.0402    0.0000 </r>
       <r>   -1.0402    0.0000 </r>
       <r>   -0.0959    0.0000 </r>
       <r>   -0.0959    0.0000 </r>
       <r>    1.4844    0.0000 </r>
       <r>    1.4844    0.0000 </r>
      </set>
      <set comment="kpoint 13">
       <r>  -17.2473    1.0000 </r>
       <r>  -14.8518    1.0000 </r>
       <r>  -11.4332    1.0000 </r>
       <r>   -8.1175    1.0000 </r>
       <r>   -6.8801    1.0000 </r>
       <r>   -6.7082    1.0000 </r>
       <r>   -5.4230    1.0000 </r>
       <r>   -3.8881    1.0000 </r>
       <r>   -3.8680    1.0000 </r>
       <r>   -2.4698    1.0000 </r>
       <r>   -1.2085    0.0000 </r>
       <r>   -0.4405    0.0000 </r>
       <r>    0.5716    0.0000 </r>
       <r>    1.1710    0.0000 </r>
       <r>    2.1959    0.0000 </r>
       <r>    2.3418    0.0000 </r>
      </set>
      <set comment="kpoint 14">
       <r>  -17.2221    1.0000 </r>
       <r>  -14.8256    1.0000 </r>
       <r>  -11.4380    1.0000 </r>
       <r>   -8.1011    1.0000 </r>
       <r>   -6.8868    1.0000 </r>
       <r>   -6.6925    1.0000 </r>
       <r>   -5.5889    1.0000 </r>
       <r>   -4.0776    1.0000 </r>
       <r>   -3.8528    1.0000 </r>
       <r>   -2.4635    1.0000 </r>
       <r>   -1.1886    0.0000 </r>
       <r>   -0.2084    0.0000 </r>
       <r>    0.7908    0.0000 </r>
       <r>    1.0231    0.0000 </r>
       <r>    2.2211    0.0000 </r>
       <r>    2.3700    0.0000 </r>
      </set>
      <set comment="kpoint 15">
       <r>  -17.1465    1.0000 </r>
       <r>  -14.7473    1.0000 </r>
       <r>  -11.4570    1.0000 </r>
       <r>   -8.0548    1.0000 </r>
       <r>   -6.9198    1.0000 </r>
       <r>   -6.6587    1.0000 </r>
       <r>   -5.9829    1.0000 </r>
       <r>   -4.5134    1.0000 </r>
       <r>   -3.8283    1.0000 </r>
       <r>   -2.4593    1.0000 </r>
       <r>   -1.1324    0.0000 </r>
       <r>    0.4154    0.0000 </r>
       <r>    0.6024    0.0000 </r>
       <r>    1.3874    0.0000 </r>
       <r>    2.2936    0.0000 </r>
       <r>    2.4539    0.0000 </r>
      </set>
      <set comment="kpoint 16">
       <r>  -17.0209    1.0000 </r>
       <r>  -14.6169    1.0000 </r>
       <r>  -11.5040    1.0000 </r>
       <r>   -7.9906    1.0000 </r>
       <r>   -7.0217    1.0000 </r>
       <r>   -6.7434    1.0000 </r>
       <r>   -6.3110    1.0000 </r>
       <r>   -4.9883    1.0000 </r>
       <r>   -3.7998    1.0000 </r>
       <r>   -2.4776    1.0000 </r>
       <r>   -1.0402    0.0000 </r>
       <r>    0.1126    0.0000 </r>
       <r>    1.2884    0.0000 </r>
       <r>    2.0271    0.0000 </r>
       <r>    2.3771    0.0000 </r>
       <r>    2.5932    0.0000 </r>
      </set>
      <set comment="kpoint 17">
       <r>  -16.8459    1.0000 </r>
       <r>  -14.4351    1.0000 </r>
       <r>  -11.6020    1.0000 </r>
       <r>   -7.9579    1.0000 </r>
       <r>   -7.2287    1.0000 </r>
       <r>   -7.1271    1.0000 </r>
       <r>   -6.2751    1.0000 </r>
       <r>   -5.3224    1.0000 </r>
       <r>   -3.7870    1.0000 </r>
       <r>   -2.5344    1.0000 </r>
       <r>   -0.9094    0.0000 </r>
       <r>   -0.3672    0.0000 </r>
       <r>    1.9479    0.0000 </r>
       <r>    2.1546    0.0000 </r>
       <r>    2.3483    0.0000 </r>
       <r>    2.6401    0.0000 </r>
      </set>
      <set comment="kpoint 18">
       <r>  -16.6221    1.0000 </r>
       <r>  -14.2025    1.0000 </r>
       <r>  -11.7782    1.0000 </r>
       <r>   -8.1476    1.0000 </r>
       <r>   -7.4961    1.0000 </r>
       <r>   -7.3805    1.0000 </r>
       <r>   -6.1158    1.0000 </r>
       <r>   -5.4468    1.0000 </r>
       <r>   -3.8189    1.0000 </r>
       <r>   -2.6447    1.0000 </r>
       <r>   -0.7536    0.0000 </r>
       <r>   -0.7398    0.0000 </r>
       <r>    1.3919    0.0000 </r>
       <r>    1.6269    0.0000 </r>
       <r>    2.7231    0.0000 </r>
       <r>    3.0327    0.0000 </r>
      </set>
      <set comment="kpoint 19">
       <r>  -16.3509    1.0000 </r>
       <r>  -13.9208    1.0000 </r>
       <r>  -12.0505    1.0000 </r>
       <r>   -8.6532    1.0000 </r>
       <r>   -7.7329    1.0000 </r>
       <r>   -7.3207    1.0000 </r>
       <r>   -5.9135    1.0000 </r>
       <r>   -5.4199    1.0000 </r>
       <r>   -3.9197    1.0000 </r>
       <r>   -2.8180    1.0000 </r>
       <r>   -0.9844    0.0000 </r>
       <r>   -0.5412    0.0000 </r>
       <r>    0.8343    0.0000 </r>
       <r>    0.9839    0.0000 </r>
       <r>    2.4655    0.0000 </r>
       <r>    3.2711    0.0000 </r>
      </set>
      <set comment="kpoint 20">
       <r>  -16.0339    1.0000 </r>
       <r>  -13.5956    1.0000 </r>
       <r>  -12.4117    1.0000 </r>
       <r>   -9.2772    1.0000 </r>
       <r>   -7.8192    1.0000 </r>
       <r>   -7.1883    1.0000 </r>
       <r>   -5.6892    1.0000 </r>
       <r>   -5.3233    1.0000 </r>
       <r>   -4.0762    1.0000 </r>
       <r>   -3.0515    1.0000 </r>
       <r>   -1.0351    0.0000 </r>
       <r>   -0.3715    0.0000 </r>
       <r>    0.3682    0.0000 </r>
       <r>    0.3899    0.0000 </r>
       <r>    2.0270    0.0000 </r>
       <r>    3.1664    0.0000 </r>
      </set>
      <set comment="kpoint 21">
       <r>  -15.6732    1.0000 </r>
       <r>  -13.2693    1.0000 </r>
       <r>  -12.7958    1.0000 </r>
       <r>   -9.9227    1.0000 </r>
       <r>   -7.7743    1.0000 </r>
       <r>   -7.0686    1.0000 </r>
       <r>   -5.4633    1.0000 </r>
       <r>   -5.2217    1.0000 </r>
       <r>   -4.2192    1.0000 </r>
       <r>   -3.3270    1.0000 </r>
       <r>   -0.9320    0.0000 </r>
       <r>   -0.4676    0.0000 </r>
       <r>   -0.1667    0.0000 </r>
       <r>    0.3133    0.0000 </r>
       <r>    1.5686    0.0000 </r>
       <r>    2.7936    0.0000 </r>
      </set>
      <set comment="kpoint 22">
       <r>  -15.2723    1.0000 </r>
       <r>  -13.4212    1.0000 </r>
       <r>  -12.6935    1.0000 </r>
       <r>  -10.5549    1.0000 </r>
       <r>   -7.6335    1.0000 </r>
       <r>   -7.0187    1.0000 </r>
       <r>   -5.2651    1.0000 </r>
       <r>   -5.1556    1.0000 </r>
       <r>   -4.2658    1.0000 </r>
       <r>   -3.6127    1.0000 </r>
       <r>   -0.8046    0.0000 </r>
       <r>   -0.7670    0.0000 </r>
       <r>   -0.4941    0.0000 </r>
       <r>    0.5321    0.0000 </r>
       <r>    1.1452    0.0000 </r>
       <r>    2.3611    0.0000 </r>
      </set>
      <set comment="kpoint 23">
       <r>  -14.8356    1.0000 </r>
       <r>  -13.8886    1.0000 </r>
       <r>  -12.2413    1.0000 </r>
       <r>  -11.1580    1.0000 </r>
       <r>   -7.4378    1.0000 </r>
       <r>   -7.0772    1.0000 </r>
       <r>   -5.1327    1.0000 </r>
       <r>   -5.1142    1.0000 </r>
       <r>   -4.2029    1.0000 </r>
       <r>   -3.8698    1.0000 </r>
       <r>   -1.0000    0.0000 </r>
       <r>   -0.9779    0.0000 </r>
       <r>   -0.2861    0.0000 </r>
       <r>    0.4760    0.0000 </r>
       <r>    1.1067    0.0000 </r>
       <r>    1.9109    0.0000 </r>
      </set>
      <set comment="kpoint 24">
       <r>  -14.3704    1.0000 </r>
       <r>  -14.3703    1.0000 </r>
       <r>  -11.7227    1.0000 </r>
       <r>  -11.7227    1.0000 </r>
       <r>   -7.2339    1.0000 </r>
       <r>   -7.2339    1.0000 </r>
       <r>   -5.0911    1.0000 </r>
       <r>   -5.0911    1.0000 </r>
       <r>   -4.0680    1.0000 </r>
       <r>   -4.0680    1.0000 </r>
       <r>   -1.0787    0.0000 </r>
       <r>   -1.0787    0.0000 </r>
       <r>    0.0885    0.0000 </r>
       <r>    0.0885    0.0000 </r>
       <r>    1.4746    0.0000 </r>
       <r>    1.4746    0.0000 </r>
      </set>
      <set comment="kpoint 25">
       <r>  -14.8356    1.0000 </r>
       <r>  -13.8886    1.0000 </r>
       <r>  -12.2413    1.0000 </r>
       <r>  -11.1580    1.0000 </r>
       <r>   -7.4378    1.0000 </r>
       <r>   -7.0772    1.0000 </r>
       <r>   -5.1327    1.0000 </r>
       <r>   -5.1142    1.0000 </r>
       <r>   -4.2029    1.0000 </r>
       <r>   -3.8698    1.0000 </r>
       <r>   -1.0000    0.0000 </r>
       <r>   -0.9779    0.0000 </r>
       <r>   -0.2861    0.0000 </r>
       <r>    0.4760    0.0000 </r>
       <r>    1.1067    0.0000 </r>
       <r>    1.9109    0.0000 </r>
      </set>
      <set comment="kpoint 26">
       <r>  -15.2723    1.0000 </r>
       <r>  -13.4212    1.0000 </r>
       <r>  -12.6935    1.0000 </r>
       <r>  -10.5549    1.0000 </r>
       <r>   -7.6335    1.0000 </r>
       <r>   -7.0187    1.0000 </r>
       <r>   -5.2651    1.0000 </r>
       <r>   -5.1556    1.0000 </r>
       <r>   -4.2658    1.0000 </r>
       <r>   -3.6127    1.0000 </r>
       <r>   -0.8046    0.0000 </r>
       <r>   -0.7670    0.0000 </r>
       <r>   -0.4941    0.0000 </r>
       <r>    0.5321    0.0000 </r>
       <r>    1.1452    0.0000 </r>
       <r>    2.3611    0.0000 </r>
      </set>
      <set comment="kpoint 27">
       <r>  -15.6732    1.0000 </r>
       <r>  -13.2693    1.0000 </r>
       <r>  -12.7958    1.0000 </r>
       <r>   -9.9227    1.0000 </r>
       <r>   -7.7743    1.0000 </r>
       <r>   -7.0686    1.0000 </r>
       <r>   -5.4633    1.0000 </r>
       <r>   -5.2217    1.0000 </r>
       <r>   -4.2192    1.0000 </r>
       <r>   -3.3270    1.0000 </r>
       <r>   -0.9320    0.0000 </r>
       <r>   -0.4676    0.0000 </r>
       <r>   -0.1667    0.0000 </r>
       <r>    0.3133    0.0000 </r>
       <r>    1.5686    0.0000 </r>
       <r>    2.7936    0.0000 </r>
      </set>
      <set comment="kpoint 28">
       <r>  -16.0339    1.0000 </r>
       <r>  -13.5956    1.0000 </r>
       <r>  -12.4117    1.0000 </r>
       <r>   -9.2772    1.0000 </r>
       <r>   -7.8192    1.0000 </r>
       <r>   -7.1883    1.0000 </r>
       <r>   -5.6892    1.0000 </r>
       <r>   -5.3233    1.0000 </r>
       <r>   -4.0762    1.0000 </r>
       <r>   -3.0515    1.0000 </r>
       <r>   -1.0351    0.0000 </r>
       <r>   -0.3715    0.0000 </r>
       <r>    0.3682    0.0000 </r>
       <r>    0.3899    0.0000 </r>
       <r>    2.0270    0.0000 </r>
       <r>    3.1664    0.0000 </r>
      </set>
      <set comment="kpoint 29">
       <r>  -16.3509    1.0000 </r>
       <r>  -13.9208    1.0000 </r>
       <r>  -12.0505    1.0000 </r>
       <r>   -8.6532    1.0000 </r>
       <r>   -7.7329    1.0000 </r>
       <r>   -7.3207    1.0000 </r>
       <r>   -5.9135    1.0000 </r>
       <r>   -5.4199    1.0000 </r>
       <r>   -3.9197    1.0000 </r>
       <r>   -2.8180    1.0000 </r>
       <r>   -0.9844    0.0000 </r>
       <r>   -0.5412    0.0000 </r>
       <r>    0.8343    0.0000 </r>
       <r>    0.9839    0.0000 </r>
       <r>    2.4655    0.0000 </r>
       <r>    3.2710    0.0000 </r>
      </set>
      <set comment="kpoint 30">
       <r>  -16.6221    1.0000 </r>
       <r>  -14.2025    1.0000 </r>
       <r>  -11.7782    1.0000 </r>
       <r>   -8.1476    1.0000 </r>
       <r>   -7.4961    1.0000 </r>
       <r>   -7.3805    1.0000 </r>
       <r>   -6.1158    1.0000 </r>
       <r>   -5.4468    1.0000 </r>
       <r>   -3.8189    1.0000 </r>
       <r>   -2.6447    1.0000 </r>
       <r>   -0.7536    0.0000 </r>
       <r>   -0.7398    0.0000 </r>
       <r>    1.3919    0.0000 </r>
       <r>    1.6269    0.0000 </r>
       <r>    2.7231    0.0000 </r>
       <r>    3.0351    0.0000 </r>
      </set>
      <set comment="kpoint 31">
       <r>  -16.8459    1.0000 </r>
       <r>  -14.4351    1.0000 </r>
       <r>  -11.6020    1.0000 </r>
       <r>   -7.9579    1.0000 </r>
       <r>   -7.2287    1.0000 </r>
       <r>   -7.1271    1.0000 </r>
       <r>   -6.2751    1.0000 </r>
       <r>   -5.3224    1.0000 </r>
       <r>   -3.7870    1.0000 </r>
       <r>   -2.5344    1.0000 </r>
       <r>   -0.9094    0.0000 </r>
       <r>   -0.3672    0.0000 </r>
       <r>    1.9479    0.0000 </r>
       <r>    2.1546    0.0000 </r>
       <r>    2.3483    0.0000 </r>
       <r>    2.6401    0.0000 </r>
      </set>
      <set comment="kpoint 32">
       <r>  -17.0209    1.0000 </r>
       <r>  -14.6169    1.0000 </r>
       <r>  -11.5040    1.0000 </r>
       <r>   -7.9906    1.0000 </r>
       <r>   -7.0217    1.0000 </r>
       <r>   -6.7434    1.0000 </r>
       <r>   -6.3110    1.0000 </r>
       <r>   -4.9883    1.0000 </r>
       <r>   -3.7998    1.0000 </r>
       <r>   -2.4776    1.0000 </r>
       <r>   -1.0402    0.0000 </r>
       <r>    0.1126    0.0000 </r>
       <r>    1.2884    0.0000 </r>
       <r>    2.0271    0.0000 </r>
       <r>    2.3771    0.0000 </r>
       <r>    2.5932    0.0000 </r>
      </set>
      <set comment="kpoint 33">
       <r>  -17.1465    1.0000 </r>
       <r>  -14.7473    1.0000 </r>
       <r>  -11.4570    1.0000 </r>
       <r>   -8.0548    1.0000 </r>
       <r>   -6.9198    1.0000 </r>
       <r>   -6.6587    1.0000 </r>
       <r>   -5.9829    1.0000 </r>
       <r>   -4.5134    1.0000 </r>
       <r>   -3.8283    1.0000 </r>
       <r>   -2.4593    1.0000 </r>
       <r>   -1.1324    0.0000 </r>
       <r>    0.4154    0.0000 </r>
       <r>    0.6024    0.0000 </r>
       <r>    1.3874    0.0000 </r>
       <r>    2.2936    0.0000 </r>
       <r>    2.4539    0.0000 </r>
      </set>
      <set comment="kpoint 34">
       <r>  -17.2221    1.0000 </r>
       <r>  -14.8256    1.0000 </r>
       <r>  -11.4380    1.0000 </r>
       <r>   -8.1011    1.0000 </r>
       <r>   -6.8868    1.0000 </r>
       <r>   -6.6925    1.0000 </r>
       <r>   -5.5889    1.0000 </r>
       <r>   -4.0776    1.0000 </r>
       <r>   -3.8528    1.0000 </r>
       <r>   -2.4635    1.0000 </r>
       <r>   -1.1886    0.0000 </r>
       <r>   -0.2084    0.0000 </r>
       <r>    0.7908    0.0000 </r>
       <r>    1.0231    0.0000 </r>
       <r>    2.2211    0.0000 </r>
       <r>    2.3700    0.0000 </r>
      </set>
      <set comment="kpoint 35">
       <r>  -17.1833    1.0000 </r>
       <r>  -14.9405    1.0000 </r>
       <r>  -11.4511    1.0000 </r>
       <r>   -8.4683    1.0000 </r>
       <r>   -6.6924    1.0000 </r>
       <r>   -6.4368    1.0000 </r>
       <r>   -5.3743    1.0000 </r>
       <r>   -3.9338    1.0000 </r>
       <r>   -3.6048    1.0000 </r>
       <r>   -2.8766    1.0000 </r>
       <r>   -0.8428    0.0000 </r>
       <r>   -0.3916    0.0000 </r>
       <r>    0.4415    0.0000 </r>
       <r>    1.1389    0.0000 </r>
       <r>    2.3675    0.0000 </r>
       <r>    2.4322    0.0000 </r>
      </set>
      <set comment="kpoint 36">
       <r>  -17.1581    1.0000 </r>
       <r>  -14.9147    1.0000 </r>
       <r>  -11.4528    1.0000 </r>
       <r>   -8.4548    1.0000 </r>
       <r>   -6.6918    1.0000 </r>
       <r>   -6.4440    1.0000 </r>
       <r>   -5.5185    1.0000 </r>
       <r>   -4.1307    1.0000 </r>
       <r>   -3.5972    1.0000 </r>
       <r>   -2.8670    1.0000 </r>
       <r>   -0.8277    0.0000 </r>
       <r>   -0.1595    0.0000 </r>
       <r>    0.6524    0.0000 </r>
       <r>    1.0123    0.0000 </r>
       <r>    2.3896    0.0000 </r>
       <r>    2.4601    0.0000 </r>
      </set>
      <set comment="kpoint 37">
       <r>  -17.0827    1.0000 </r>
       <r>  -14.8376    1.0000 </r>
       <r>  -11.4624    1.0000 </r>
       <r>   -8.4179    1.0000 </r>
       <r>   -6.7018    1.0000 </r>
       <r>   -6.5189    1.0000 </r>
       <r>   -5.8105    1.0000 </r>
       <r>   -4.5900    1.0000 </r>
       <r>   -3.5911    1.0000 </r>
       <r>   -2.8482    1.0000 </r>
       <r>   -0.7868    0.0000 </r>
       <r>    0.4618    0.0000 </r>
       <r>    0.5732    0.0000 </r>
       <r>    1.3085    0.0000 </r>
       <r>    2.4530    0.0000 </r>
       <r>    2.5433    0.0000 </r>
      </set>
      <set comment="kpoint 38">
       <r>  -16.9574    1.0000 </r>
       <r>  -14.7095    1.0000 </r>
       <r>  -11.4932    1.0000 </r>
       <r>   -8.3719    1.0000 </r>
       <r>   -6.8124    1.0000 </r>
       <r>   -6.7647    1.0000 </r>
       <r>   -5.9457    1.0000 </r>
       <r>   -5.0910    1.0000 </r>
       <r>   -3.6020    1.0000 </r>
       <r>   -2.8360    1.0000 </r>
       <r>   -0.7213    0.0000 </r>
       <r>    0.1406    0.0000 </r>
       <r>    1.3179    0.0000 </r>
       <r>    1.9831    0.0000 </r>
       <r>    2.2879    0.0000 </r>
       <r>    2.5624    0.0000 </r>
      </set>
      <set comment="kpoint 39">
       <r>  -16.7828    1.0000 </r>
       <r>  -14.5313    1.0000 </r>
       <r>  -11.5681    1.0000 </r>
       <r>   -8.3577    1.0000 </r>
       <r>   -7.2414    1.0000 </r>
       <r>   -6.9435    1.0000 </r>
       <r>   -5.8913    1.0000 </r>
       <r>   -5.4374    1.0000 </r>
       <r>   -3.6509    1.0000 </r>
       <r>   -2.8458    1.0000 </r>
       <r>   -0.6305    0.0000 </r>
       <r>   -0.2665    0.0000 </r>
       <r>    1.5918    0.0000 </r>
       <r>    2.2922    0.0000 </r>
       <r>    2.4290    0.0000 </r>
       <r>    2.6774    0.0000 </r>
      </set>
      <set comment="kpoint 40">
       <r>  -16.5597    1.0000 </r>
       <r>  -14.3050    1.0000 </r>
       <r>  -11.7157    1.0000 </r>
       <r>   -8.4790    1.0000 </r>
       <r>   -7.6198    1.0000 </r>
       <r>   -7.1751    1.0000 </r>
       <r>   -5.7599    1.0000 </r>
       <r>   -5.5532    1.0000 </r>
       <r>   -3.7608    1.0000 </r>
       <r>   -2.8950    1.0000 </r>
       <r>   -0.5624    0.0000 </r>
       <r>   -0.5132    0.0000 </r>
       <r>    1.0245    0.0000 </r>
       <r>    1.8823    0.0000 </r>
       <r>    2.7544    0.0000 </r>
       <r>    3.1026    0.0000 </r>
      </set>
      <set comment="kpoint 41">
       <r>  -16.2895    1.0000 </r>
       <r>  -14.0345    1.0000 </r>
       <r>  -11.9564    1.0000 </r>
       <r>   -8.8489    1.0000 </r>
       <r>   -7.8645    1.0000 </r>
       <r>   -7.2597    1.0000 </r>
       <r>   -5.5967    1.0000 </r>
       <r>   -5.5276    1.0000 </r>
       <r>   -3.9306    1.0000 </r>
       <r>   -2.9980    1.0000 </r>
       <r>   -0.7023    0.0000 </r>
       <r>   -0.3737    0.0000 </r>
       <r>    0.4818    0.0000 </r>
       <r>    1.2700    0.0000 </r>
       <r>    2.6742    0.0000 </r>
       <r>    3.2241    0.0000 </r>
      </set>
      <set comment="kpoint 42">
       <r>  -15.9739    1.0000 </r>
       <r>  -13.7324    1.0000 </r>
       <r>  -12.2800    1.0000 </r>
       <r>   -9.3988    1.0000 </r>
       <r>   -7.9531    1.0000 </r>
       <r>   -7.1946    1.0000 </r>
       <r>   -5.4697    1.0000 </r>
       <r>   -5.4298    1.0000 </r>
       <r>   -4.1072    1.0000 </r>
       <r>   -3.1550    1.0000 </r>
       <r>   -0.6879    0.0000 </r>
       <r>   -0.3014    0.0000 </r>
       <r>    0.1005    0.0000 </r>
       <r>    0.6589    0.0000 </r>
       <r>    2.4142    0.0000 </r>
       <r>    3.0095    0.0000 </r>
      </set>
      <set comment="kpoint 43">
       <r>  -15.6155    1.0000 </r>
       <r>  -13.4584    1.0000 </r>
       <r>  -12.6041    1.0000 </r>
       <r>  -10.0094    1.0000 </r>
       <r>   -7.9021    1.0000 </r>
       <r>   -7.0890    1.0000 </r>
       <r>   -5.4557    1.0000 </r>
       <r>   -5.2930    1.0000 </r>
       <r>   -4.1955    1.0000 </r>
       <r>   -3.3442    1.0000 </r>
       <r>   -0.5796    0.0000 </r>
       <r>   -0.5710    0.0000 </r>
       <r>    0.1291    0.0000 </r>
       <r>    0.1866    0.0000 </r>
       <r>    2.0557    0.0000 </r>
       <r>    2.6586    0.0000 </r>
      </set>
      <set comment="kpoint 44">
       <r>  -15.2180    1.0000 </r>
       <r>  -13.4946    1.0000 </r>
       <r>  -12.6147    1.0000 </r>
       <r>  -10.6218    1.0000 </r>
       <r>   -7.7468    1.0000 </r>
       <r>   -7.0374    1.0000 </r>
       <r>   -5.4810    1.0000 </r>
       <r>   -5.2275    1.0000 </r>
       <r>   -4.1457    1.0000 </r>
       <r>   -3.5297    1.0000 </r>
       <r>   -0.8886    0.0000 </r>
       <r>   -0.5918    0.0000 </r>
       <r>   -0.0791    0.0000 </r>
       <r>    0.4337    0.0000 </r>
       <r>    1.6633    0.0000 </r>
       <r>    2.2507    0.0000 </r>
      </set>
      <set comment="kpoint 45">
       <r>  -14.7874    1.0000 </r>
       <r>  -13.8784    1.0000 </r>
       <r>  -12.2467    1.0000 </r>
       <r>  -11.2097    1.0000 </r>
       <r>   -7.5283    1.0000 </r>
       <r>   -7.1084    1.0000 </r>
       <r>   -5.4576    1.0000 </r>
       <r>   -5.2591    1.0000 </r>
       <r>   -4.0059    1.0000 </r>
       <r>   -3.6909    1.0000 </r>
       <r>   -1.0655    0.0000 </r>
       <r>   -0.8728    0.0000 </r>
       <r>    0.1592    0.0000 </r>
       <r>    0.6207    0.0000 </r>
       <r>    1.3761    0.0000 </r>
       <r>    1.8372    0.0000 </r>
      </set>
      <set comment="kpoint 46">
       <r>  -14.3337    1.0000 </r>
       <r>  -14.3337    1.0000 </r>
       <r>  -11.7575    1.0000 </r>
       <r>  -11.7575    1.0000 </r>
       <r>   -7.2943    1.0000 </r>
       <r>   -7.2943    1.0000 </r>
       <r>   -5.3610    1.0000 </r>
       <r>   -5.3610    1.0000 </r>
       <r>   -3.8444    1.0000 </r>
       <r>   -3.8444    1.0000 </r>
       <r>   -1.0601    0.0000 </r>
       <r>   -1.0601    0.0000 </r>
       <r>    0.4762    0.0000 </r>
       <r>    0.4762    0.0000 </r>
       <r>    1.4811    0.0000 </r>
       <r>    1.4811    0.0000 </r>
      </set>
      <set comment="kpoint 47">
       <r>  -14.7874    1.0000 </r>
       <r>  -13.8784    1.0000 </r>
       <r>  -12.2467    1.0000 </r>
       <r>  -11.2097    1.0000 </r>
       <r>   -7.5283    1.0000 </r>
       <r>   -7.1084    1.0000 </r>
       <r>   -5.4576    1.0000 </r>
       <r>   -5.2591    1.0000 </r>
       <r>   -4.0059    1.0000 </r>
       <r>   -3.6909    1.0000 </r>
       <r>   -1.0655    0.0000 </r>
       <r>   -0.8728    0.0000 </r>
       <r>    0.1592    0.0000 </r>
       <r>    0.6207    0.0000 </r>
       <r>    1.3761    0.0000 </r>
       <r>    1.8372    0.0000 </r>
      </set>
      <set comment="kpoint 48">
       <r>  -15.2180    1.0000 </r>
       <r>  -13.4946    1.0000 </r>
       <r>  -12.6147    1.0000 </r>
       <r>  -10.6218    1.0000 </r>
       <r>   -7.7468    1.0000 </r>
[...]
       <r>    3.4085    0.0000 </r>
       <r>    3.4191    0.0000 </r>
      </set>
      <set comment="kpoint 161">
       <r>  -15.4397    1.0000 </r>
       <r>  -15.1901    1.0000 </r>
       <r>  -10.8160    1.0000 </r>
       <r>  -10.4911    1.0000 </r>
       <r>   -7.8631    1.0000 </r>
       <r>   -7.7040    1.0000 </r>
       <r>   -5.1813    1.0000 </r>
       <r>   -4.9387    1.0000 </r>
       <r>   -3.8103    1.0000 </r>
       <r>   -3.7559    1.0000 </r>
       <r>    0.3090    0.0000 </r>
       <r>    0.6815    0.0000 </r>
       <r>    1.1875    0.0000 </r>
       <r>    1.5013    0.0000 </r>
       <r>    3.3739    0.0000 </r>
       <r>    3.4125    0.0000 </r>
      </set>
      <set comment="kpoint 162">
       <r>  -15.6959    1.0000 </r>
       <r>  -15.4426    1.0000 </r>
       <r>  -10.7174    1.0000 </r>
       <r>  -10.3900    1.0000 </r>
       <r>   -7.4728    1.0000 </r>
       <r>   -7.3061    1.0000 </r>
       <r>   -5.1242    1.0000 </r>
       <r>   -4.8280    1.0000 </r>
       <r>   -3.7079    1.0000 </r>
       <r>   -3.6404    1.0000 </r>
       <r>    0.3615    0.0000 </r>
       <r>    0.6389    0.0000 </r>
       <r>    1.2556    0.0000 </r>
       <r>    1.6039    0.0000 </r>
       <r>    3.0904    0.0000 </r>
       <r>    3.3524    0.0000 </r>
      </set>
      <set comment="kpoint 163">
       <r>  -15.9100    1.0000 </r>
       <r>  -15.6547    1.0000 </r>
       <r>  -10.7124    1.0000 </r>
       <r>  -10.3897    1.0000 </r>
       <r>   -6.9173    1.0000 </r>
       <r>   -6.7381    1.0000 </r>
       <r>   -5.1710    1.0000 </r>
       <r>   -4.8433    1.0000 </r>
       <r>   -3.6078    1.0000 </r>
       <r>   -3.4202    1.0000 </r>
       <r>    0.5128    0.0000 </r>
       <r>    0.6746    0.0000 </r>
       <r>    1.2368    0.0000 </r>
       <r>    1.6075    0.0000 </r>
       <r>    2.5105    0.0000 </r>
       <r>    2.7580    0.0000 </r>
      </set>
      <set comment="kpoint 164">
       <r>  -16.0788    1.0000 </r>
       <r>  -15.8224    1.0000 </r>
       <r>  -10.7504    1.0000 </r>
       <r>  -10.4332    1.0000 </r>
       <r>   -6.2692    1.0000 </r>
       <r>   -6.0791    1.0000 </r>
       <r>   -5.2468    1.0000 </r>
       <r>   -4.9060    1.0000 </r>
       <r>   -3.5428    1.0000 </r>
       <r>   -3.2478    1.0000 </r>
       <r>    0.7027    0.0000 </r>
       <r>    0.7492    0.0000 </r>
       <r>    1.1527    0.0000 </r>
       <r>    1.4971    0.0000 </r>
       <r>    1.8808    0.0000 </r>
       <r>    2.0178    0.0000 </r>
      </set>
      <set comment="kpoint 165">
       <r>  -16.2006    1.0000 </r>
       <r>  -15.9435    1.0000 </r>
       <r>  -10.7960    1.0000 </r>
       <r>  -10.4829    1.0000 </r>
       <r>   -5.6022    1.0000 </r>
       <r>   -5.4241    1.0000 </r>
       <r>   -5.2982    1.0000 </r>
       <r>   -4.9693    1.0000 </r>
       <r>   -3.5617    1.0000 </r>
       <r>   -3.1759    1.0000 </r>
       <r>    0.5898    0.0000 </r>
       <r>    0.5936    0.0000 </r>
       <r>    1.1491    0.0000 </r>
       <r>    1.2919    0.0000 </r>
       <r>    1.6059    0.0000 </r>
       <r>    1.6385    0.0000 </r>
      </set>
      <set comment="kpoint 166">
       <r>  -16.2740    1.0000 </r>
       <r>  -16.0166    1.0000 </r>
       <r>  -10.8295    1.0000 </r>
       <r>  -10.5189    1.0000 </r>
       <r>   -5.3698    1.0000 </r>
       <r>   -5.0180    1.0000 </r>
       <r>   -5.0119    1.0000 </r>
       <r>   -4.8240    1.0000 </r>
       <r>   -3.6760    1.0000 </r>
       <r>   -3.2149    1.0000 </r>
       <r>    0.1732    0.0000 </r>
       <r>    0.1926    0.0000 </r>
       <r>    1.2012    0.0000 </r>
       <r>    1.3637    0.0000 </r>
       <r>    1.5651    0.0000 </r>
       <r>    1.6089    0.0000 </r>
      </set>
     </set>
    </set>
   </array>
  </eigenvalues>
  <separator name="orbital magnetization" >
   <v name="MAGDIPOLOUT">      0.00000000      0.00000000      0.00000000</v>
  </separator>
  <dos>
   <i name="efermi">     -2.11823416 </i>
   <total>
    <array>
     <dimension dim="1">gridpoints</dimension>
     <dimension dim="2">spin</dimension>
     <field>energy</field>
     <field>total</field>
     <field>integrated</field>
     <set>
      <set comment="spin 1">
       <r>   -18.3096     0.0000     0.0000 </r>
       <r>   -18.2333     0.0000     0.0000 </r>
       <r>   -18.1569     0.0000     0.0000 </r>
       <r>   -18.0806     0.0000     0.0000 </r>
       <r>   -18.0043     0.0000     0.0000 </r>
       <r>   -17.9280     0.0000     0.0000 </r>
       <r>   -17.8516     0.0000     0.0000 </r>
       <r>   -17.7753     0.0000     0.0000 </r>
       <r>   -17.6990     0.0000     0.0000 </r>
       <r>   -17.6226     0.0000     0.0000 </r>
       <r>   -17.5463     0.0000     0.0000 </r>
       <r>   -17.4700     0.0000     0.0000 </r>
       <r>   -17.3937     0.0000     0.0000 </r>
       <r>   -17.3173     0.0000     0.0000 </r>
       <r>   -17.2410     0.3036     0.0232 </r>
       <r>   -17.1647     0.7826     0.0829 </r>
       <r>   -17.0883     0.7295     0.1386 </r>
       <r>   -17.0120     1.0375     0.2178 </r>
       <r>   -16.9357     0.7751     0.2769 </r>
       <r>   -16.8593     0.6999     0.3304 </r>
       <r>   -16.7830     0.9918     0.4061 </r>
       <r>   -16.7067     0.7979     0.4670 </r>
       <r>   -16.6304     0.9896     0.5425 </r>
       <r>   -16.5540     0.5518     0.5846 </r>
       <r>   -16.4777     1.1760     0.6744 </r>
       <r>   -16.4014     0.6153     0.7214 </r>
       <r>   -16.3250     0.9561     0.7943 </r>
       <r>   -16.2487     1.2528     0.8900 </r>
       <r>   -16.1724     0.6130     0.9368 </r>
       <r>   -16.0961     0.7052     0.9906 </r>
       <r>   -16.0197     1.2983     1.0897 </r>
       <r>   -15.9434     0.7863     1.1497 </r>
       <r>   -15.8671     1.1954     1.2409 </r>
       <r>   -15.7907     0.5178     1.2805 </r>
       <r>   -15.7144     0.8019     1.3417 </r>
       <r>   -15.6381     1.6901     1.4707 </r>
       <r>   -15.5617     0.7030     1.5243 </r>
       <r>   -15.4854     0.9823     1.5993 </r>
       <r>   -15.4091     1.0316     1.6781 </r>
       <r>   -15.3328     0.9643     1.7517 </r>
       <r>   -15.2564     1.0900     1.8349 </r>
       <r>   -15.1801     1.4124     1.9427 </r>
       <r>   -15.1038     1.3060     2.0424 </r>
       <r>   -15.0274     1.0695     2.1240 </r>
       <r>   -14.9511     0.7411     2.1806 </r>
       <r>   -14.8748     1.7521     2.3143 </r>
       <r>   -14.7985     2.3495     2.4936 </r>
       <r>   -14.7221     0.8468     2.5583 </r>
       <r>   -14.6458     2.0914     2.7179 </r>
       <r>   -14.5695     1.2074     2.8101 </r>
       <r>   -14.4931     0.6264     2.8579 </r>
       <r>   -14.4168     1.2420     2.9527 </r>
       <r>   -14.3405     1.6041     3.0751 </r>
       <r>   -14.2641     1.2584     3.1712 </r>
       <r>   -14.1878     1.2140     3.2638 </r>
       <r>   -14.1115     1.2440     3.3588 </r>
       <r>   -14.0352     1.2535     3.4545 </r>
       <r>   -13.9588     0.6077     3.5008 </r>
       <r>   -13.8825     2.1908     3.6681 </r>
       <r>   -13.8062     1.0139     3.7455 </r>
       <r>   -13.7298     0.4718     3.7815 </r>
       <r>   -13.6535     0.4267     3.8140 </r>
       <r>   -13.5772     0.6538     3.8639 </r>
       <r>   -13.5009     0.2992     3.8868 </r>
       <r>   -13.4245     0.6597     3.9371 </r>
       <r>   -13.3482     0.3470     3.9636 </r>
       <r>   -13.2719     0.1360     3.9740 </r>
       <r>   -13.1955     0.1822     3.9879 </r>
       <r>   -13.1192     0.1577     4.0000 </r>
       <r>   -13.0429     0.0006     4.0000 </r>
       <r>   -12.9665     0.0000     4.0000 </r>
       <r>   -12.8902     0.1440     4.0110 </r>
       <r>   -12.8139     0.0469     4.0146 </r>
       <r>   -12.7376     0.3065     4.0380 </r>
       <r>   -12.6612     0.4520     4.0725 </r>
       <r>   -12.5849     0.6052     4.1187 </r>
       <r>   -12.5086     0.0895     4.1255 </r>
       <r>   -12.4322     0.4410     4.1592 </r>
       <r>   -12.3559     0.6716     4.2104 </r>
       <r>   -12.2796     0.4332     4.2435 </r>
       <r>   -12.2033     1.7194     4.3747 </r>
       <r>   -12.1269     0.9812     4.4496 </r>
       <r>   -12.0506     1.1304     4.5359 </r>
       <r>   -11.9743     0.9378     4.6075 </r>
       <r>   -11.8979     1.1469     4.6950 </r>
       <r>   -11.8216     1.0597     4.7759 </r>
       <r>   -11.7453     1.3625     4.8799 </r>
       <r>   -11.6689     1.3740     4.9848 </r>
       <r>   -11.5926     1.5599     5.1039 </r>
       <r>   -11.5163     1.0633     5.1850 </r>
       <r>   -11.4400     3.5243     5.4540 </r>
       <r>   -11.3636     3.1314     5.6930 </r>
       <r>   -11.2873     1.0747     5.7751 </r>
       <r>   -11.2110     1.8342     5.9151 </r>
       <r>   -11.1346     0.8381     5.9790 </r>
       <r>   -11.0583     1.5716     6.0990 </r>
       <r>   -10.9820     1.3609     6.2029 </r>
       <r>   -10.9057     0.1476     6.2141 </r>
       <r>   -10.8293     0.8092     6.2759 </r>
       <r>   -10.7530     1.1147     6.3610 </r>
       <r>   -10.6767     1.3820     6.4665 </r>
       <r>   -10.6003     0.3079     6.4900 </r>
       <r>   -10.5240     0.9890     6.5655 </r>
       <r>   -10.4477     0.9910     6.6411 </r>
       <r>   -10.3713     1.1536     6.7292 </r>
       <r>   -10.2950     0.3721     6.7576 </r>
       <r>   -10.2187     0.0002     6.7576 </r>
       <r>   -10.1424     0.9031     6.8265 </r>
       <r>   -10.0660     1.0403     6.9059 </r>
       <r>    -9.9897     1.0455     6.9857 </r>
       <r>    -9.9134     0.2781     7.0069 </r>
       <r>    -9.8370     0.3733     7.0354 </r>
       <r>    -9.7607     0.7106     7.0897 </r>
       <r>    -9.6844     0.6163     7.1367 </r>
       <r>    -9.6081     0.9197     7.2069 </r>
       <r>    -9.5317     0.3063     7.2303 </r>
       <r>    -9.4554     0.1040     7.2382 </r>
       <r>    -9.3791     0.5055     7.2768 </r>
       <r>    -9.3027     0.5400     7.3180 </r>
       <r>    -9.2264     1.3376     7.4201 </r>
       <r>    -9.1501     0.3841     7.4495 </r>
       <r>    -9.0737     0.3047     7.4727 </r>
       <r>    -8.9974     0.0000     7.4727 </r>
       <r>    -8.9211     0.0048     7.4731 </r>
       <r>    -8.8448     1.0891     7.5562 </r>
       <r>    -8.7684     0.9121     7.6258 </r>
       <r>    -8.6921     0.0593     7.6304 </r>
       <r>    -8.6158     0.3163     7.6545 </r>
       <r>    -8.5394     0.1588     7.6666 </r>
       <r>    -8.4631     0.4673     7.7023 </r>
       <r>    -8.3868     0.6929     7.7552 </r>
       <r>    -8.3105     0.5867     7.8000 </r>
       <r>    -8.2341     0.0010     7.8001 </r>
       <r>    -8.1578     0.8968     7.8685 </r>
       <r>    -8.0815     1.9887     8.0203 </r>
       <r>    -8.0051     1.9147     8.1665 </r>
       <r>    -7.9288     2.8449     8.3836 </r>
       <r>    -7.8525     1.7864     8.5200 </r>
       <r>    -7.7761     1.4339     8.6294 </r>
       <r>    -7.6998     2.4089     8.8133 </r>
       <r>    -7.6235     2.5184     9.0055 </r>
       <r>    -7.5472     1.1800     9.0956 </r>
       <r>    -7.4708     1.9241     9.2424 </r>
       <r>    -7.3945     1.7263     9.3742 </r>
       <r>    -7.3182     2.5117     9.5659 </r>
       <r>    -7.2418     2.7641     9.7769 </r>
       <r>    -7.1655     4.0374    10.0851 </r>
       <r>    -7.0892     2.8497    10.3026 </r>
       <r>    -7.0129     2.9584    10.5284 </r>
       <r>    -6.9365     1.4800    10.6414 </r>
       <r>    -6.8602     1.1826    10.7317 </r>
       <r>    -6.7839     0.9933    10.8075 </r>
       <r>    -6.7075     1.9488    10.9562 </r>
       <r>    -6.6312     2.0133    11.1099 </r>
       <r>    -6.5549     1.3582    11.2136 </r>
       <r>    -6.4786     1.7174    11.3446 </r>
       <r>    -6.4022     2.0732    11.5029 </r>
       <r>    -6.3259     0.4708    11.5388 </r>
       <r>    -6.2496     2.1812    11.7053 </r>
       <r>    -6.1732     1.9158    11.8515 </r>
       <r>    -6.0969     0.9168    11.9215 </r>
       <r>    -6.0206     1.2283    12.0153 </r>
       <r>    -5.9442     2.9144    12.2377 </r>
       <r>    -5.8679     1.7936    12.3746 </r>
       <r>    -5.7916     1.6118    12.4977 </r>
       <r>    -5.7153     1.3206    12.5985 </r>
       <r>    -5.6389     3.9028    12.8964 </r>
       <r>    -5.5626     3.6610    13.1758 </r>
       <r>    -5.4863     2.7331    13.3844 </r>
       <r>    -5.4099     4.7973    13.7506 </r>
       <r>    -5.3336     3.5070    14.0183 </r>
       <r>    -5.2573     2.6514    14.2207 </r>
       <r>    -5.1810     3.4148    14.4813 </r>
       <r>    -5.1046     3.2590    14.7301 </r>
       <r>    -5.0283     1.6347    14.8548 </r>
       <r>    -4.9520     2.5338    15.0482 </r>
       <r>    -4.8756     2.1485    15.2122 </r>
       <r>    -4.7993     1.8020    15.3498 </r>
       <r>    -4.7230     0.5591    15.3925 </r>
       <r>    -4.6466     1.0552    15.4730 </r>
       <r>    -4.5703     1.4396    15.5829 </r>
       <r>    -4.4940     1.9109    15.7287 </r>
       <r>    -4.4177     1.1154    15.8139 </r>
       <r>    -4.3413     0.4675    15.8496 </r>
       <r>    -4.2650     0.6515    15.8993 </r>
       <r>    -4.1887     2.3651    16.0798 </r>
       <r>    -4.1123     2.3815    16.2616 </r>
       <r>    -4.0360     2.9937    16.4901 </r>
       <r>    -3.9597     1.9954    16.6424 </r>
       <r>    -3.8834     3.5721    16.9151 </r>
       <r>    -3.8070     4.3451    17.2467 </r>
       <r>    -3.7307     2.8636    17.4653 </r>
       <r>    -3.6544     3.6871    17.7467 </r>
       <r>    -3.5780     4.1959    18.0670 </r>
       <r>    -3.5017     2.7787    18.2791 </r>
       <r>    -3.4254     2.1045    18.4397 </r>
       <r>    -3.3490     3.3223    18.6933 </r>
       <r>    -3.2727     4.9183    19.0687 </r>
       <r>    -3.1964     2.6185    19.2686 </r>
       <r>    -3.1201     0.9403    19.3404 </r>
       <r>    -3.0437     0.9664    19.4141 </r>
       <r>    -2.9674     0.9000    19.4828 </r>
       <r>    -2.8911     1.5141    19.5984 </r>
       <r>    -2.8147     1.9834    19.7498 </r>
       <r>    -2.7384     0.6264    19.7976 </r>
       <r>    -2.6621     0.0663    19.8027 </r>
       <r>    -2.5858     0.2831    19.8243 </r>
       <r>    -2.5094     0.4674    19.8599 </r>
       <r>    -2.4331     1.1059    19.9444 </r>
       <r>    -2.3568     0.1731    19.9576 </r>
       <r>    -2.2804     0.1962    19.9726 </r>
       <r>    -2.2041     0.3596    20.0000 </r>
       <r>    -2.1278     0.0000    20.0000 </r>
       <r>    -2.0514     0.0000    20.0000 </r>
       <r>    -1.9751     0.0000    20.0000 </r>
       <r>    -1.8988     0.0000    20.0000 </r>
       <r>    -1.8225     0.0000    20.0000 </r>
       <r>    -1.7461     0.0000    20.0000 </r>
       <r>    -1.6698     0.0000    20.0000 </r>
       <r>    -1.5935     0.0000    20.0000 </r>
       <r>    -1.5171     0.0000    20.0000 </r>
       <r>    -1.4408     0.0004    20.0000 </r>
       <r>    -1.3645     0.2163    20.0165 </r>
       <r>    -1.2882     0.1694    20.0295 </r>
       <r>    -1.2118     0.1040    20.0374 </r>
       <r>    -1.1355     0.8272    20.1005 </r>
       <r>    -1.0592     1.1736    20.1901 </r>
       <r>    -0.9828     2.0088    20.3435 </r>
       <r>    -0.9065     1.6083    20.4662 </r>
       <r>    -0.8302     1.5621    20.5854 </r>
       <r>    -0.7538     1.9106    20.7313 </r>
       <r>    -0.6775     2.2511    20.9031 </r>
       <r>    -0.6012     0.9851    20.9783 </r>
       <r>    -0.5249     1.9105    21.1241 </r>
       <r>    -0.4485     2.1710    21.2898 </r>
       <r>    -0.3722     2.3252    21.4673 </r>
       <r>    -0.2959     2.2436    21.6386 </r>
       <r>    -0.2195     2.1000    21.7989 </r>
       <r>    -0.1432     2.2188    21.9682 </r>
       <r>    -0.0669     3.3434    22.2234 </r>
       <r>     0.0094     2.5918    22.4212 </r>
       <r>     0.0858     1.6414    22.5465 </r>
       <r>     0.1621     4.8414    22.9161 </r>
       <r>     0.2384     3.1895    23.1595 </r>
       <r>     0.3148     3.4504    23.4229 </r>
       <r>     0.3911     3.3660    23.6798 </r>
       <r>     0.4674     4.1927    23.9999 </r>
       <r>     0.5438     4.1435    24.3161 </r>
       <r>     0.6201     3.4558    24.5799 </r>
       <r>     0.6964     5.9086    25.0309 </r>
       <r>     0.7727     2.9816    25.2585 </r>
       <r>     0.8491     3.5139    25.5267 </r>
       <r>     0.9254     3.1336    25.7659 </r>
       <r>     1.0017     2.6687    25.9696 </r>
       <r>     1.0781     3.7089    26.2527 </r>
       <r>     1.1544     2.6769    26.4570 </r>
       <r>     1.2307     3.0704    26.6914 </r>
       <r>     1.3070     3.1720    26.9335 </r>
       <r>     1.3834     2.4444    27.1201 </r>
       <r>     1.4597     1.6681    27.2474 </r>
       <r>     1.5360     3.0525    27.4804 </r>
       <r>     1.6124     2.6459    27.6823 </r>
       <r>     1.6887     2.7935    27.8956 </r>
       <r>     1.7650     0.6246    27.9432 </r>
       <r>     1.8414     1.9084    28.0889 </r>
       <r>     1.9177     3.2000    28.3332 </r>
       <r>     1.9940     2.4828    28.5227 </r>
       <r>     2.0703     2.1131    28.6840 </r>
       <r>     2.1467     2.2030    28.8521 </r>
       <r>     2.2230     1.9940    29.0043 </r>
       <r>     2.2993     2.8126    29.2190 </r>
       <r>     2.3757     3.4262    29.4805 </r>
       <r>     2.4520     3.2731    29.7304 </r>
       <r>     2.5283     2.9726    29.9573 </r>
       <r>     2.6046     2.2793    30.1312 </r>
       <r>     2.6810     2.7775    30.3432 </r>
       <r>     2.7573     3.4289    30.6050 </r>
       <r>     2.8336     3.1641    30.8465 </r>
       <r>     2.9100     2.2417    31.0176 </r>
       <r>     2.9863     0.9667    31.0914 </r>
       <r>     3.0626     2.3333    31.2695 </r>
       <r>     3.1390     2.2927    31.4445 </r>
       <r>     3.2153     1.5294    31.5612 </r>
       <r>     3.2916     1.3678    31.6656 </r>
       <r>     3.3679     1.7940    31.8026 </r>
       <r>     3.4443     1.2999    31.9018 </r>
       <r>     3.5206     0.6913    31.9545 </r>
       <r>     3.5969     0.5954    32.0000 </r>
       <r>     3.6733     0.0001    32.0000 </r>
       <r>     3.7496     0.0000    32.0000 </r>
       <r>     3.8259     0.0000    32.0000 </r>
       <r>     3.9022     0.0000    32.0000 </r>
       <r>     3.9786     0.0000    32.0000 </r>
       <r>     4.0549     0.0000    32.0000 </r>
       <r>     4.1312     0.0000    32.0000 </r>
       <r>     4.2076     0.0000    32.0000 </r>
       <r>     4.2839     0.0000    32.0000 </r>
       <r>     4.3602     0.0000    32.0000 </r>
       <r>     4.4366     0.0000    32.0000 </r>
       <r>     4.5129     0.0000    32.0000 </r>
       <r>     4.5892     0.0000    32.0000 </r>
      </set>
     </set>
    </array>
   </total>
  </dos>
 </calculation>
 <structure name="finalpos" >
  <crystal>
   <varray name="basis" >
    <v>       3.26406500       0.00000000       0.00000000 </v>
    <v>       0.00000000       4.62335100      -0.00005300 </v>
    <v>       0.00000000       0.00000000      20.02439000 </v>
   </varray>
   <i name="volume">    302.18643113 </i>
   <varray name="rec_basis" >
    <v>       0.30636645       0.00000000       0.00000000 </v>
    <v>       0.00000000       0.21629333       0.00000000 </v>
    <v>       0.00000000       0.00000057       0.04993910 </v>
   </varray>
  </crystal>
  <varray name="positions" >
   <v>       0.50000000       0.91130703       0.55256258 </v>
   <v>       0.50000000       0.08869297       0.44743742 </v>
   <v>       0.00000000       0.41130251       0.44743742 </v>
   <v>      -0.00000000       0.58869749       0.55256258 </v>
  </varray>
 </structure>
</modeling>
