<?xml version="1.0" encoding="ISO-8859-1"?>
<modeling>
 <generator>
  <i name="program" type="string">vasp </i>
  <i name="version" type="string">5.4.1  </i>
  <i name="subversion" type="string">24Jun15 (build Nov 20 2020 10:29:34) complex                          parallel </i>
  <i name="platform" type="string">IFC91_ompi </i>
  <i name="date" type="string">2021 09 13 </i>
  <i name="time" type="string">23:30:35 </i>
 </generator>
 <incar>
  <i type="int" name="ISTART">     1</i>
  <i type="string" name="PREC">a</i>
  <i type="string" name="ALGO"> Normal</i>
  <i type="int" name="ISPIN">     1</i>
  <i type="int" name="ICHARG">     2</i>
  <i type="int" name="NELM">   250</i>
  <i type="int" name="NELMDL">    -5</i>
  <i type="int" name="NELMIN">     6</i>
  <i type="int" name="IBRION">     2</i>
  <i name="EDIFF">      0.00001000</i>
  <i name="EDIFFG">     -0.00500000</i>
  <i type="int" name="NSW">     0</i>
  <i type="int" name="ISIF">     2</i>
  <i name="ENCUT">    520.00000000</i>
  <i name="POTIM">      0.25000000</i>
  <v name="MAGMOM">      0.60000000      0.60000000</v>
  <i type="string" name="LREAL"> Auto</i>
  <i type="int" name="ISMEAR">     0</i>
  <i name="SIGMA">      0.02000000</i>
  <i type="logical" name="LWAVE"> F  </i>
  <i type="logical" name="LCHARG"> F  </i>
  <i type="logical" name="LVHAR"> F  </i>
  <v type="int" name="KPOINT_BSE">    -1     0     0     0</v>
  <i type="int" name="NELM">   250</i>
 </incar>
 <kpoints>
  <generation param="Gamma">
   <v type="int" name="divisions">      25       24        1 </v>
   <v name="usershift">      0.00000000       0.00000000       0.00000000 </v>
   <v name="genvec1">      0.04000000      -0.00000000       0.00000000 </v>
   <v name="genvec2">      0.00000000       0.04166667       0.00000000 </v>
   <v name="genvec3">      0.00000000       0.00000000       1.00000000 </v>
   <v name="shift">      0.00000000       0.00000000       0.00000000 </v>
  </generation>
  <varray name="kpointlist" >
   <v>       0.00000000       0.00000000       0.00000000 </v>
   <v>       0.04000000       0.00000000       0.00000000 </v>
   <v>       0.08000000       0.00000000       0.00000000 </v>
   <v>       0.12000000       0.00000000       0.00000000 </v>
   <v>       0.16000000       0.00000000       0.00000000 </v>
   <v>       0.20000000       0.00000000       0.00000000 </v>
   <v>       0.24000000       0.00000000       0.00000000 </v>
   <v>       0.28000000       0.00000000       0.00000000 </v>
   <v>       0.32000000       0.00000000       0.00000000 </v>
   <v>       0.36000000       0.00000000       0.00000000 </v>
   <v>       0.40000000       0.00000000       0.00000000 </v>
   <v>       0.44000000       0.00000000       0.00000000 </v>
   <v>       0.48000000       0.00000000       0.00000000 </v>
   <v>       0.00000000       0.04166667       0.00000000 </v>
   <v>       0.04000000       0.04166667       0.00000000 </v>
   <v>       0.08000000       0.04166667       0.00000000 </v>
   <v>       0.12000000       0.04166667       0.00000000 </v>
   <v>       0.16000000       0.04166667       0.00000000 </v>
   <v>       0.20000000       0.04166667       0.00000000 </v>
   <v>       0.24000000       0.04166667       0.00000000 </v>
   <v>       0.28000000       0.04166667       0.00000000 </v>
   <v>       0.32000000       0.04166667       0.00000000 </v>
   <v>       0.36000000       0.04166667       0.00000000 </v>
   <v>       0.40000000       0.04166667       0.00000000 </v>
   <v>       0.44000000       0.04166667       0.00000000 </v>
   <v>       0.48000000       0.04166667       0.00000000 </v>
   <v>      -0.48000000       0.04166667       0.00000000 </v>
   <v>      -0.44000000       0.04166667       0.00000000 </v>
   <v>      -0.40000000       0.04166667       0.00000000 </v>
   <v>      -0.36000000       0.04166667       0.00000000 </v>
   <v>      -0.32000000       0.04166667       0.00000000 </v>
   <v>      -0.28000000       0.04166667       0.00000000 </v>
   <v>      -0.24000000       0.04166667       0.00000000 </v>
   <v>      -0.20000000       0.04166667       0.00000000 </v>
   <v>      -0.16000000       0.04166667       0.00000000 </v>
   <v>      -0.12000000       0.04166667       0.00000000 </v>
   <v>      -0.08000000       0.04166667       0.00000000 </v>
   <v>      -0.04000000       0.04166667       0.00000000 </v>
   <v>      -0.00000000       0.08333333       0.00000000 </v>
   <v>       0.04000000       0.08333333       0.00000000 </v>
   <v>       0.08000000       0.08333333       0.00000000 </v>
   <v>       0.12000000       0.08333333       0.00000000 </v>
   <v>       0.16000000       0.08333333       0.00000000 </v>
   <v>       0.20000000       0.08333333       0.00000000 </v>
   <v>       0.24000000       0.08333333       0.00000000 </v>
   <v>       0.28000000       0.08333333       0.00000000 </v>
   <v>       0.32000000       0.08333333       0.00000000 </v>
   <v>       0.36000000       0.08333333       0.00000000 </v>
   <v>       0.40000000       0.08333333       0.00000000 </v>
   <v>       0.44000000       0.08333333       0.00000000 </v>
   <v>       0.48000000       0.08333333       0.00000000 </v>
   <v>      -0.48000000       0.08333333       0.00000000 </v>
   <v>      -0.44000000       0.08333333       0.00000000 </v>
   <v>      -0.40000000       0.08333333       0.00000000 </v>
   <v>      -0.36000000       0.08333333       0.00000000 </v>
   <v>      -0.32000000       0.08333333       0.00000000 </v>
   <v>      -0.28000000       0.08333333       0.00000000 </v>
   <v>      -0.24000000       0.08333333       0.00000000 </v>
   <v>      -0.20000000       0.08333333       0.00000000 </v>
   <v>      -0.16000000       0.08333333       0.00000000 </v>
   <v>      -0.12000000       0.08333333       0.00000000 </v>
   <v>      -0.08000000       0.08333333       0.00000000 </v>
   <v>      -0.04000000       0.08333333       0.00000000 </v>
   <v>       0.00000000       0.12500000       0.00000000 </v>
   <v>       0.04000000       0.12500000       0.00000000 </v>
   <v>       0.08000000       0.12500000       0.00000000 </v>
   <v>       0.12000000       0.12500000       0.00000000 </v>
   <v>       0.16000000       0.12500000       0.00000000 </v>
   <v>       0.20000000       0.12500000       0.00000000 </v>
   <v>       0.24000000       0.12500000       0.00000000 </v>
   <v>       0.28000000       0.12500000       0.00000000 </v>
   <v>       0.32000000       0.12500000       0.00000000 </v>
   <v>       0.36000000       0.12500000       0.00000000 </v>
   <v>       0.40000000       0.12500000       0.00000000 </v>
   <v>       0.44000000       0.12500000       0.00000000 </v>
   <v>       0.48000000       0.12500000       0.00000000 </v>
   <v>      -0.48000000       0.12500000       0.00000000 </v>
   <v>      -0.44000000       0.12500000       0.00000000 </v>
   <v>      -0.40000000       0.12500000       0.00000000 </v>
   <v>      -0.36000000       0.12500000       0.00000000 </v>
   <v>      -0.32000000       0.12500000       0.00000000 </v>
   <v>      -0.28000000       0.12500000       0.00000000 </v>
   <v>      -0.24000000       0.12500000       0.00000000 </v>
   <v>      -0.20000000       0.12500000       0.00000000 </v>
   <v>      -0.16000000       0.12500000       0.00000000 </v>
   <v>      -0.12000000       0.12500000       0.00000000 </v>
   <v>      -0.08000000       0.12500000       0.00000000 </v>
   <v>      -0.04000000       0.12500000       0.00000000 </v>
   <v>       0.00000000       0.16666667       0.00000000 </v>
   <v>       0.04000000       0.16666667       0.00000000 </v>
   <v>       0.08000000       0.16666667       0.00000000 </v>
   <v>       0.12000000       0.16666667       0.00000000 </v>
   <v>       0.16000000       0.16666667       0.00000000 </v>
   <v>       0.20000000       0.16666667       0.00000000 </v>
   <v>       0.24000000       0.16666667       0.00000000 </v>
   <v>       0.28000000       0.16666667       0.00000000 </v>
   <v>       0.32000000       0.16666667       0.00000000 </v>
   <v>       0.36000000       0.16666667       0.00000000 </v>
   <v>       0.40000000       0.16666667       0.00000000 </v>
   <v>       0.44000000       0.16666667       0.00000000 </v>
   <v>       0.48000000       0.16666667       0.00000000 </v>
   <v>      -0.48000000       0.16666667       0.00000000 </v>
   <v>      -0.44000000       0.16666667       0.00000000 </v>
   <v>      -0.40000000       0.16666667       0.00000000 </v>
   <v>      -0.36000000       0.16666667       0.00000000 </v>
   <v>      -0.32000000       0.16666667       0.00000000 </v>
   <v>      -0.28000000       0.16666667       0.00000000 </v>
   <v>      -0.24000000       0.16666667       0.00000000 </v>
   <v>      -0.20000000       0.16666667       0.00000000 </v>
   <v>      -0.16000000       0.16666667       0.00000000 </v>
   <v>      -0.12000000       0.16666667       0.00000000 </v>
   <v>      -0.08000000       0.16666667       0.00000000 </v>
   <v>      -0.04000000       0.16666667       0.00000000 </v>
   <v>       0.00000000       0.20833333       0.00000000 </v>
   <v>       0.04000000       0.20833333       0.00000000 </v>
   <v>       0.08000000       0.20833333       0.00000000 </v>
   <v>       0.12000000       0.20833333       0.00000000 </v>
   <v>       0.16000000       0.20833333       0.00000000 </v>
   <v>       0.20000000       0.20833333       0.00000000 </v>
   <v>       0.24000000       0.20833333       0.00000000 </v>
   <v>       0.28000000       0.20833333       0.00000000 </v>
   <v>       0.32000000       0.20833333       0.00000000 </v>
   <v>       0.36000000       0.20833333       0.00000000 </v>
   <v>       0.40000000       0.20833333       0.00000000 </v>
   <v>       0.44000000       0.20833333       0.00000000 </v>
   <v>       0.48000000       0.20833333       0.00000000 </v>
   <v>      -0.48000000       0.20833333       0.00000000 </v>
   <v>      -0.44000000       0.20833333       0.00000000 </v>
   <v>      -0.40000000       0.20833333       0.00000000 </v>
   <v>      -0.36000000       0.20833333       0.00000000 </v>
   <v>      -0.32000000       0.20833333       0.00000000 </v>
   <v>      -0.28000000       0.20833333       0.00000000 </v>
   <v>      -0.24000000       0.20833333       0.00000000 </v>
   <v>      -0.20000000       0.20833333       0.00000000 </v>
   <v>      -0.16000000       0.20833333       0.00000000 </v>
   <v>      -0.12000000       0.20833333       0.00000000 </v>
   <v>      -0.08000000       0.20833333       0.00000000 </v>
   <v>      -0.04000000       0.20833333       0.00000000 </v>
   <v>       0.00000000       0.25000000       0.00000000 </v>
   <v>       0.04000000       0.25000000       0.00000000 </v>
   <v>       0.08000000       0.25000000       0.00000000 </v>
   <v>       0.12000000       0.25000000       0.00000000 </v>
   <v>       0.16000000       0.25000000       0.00000000 </v>
   <v>       0.20000000       0.25000000       0.00000000 </v>
   <v>       0.24000000       0.25000000       0.00000000 </v>
   <v>       0.28000000       0.25000000       0.00000000 </v>
   <v>       0.32000000       0.25000000       0.00000000 </v>
   <v>       0.36000000       0.25000000       0.00000000 </v>
   <v>       0.40000000       0.25000000       0.00000000 </v>
   <v>       0.44000000       0.25000000       0.00000000 </v>
   <v>       0.48000000       0.25000000       0.00000000 </v>
   <v>      -0.48000000       0.25000000       0.00000000 </v>
   <v>      -0.44000000       0.25000000       0.00000000 </v>
   <v>      -0.40000000       0.25000000       0.00000000 </v>
   <v>      -0.36000000       0.25000000       0.00000000 </v>
   <v>      -0.32000000       0.25000000       0.00000000 </v>
   <v>      -0.28000000       0.25000000       0.00000000 </v>
   <v>      -0.24000000       0.25000000       0.00000000 </v>
   <v>      -0.20000000       0.25000000       0.00000000 </v>
   <v>      -0.16000000       0.25000000       0.00000000 </v>
   <v>      -0.12000000       0.25000000       0.00000000 </v>
   <v>      -0.08000000       0.25000000       0.00000000 </v>
   <v>      -0.04000000       0.25000000       0.00000000 </v>
   <v>       0.00000000       0.29166667       0.00000000 </v>
   <v>       0.04000000       0.29166667       0.00000000 </v>
   <v>       0.08000000       0.29166667       0.00000000 </v>
   <v>       0.12000000       0.29166667       0.00000000 </v>
   <v>       0.16000000       0.29166667       0.00000000 </v>
   <v>       0.20000000       0.29166667       0.00000000 </v>
   <v>       0.24000000       0.29166667       0.00000000 </v>
   <v>       0.28000000       0.29166667       0.00000000 </v>
   <v>       0.32000000       0.29166667       0.00000000 </v>
   <v>       0.36000000       0.29166667       0.00000000 </v>
   <v>       0.40000000       0.29166667       0.00000000 </v>
   <v>       0.44000000       0.29166667       0.00000000 </v>
   <v>       0.48000000       0.29166667       0.00000000 </v>
   <v>      -0.48000000       0.29166667       0.00000000 </v>
   <v>      -0.44000000       0.29166667       0.00000000 </v>
   <v>      -0.40000000       0.29166667       0.00000000 </v>
   <v>      -0.36000000       0.29166667       0.00000000 </v>
   <v>      -0.32000000       0.29166667       0.00000000 </v>
   <v>      -0.28000000       0.29166667       0.00000000 </v>
   <v>      -0.24000000       0.29166667       0.00000000 </v>
   <v>      -0.20000000       0.29166667       0.00000000 </v>
   <v>      -0.16000000       0.29166667       0.00000000 </v>
   <v>      -0.12000000       0.29166667       0.00000000 </v>
   <v>      -0.08000000       0.29166667       0.00000000 </v>
   <v>      -0.04000000       0.29166667       0.00000000 </v>
   <v>       0.00000000       0.33333333       0.00000000 </v>
   <v>       0.04000000       0.33333333       0.00000000 </v>
   <v>       0.08000000       0.33333333       0.00000000 </v>
   <v>       0.12000000       0.33333333       0.00000000 </v>
   <v>       0.16000000       0.33333333       0.00000000 </v>
   <v>       0.20000000       0.33333333       0.00000000 </v>
   <v>       0.24000000       0.33333333       0.00000000 </v>
   <v>       0.28000000       0.33333333       0.00000000 </v>
   <v>       0.32000000       0.33333333       0.00000000 </v>
   <v>       0.36000000       0.33333333       0.00000000 </v>
   <v>       0.40000000       0.33333333       0.00000000 </v>
   <v>       0.44000000       0.33333333       0.00000000 </v>
   <v>       0.48000000       0.33333333       0.00000000 </v>
   <v>      -0.48000000       0.33333333       0.00000000 </v>
   <v>      -0.44000000       0.33333333       0.00000000 </v>
   <v>      -0.40000000       0.33333333       0.00000000 </v>
   <v>      -0.36000000       0.33333333       0.00000000 </v>
   <v>      -0.32000000       0.33333333       0.00000000 </v>
   <v>      -0.28000000       0.33333333       0.00000000 </v>
   <v>      -0.24000000       0.33333333       0.00000000 </v>
   <v>      -0.20000000       0.33333333       0.00000000 </v>
   <v>      -0.16000000       0.33333333       0.00000000 </v>
   <v>      -0.12000000       0.33333333       0.00000000 </v>
   <v>      -0.08000000       0.33333333       0.00000000 </v>
   <v>      -0.04000000       0.33333333       0.00000000 </v>
   <v>       0.00000000       0.37500000       0.00000000 </v>
   <v>       0.04000000       0.37500000       0.00000000 </v>
   <v>       0.08000000       0.37500000       0.00000000 </v>
   <v>       0.12000000       0.37500000       0.00000000 </v>
   <v>       0.16000000       0.37500000       0.00000000 </v>
   <v>       0.20000000       0.37500000       0.00000000 </v>
   <v>       0.24000000       0.37500000       0.00000000 </v>
   <v>       0.28000000       0.37500000       0.00000000 </v>
   <v>       0.32000000       0.37500000       0.00000000 </v>
   <v>       0.36000000       0.37500000       0.00000000 </v>
   <v>       0.40000000       0.37500000       0.00000000 </v>
   <v>       0.44000000       0.37500000       0.00000000 </v>
   <v>       0.48000000       0.37500000       0.00000000 </v>
   <v>      -0.48000000       0.37500000       0.00000000 </v>
   <v>      -0.44000000       0.37500000       0.00000000 </v>
   <v>      -0.40000000       0.37500000       0.00000000 </v>
   <v>      -0.36000000       0.37500000       0.00000000 </v>
   <v>      -0.32000000       0.37500000       0.00000000 </v>
   <v>      -0.28000000       0.37500000       0.00000000 </v>
   <v>      -0.24000000       0.37500000       0.00000000 </v>
   <v>      -0.20000000       0.37500000       0.00000000 </v>
   <v>      -0.16000000       0.37500000       0.00000000 </v>
   <v>      -0.12000000       0.37500000       0.00000000 </v>
   <v>      -0.08000000       0.37500000       0.00000000 </v>
   <v>      -0.04000000       0.37500000       0.00000000 </v>
   <v>       0.00000000       0.41666667       0.00000000 </v>
   <v>       0.04000000       0.41666667       0.00000000 </v>
   <v>       0.08000000       0.41666667       0.00000000 </v>
   <v>       0.12000000       0.41666667       0.00000000 </v>
   <v>       0.16000000       0.41666667       0.00000000 </v>
   <v>       0.20000000       0.41666667       0.00000000 </v>
   <v>       0.24000000       0.41666667       0.00000000 </v>
   <v>       0.28000000       0.41666667       0.00000000 </v>
   <v>       0.32000000       0.41666667       0.00000000 </v>
   <v>       0.36000000       0.41666667       0.00000000 </v>
   <v>       0.40000000       0.41666667       0.00000000 </v>
   <v>       0.44000000       0.41666667       0.00000000 </v>
   <v>       0.48000000       0.41666667       0.00000000 </v>
   <v>      -0.48000000       0.41666667       0.00000000 </v>
   <v>      -0.44000000       0.41666667       0.00000000 </v>
   <v>      -0.40000000       0.41666667       0.00000000 </v>
   <v>      -0.36000000       0.41666667       0.00000000 </v>
   <v>      -0.32000000       0.41666667       0.00000000 </v>
   <v>      -0.28000000       0.41666667       0.00000000 </v>
   <v>      -0.24000000       0.41666667       0.00000000 </v>
   <v>      -0.20000000       0.41666667       0.00000000 </v>
   <v>      -0.16000000       0.41666667       0.00000000 </v>
   <v>      -0.12000000       0.41666667       0.00000000 </v>
   <v>      -0.08000000       0.41666667       0.00000000 </v>
   <v>      -0.04000000       0.41666667       0.00000000 </v>
   <v>       0.00000000       0.45833333       0.00000000 </v>
   <v>       0.04000000       0.45833333       0.00000000 </v>
   <v>       0.08000000       0.45833333       0.00000000 </v>
   <v>       0.12000000       0.45833333       0.00000000 </v>
   <v>       0.16000000       0.45833333       0.00000000 </v>
   <v>       0.20000000       0.45833333       0.00000000 </v>
   <v>       0.24000000       0.45833333       0.00000000 </v>
   <v>       0.28000000       0.45833333       0.00000000 </v>
   <v>       0.32000000       0.45833333       0.00000000 </v>
   <v>       0.36000000       0.45833333       0.00000000 </v>
   <v>       0.40000000       0.45833333       0.00000000 </v>
   <v>       0.44000000       0.45833333       0.00000000 </v>
   <v>       0.48000000       0.45833333       0.00000000 </v>
   <v>      -0.48000000       0.45833333       0.00000000 </v>
   <v>      -0.44000000       0.45833333       0.00000000 </v>
   <v>      -0.40000000       0.45833333       0.00000000 </v>
   <v>      -0.36000000       0.45833333       0.00000000 </v>
   <v>      -0.32000000       0.45833333       0.00000000 </v>
   <v>      -0.28000000       0.45833333       0.00000000 </v>
   <v>      -0.24000000       0.45833333       0.00000000 </v>
   <v>      -0.20000000       0.45833333       0.00000000 </v>
   <v>      -0.16000000       0.45833333       0.00000000 </v>
   <v>      -0.12000000       0.45833333       0.00000000 </v>
   <v>      -0.08000000       0.45833333       0.00000000 </v>
   <v>      -0.04000000       0.45833333       0.00000000 </v>
   <v>       0.00000000       0.50000000       0.00000000 </v>
   <v>       0.04000000       0.50000000       0.00000000 </v>
   <v>       0.08000000       0.50000000       0.00000000 </v>
   <v>       0.12000000       0.50000000       0.00000000 </v>
   <v>       0.16000000       0.50000000       0.00000000 </v>
   <v>       0.20000000       0.50000000       0.00000000 </v>
   <v>       0.24000000       0.50000000       0.00000000 </v>
   <v>       0.28000000       0.50000000       0.00000000 </v>
   <v>       0.32000000       0.50000000       0.00000000 </v>
   <v>       0.36000000       0.50000000       0.00000000 </v>
   <v>       0.40000000       0.50000000       0.00000000 </v>
   <v>       0.44000000       0.50000000       0.00000000 </v>
   <v>       0.48000000       0.50000000       0.00000000 </v>
  </varray>
  <varray name="weights" >
   <v>       0.00166667 </v>
   <v>       0.00333333 </v>
   <v>       0.00333333 </v>
   <v>       0.00333333 </v>
   <v>       0.00333333 </v>
   <v>       0.00333333 </v>
   <v>       0.00333333 </v>
   <v>       0.00333333 </v>
   <v>       0.00333333 </v>
   <v>       0.00333333 </v>
   <v>       0.00333333 </v>
   <v>       0.00333333 </v>
   <v>       0.00333333 </v>
   <v>       0.00333333 </v>
   <v>       0.00333333 </v>
   <v>       0.00333333 </v>
   <v>       0.00333333 </v>
   <v>       0.00333333 </v>
   <v>       0.00333333 </v>
   <v>       0.00333333 </v>
   <v>       0.00333333 </v>
   <v>       0.00333333 </v>
   <v>       0.00333333 </v>
   <v>       0.00333333 </v>
   <v>       0.00333333 </v>
   <v>       0.00333333 </v>
   <v>       0.00333333 </v>
   <v>       0.00333333 </v>
   <v>       0.00333333 </v>
   <v>       0.00333333 </v>
   <v>       0.00333333 </v>
   <v>       0.00333333 </v>
   <v>       0.00333333 </v>
   <v>       0.00333333 </v>
   <v>       0.00333333 </v>
   <v>       0.00333333 </v>
   <v>       0.00333333 </v>
   <v>       0.00333333 </v>
   <v>       0.00333333 </v>
   <v>       0.00333333 </v>
   <v>       0.00333333 </v>
   <v>       0.00333333 </v>
   <v>       0.00333333 </v>
   <v>       0.00333333 </v>
   <v>       0.00333333 </v>
   <v>       0.00333333 </v>
   <v>       0.00333333 </v>
   <v>       0.00333333 </v>
   <v>       0.00333333 </v>
   <v>       0.00333333 </v>
   <v>       0.00333333 </v>
   <v>       0.00333333 </v>
   <v>       0.00333333 </v>
   <v>       0.00333333 </v>
   <v>       0.00333333 </v>
   <v>       0.00333333 </v>
   <v>       0.00333333 </v>
   <v>       0.00333333 </v>
   <v>       0.00333333 </v>
   <v>       0.00333333 </v>
   <v>       0.00333333 </v>
   <v>       0.00333333 </v>
   <v>       0.00333333 </v>
   <v>       0.00333333 </v>
   <v>       0.00333333 </v>
   <v>       0.00333333 </v>
   <v>       0.00333333 </v>
   <v>       0.00333333 </v>
   <v>       0.00333333 </v>
   <v>       0.00333333 </v>
   <v>       0.00333333 </v>
   <v>       0.00333333 </v>
   <v>       0.00333333 </v>
   <v>       0.00333333 </v>
   <v>       0.00333333 </v>
   <v>       0.00333333 </v>
   <v>       0.00333333 </v>
   <v>       0.00333333 </v>
   <v>       0.00333333 </v>
   <v>       0.00333333 </v>
   <v>       0.00333333 </v>
   <v>       0.00333333 </v>
   <v>       0.00333333 </v>
   <v>       0.00333333 </v>
   <v>       0.00333333 </v>
   <v>       0.00333333 </v>
   <v>       0.00333333 </v>
   <v>       0.00333333 </v>
   <v>       0.00333333 </v>
   <v>       0.00333333 </v>
   <v>       0.00333333 </v>
   <v>       0.00333333 </v>
   <v>       0.00333333 </v>
   <v>       0.00333333 </v>
   <v>       0.00333333 </v>
   <v>       0.00333333 </v>
   <v>       0.00333333 </v>
   <v>       0.00333333 </v>
   <v>       0.00333333 </v>
   <v>       0.00333333 </v>
   <v>       0.00333333 </v>
   <v>       0.00333333 </v>
   <v>       0.00333333 </v>
   <v>       0.00333333 </v>
   <v>       0.00333333 </v>
   <v>       0.00333333 </v>
   <v>       0.00333333 </v>
   <v>       0.00333333 </v>
   <v>       0.00333333 </v>
   <v>       0.00333333 </v>
   <v>       0.00333333 </v>
   <v>       0.00333333 </v>
   <v>       0.00333333 </v>
   <v>       0.00333333 </v>
   <v>       0.00333333 </v>
   <v>       0.00333333 </v>
   <v>       0.00333333 </v>
   <v>       0.00333333 </v>
   <v>       0.00333333 </v>
   <v>       0.00333333 </v>
   <v>       0.00333333 </v>
   <v>       0.00333333 </v>
   <v>       0.00333333 </v>
   <v>       0.00333333 </v>
   <v>       0.00333333 </v>
   <v>       0.00333333 </v>
   <v>       0.00333333 </v>
   <v>       0.00333333 </v>
   <v>       0.00333333 </v>
   <v>       0.00333333 </v>
   <v>       0.00333333 </v>
   <v>       0.00333333 </v>
   <v>       0.00333333 </v>
   <v>       0.00333333 </v>
   <v>       0.00333333 </v>
   <v>       0.00333333 </v>
   <v>       0.00333333 </v>
   <v>       0.00333333 </v>
   <v>       0.00333333 </v>
   <v>       0.00333333 </v>
   <v>       0.00333333 </v>
   <v>       0.00333333 </v>
   <v>       0.00333333 </v>
   <v>       0.00333333 </v>
   <v>       0.00333333 </v>
   <v>       0.00333333 </v>
   <v>       0.00333333 </v>
   <v>       0.00333333 </v>
   <v>       0.00333333 </v>
   <v>       0.00333333 </v>
   <v>       0.00333333 </v>
   <v>       0.00333333 </v>
   <v>       0.00333333 </v>
   <v>       0.00333333 </v>
   <v>       0.00333333 </v>
   <v>       0.00333333 </v>
   <v>       0.00333333 </v>
   <v>       0.00333333 </v>
   <v>       0.00333333 </v>
   <v>       0.00333333 </v>
   <v>       0.00333333 </v>
   <v>       0.00333333 </v>
   <v>       0.00333333 </v>
   <v>       0.00333333 </v>
   <v>       0.00333333 </v>
   <v>       0.00333333 </v>
   <v>       0.00333333 </v>
   <v>       0.00333333 </v>
   <v>       0.00333333 </v>
   <v>       0.00333333 </v>
   <v>       0.00333333 </v>
   <v>       0.00333333 </v>
   <v>       0.00333333 </v>
   <v>       0.00333333 </v>
   <v>       0.00333333 </v>
   <v>       0.00333333 </v>
   <v>       0.00333333 </v>
   <v>       0.00333333 </v>
   <v>       0.00333333 </v>
   <v>       0.00333333 </v>
   <v>       0.00333333 </v>
   <v>       0.00333333 </v>
   <v>       0.00333333 </v>
   <v>       0.00333333 </v>
   <v>       0.00333333 </v>
   <v>       0.00333333 </v>
   <v>       0.00333333 </v>
   <v>       0.00333333 </v>
   <v>       0.00333333 </v>
   <v>       0.00333333 </v>
   <v>       0.00333333 </v>
   <v>       0.00333333 </v>
   <v>       0.00333333 </v>
   <v>       0.00333333 </v>
   <v>       0.00333333 </v>
   <v>       0.00333333 </v>
   <v>       0.00333333 </v>
   <v>       0.00333333 </v>
   <v>       0.00333333 </v>
   <v>       0.00333333 </v>
   <v>       0.00333333 </v>
   <v>       0.00333333 </v>
   <v>       0.00333333 </v>
   <v>       0.00333333 </v>
   <v>       0.00333333 </v>
   <v>       0.00333333 </v>
   <v>       0.00333333 </v>
   <v>       0.00333333 </v>
   <v>       0.00333333 </v>
   <v>       0.00333333 </v>
   <v>       0.00333333 </v>
   <v>       0.00333333 </v>
   <v>       0.00333333 </v>
   <v>       0.00333333 </v>
   <v>       0.00333333 </v>
   <v>       0.00333333 </v>
   <v>       0.00333333 </v>
   <v>       0.00333333 </v>
   <v>       0.00333333 </v>
   <v>       0.00333333 </v>
   <v>       0.00333333 </v>
   <v>       0.00333333 </v>
   <v>       0.00333333 </v>
   <v>       0.00333333 </v>
   <v>       0.00333333 </v>
   <v>       0.00333333 </v>
   <v>       0.00333333 </v>
   <v>       0.00333333 </v>
   <v>       0.00333333 </v>
   <v>       0.00333333 </v>
   <v>       0.00333333 </v>
   <v>       0.00333333 </v>
   <v>       0.00333333 </v>
   <v>       0.00333333 </v>
   <v>       0.00333333 </v>
   <v>       0.00333333 </v>
   <v>       0.00333333 </v>
   <v>       0.00333333 </v>
   <v>       0.00333333 </v>
   <v>       0.00333333 </v>
   <v>       0.00333333 </v>
   <v>       0.00333333 </v>
   <v>       0.00333333 </v>
   <v>       0.00333333 </v>
   <v>       0.00333333 </v>
   <v>       0.00333333 </v>
   <v>       0.00333333 </v>
   <v>       0.00333333 </v>
   <v>       0.00333333 </v>
   <v>       0.00333333 </v>
   <v>       0.00333333 </v>
   <v>       0.00333333 </v>
   <v>       0.00333333 </v>
   <v>       0.00333333 </v>
   <v>       0.00333333 </v>
   <v>       0.00333333 </v>
   <v>       0.00333333 </v>
   <v>       0.00333333 </v>
   <v>       0.00333333 </v>
   <v>       0.00333333 </v>
   <v>       0.00333333 </v>
   <v>       0.00333333 </v>
   <v>       0.00333333 </v>
   <v>       0.00333333 </v>
   <v>       0.00333333 </v>
   <v>       0.00333333 </v>
   <v>       0.00333333 </v>
   <v>       0.00333333 </v>
   <v>       0.00333333 </v>
   <v>       0.00333333 </v>
   <v>       0.00333333 </v>
   <v>       0.00333333 </v>
   <v>       0.00333333 </v>
   <v>       0.00333333 </v>
   <v>       0.00333333 </v>
   <v>       0.00333333 </v>
   <v>       0.00333333 </v>
   <v>       0.00333333 </v>
   <v>       0.00333333 </v>
   <v>       0.00333333 </v>
   <v>       0.00333333 </v>
   <v>       0.00333333 </v>
   <v>       0.00333333 </v>
   <v>       0.00333333 </v>
   <v>       0.00333333 </v>
   <v>       0.00333333 </v>
   <v>       0.00333333 </v>
   <v>       0.00333333 </v>
   <v>       0.00166667 </v>
   <v>       0.00333333 </v>
   <v>       0.00333333 </v>
   <v>       0.00333333 </v>
   <v>       0.00333333 </v>
   <v>       0.00333333 </v>
   <v>       0.00333333 </v>
   <v>       0.00333333 </v>
   <v>       0.00333333 </v>
   <v>       0.00333333 </v>
   <v>       0.00333333 </v>
   <v>       0.00333333 </v>
   <v>       0.00333333 </v>
  </varray>
 </kpoints>
 <parameters>
  <separator name="general" >
   <i type="string" name="SYSTEM">unknown system</i>
   <i type="logical" name="LCOMPAT"> F  </i>
  </separator>
  <separator name="electronic" >
   <i type="string" name="PREC">a</i>
   <i name="ENMAX">    520.00000000</i>
   <i name="ENAUG">    644.87300000</i>
   <i name="EDIFF">      0.00001000</i>
   <i type="int" name="IALGO">    38</i>
   <i type="int" name="IWAVPR">    10</i>
   <i type="int" name="NBANDS">    12</i>
   <i name="NELECT">      8.00000000</i>
   <i type="int" name="TURBO">     0</i>
   <i type="int" name="IRESTART">     0</i>
   <i type="int" name="NREBOOT">     0</i>
   <i type="int" name="NMIN">     0</i>
   <i name="EREF">      0.00000000</i>
   <separator name="electronic smearing" >
    <i type="int" name="ISMEAR">     0</i>
    <i name="SIGMA">      0.02000000</i>
    <i name="KSPACING">      0.50000000</i>
    <i type="logical" name="KGAMMA"> T  </i>
   </separator>
   <separator name="electronic projectors" >
    <i type="logical" name="LREAL"> T  </i>
    <v name="ROPT">     -0.00025000</v>
    <i type="int" name="LMAXPAW">  -100</i>
    <i type="int" name="LMAXMIX">     2</i>
    <i type="logical" name="NLSPLINE"> F  </i>
   </separator>
   <separator name="electronic startup" >
    <i type="int" name="ISTART">     0</i>
    <i type="int" name="ICHARG">     2</i>
    <i type="int" name="INIWAV">     1</i>
   </separator>
   <separator name="electronic spin" >
    <i type="int" name="ISPIN">     1</i>
    <i type="logical" name="LNONCOLLINEAR"> F  </i>
    <v name="MAGMOM">      0.60000000      0.60000000</v>
    <i name="NUPDOWN">     -1.00000000</i>
    <i type="logical" name="LSORBIT"> F  </i>
    <v name="SAXIS">      0.00000000      0.00000000      1.00000000</v>
    <i type="logical" name="LSPIRAL"> F  </i>
    <v name="QSPIRAL">      0.00000000      0.00000000      0.00000000</v>
    <i type="logical" name="LZEROZ"> F  </i>
   </separator>
   <separator name="electronic exchange-correlation" >
    <i type="logical" name="LASPH"> F  </i>
    <i type="logical" name="LMETAGGA"> F  </i>
   </separator>
   <separator name="electronic convergence" >
    <i type="int" name="NELM">   250</i>
    <i type="int" name="NELMDL">    -5</i>
    <i type="int" name="NELMIN">     6</i>
    <i name="ENINI">    520.00000000</i>
    <separator name="electronic convergence detail" >
     <i type="logical" name="LDIAG"> T  </i>
     <i type="logical" name="LSUBROT"> F  </i>
     <i name="WEIMIN">      0.00000000</i>
     <i name="EBREAK">      0.00000021</i>
     <i name="DEPER">      0.30000000</i>
     <i type="int" name="NRMM">     4</i>
     <i name="TIME">      0.40000000</i>
    </separator>
   </separator>
   <separator name="electronic mixer" >
    <i name="AMIX">      0.40000000</i>
    <i name="BMIX">      1.00000000</i>
    <i name="AMIN">      0.10000000</i>
    <i name="AMIX_MAG">      1.60000000</i>
    <i name="BMIX_MAG">      1.00000000</i>
    <separator name="electronic mixer details" >
     <i type="int" name="IMIX">     4</i>
     <i type="logical" name="MIXFIRST"> F  </i>
     <i type="int" name="MAXMIX">   -45</i>
     <i name="WC">    100.00000000</i>
     <i type="int" name="INIMIX">     1</i>
     <i type="int" name="MIXPRE">     1</i>
     <i type="int" name="MREMOVE">     5</i>
    </separator>
   </separator>
   <separator name="electronic dipolcorrection" >
    <i type="logical" name="LDIPOL"> F  </i>
    <i type="logical" name="LMONO"> F  </i>
    <i type="int" name="IDIPOL">     0</i>
    <i name="EPSILON">      1.00000000</i>
    <v name="DIPOL">   -100.00000000   -100.00000000   -100.00000000</v>
    <i name="EFIELD">      0.00000000</i>
   </separator>
  </separator>
  <separator name="grids" >
   <i type="int" name="NGX">    18</i>
   <i type="int" name="NGY">    20</i>
   <i type="int" name="NGZ">   112</i>
   <i type="int" name="NGXF">    36</i>
   <i type="int" name="NGYF">    40</i>
   <i type="int" name="NGZF">   224</i>
   <i type="logical" name="ADDGRID"> F  </i>
  </separator>
  <separator name="ionic" >
   <i type="int" name="NSW">     0</i>
   <i type="int" name="IBRION">    -1</i>
   <i type="int" name="ISIF">     2</i>
   <i name="PSTRESS">      0.00000000</i>
   <i name="EDIFFG">     -0.00500000</i>
   <i type="int" name="NFREE">     1</i>
   <i name="POTIM">      0.25000000</i>
   <i name="SMASS">     -3.00000000</i>
   <i name="SCALEE">      1.00000000</i>
  </separator>
  <separator name="ionic md" >
   <i name="TEBEG">      0.00010000</i>
   <i name="TEEND">      0.00010000</i>
   <i type="int" name="NBLOCK">     1</i>
   <i type="int" name="KBLOCK">     1</i>
   <i type="int" name="NPACO">   256</i>
   <i name="APACO">     16.00000000</i>
  </separator>
  <separator name="symmetry" >
   <i type="int" name="ISYM">     2</i>
   <i name="SYMPREC">      0.00001000</i>
  </separator>
  <separator name="dos" >
   <i type="logical" name="LORBIT"> F  </i>
   <v name="RWIGS">     -1.00000000</v>
   <i type="int" name="NEDOS">   301</i>
   <i name="EMIN">     10.00000000</i>
   <i name="EMAX">    -10.00000000</i>
   <i name="EFERMI">      0.00000000</i>
  </separator>
  <separator name="writing" >
   <i type="int" name="NWRITE">     2</i>
   <i type="logical" name="LWAVE"> F  </i>
   <i type="logical" name="LCHARG"> F  </i>
   <i type="logical" name="LPARD"> F  </i>
   <i type="logical" name="LVTOT"> F  </i>
   <i type="logical" name="LVHAR"> F  </i>
   <i type="logical" name="LELF"> F  </i>
   <i type="logical" name="LOPTICS"> F  </i>
   <v name="STM">      0.00000000      0.00000000      0.00000000      0.00000000      0.00000000      0.00000000      0.00000000</v>
  </separator>
  <separator name="performance" >
   <i type="int" name="NPAR">     6</i>
   <i type="int" name="NSIM">     4</i>
   <i type="int" name="NBLK">    -1</i>
   <i type="logical" name="LPLANE"> T  </i>
   <i type="logical" name="LSCALAPACK"> T  </i>
   <i type="logical" name="LSCAAWARE"> F  </i>
   <i type="logical" name="LSCALU"> F  </i>
   <i type="logical" name="LASYNC"> F  </i>
   <i type="logical" name="LORBITALREAL"> F  </i>
  </separator>
  <separator name="miscellaneous" >
   <i type="int" name="IDIOT">     3</i>
   <i type="logical" name="LMUSIC"> F  </i>
   <v name="POMASS">     12.01100000</v>
   <v name="DARWINR">      0.00000000</v>
   <v name="DARWINV">      1.00000000</v>
   <i type="logical" name="LCORR"> T  </i>
  </separator>
  <i type="logical" name="GGA_COMPAT"> T  </i>
  <i type="logical" name="LBERRY"> F  </i>
  <i type="int" name="ICORELEVEL">     0</i>
  <i type="logical" name="LDAU"> F  </i>
  <i type="int" name="I_CONSTRAINED_M">     0</i>
  <separator name="electronic exchange-correlation" >
   <i type="string" name="GGA">--</i>
   <i type="int" name="VOSKOWN">     0</i>
   <i type="logical" name="LHFCALC"> F  </i>
   <i type="string" name="PRECFOCK"></i>
   <i type="logical" name="LSYMGRAD"> F  </i>
   <i type="logical" name="LHFONE"> F  </i>
   <i type="logical" name="LRHFCALC"> F  </i>
   <i type="logical" name="LTHOMAS"> F  </i>
   <i type="logical" name="LMODELHF"> F  </i>
   <i name="ENCUT4O">     -1.00000000</i>
   <i type="int" name="EXXOEP">     0</i>
   <i type="int" name="FOURORBIT">     0</i>
   <i name="AEXX">      0.00000000</i>
   <i name="HFALPHA">      0.00000000</i>
   <i name="MCALPHA">      0.00000000</i>
   <i name="ALDAX">      1.00000000</i>
   <i name="AGGAX">      1.00000000</i>
   <i name="ALDAC">      1.00000000</i>
   <i name="AGGAC">      1.00000000</i>
   <i type="int" name="NKREDX">     1</i>
   <i type="int" name="NKREDY">     1</i>
   <i type="int" name="NKREDZ">     1</i>
   <i type="logical" name="SHIFTRED"> F  </i>
   <i type="logical" name="ODDONLY"> F  </i>
   <i type="logical" name="EVENONLY"> F  </i>
   <i type="int" name="LMAXFOCK">     0</i>
   <i type="int" name="NMAXFOCKAE">     0</i>
   <i type="logical" name="LFOCKAEDFT"> F  </i>
   <i name="HFSCREEN">      0.00000000</i>
   <i name="HFSCREENC">      0.00000000</i>
   <i type="int" name="NBANDSGWLOW">     0</i>
  </separator>
  <separator name="vdW DFT" >
   <i type="logical" name="LUSE_VDW"> F  </i>
   <i name="Zab_VDW">     -0.84910000</i>
   <i name="PARAM1">      0.12340000</i>
   <i name="PARAM2">      1.00000000</i>
   <i name="PARAM3">      0.00000000</i>
  </separator>
  <separator name="model GW" >
   <i type="int" name="MODEL_GW">     0</i>
   <i name="MODEL_EPS0">     23.36802824</i>
   <i name="MODEL_ALPHA">      1.00000000</i>
  </separator>
  <separator name="linear response parameters" >
   <i type="logical" name="LEPSILON"> F  </i>
   <i type="logical" name="LRPA"> F  </i>
   <i type="logical" name="LNABLA"> F  </i>
   <i type="logical" name="LVEL"> F  </i>
   <i type="int" name="KINTER">     0</i>
   <i name="CSHIFT">      0.10000000</i>
   <i name="OMEGAMAX">     -1.00000000</i>
   <i name="DEG_THRESHOLD">      0.00200000</i>
  </separator>
  <separator name="orbital magnetization" >
   <i type="logical" name="NUCIND"> F  </i>
   <v name="MAGPOS">      0.00000000      0.00000000      0.00000000</v>
   <i type="logical" name="LNICSALL"> T  </i>
   <i type="logical" name="ORBITALMAG"> F  </i>
   <i type="logical" name="LMAGBLOCH"> F  </i>
   <i type="logical" name="LCHIMAG"> F  </i>
   <i type="logical" name="LGAUGE"> T  </i>
   <i type="int" name="MAGATOM">     0</i>
   <v name="MAGDIPOL">      0.00000000      0.00000000      0.00000000</v>
   <v name="AVECCONST">      0.00000000      0.00000000      0.00000000</v>
  </separator>
  <separator name="response functions" >
   <i type="logical" name="LADDER"> F  </i>
   <i type="logical" name="LFXC"> F  </i>
   <i type="logical" name="LHARTREE"> T  </i>
   <i type="int" name="IBSE">     0</i>
   <v type="int" name="KPOINT">    -1     0     0     0</v>
   <i type="logical" name="LTCTE"> F  </i>
   <i type="logical" name="LTETE"> F  </i>
   <i type="logical" name="LTRIPLET"> F  </i>
   <i type="logical" name="LFXCEPS"> F  </i>
   <i type="logical" name="LFXHEG"> F  </i>
   <i type="int" name="NATURALO">     0</i>
   <i type="logical" name="L2ORDER"> F  </i>
   <i type="logical" name="LUSEW"> F  </i>
   <i name="ENCUTGW">     -2.00000000</i>
   <i name="ENCUTGWSOFT">     -2.00000000</i>
   <i name="ENCUTLF">     -1.00000000</i>
   <i type="int" name="LMAXMP2">    -1</i>
   <i name="SCISSOR">      0.00000000</i>
   <i type="int" name="NOMEGA">     0</i>
   <i type="int" name="NOMEGAR">     0</i>
   <i type="int" name="NBANDSGW">    -1</i>
   <i type="int" name="NBANDSO">    -1</i>
   <i type="int" name="NBANDSV">    -1</i>
   <i type="int" name="NELM">   250</i>
   <i type="int" name="NELMHF">     1</i>
   <i type="int" name="DIM">     3</i>
   <i type="int" name="ANTIRES">     0</i>
   <i name="OMEGAMAX">    -30.00000000</i>
   <i name="OMEGAMIN">    -30.00000000</i>
   <i name="OMEGATL">   -200.00000000</i>
   <i type="int" name="OMEGAGRID">     0</i>
   <i name="CSHIFT">     -0.10000000</i>
   <i type="logical" name="SELFENERGY"> F  </i>
   <i type="logical" name="LSPECTRAL"> F  </i>
   <i type="logical" name="LSPECTRALGW"> F  </i>
   <i type="logical" name="LSINGLES"> F  </i>
   <i type="logical" name="LFERMIGW"> F  </i>
   <i type="logical" name="ODDONLYGW"> F  </i>
   <i type="logical" name="EVENONLYGW"> F  </i>
   <i type="int" name="NKREDLFX">     1</i>
   <i type="int" name="NKREDLFY">     1</i>
   <i type="int" name="NKREDLFZ">     1</i>
   <i type="int" name="MAXMEM">  1800</i>
   <i type="int" name="TELESCOPE">     0</i>
   <i type="int" name="TAUPAR">     1</i>
   <i type="int" name="OMEGAPAR">    -1</i>
   <i name="LAMBDA">      1.00000000</i>
  </separator>
  <separator name="External order field" >
   <i name="OFIELD_KAPPA">      0.00000000</i>
   <v name="OFIELD_K">      0.00000000      0.00000000      0.00000000</v>
   <i name="OFIELD_Q6_NEAR">      0.00000000</i>
   <i name="OFIELD_Q6_FAR">      0.00000000</i>
   <i name="OFIELD_A">      0.00000000</i>
  </separator>
 </parameters>
 <atominfo>
  <atoms>       2 </atoms>
  <types>       1 </types>
  <array name="atoms" >
   <dimension dim="1">ion</dimension>
   <field type="string">element</field>
   <field type="int">atomtype</field>
   <set>
    <rc><c>C </c><c>   1</c></rc>
    <rc><c>C </c><c>   1</c></rc>
   </set>
  </array>
  <array name="atomtypes" >
   <dimension dim="1">type</dimension>
   <field type="int">atomspertype</field>
   <field type="string">element</field>
   <field>mass</field>
   <field>valence</field>
   <field type="string">pseudopotential</field>
   <set>
    <rc><c>   2</c><c>C </c><c>     12.01100000</c><c>      4.00000000</c><c>  PAW_PBE C 08Apr2002                   </c></rc>
   </set>
  </array>
 </atominfo>
 <structure name="initialpos" >
  <crystal>
   <varray name="basis" >
    <v>       2.43042400      -0.03730600       0.00000000 </v>
    <v>      -1.24752000       2.15577000       0.00000000 </v>
    <v>       0.00000000       0.00000000      15.00000000 </v>
   </varray>
   <i name="volume">     77.89342748 </i>
   <varray name="rec_basis" >
    <v>       0.41513836       0.24023593       0.00000000 </v>
    <v>       0.00718405       0.46802871       0.00000000 </v>
    <v>       0.00000000       0.00000000       0.06666667 </v>
   </varray>
  </crystal>
  <varray name="positions" >
   <v>       0.00145194       0.00068280       0.50000000 </v>
   <v>       0.33188106       0.66598420       0.50000000 </v>
  </varray>
 </structure>
 <calculation>
  <scstep>
   <time name="dav">    1.00    1.00</time>
   <time name="total">    1.01    1.01</time>
   <energy>
    <i name="alphaZ">      4.21841578 </i>
    <i name="ewald">    852.30833579 </i>
    <i name="hartreedc">  -1070.03929346 </i>
    <i name="XCdc">     26.45446847 </i>
    <i name="pawpsdc">    217.04409276 </i>
    <i name="pawaedc">   -218.18290438 </i>
    <i name="eentropy">     -0.00007351 </i>
    <i name="bandstr">    -72.07528786 </i>
    <i name="atom">    294.29778662 </i>
    <i name="e_fr_energy">     34.02554023 </i>
    <i name="e_wo_entrp">     34.02561374 </i>
    <i name="e_0_energy">     34.02557698 </i>
   </energy>
  </scstep>
  <scstep>
   <time name="dav">    1.26    1.26</time>
   <time name="total">    1.26    1.26</time>
   <energy>
    <i name="e_fr_energy">    -18.19307497 </i>
    <i name="e_wo_entrp">    -18.19307497 </i>
    <i name="e_0_energy">    -18.19307497 </i>
   </energy>
  </scstep>
  <scstep>
   <time name="dav">    1.47    1.47</time>
   <time name="total">    1.47    1.48</time>
   <energy>
    <i name="e_fr_energy">    -19.77106665 </i>
    <i name="e_wo_entrp">    -19.77106665 </i>
    <i name="e_0_energy">    -19.77106665 </i>
   </energy>
  </scstep>
  <scstep>
   <time name="dav">    1.43    1.43</time>
   <time name="total">    1.43    1.43</time>
   <energy>
    <i name="e_fr_energy">    -19.77721430 </i>
    <i name="e_wo_entrp">    -19.77721430 </i>
    <i name="e_0_energy">    -19.77721430 </i>
   </energy>
  </scstep>
  <scstep>
   <time name="dav">    1.39    1.39</time>
   <time name="total">    1.43    1.43</time>
   <energy>
    <i name="e_fr_energy">    -19.77722065 </i>
    <i name="e_wo_entrp">    -19.77722065 </i>
    <i name="e_0_energy">    -19.77722065 </i>
   </energy>
  </scstep>
  <scstep>
   <time name="dav">    1.23    1.23</time>
   <time name="total">    1.27    1.27</time>
   <energy>
    <i name="e_fr_energy">    -18.79924846 </i>
    <i name="e_wo_entrp">    -18.79924846 </i>
    <i name="e_0_energy">    -18.79924846 </i>
   </energy>
  </scstep>
  <scstep>
   <time name="dav">    1.42    1.42</time>
   <time name="total">    1.46    1.46</time>
   <energy>
    <i name="e_fr_energy">    -18.42365169 </i>
    <i name="e_wo_entrp">    -18.42365169 </i>
    <i name="e_0_energy">    -18.42365169 </i>
   </energy>
  </scstep>
  <scstep>
   <time name="dav">    1.37    1.37</time>
   <time name="total">    1.41    1.41</time>
   <energy>
    <i name="e_fr_energy">    -18.41543097 </i>
    <i name="e_wo_entrp">    -18.41543097 </i>
    <i name="e_0_energy">    -18.41543097 </i>
   </energy>
  </scstep>
  <scstep>
   <time name="dav">    1.27    1.27</time>
   <time name="total">    1.31    1.31</time>
   <energy>
    <i name="e_fr_energy">    -18.41345142 </i>
    <i name="e_wo_entrp">    -18.41345142 </i>
    <i name="e_0_energy">    -18.41345142 </i>
   </energy>
  </scstep>
  <scstep>
   <time name="dav">    1.12    1.12</time>
   <time name="total">    1.16    1.17</time>
   <energy>
    <i name="e_fr_energy">    -18.41175799 </i>
    <i name="e_wo_entrp">    -18.41175799 </i>
    <i name="e_0_energy">    -18.41175799 </i>
   </energy>
  </scstep>
  <scstep>
   <time name="dav">    1.04    1.04</time>
   <time name="total">    1.08    1.08</time>
   <energy>
    <i name="e_fr_energy">    -18.41183312 </i>
    <i name="e_wo_entrp">    -18.41183312 </i>
    <i name="e_0_energy">    -18.41183312 </i>
   </energy>
  </scstep>
  <scstep>
   <time name="dav">    1.11    1.11</time>
   <time name="total">    1.15    1.15</time>
   <energy>
    <i name="e_fr_energy">    -18.41217078 </i>
    <i name="e_wo_entrp">    -18.41217078 </i>
    <i name="e_0_energy">    -18.41217078 </i>
   </energy>
  </scstep>
  <scstep>
   <time name="dav">    1.08    1.08</time>
   <time name="total">    1.12    1.13</time>
   <energy>
    <i name="e_fr_energy">    -18.41291204 </i>
    <i name="e_wo_entrp">    -18.41291204 </i>
    <i name="e_0_energy">    -18.41291204 </i>
   </energy>
  </scstep>
  <scstep>
   <time name="dav">    1.28    1.28</time>
   <time name="total">    1.32    1.32</time>
   <energy>
    <i name="e_fr_energy">    -18.41296977 </i>
    <i name="e_wo_entrp">    -18.41296977 </i>
    <i name="e_0_energy">    -18.41296977 </i>
   </energy>
  </scstep>
  <scstep>
   <time name="dav">    1.05    1.05</time>
   <time name="total">    1.09    1.09</time>
   <energy>
    <i name="e_fr_energy">    -18.41307899 </i>
    <i name="e_wo_entrp">    -18.41307899 </i>
    <i name="e_0_energy">    -18.41307899 </i>
   </energy>
  </scstep>
  <scstep>
   <time name="dav">    1.09    1.09</time>
   <time name="total">    1.14    1.14</time>
   <energy>
    <i name="e_fr_energy">    -18.41309043 </i>
    <i name="e_wo_entrp">    -18.41309043 </i>
    <i name="e_0_energy">    -18.41309043 </i>
   </energy>
  </scstep>
  <scstep>
   <time name="dav">    1.03    1.03</time>
   <time name="total">    1.04    1.04</time>
   <energy>
    <i name="alphaZ">      4.21841578 </i>
    <i name="ewald">    852.30833579 </i>
    <i name="hartreedc">  -1104.45787238 </i>
    <i name="XCdc">     27.67100752 </i>
    <i name="pawpsdc">    862.58532152 </i>
    <i name="pawaedc">   -863.96441141 </i>
    <i name="eentropy">     -0.00000000 </i>
    <i name="bandstr">    -91.07167656 </i>
    <i name="atom">    294.29778662 </i>
    <i name="e_fr_energy">    -18.41309312 </i>
    <i name="e_wo_entrp">    -18.41309312 </i>
    <i name="e_0_energy">    -18.41309312 </i>
   </energy>
  </scstep>
  <structure>
   <crystal>
    <varray name="basis" >
     <v>       2.43042400      -0.03730600       0.00000000 </v>
     <v>      -1.24752000       2.15577000       0.00000000 </v>
     <v>       0.00000000       0.00000000      15.00000000 </v>
    </varray>
    <i name="volume">     77.89342748 </i>
    <varray name="rec_basis" >
     <v>       0.41513836       0.24023593       0.00000000 </v>
     <v>       0.00718405       0.46802871       0.00000000 </v>
     <v>       0.00000000       0.00000000       0.06666667 </v>
    </varray>
   </crystal>
   <varray name="positions" >
    <v>       0.00145194       0.00068280       0.50000000 </v>
    <v>       0.33188106       0.66598420       0.50000000 </v>
   </varray>
  </structure>
  <varray name="forces" >
   <v>       0.12251870       0.05194343       0.00000000 </v>
   <v>      -0.12251870      -0.05194343       0.00000000 </v>
  </varray>
  <varray name="stress" >
   <v>      38.11017746      30.48102893       0.00000000 </v>
   <v>      30.48102891       7.99305130       0.00000000 </v>
   <v>       0.00000000       0.00000000      -0.19524309 </v>
  </varray>
  <energy>
   <i name="e_fr_energy">    -18.41309312 </i>
   <i name="e_wo_entrp">    -18.41309312 </i>
   <i name="e_0_energy">     -0.00000000 </i>
  </energy>
  <time name="totalsc">   22.08   22.12</time>
  <eigenvalues>
   <array>
    <dimension dim="1">band</dimension>
    <dimension dim="2">kpoint</dimension>
    <dimension dim="3">spin</dimension>
    <field>eigene</field>
    <field>occ</field>
    <set>
     <set comment="spin 1">
      <set comment="kpoint 1">
       <r>  -21.8565    1.0000 </r>
       <r>   -9.9307    1.0000 </r>
       <r>   -5.3393    1.0000 </r>
       <r>   -5.0383    1.0000 </r>
       <r>    1.0204    0.0000 </r>
       <r>    1.9332    0.0000 </r>
       <r>    2.4268    0.0000 </r>
       <r>    4.3575    0.0000 </r>
       <r>    5.0993    0.0000 </r>
       <r>    6.0209    0.0000 </r>
       <r>    6.4613    0.0000 </r>
       <r>    8.2399    0.0000 </r>
      </set>
      <set comment="kpoint 2">
       <r>  -21.8168    1.0000 </r>
       <r>   -9.8831    1.0000 </r>
       <r>   -5.4322    1.0000 </r>
       <r>   -5.1862    1.0000 </r>
       <r>    1.0744    0.0000 </r>
       <r>    1.9876    0.0000 </r>
       <r>    2.4818    0.0000 </r>
       <r>    4.4116    0.0000 </r>
       <r>    5.1525    0.0000 </r>
       <r>    6.2000    0.0000 </r>
       <r>    6.4332    0.0000 </r>
       <r>    8.2923    0.0000 </r>
      </set>
      <set comment="kpoint 3">
       <r>  -21.6979    1.0000 </r>
       <r>   -9.7405    1.0000 </r>
       <r>   -5.6922    1.0000 </r>
       <r>   -5.6123    1.0000 </r>
       <r>    1.2363    0.0000 </r>
       <r>    2.1506    0.0000 </r>
       <r>    2.6465    0.0000 </r>
       <r>    4.5737    0.0000 </r>
       <r>    5.3114    0.0000 </r>
       <r>    6.3398    0.0000 </r>
       <r>    6.7250    0.0000 </r>
       <r>    8.4490    0.0000 </r>
      </set>
      <set comment="kpoint 4">
       <r>  -21.5000    1.0000 </r>
       <r>   -9.5037    1.0000 </r>
       <r>   -6.2730    1.0000 </r>
       <r>   -6.0715    1.0000 </r>
       <r>    1.5060    0.0000 </r>
       <r>    2.4221    0.0000 </r>
       <r>    2.9211    0.0000 </r>
       <r>    4.8436    0.0000 </r>
       <r>    5.5715    0.0000 </r>
       <r>    6.1968    0.0000 </r>
       <r>    7.5359    0.0000 </r>
       <r>    8.3598    0.0000 </r>
      </set>
      <set comment="kpoint 5">
       <r>  -21.2236    1.0000 </r>
       <r>   -9.1742    1.0000 </r>
       <r>   -7.1096    1.0000 </r>
       <r>   -6.5198    1.0000 </r>
       <r>    1.8834    0.0000 </r>
       <r>    2.8017    0.0000 </r>
       <r>    3.3054    0.0000 </r>
       <r>    5.2207    0.0000 </r>
       <r>    5.8531    0.0000 </r>
       <r>    6.0895    0.0000 </r>
       <r>    7.5701    0.0000 </r>
       <r>    8.5803    0.0000 </r>
      </set>
      <set comment="kpoint 6">
       <r>  -20.8695    1.0000 </r>
       <r>   -8.7543    1.0000 </r>
       <r>   -8.0684    1.0000 </r>
       <r>   -6.9906    1.0000 </r>
       <r>    2.3680    0.0000 </r>
       <r>    3.2885    0.0000 </r>
       <r>    3.7992    0.0000 </r>
       <r>    5.7024    0.0000 </r>
       <r>    5.7185    0.0000 </r>
       <r>    6.4765    0.0000 </r>
       <r>    6.6392    0.0000 </r>
       <r>    9.5393    0.0000 </r>
      </set>
      <set comment="kpoint 7">
       <r>  -20.4385    1.0000 </r>
       <r>   -9.1034    1.0000 </r>
       <r>   -8.2476    1.0000 </r>
       <r>   -7.4498    1.0000 </r>
       <r>    2.9593    0.0000 </r>
       <r>    3.8792    0.0000 </r>
       <r>    4.4016    0.0000 </r>
       <r>    5.4888    0.0000 </r>
       <r>    5.5922    0.0000 </r>
       <r>    6.3050    0.0000 </r>
       <r>    7.0593    0.0000 </r>
       <r>   10.1002    0.0000 </r>
      </set>
      <set comment="kpoint 8">
       <r>  -19.9320    1.0000 </r>
       <r>  -10.1777    1.0000 </r>
       <r>   -7.8732    1.0000 </r>
       <r>   -7.6596    1.0000 </r>
       <r>    3.6556    0.0000 </r>
       <r>    4.3872    0.0000 </r>
       <r>    4.6827    0.0000 </r>
       <r>    5.0917    0.0000 </r>
       <r>    5.2854    0.0000 </r>
       <r>    6.9958    0.0000 </r>
       <r>    7.7558    0.0000 </r>
       <r>   10.7506    0.0000 </r>
      </set>
      <set comment="kpoint 9">
       <r>  -19.3519    1.0000 </r>
       <r>  -11.2634    1.0000 </r>
       <r>   -8.2444    1.0000 </r>
       <r>   -6.9993    1.0000 </r>
       <r>    3.3294    0.0000 </r>
       <r>    4.4469    0.0000 </r>
       <r>    5.0571    0.0000 </r>
       <r>    5.4095    0.0000 </r>
       <r>    5.9485    0.0000 </r>
       <r>    7.7930    0.0000 </r>
       <r>    8.5601    0.0000 </r>
       <r>   11.4755    0.0000 </r>
      </set>
      <set comment="kpoint 10">
       <r>  -18.7002    1.0000 </r>
       <r>  -12.3389    1.0000 </r>
       <r>   -8.5520    1.0000 </r>
       <r>   -6.2828    1.0000 </r>
       <r>    2.2041    0.0000 </r>
       <r>    4.8375    0.0000 </r>
       <r>    5.4025    0.0000 </r>
       <r>    6.3162    0.0000 </r>
       <r>    6.8784    0.0000 </r>
       <r>    8.6889    0.0000 </r>
       <r>    9.4699    0.0000 </r>
       <r>   12.2341    0.0000 </r>
      </set>
      <set comment="kpoint 11">
       <r>  -17.9810    1.0000 </r>
       <r>  -13.3866    1.0000 </r>
       <r>   -8.7882    1.0000 </r>
       <r>   -5.5420    1.0000 </r>
       <r>    1.1371    0.0000 </r>
       <r>    4.7168    0.0000 </r>
       <r>    6.3989    0.0000 </r>
       <r>    7.3251    0.0000 </r>
       <r>    7.9193    0.0000 </r>
       <r>    9.6746    0.0000 </r>
       <r>   10.4825    0.0000 </r>
       <r>   12.6892    0.0000 </r>
      </set>
      <set comment="kpoint 12">
       <r>  -17.2021    1.0000 </r>
       <r>  -14.3892    1.0000 </r>
       <r>   -8.9482    1.0000 </r>
       <r>   -4.8495    1.0000 </r>
       <r>    0.2183    0.0000 </r>
       <r>    4.6262    0.0000 </r>
       <r>    7.5078    0.0000 </r>
       <r>    8.4266    0.0000 </r>
       <r>    9.0688    0.0000 </r>
       <r>   10.7186    0.0000 </r>
       <r>   11.3486    0.0000 </r>
       <r>   11.5968    0.0000 </r>
      </set>
      <set comment="kpoint 13">
       <r>  -16.4068    1.0000 </r>
       <r>  -15.2977    1.0000 </r>
       <r>   -9.0289    1.0000 </r>
       <r>   -4.3751    1.0000 </r>
       <r>   -0.3717    0.0000 </r>
       <r>    4.5797    0.0000 </r>
       <r>    8.7114    0.0000 </r>
       <r>    9.5949    0.0000 </r>
       <r>   10.0038    0.0000 </r>
       <r>   10.3269    0.0000 </r>
       <r>   10.8566    0.0000 </r>
       <r>   11.6878    0.0000 </r>
      </set>
      <set comment="kpoint 14">
       <r>  -21.8156    1.0000 </r>
       <r>   -9.8816    1.0000 </r>
       <r>   -5.4873    1.0000 </r>
       <r>   -5.1526    1.0000 </r>
       <r>    1.0759    0.0000 </r>
       <r>    1.9894    0.0000 </r>
       <r>    2.4835    0.0000 </r>
       <r>    4.4134    0.0000 </r>
       <r>    5.1532    0.0000 </r>
       <r>    6.1088    0.0000 </r>
       <r>    6.6019    0.0000 </r>
       <r>    8.2940    0.0000 </r>
      </set>
      <set comment="kpoint 15">
       <r>  -21.7345    1.0000 </r>
       <r>   -9.7843    1.0000 </r>
       <r>   -5.7089    1.0000 </r>
       <r>   -5.4012    1.0000 </r>
       <r>    1.1864    0.0000 </r>
       <r>    2.1005    0.0000 </r>
       <r>    2.5958    0.0000 </r>
       <r>    4.5239    0.0000 </r>
       <r>    5.2622    0.0000 </r>
       <r>    6.3744    0.0000 </r>
       <r>    6.6141    0.0000 </r>
       <r>    8.4007    0.0000 </r>
      </set>
      <set comment="kpoint 16">
       <r>  -21.5742    1.0000 </r>
       <r>   -9.5925    1.0000 </r>
       <r>   -6.1446    1.0000 </r>
       <r>   -5.8326    1.0000 </r>
       <r>    1.4047    0.0000 </r>
       <r>    2.3202    0.0000 </r>
       <r>    2.8180    0.0000 </r>
       <r>    4.7423    0.0000 </r>
       <r>    5.4763    0.0000 </r>
       <r>    6.3929    0.0000 </r>
       <r>    7.1152    0.0000 </r>
       <r>    8.5580    0.0000 </r>
      </set>
      <set comment="kpoint 17">
       <r>  -21.3353    1.0000 </r>
       <r>   -9.3073    1.0000 </r>
       <r>   -6.8080    1.0000 </r>
       <r>   -6.3343    1.0000 </r>
       <r>    1.7308    0.0000 </r>
       <r>    2.6483    0.0000 </r>
       <r>    3.1500    0.0000 </r>
       <r>    5.0683    0.0000 </r>
       <r>    5.7850    0.0000 </r>
       <r>    6.2542    0.0000 </r>
       <r>    7.8726    0.0000 </r>
       <r>    7.9786    0.0000 </r>
      </set>
      <set comment="kpoint 18">
       <r>  -21.0183    1.0000 </r>
       <r>   -8.9305    1.0000 </r>
       <r>   -7.6604    1.0000 </r>
       <r>   -6.8406    1.0000 </r>
       <r>    2.1644    0.0000 </r>
       <r>    3.0840    0.0000 </r>
       <r>    3.5917    0.0000 </r>
       <r>    5.5008    0.0000 </r>
       <r>    5.9623    0.0000 </r>
       <r>    6.3030    0.0000 </r>
       <r>    7.0149    0.0000 </r>
       <r>    9.3435    0.0000 </r>
      </set>
      <set comment="kpoint 19">
       <r>  -20.6240    1.0000 </r>
       <r>   -8.6325    1.0000 </r>
       <r>   -8.4651    1.0000 </r>
       <r>   -7.3312    1.0000 </r>
       <r>    2.7050    0.0000 </r>
       <r>    3.6259    0.0000 </r>
       <r>    4.1427    0.0000 </r>
       <r>    5.7670    0.0000 </r>
       <r>    5.9825    0.0000 </r>
       <r>    6.0940    0.0000 </r>
       <r>    6.8086    0.0000 </r>
       <r>    9.8569    0.0000 </r>
      </set>
      <set comment="kpoint 20">
       <r>  -20.1536    1.0000 </r>
       <r>   -9.6723    1.0000 </r>
       <r>   -7.9154    1.0000 </r>
       <r>   -7.7873    1.0000 </r>
       <r>    3.3518    0.0000 </r>
       <r>    4.2618    0.0000 </r>
       <r>    4.8009    0.0000 </r>
       <r>    4.9806    0.0000 </r>
       <r>    5.5433    0.0000 </r>
       <r>    6.6894    0.0000 </r>
       <r>    7.4509    0.0000 </r>
       <r>   10.4622    0.0000 </r>
      </set>
      <set comment="kpoint 21">
       <r>  -19.6086    1.0000 </r>
       <r>  -10.7429    1.0000 </r>
       <r>   -8.1932    1.0000 </r>
       <r>   -7.2886    1.0000 </r>
       <r>    3.8305    0.0000 </r>
       <r>    4.1019    0.0000 </r>
       <r>    5.0533    0.0000 </r>
       <r>    5.3075    0.0000 </r>
       <r>    5.5948    0.0000 </r>
       <r>    7.4367    0.0000 </r>
       <r>    8.2037    0.0000 </r>
       <r>   11.1471    0.0000 </r>
      </set>
      <set comment="kpoint 22">
       <r>  -18.9911    1.0000 </r>
       <r>  -11.8173    1.0000 </r>
       <r>   -8.5374    1.0000 </r>
       <r>   -6.5967    1.0000 </r>
       <r>    2.7096    0.0000 </r>
       <r>    4.9126    0.0000 </r>
       <r>    5.1784    0.0000 </r>
       <r>    5.9065    0.0000 </r>
       <r>    6.4622    0.0000 </r>
       <r>    8.2841    0.0000 </r>
       <r>    9.0631    0.0000 </r>
       <r>   11.8818    0.0000 </r>
      </set>
      <set comment="kpoint 23">
       <r>  -18.3040    1.0000 </r>
       <r>  -12.8746    1.0000 </r>
       <r>   -8.8119    1.0000 </r>
       <r>   -5.8620    1.0000 </r>
       <r>    1.6143    0.0000 </r>
       <r>    4.9520    0.0000 </r>
       <r>    5.9479    0.0000 </r>
       <r>    6.8662    0.0000 </r>
       <r>    7.4504    0.0000 </r>
       <r>    9.2242    0.0000 </r>
       <r>   10.0266    0.0000 </r>
       <r>   12.5601    0.0000 </r>
      </set>
      <set comment="kpoint 24">
       <r>  -17.5526    1.0000 </r>
       <r>  -13.8973    1.0000 </r>
       <r>   -9.0110    1.0000 </r>
       <r>   -5.1325    1.0000 </r>
       <r>    0.6148    0.0000 </r>
       <r>    4.8446    0.0000 </r>
       <r>    7.0058    0.0000 </r>
       <r>    7.9215    0.0000 </r>
       <r>    8.5480    0.0000 </r>
       <r>   10.2383    0.0000 </r>
       <r>   11.0906    0.0000 </r>
       <r>   12.0149    0.0000 </r>
      </set>
      <set comment="kpoint 25">
       <r>  -16.7531    1.0000 </r>
       <r>  -14.8615    1.0000 </r>
       <r>   -9.1314    1.0000 </r>
       <r>   -4.5222    1.0000 </r>
       <r>   -0.1615    0.0000 </r>
       <r>    4.7771    0.0000 </r>
       <r>    8.1648    0.0000 </r>
       <r>    9.0559    0.0000 </r>
       <r>    9.7534    0.0000 </r>
       <r>   10.6739    0.0000 </r>
       <r>   11.1363    0.0000 </r>
       <r>   11.7297    0.0000 </r>
      </set>
      <set comment="kpoint 26">
       <r>  -16.1471    1.0000 </r>
       <r>  -15.5210    1.0000 </r>
       <r>   -9.1711    1.0000 </r>
       <r>   -4.2683    1.0000 </r>
       <r>   -0.4700    0.0000 </r>
       <r>    4.7553    0.0000 </r>
       <r>    9.3229    0.0000 </r>
       <r>    9.4480    0.0000 </r>
       <r>   10.0356    0.0000 </r>
       <r>   10.4551    0.0000 </r>
       <r>   11.0032    0.0000 </r>
       <r>   11.0666    0.0000 </r>
      </set>
      <set comment="kpoint 27">
       <r>  -16.7902    1.0000 </r>
       <r>  -14.8190    1.0000 </r>
       <r>   -9.1294    1.0000 </r>
       <r>   -4.5445    1.0000 </r>
       <r>   -0.1345    0.0000 </r>
       <r>    4.7802    0.0000 </r>
       <r>    8.1100    0.0000 </r>
       <r>    9.0031    0.0000 </r>
       <r>    9.6965    0.0000 </r>
       <r>   10.7361    0.0000 </r>
       <r>   11.1205    0.0000 </r>
       <r>   11.7497    0.0000 </r>
      </set>
      <set comment="kpoint 28">
       <r>  -17.5884    1.0000 </r>
       <r>  -13.8508    1.0000 </r>
       <r>   -9.0070    1.0000 </r>
       <r>   -5.1643    1.0000 </r>
       <r>    0.6561    0.0000 </r>
       <r>    4.8507    0.0000 </r>
       <r>    6.9555    0.0000 </r>
       <r>    7.8716    0.0000 </r>
       <r>    8.4960    0.0000 </r>
       <r>   10.1910    0.0000 </r>
       <r>   11.0401    0.0000 </r>
       <r>   12.0790    0.0000 </r>
      </set>
      <set comment="kpoint 29">
       <r>  -18.3369    1.0000 </r>
       <r>  -12.8258    1.0000 </r>
       <r>   -8.8059    1.0000 </r>
       <r>   -5.8958    1.0000 </r>
       <r>    1.6615    0.0000 </r>
       <r>    4.9604    0.0000 </r>
       <r>    5.9029    0.0000 </r>
       <r>    6.8205    0.0000 </r>
       <r>    7.4033    0.0000 </r>
       <r>    9.1795    0.0000 </r>
       <r>    9.9806    0.0000 </r>
       <r>   12.5328    0.0000 </r>
      </set>
      <set comment="kpoint 30">
       <r>  -19.0208    1.0000 </r>
       <r>  -11.7670    1.0000 </r>
       <r>   -8.5297    1.0000 </r>
       <r>   -6.6293    1.0000 </r>
       <r>    2.7589    0.0000 </r>
       <r>    4.8808    0.0000 </r>
       <r>    5.1806    0.0000 </r>
       <r>    5.8653    0.0000 </r>
       <r>    6.4202    0.0000 </r>
       <r>    8.2434    0.0000 </r>
       <r>    9.0218    0.0000 </r>
       <r>   11.8470    0.0000 </r>
      </set>
      <set comment="kpoint 31">
       <r>  -19.6351    1.0000 </r>
       <r>  -10.6921    1.0000 </r>
       <r>   -8.1837    1.0000 </r>
       <r>   -7.3187    1.0000 </r>
       <r>    3.8787    0.0000 </r>
       <r>    4.0656    0.0000 </r>
       <r>    5.0174    0.0000 </r>
       <r>    5.3175    0.0000 </r>
       <r>    5.5613    0.0000 </r>
       <r>    7.4004    0.0000 </r>
       <r>    8.1673    0.0000 </r>
       <r>   11.1139    0.0000 </r>
      </set>
      <set comment="kpoint 32">
       <r>  -20.1767    1.0000 </r>
       <r>   -9.6221    1.0000 </r>
       <r>   -7.9422    1.0000 </r>
       <r>   -7.7760    1.0000 </r>
       <r>    3.3201    0.0000 </r>
       <r>    4.2323    0.0000 </r>
       <r>    4.7689    0.0000 </r>
       <r>    5.0249    0.0000 </r>
       <r>    5.5580    0.0000 </r>
       <r>    6.6579    0.0000 </r>
       <r>    7.4195    0.0000 </r>
       <r>   10.4324    0.0000 </r>
      </set>
      <set comment="kpoint 33">
       <r>  -20.6436    1.0000 </r>
       <r>   -8.5850    1.0000 </r>
       <r>   -8.4881    1.0000 </r>
       <r>   -7.3177    1.0000 </r>
       <r>    2.6781    0.0000 </r>
       <r>    3.5992    0.0000 </r>
       <r>    4.1153    0.0000 </r>
       <r>    5.7812    0.0000 </r>
       <r>    5.9838    0.0000 </r>
       <r>    6.1085    0.0000 </r>
       <r>    6.7826    0.0000 </r>
       <r>    9.8313    0.0000 </r>
      </set>
      <set comment="kpoint 34">
       <r>  -21.0344    1.0000 </r>
       <r>   -8.9496    1.0000 </r>
       <r>   -7.6194    1.0000 </r>
       <r>   -6.8236    1.0000 </r>
       <r>    2.1424    0.0000 </r>
       <r>    3.0620    0.0000 </r>
       <r>    3.5693    0.0000 </r>
       <r>    5.4789    0.0000 </r>
       <r>    5.9683    0.0000 </r>
       <r>    6.2876    0.0000 </r>
       <r>    7.0521    0.0000 </r>
       <r>    9.3223    0.0000 </r>
      </set>
      <set comment="kpoint 35">
       <r>  -21.3479    1.0000 </r>
       <r>   -9.3223    1.0000 </r>
       <r>   -6.7804    1.0000 </r>
       <r>   -6.3097    1.0000 </r>
       <r>    1.7136    0.0000 </r>
       <r>    2.6311    0.0000 </r>
       <r>    3.1326    0.0000 </r>
       <r>    5.0512    0.0000 </r>
       <r>    5.7689    0.0000 </r>
       <r>    6.2592    0.0000 </r>
       <r>    7.9032    0.0000 </r>
       <r>    7.9754    0.0000 </r>
      </set>
      <set comment="kpoint 36">
       <r>  -21.5832    1.0000 </r>
       <r>   -9.6033    1.0000 </r>
       <r>   -6.1367    1.0000 </r>
       <r>   -5.7983    1.0000 </r>
       <r>    1.3924    0.0000 </r>
       <r>    2.3079    0.0000 </r>
       <r>    2.8056    0.0000 </r>
       <r>    4.7301    0.0000 </r>
       <r>    5.4640    0.0000 </r>
       <r>    6.3826    0.0000 </r>
       <r>    7.1254    0.0000 </r>
       <r>    8.5682    0.0000 </r>
      </set>
      <set comment="kpoint 37">
       <r>  -21.7399    1.0000 </r>
       <r>   -9.7908    1.0000 </r>
       <r>   -5.7103    1.0000 </r>
       <r>   -5.3719    1.0000 </r>
       <r>    1.1790    0.0000 </r>
       <r>    2.0931    0.0000 </r>
       <r>    2.5884    0.0000 </r>
       <r>    4.5165    0.0000 </r>
       <r>    5.2547    0.0000 </r>
       <r>    6.3305    0.0000 </r>
       <r>    6.6567    0.0000 </r>
       <r>    8.3934    0.0000 </r>
      </set>
      <set comment="kpoint 38">
       <r>  -21.8173    1.0000 </r>
       <r>   -9.8837    1.0000 </r>
       <r>   -5.4886    1.0000 </r>
       <r>   -5.1414    1.0000 </r>
       <r>    1.0735    0.0000 </r>
       <r>    1.9869    0.0000 </r>
       <r>    2.4810    0.0000 </r>
       <r>    4.4109    0.0000 </r>
       <r>    5.1507    0.0000 </r>
       <r>    6.0972    0.0000 </r>
       <r>    6.6128    0.0000 </r>
       <r>    8.2916    0.0000 </r>
      </set>
      <set comment="kpoint 39">
       <r>  -21.6929    1.0000 </r>
       <r>   -9.7346    1.0000 </r>
       <r>   -5.9482    1.0000 </r>
       <r>   -5.4323    1.0000 </r>
       <r>    1.2426    0.0000 </r>
       <r>    2.1577    0.0000 </r>
       <r>    2.6535    0.0000 </r>
       <r>    4.5807    0.0000 </r>
       <r>    5.3154    0.0000 </r>
       <r>    6.2861    0.0000 </r>
       <r>    7.0540    0.0000 </r>
       <r>    8.4549    0.0000 </r>
      </set>
      <set comment="kpoint 40">
       <r>  -21.5705    1.0000 </r>
       <r>   -9.5882    1.0000 </r>
       <r>   -6.3270    1.0000 </r>
       <r>   -5.6990    1.0000 </r>
       <r>    1.4096    0.0000 </r>
       <r>    2.3255    0.0000 </r>
       <r>    2.8233    0.0000 </r>
       <r>    4.7475    0.0000 </r>
       <r>    5.4805    0.0000 </r>
       <r>    6.4954    0.0000 </r>
       <r>    7.1771    0.0000 </r>
       <r>    8.5034    0.0000 </r>
      </set>
      <set comment="kpoint 41">
       <r>  -21.3693    1.0000 </r>
       <r>   -9.3480    1.0000 </r>
       <r>   -6.8598    1.0000 </r>
       <r>   -6.1529    1.0000 </r>
       <r>    1.6844    0.0000 </r>
       <r>    2.6017    0.0000 </r>
       <r>    3.1030    0.0000 </r>
       <r>    5.0218    0.0000 </r>
       <r>    5.7507    0.0000 </r>
       <r>    6.6207    0.0000 </r>
       <r>    7.5666    0.0000 </r>
       <r>    7.9295    0.0000 </r>
      </set>
      <set comment="kpoint 42">
       <r>  -21.0897    1.0000 </r>
       <r>   -9.0155    1.0000 </r>
       <r>   -7.5219    1.0000 </r>
       <r>   -6.7263    1.0000 </r>
       <r>    2.0670    0.0000 </r>
       <r>    2.9859    0.0000 </r>
       <r>    3.4925    0.0000 </r>
       <r>    5.4033    0.0000 </r>
       <r>    6.1131    0.0000 </r>
       <r>    6.5710    0.0000 </r>
       <r>    7.1723    0.0000 </r>
       <r>    8.2977    0.0000 </r>
      </set>
      <set comment="kpoint 43">
       <r>  -20.7326    1.0000 </r>
       <r>   -8.5930    1.0000 </r>
       <r>   -8.3212    1.0000 </r>
       <r>   -7.3170    1.0000 </r>
       <r>    2.5568    0.0000 </r>
       <r>    3.4773    0.0000 </r>
       <r>    3.9916    0.0000 </r>
       <r>    5.8905    0.0000 </r>
       <r>    6.2830    0.0000 </r>
       <r>    6.3123    0.0000 </r>
       <r>    6.6929    0.0000 </r>
       <r>    9.2568    0.0000 </r>
      </set>
      <set comment="kpoint 44">
       <r>  -20.2989    1.0000 </r>
       <r>   -9.2444    1.0000 </r>
       <r>   -8.0842    1.0000 </r>
       <r>   -7.8573    1.0000 </r>
       <r>    3.1534    0.0000 </r>
       <r>    4.0731    0.0000 </r>
       <r>    4.6000    0.0000 </r>
       <r>    5.2957    0.0000 </r>
       <r>    6.1389    0.0000 </r>
       <r>    6.4845    0.0000 </r>
       <r>    7.2560    0.0000 </r>
       <r>   10.2664    0.0000 </r>
      </set>
      <set comment="kpoint 45">
       <r>  -19.7900    1.0000 </r>
       <r>  -10.2476    1.0000 </r>
       <r>   -8.3283    1.0000 </r>
       <r>   -7.4946    1.0000 </r>
       <r>    3.8556    0.0000 </r>
       <r>    4.2205    0.0000 </r>
       <r>    4.7966    0.0000 </r>
       <r>    5.3149    0.0000 </r>
       <r>    5.9352    0.0000 </r>
       <r>    7.1802    0.0000 </r>
       <r>    7.9540    0.0000 </r>
       <r>   10.8987    0.0000 </r>
      </set>
      <set comment="kpoint 46">
       <r>  -19.2078    1.0000 </r>
       <r>  -11.2877    1.0000 </r>
       <r>   -8.7261    1.0000 </r>
       <r>   -6.8332    1.0000 </r>
       <r>    3.1392    0.0000 </r>
       <r>    4.6601    0.0000 </r>
       <r>    5.5954    0.0000 </r>
       <r>    5.7256    0.0000 </r>
       <r>    6.1594    0.0000 </r>
       <r>    7.9752    0.0000 </r>
       <r>    8.7616    0.0000 </r>
       <r>   11.5775    0.0000 </r>
      </set>
      <set comment="kpoint 47">
       <r>  -18.5548    1.0000 </r>
       <r>  -12.3328    1.0000 </r>
       <r>   -9.0482    1.0000 </r>
       <r>   -6.1160    1.0000 </r>
       <r>    2.0520    0.0000 </r>
       <r>    5.4628    0.0000 </r>
       <r>    5.6725    0.0000 </r>
       <r>    6.5030    0.0000 </r>
       <r>    7.0901    0.0000 </r>
       <r>    8.8616    0.0000 </r>
       <r>    9.6747    0.0000 </r>
       <r>   12.2087    0.0000 </r>
      </set>
      <set comment="kpoint 48">
       <r>  -17.8350    1.0000 </r>
       <r>  -13.3592    1.0000 </r>
       <r>   -9.2918    1.0000 </r>
       <r>   -5.3749    1.0000 </r>
       <r>    1.0171    0.0000 </r>
       <r>    5.4096    0.0000 </r>
       <r>    6.6085    0.0000 </r>
       <r>    7.5050    0.0000 </r>
       <r>    8.1351    0.0000 </r>
       <r>    9.8205    0.0000 </r>
       <r>   10.6896    0.0000 </r>
       <r>   12.4953    0.0000 </r>
      </set>
      <set comment="kpoint 49">
       <r>  -17.0570    1.0000 </r>
       <r>  -14.3459    1.0000 </r>
       <r>   -9.4548    1.0000 </r>
       <r>   -4.6832    1.0000 </r>
       <r>    0.1226    0.0000 </r>
       <r>    5.3233    0.0000 </r>
       <r>    7.7177    0.0000 </r>
       <r>    8.5846    0.0000 </r>
       <r>    9.2888    0.0000 </r>
       <r>   10.7713    0.0000 </r>
       <r>   11.3919    0.0000 </r>
       <r>   11.8042    0.0000 </r>
      </set>
      <set comment="kpoint 50">
       <r>  -16.2701    1.0000 </r>
       <r>  -15.2363    1.0000 </r>
       <r>   -9.5356    1.0000 </r>
       <r>   -4.2174    1.0000 </r>
       <r>   -0.4448    0.0000 </r>
       <r>    5.2799    0.0000 </r>
       <r>    8.9192    0.0000 </r>
       <r>    9.6734    0.0000 </r>
       <r>   10.0835    0.0000 </r>
       <r>   10.5502    0.0000 </r>
       <r>   10.8271    0.0000 </r>
       <r>   11.7846    0.0000 </r>
      </set>
      <set comment="kpoint 51">
       <r>  -16.3366    1.0000 </r>
       <r>  -15.1644    1.0000 </r>
       <r>   -9.5334    1.0000 </r>
       <r>   -4.2429    1.0000 </r>
       <r>   -0.4148    0.0000 </r>
       <r>    5.2829    0.0000 </r>
       <r>    8.8062    0.0000 </r>
       <r>    9.5812    0.0000 </r>
       <r>   10.2025    0.0000 </r>
       <r>   10.4325    0.0000 </r>
       <r>   10.8933    0.0000 </r>
       <r>   11.9127    0.0000 </r>
      </set>
      <set comment="kpoint 52">
       <r>  -17.1304    1.0000 </r>
       <r>  -14.2566    1.0000 </r>
       <r>   -9.4483    1.0000 </r>
       <r>   -4.7405    1.0000 </r>
       <r>    0.1932    0.0000 </r>
       <r>    5.3324    0.0000 </r>
       <r>    7.6127    0.0000 </r>
       <r>    8.4840    0.0000 </r>
       <r>    9.1798    0.0000 </r>
       <r>   10.6919    0.0000 </r>
       <r>   11.5126    0.0000 </r>
       <r>   11.7018    0.0000 </r>
      </set>
      <set comment="kpoint 53">
       <r>  -17.9036    1.0000 </r>
       <r>  -13.2646    1.0000 </r>
       <r>   -9.2810    1.0000 </r>
       <r>   -5.4418    1.0000 </r>
       <r>    1.1053    0.0000 </r>
       <r>    5.4236    0.0000 </r>
       <r>    6.5133    0.0000 </r>
       <r>    7.4102    0.0000 </r>
       <r>    8.0360    0.0000 </r>
       <r>    9.7309    0.0000 </r>
       <r>   10.5931    0.0000 </r>
       <r>   12.4913    0.0000 </r>
      </set>
      <set comment="kpoint 54">
       <r>  -18.6174    1.0000 </r>
       <r>  -12.2350    1.0000 </r>
       <r>   -9.0331    1.0000 </r>
       <r>   -6.1829    1.0000 </r>
       <r>    2.1469    0.0000 </r>
       <r>    5.4223    0.0000 </r>
       <r>    5.6461    0.0000 </r>
       <r>    6.4164    0.0000 </r>
       <r>    7.0010    0.0000 </r>
       <r>    8.7773    0.0000 </r>
       <r>    9.5875    0.0000 </r>
       <r>   12.1549    0.0000 </r>
      </set>
      <set comment="kpoint 55">
       <r>  -19.2639    1.0000 </r>
       <r>  -11.1888    1.0000 </r>
       <r>   -8.7065    1.0000 </r>
       <r>   -6.8960    1.0000 </r>
       <r>    3.2347    0.0000 </r>
       <r>    4.5829    0.0000 </r>
       <r>    5.5178    0.0000 </r>
       <r>    5.7465    0.0000 </r>
       <r>    6.0833    0.0000 </r>
       <r>    7.8988    0.0000 </r>
       <r>    8.6841    0.0000 </r>
       <r>   11.5135    0.0000 </r>
      </set>
      <set comment="kpoint 56">
       <r>  -19.8395    1.0000 </r>
       <r>  -10.1504    1.0000 </r>
       <r>   -8.3036    1.0000 </r>
       <r>   -7.5514    1.0000 </r>
       <r>    3.7874    0.0000 </r>
       <r>    4.3087    0.0000 </r>
       <r>    4.7325    0.0000 </r>
       <r>    5.2460    0.0000 </r>
       <r>    5.9617    0.0000 </r>
       <r>    7.1127    0.0000 </r>
       <r>    7.8863    0.0000 </r>
       <r>   10.8375    0.0000 </r>
      </set>
      <set comment="kpoint 57">
       <r>  -20.3415    1.0000 </r>
       <r>   -9.1539    1.0000 </r>
       <r>   -8.1340    1.0000 </r>
       <r>   -7.8257    1.0000 </r>
       <r>    3.0948    0.0000 </r>
       <r>    4.0152    0.0000 </r>
       <r>    4.5403    0.0000 </r>
       <r>    5.3809    0.0000 </r>
       <r>    6.1651    0.0000 </r>
       <r>    6.4262    0.0000 </r>
       <r>    7.1992    0.0000 </r>
       <r>   10.2120    0.0000 </r>
      </set>
      <set comment="kpoint 58">
       <r>  -20.7683    1.0000 </r>
       <r>   -8.6351    1.0000 </r>
       <r>   -8.2452    1.0000 </r>
       <r>   -7.2747    1.0000 </r>
       <r>    2.5079    0.0000 </r>
       <r>    3.4284    0.0000 </r>
       <r>    3.9419    0.0000 </r>
       <r>    5.8421    0.0000 </r>
       <r>    6.3228    0.0000 </r>
       <r>    6.3593    0.0000 </r>
       <r>    6.6571    0.0000 </r>
       <r>    9.2464    0.0000 </r>
      </set>
      <set comment="kpoint 59">
       <r>  -21.1184    1.0000 </r>
       <r>   -9.0495    1.0000 </r>
       <r>   -7.4674    1.0000 </r>
       <r>   -6.6720    1.0000 </r>
       <r>    2.0277    0.0000 </r>
       <r>    2.9467    0.0000 </r>
       <r>    3.4527    0.0000 </r>
       <r>    5.3642    0.0000 </r>
       <r>    6.0767    0.0000 </r>
       <r>    6.5793    0.0000 </r>
       <r>    7.2374    0.0000 </r>
       <r>    8.2962    0.0000 </r>
      </set>
      <set comment="kpoint 60">
       <r>  -21.3908    1.0000 </r>
       <r>   -9.3737    1.0000 </r>
       <r>   -6.8258    1.0000 </r>
       <r>   -6.0947    1.0000 </r>
       <r>    1.6550    0.0000 </r>
       <r>    2.5722    0.0000 </r>
       <r>    3.0731    0.0000 </r>
       <r>    4.9925    0.0000 </r>
       <r>    5.7213    0.0000 </r>
       <r>    6.6071    0.0000 </r>
       <r>    7.5863    0.0000 </r>
       <r>    7.9807    0.0000 </r>
      </set>
      <set comment="kpoint 61">
       <r>  -21.5849    1.0000 </r>
       <r>   -9.6054    1.0000 </r>
       <r>   -6.3085    1.0000 </r>
       <r>   -5.6497    1.0000 </r>
       <r>    1.3899    0.0000 </r>
       <r>    2.3059    0.0000 </r>
       <r>    2.8034    0.0000 </r>
       <r>    4.7279    0.0000 </r>
       <r>    5.4607    0.0000 </r>
       <r>    6.4636    0.0000 </r>
       <r>    7.2113    0.0000 </r>
       <r>    8.5260    0.0000 </r>
      </set>
      <set comment="kpoint 62">
       <r>  -21.7001    1.0000 </r>
       <r>   -9.7433    1.0000 </r>
       <r>   -5.9416    1.0000 </r>
       <r>   -5.4029    1.0000 </r>
       <r>    1.2328    0.0000 </r>
       <r>    2.1479    0.0000 </r>
       <r>    2.6436    0.0000 </r>
       <r>    4.5709    0.0000 </r>
       <r>    5.3054    0.0000 </r>
       <r>    6.2672    0.0000 </r>
       <r>    7.0732    0.0000 </r>
       <r>    8.4452    0.0000 </r>
      </set>
      <set comment="kpoint 63">
       <r>  -21.7361    1.0000 </r>
[...]
       <r>   10.1194    0.0000 </r>
       <r>   11.2086    0.0000 </r>
       <r>   11.8344    0.0000 </r>
      </set>
      <set comment="kpoint 294">
       <r>  -17.6188    1.0000 </r>
       <r>  -13.0309    1.0000 </r>
       <r>  -10.7490    1.0000 </r>
       <r>   -5.0854    1.0000 </r>
       <r>    0.6636    0.0000 </r>
       <r>    6.9415    0.0000 </r>
       <r>    7.7373    0.0000 </r>
       <r>    8.5097    0.0000 </r>
       <r>    9.4849    0.0000 </r>
       <r>    9.8374    0.0000 </r>
       <r>   11.0320    0.0000 </r>
       <r>   11.6191    0.0000 </r>
      </set>
      <set comment="kpoint 295">
       <r>  -17.6749    1.0000 </r>
       <r>  -12.5696    1.0000 </r>
       <r>  -11.2226    1.0000 </r>
       <r>   -5.1217    1.0000 </r>
       <r>    0.7891    0.0000 </r>
       <r>    6.8606    0.0000 </r>
       <r>    7.6270    0.0000 </r>
       <r>    8.4279    0.0000 </r>
       <r>    9.7059    0.0000 </r>
       <r>   10.4406    0.0000 </r>
       <r>   11.0433    0.0000 </r>
       <r>   11.5007    0.0000 </r>
      </set>
      <set comment="kpoint 296">
       <r>  -17.6589    1.0000 </r>
       <r>  -12.7697    1.0000 </r>
       <r>  -11.0137    1.0000 </r>
       <r>   -5.1134    1.0000 </r>
       <r>    0.7434    0.0000 </r>
       <r>    6.8847    0.0000 </r>
       <r>    7.6630    0.0000 </r>
       <r>    8.4525    0.0000 </r>
       <r>    9.7509    0.0000 </r>
       <r>   10.1001    0.0000 </r>
       <r>   10.9975    0.0000 </r>
       <r>   11.5421    0.0000 </r>
      </set>
      <set comment="kpoint 297">
       <r>  -17.5717    1.0000 </r>
       <r>  -13.3665    1.0000 </r>
       <r>  -10.3909    1.0000 </r>
       <r>   -5.0623    1.0000 </r>
       <r>    0.5416    0.0000 </r>
       <r>    7.0130    0.0000 </r>
       <r>    7.8385    0.0000 </r>
       <r>    8.5772    0.0000 </r>
       <r>    9.0197    0.0000 </r>
       <r>    9.9620    0.0000 </r>
       <r>   11.0972    0.0000 </r>
       <r>   11.7246    0.0000 </r>
      </set>
      <set comment="kpoint 298">
       <r>  -17.4164    1.0000 </r>
       <r>  -14.0067    1.0000 </r>
       <r>   -9.7248    1.0000 </r>
       <r>   -4.9773    1.0000 </r>
       <r>    0.2441    0.0000 </r>
       <r>    7.2345    0.0000 </r>
       <r>    7.9330    0.0000 </r>
       <r>    8.1310    0.0000 </r>
       <r>    8.8427    0.0000 </r>
       <r>   10.2994    0.0000 </r>
       <r>   11.3132    0.0000 </r>
       <r>   11.6069    0.0000 </r>
      </set>
      <set comment="kpoint 299">
       <r>  -17.2012    1.0000 </r>
       <r>  -14.6072    1.0000 </r>
       <r>   -9.1281    1.0000 </r>
       <r>   -4.8754    1.0000 </r>
       <r>   -0.0721    0.0000 </r>
       <r>    6.9589    0.0000 </r>
       <r>    7.6279    0.0000 </r>
       <r>    8.5224    0.0000 </r>
       <r>    9.1929    0.0000 </r>
       <r>   10.7097    0.0000 </r>
       <r>   10.7885    0.0000 </r>
       <r>   11.6863    0.0000 </r>
      </set>
      <set comment="kpoint 300">
       <r>  -16.9493    1.0000 </r>
       <r>  -15.1231    1.0000 </r>
       <r>   -8.6741    1.0000 </r>
       <r>   -4.7815    1.0000 </r>
       <r>   -0.3341    0.0000 </r>
       <r>    6.2933    0.0000 </r>
       <r>    8.0579    0.0000 </r>
       <r>    9.0042    0.0000 </r>
       <r>    9.6527    0.0000 </r>
       <r>    9.9968    0.0000 </r>
       <r>   10.8427    0.0000 </r>
       <r>   11.3881    0.0000 </r>
      </set>
      <set comment="kpoint 301">
       <r>  -16.7364    1.0000 </r>
       <r>  -15.4698    1.0000 </r>
       <r>   -8.4267    1.0000 </r>
       <r>   -4.7242    1.0000 </r>
       <r>   -0.4827    0.0000 </r>
       <r>    5.9323    0.0000 </r>
       <r>    8.5970    0.0000 </r>
       <r>    9.2650    0.0000 </r>
       <r>    9.5663    0.0000 </r>
       <r>   10.2274    0.0000 </r>
       <r>   10.2291    0.0000 </r>
       <r>   10.9085    0.0000 </r>
      </set>
     </set>
    </set>
   </array>
  </eigenvalues>
  <separator name="orbital magnetization" >
   <v name="MAGDIPOLOUT">      0.00000000      0.00000000      0.00000000</v>
  </separator>
  <dos>
   <i name="efermi">     -2.25477194 </i>
   <total>
    <array>
     <dimension dim="1">gridpoints</dimension>
     <dimension dim="2">spin</dimension>
     <field>energy</field>
     <field>total</field>
     <field>integrated</field>
     <set>
      <set comment="spin 1">
       <r>   -23.6334     0.0000     0.0000 </r>
       <r>   -23.5031     0.0000     0.0000 </r>
       <r>   -23.3728     0.0000     0.0000 </r>
       <r>   -23.2425     0.0000     0.0000 </r>
       <r>   -23.1122     0.0000     0.0000 </r>
       <r>   -22.9819     0.0000     0.0000 </r>
       <r>   -22.8515     0.0000     0.0000 </r>
       <r>   -22.7212     0.0000     0.0000 </r>
       <r>   -22.5909     0.0000     0.0000 </r>
       <r>   -22.4606     0.0000     0.0000 </r>
       <r>   -22.3303     0.0000     0.0000 </r>
       <r>   -22.2000     0.0000     0.0000 </r>
       <r>   -22.0697     0.0000     0.0000 </r>
       <r>   -21.9394     0.0000     0.0000 </r>
       <r>   -21.8091     0.1332     0.0174 </r>
       <r>   -21.6788     0.3367     0.0612 </r>
       <r>   -21.5485     0.3148     0.1023 </r>
       <r>   -21.4182     0.1617     0.1235 </r>
       <r>   -21.2879     0.4587     0.1833 </r>
       <r>   -21.1575     0.1539     0.2034 </r>
       <r>   -21.0272     0.4366     0.2603 </r>
       <r>   -20.8969     0.1872     0.2847 </r>
       <r>   -20.7666     0.3310     0.3278 </r>
       <r>   -20.6363     0.4028     0.3803 </r>
       <r>   -20.5060     0.1768     0.4033 </r>
       <r>   -20.3757     0.3499     0.4489 </r>
       <r>   -20.2454     0.4163     0.5032 </r>
       <r>   -20.1151     0.2597     0.5370 </r>
       <r>   -19.9848     0.1152     0.5521 </r>
       <r>   -19.8545     0.5800     0.6276 </r>
       <r>   -19.7242     0.2726     0.6632 </r>
       <r>   -19.5939     0.1989     0.6891 </r>
       <r>   -19.4635     0.2349     0.7197 </r>
       <r>   -19.3332     0.5281     0.7886 </r>
       <r>   -19.2029     0.3015     0.8279 </r>
       <r>   -19.0726     0.1312     0.8449 </r>
       <r>   -18.9423     0.3368     0.8888 </r>
       <r>   -18.8120     0.4827     0.9517 </r>
       <r>   -18.6817     0.3274     0.9944 </r>
       <r>   -18.5514     0.2525     1.0274 </r>
       <r>   -18.4211     0.1300     1.0443 </r>
       <r>   -18.2908     0.4684     1.1053 </r>
       <r>   -18.1605     0.4617     1.1655 </r>
       <r>   -18.0302     0.2644     1.2000 </r>
       <r>   -17.8998     0.2734     1.2357 </r>
       <r>   -17.7695     0.2288     1.2655 </r>
       <r>   -17.6392     0.3757     1.3145 </r>
       <r>   -17.5089     0.4438     1.3724 </r>
       <r>   -17.3786     0.3890     1.4231 </r>
       <r>   -17.2483     0.2146     1.4511 </r>
       <r>   -17.1180     0.2531     1.4840 </r>
       <r>   -16.9877     0.4220     1.5390 </r>
       <r>   -16.8574     0.4228     1.5941 </r>
       <r>   -16.7271     0.5251     1.6627 </r>
       <r>   -16.5968     0.3474     1.7080 </r>
       <r>   -16.4665     0.1944     1.7333 </r>
       <r>   -16.3362     0.3333     1.7768 </r>
       <r>   -16.2058     0.4819     1.8396 </r>
       <r>   -16.0755     0.2709     1.8749 </r>
       <r>   -15.9452     0.1311     1.8920 </r>
       <r>   -15.8149     0.1137     1.9068 </r>
       <r>   -15.6846     0.1876     1.9312 </r>
       <r>   -15.5543     0.2132     1.9590 </r>
       <r>   -15.4240     0.2989     1.9980 </r>
       <r>   -15.2937     0.3069     2.0380 </r>
       <r>   -15.1634     0.2808     2.0747 </r>
       <r>   -15.0331     0.3221     2.1167 </r>
       <r>   -14.9028     0.2870     2.1541 </r>
       <r>   -14.7725     0.4185     2.2087 </r>
       <r>   -14.6422     0.4087     2.2620 </r>
       <r>   -14.5118     0.3318     2.3052 </r>
       <r>   -14.3815     0.4217     2.3603 </r>
       <r>   -14.2512     0.5203     2.4281 </r>
       <r>   -14.1209     0.3556     2.4744 </r>
       <r>   -13.9906     0.2082     2.5015 </r>
       <r>   -13.8603     0.4043     2.5542 </r>
       <r>   -13.7300     0.3660     2.6020 </r>
       <r>   -13.5997     0.3294     2.6449 </r>
       <r>   -13.4694     0.1927     2.6700 </r>
       <r>   -13.3391     0.3884     2.7206 </r>
       <r>   -13.2088     0.3164     2.7619 </r>
       <r>   -13.0785     0.1979     2.7877 </r>
       <r>   -12.9482     0.2744     2.8236 </r>
       <r>   -12.8178     0.3031     2.8631 </r>
       <r>   -12.6875     0.4658     2.9238 </r>
       <r>   -12.5572     0.3343     2.9675 </r>
       <r>   -12.4269     0.2213     2.9963 </r>
       <r>   -12.2966     0.3620     3.0435 </r>
       <r>   -12.1663     0.4182     3.0981 </r>
       <r>   -12.0360     0.4096     3.1515 </r>
       <r>   -11.9057     0.3121     3.1922 </r>
       <r>   -11.7754     0.4071     3.2453 </r>
       <r>   -11.6451     0.3826     3.2951 </r>
       <r>   -11.5148     0.1935     3.3203 </r>
       <r>   -11.3845     0.4555     3.3797 </r>
       <r>   -11.2542     0.6002     3.4579 </r>
       <r>   -11.1238     0.3774     3.5072 </r>
       <r>   -10.9935     0.1462     3.5262 </r>
       <r>   -10.8632     0.3026     3.5657 </r>
       <r>   -10.7329     0.6236     3.6469 </r>
       <r>   -10.6026     0.5192     3.7147 </r>
       <r>   -10.4723     0.3496     3.7603 </r>
       <r>   -10.3420     0.2316     3.7905 </r>
       <r>   -10.2117     0.3917     3.8415 </r>
       <r>   -10.0814     0.7032     3.9332 </r>
       <r>    -9.9511     0.2623     3.9675 </r>
       <r>    -9.8208     0.6200     4.0483 </r>
       <r>    -9.6905     0.9294     4.1694 </r>
       <r>    -9.5602     0.7842     4.2717 </r>
       <r>    -9.4298     0.6010     4.3502 </r>
       <r>    -9.2995     0.7494     4.4479 </r>
       <r>    -9.1692     0.8032     4.5526 </r>
       <r>    -9.0389     0.9855     4.6811 </r>
       <r>    -8.9086     1.1478     4.8307 </r>
       <r>    -8.7783     0.4488     4.8893 </r>
       <r>    -8.6480     0.8484     4.9999 </r>
       <r>    -8.5177     1.1231     5.1463 </r>
       <r>    -8.3874     1.0251     5.2801 </r>
       <r>    -8.2571     0.8262     5.3878 </r>
       <r>    -8.1268     1.0187     5.5206 </r>
       <r>    -7.9965     0.7419     5.6173 </r>
       <r>    -7.8662     0.6065     5.6965 </r>
       <r>    -7.7358     0.6114     5.7762 </r>
       <r>    -7.6055     1.0286     5.9103 </r>
       <r>    -7.4752     0.6267     5.9920 </r>
       <r>    -7.3449     0.4976     6.0568 </r>
       <r>    -7.2146     0.6211     6.1377 </r>
       <r>    -7.0843     0.6936     6.2282 </r>
       <r>    -6.9540     0.7726     6.3289 </r>
       <r>    -6.8237     0.5676     6.4030 </r>
       <r>    -6.6934     0.4429     6.4607 </r>
       <r>    -6.5631     0.6450     6.5448 </r>
       <r>    -6.4328     0.5626     6.6183 </r>
       <r>    -6.3025     0.6678     6.7053 </r>
       <r>    -6.1721     0.5558     6.7778 </r>
       <r>    -6.0418     0.6044     6.8567 </r>
       <r>    -5.9115     0.3416     6.9013 </r>
       <r>    -5.7812     0.6375     6.9845 </r>
       <r>    -5.6509     0.8668     7.0975 </r>
       <r>    -5.5206     0.3772     7.1468 </r>
       <r>    -5.3903     0.4650     7.2074 </r>
       <r>    -5.2600     0.3768     7.2565 </r>
       <r>    -5.1297     0.5240     7.3248 </r>
       <r>    -4.9994     0.5940     7.4024 </r>
       <r>    -4.8691     0.4495     7.4610 </r>
       <r>    -4.7388     0.3673     7.5089 </r>
       <r>    -4.6085     0.3196     7.5505 </r>
       <r>    -4.4781     0.4318     7.6069 </r>
       <r>    -4.3478     0.6985     7.6979 </r>
       <r>    -4.2175     0.4744     7.7597 </r>
       <r>    -4.0872     0.1210     7.7756 </r>
       <r>    -3.9569     0.1405     7.7939 </r>
       <r>    -3.8266     0.2295     7.8239 </r>
       <r>    -3.6963     0.3717     7.8723 </r>
       <r>    -3.5660     0.2621     7.9065 </r>
       <r>    -3.4357     0.0052     7.9072 </r>
       <r>    -3.3054     0.1050     7.9209 </r>
       <r>    -3.1751     0.0997     7.9339 </r>
       <r>    -3.0448     0.2075     7.9610 </r>
       <r>    -2.9145     0.1017     7.9742 </r>
       <r>    -2.7841     0.0443     7.9800 </r>
       <r>    -2.6538     0.0228     7.9830 </r>
       <r>    -2.5235     0.0739     7.9926 </r>
       <r>    -2.3932     0.0567     8.0000 </r>
       <r>    -2.2629     0.0000     8.0000 </r>
       <r>    -2.1326     0.0000     8.0000 </r>
       <r>    -2.0023     0.0000     8.0000 </r>
       <r>    -1.8720     0.0490     8.0064 </r>
       <r>    -1.7417     0.0531     8.0133 </r>
       <r>    -1.6114     0.0511     8.0200 </r>
       <r>    -1.4811     0.0000     8.0200 </r>
       <r>    -1.3508     0.1036     8.0335 </r>
       <r>    -1.2205     0.1923     8.0586 </r>
       <r>    -1.0901     0.1664     8.0802 </r>
       <r>    -0.9598     0.1045     8.0939 </r>
       <r>    -0.8295     0.0466     8.1000 </r>
       <r>    -0.6992     0.5514     8.1719 </r>
       <r>    -0.5689     0.3583     8.2188 </r>
       <r>    -0.4386     0.5997     8.2971 </r>
       <r>    -0.3083     0.5448     8.3682 </r>
       <r>    -0.1780     0.3241     8.4105 </r>
       <r>    -0.0477     0.4264     8.4662 </r>
       <r>     0.0826     0.4299     8.5223 </r>
       <r>     0.2129     0.3736     8.5710 </r>
       <r>     0.3432     0.2848     8.6081 </r>
       <r>     0.4735     0.1679     8.6300 </r>
       <r>     0.6039     0.2901     8.6678 </r>
       <r>     0.7342     0.3075     8.7079 </r>
       <r>     0.8645     0.3686     8.7559 </r>
       <r>     0.9948     0.1466     8.7750 </r>
       <r>     1.1251     0.5072     8.8411 </r>
       <r>     1.2554     0.4521     8.9001 </r>
       <r>     1.3857     0.2993     8.9391 </r>
       <r>     1.5160     0.4536     8.9982 </r>
       <r>     1.6463     0.5367     9.0681 </r>
       <r>     1.7766     0.6513     9.1531 </r>
       <r>     1.9069     0.2963     9.1918 </r>
       <r>     2.0372     0.4336     9.2483 </r>
       <r>     2.1675     0.8958     9.3650 </r>
       <r>     2.2979     0.3328     9.4084 </r>
       <r>     2.4282     0.8058     9.5134 </r>
       <r>     2.5585     0.7334     9.6090 </r>
       <r>     2.6888     1.2237     9.7685 </r>
       <r>     2.8191     0.7613     9.8678 </r>
       <r>     2.9494     0.5650     9.9415 </r>
       <r>     3.0797     0.8855    10.0569 </r>
       <r>     3.2100     1.0332    10.1916 </r>
       <r>     3.3403     0.7039    10.2833 </r>
       <r>     3.4706     0.8742    10.3974 </r>
       <r>     3.6009     0.8995    10.5148 </r>
       <r>     3.7312     0.8242    10.6224 </r>
       <r>     3.8615     0.6369    10.7054 </r>
       <r>     3.9919     1.0778    10.8459 </r>
       <r>     4.1222     0.7845    10.9483 </r>
       <r>     4.2525     0.8392    11.0577 </r>
       <r>     4.3828     0.5434    11.1287 </r>
       <r>     4.5131     1.1120    11.2737 </r>
       <r>     4.6434     1.3677    11.4521 </r>
       <r>     4.7737     1.2662    11.6173 </r>
       <r>     4.9040     0.9004    11.7349 </r>
       <r>     5.0343     0.8126    11.8409 </r>
       <r>     5.1646     1.5452    12.0422 </r>
       <r>     5.2949     1.7236    12.2670 </r>
       <r>     5.4252     1.6411    12.4810 </r>
       <r>     5.5556     1.4855    12.6747 </r>
       <r>     5.6859     0.8973    12.7917 </r>
       <r>     5.8162     1.4140    12.9762 </r>
       <r>     5.9465     1.7800    13.2083 </r>
       <r>     6.0768     1.8045    13.4435 </r>
       <r>     6.2071     2.5026    13.7697 </r>
       <r>     6.3374     2.0408    14.0358 </r>
       <r>     6.4677     2.2739    14.3326 </r>
       <r>     6.5980     2.0813    14.6041 </r>
       <r>     6.7283     2.0850    14.8759 </r>
       <r>     6.8586     1.6941    15.0969 </r>
       <r>     6.9889     1.9965    15.3572 </r>
       <r>     7.1192     2.3715    15.6665 </r>
       <r>     7.2496     1.7080    15.8892 </r>
       <r>     7.3799     1.1642    16.0410 </r>
       <r>     7.5102     1.6644    16.2579 </r>
       <r>     7.6405     1.7104    16.4808 </r>
       <r>     7.7708     1.8369    16.7202 </r>
       <r>     7.9011     1.8028    16.9555 </r>
       <r>     8.0314     1.6772    17.1742 </r>
       <r>     8.1617     1.3223    17.3468 </r>
       <r>     8.2920     1.5987    17.5555 </r>
       <r>     8.4223     2.0682    17.8250 </r>
       <r>     8.5526     2.5144    18.1528 </r>
       <r>     8.6829     1.8756    18.3975 </r>
       <r>     8.8132     1.6354    18.6107 </r>
       <r>     8.9436     1.2390    18.7725 </r>
       <r>     9.0739     1.7768    19.0041 </r>
       <r>     9.2042     1.6390    19.2176 </r>
       <r>     9.3345     1.8532    19.4593 </r>
       <r>     9.4648     1.6887    19.6796 </r>
       <r>     9.5951     1.3285    19.8528 </r>
       <r>     9.7254     1.6470    20.0676 </r>
       <r>     9.8557     1.4500    20.2566 </r>
       <r>     9.9860     1.3615    20.4341 </r>
       <r>    10.1163     1.3877    20.6151 </r>
       <r>    10.2466     2.0001    20.8761 </r>
       <r>    10.3769     1.5585    21.0793 </r>
       <r>    10.5072     1.6675    21.2968 </r>
       <r>    10.6376     1.6362    21.5100 </r>
       <r>    10.7679     1.9846    21.7687 </r>
       <r>    10.8982     1.9882    22.0281 </r>
       <r>    11.0285     1.3685    22.2067 </r>
       <r>    11.1588     1.3040    22.3768 </r>
       <r>    11.2891     1.2857    22.5445 </r>
       <r>    11.4194     1.2794    22.7114 </r>
       <r>    11.5497     1.2668    22.8766 </r>
       <r>    11.6800     1.5946    23.0845 </r>
       <r>    11.8103     1.3333    23.2584 </r>
       <r>    11.9406     1.5575    23.4615 </r>
       <r>    12.0709     0.9957    23.5915 </r>
       <r>    12.2012     0.7595    23.6906 </r>
       <r>    12.3316     0.4145    23.7448 </r>
       <r>    12.4619     0.2652    23.7794 </r>
       <r>    12.5922     0.4186    23.8339 </r>
       <r>    12.7225     0.3941    23.8854 </r>
       <r>    12.8528     0.3346    23.9290 </r>
       <r>    12.9831     0.1862    23.9533 </r>
       <r>    13.1134     0.1197    23.9689 </r>
       <r>    13.2437     0.0845    23.9800 </r>
       <r>    13.3740     0.0084    23.9811 </r>
       <r>    13.5043     0.0765    23.9911 </r>
       <r>    13.6346     0.0175    23.9933 </r>
       <r>    13.7649     0.0511    24.0000 </r>
       <r>    13.8952     0.0000    24.0000 </r>
       <r>    14.0256     0.0000    24.0000 </r>
       <r>    14.1559     0.0000    24.0000 </r>
       <r>    14.2862     0.0000    24.0000 </r>
       <r>    14.4165     0.0000    24.0000 </r>
       <r>    14.5468     0.0000    24.0000 </r>
       <r>    14.6771     0.0000    24.0000 </r>
       <r>    14.8074     0.0000    24.0000 </r>
       <r>    14.9377     0.0000    24.0000 </r>
       <r>    15.0680     0.0000    24.0000 </r>
       <r>    15.1983     0.0000    24.0000 </r>
       <r>    15.3286     0.0000    24.0000 </r>
       <r>    15.4589     0.0000    24.0000 </r>
      </set>
     </set>
    </array>
   </total>
  </dos>
 </calculation>
 <structure name="finalpos" >
  <crystal>
   <varray name="basis" >
    <v>       2.43042400      -0.03730600       0.00000000 </v>
    <v>      -1.24752000       2.15577000       0.00000000 </v>
    <v>       0.00000000       0.00000000      15.00000000 </v>
   </varray>
   <i name="volume">     77.89342748 </i>
   <varray name="rec_basis" >
    <v>       0.41513836       0.24023593       0.00000000 </v>
    <v>       0.00718405       0.46802871       0.00000000 </v>
    <v>       0.00000000       0.00000000       0.06666667 </v>
   </varray>
  </crystal>
  <varray name="positions" >
   <v>       0.00145194       0.00068280       0.50000000 </v>
   <v>       0.33188106       0.66598420       0.50000000 </v>
  </varray>
 </structure>
</modeling>
