 running on   48 total cores
 distrk:  each k-point on   48 cores,    1 groups
 distr:  one band on    8 cores,    6 groups
 using from now: INCAR     
 vasp.5.4.1 24Jun15 (build Nov 20 2020 10:29:34) complex                        
  
 POSCAR found type information on POSCAR  C 
 POSCAR found :  1 types and       2 ions
 scaLAPACK will be used

 ----------------------------------------------------------------------------- 
|                                                                             |
|  ADVICE TO THIS USER RUNNING 'VASP/VAMP'   (HEAR YOUR MASTER'S VOICE ...):  |
|                                                                             |
|      You have a (more or less) 'small supercell' and for smaller cells      |
|      it is recommended  to use the reciprocal-space projection scheme!      |
|      The real space optimization is not  efficient for small cells and it   |
|      is also less accurate ...                                              |
|      Therefore set LREAL=.FALSE. in the  INCAR file                         |
|                                                                             |
 ----------------------------------------------------------------------------- 

 LDA part: xc-table for Pade appr. of Perdew
 POSCAR, INCAR and KPOINTS ok, starting setup
 FFT: planning ...
 WAVECAR not read
 entering main loop
       N       E                     dE             d eps       ncg     rms          rms(c)
DAV:   1     0.340255402278E+02    0.34026E+02   -0.37729E+03  7320   0.496E+02
DAV:   2    -0.181930749731E+02   -0.52219E+02   -0.46851E+02  9552   0.101E+02
DAV:   3    -0.197710666495E+02   -0.15780E+01   -0.15780E+01 10824   0.233E+01
DAV:   4    -0.197772142958E+02   -0.61476E-02   -0.61476E-02 10596   0.145E+00
DAV:   5    -0.197772206466E+02   -0.63508E-05   -0.63508E-05 10284   0.463E-02    0.649E+00
DAV:   6    -0.187992484637E+02    0.97797E+00   -0.95611E-01  9228   0.472E+00    0.382E+00
DAV:   7    -0.184236516920E+02    0.37560E+00   -0.12403E+00 10680   0.525E+00    0.987E-01
DAV:   8    -0.184154309664E+02    0.82207E-02   -0.10131E-02 10368   0.666E-01    0.949E-02
DAV:   9    -0.184134514179E+02    0.19795E-02   -0.13292E-03  9600   0.143E-01    0.747E-02
DAV:  10    -0.184117579916E+02    0.16934E-02   -0.27224E-03  8436   0.171E-01    0.410E-02
DAV:  11    -0.184118331248E+02   -0.75133E-04   -0.14389E-04  7896   0.518E-02    0.454E-02
DAV:  12    -0.184121707847E+02   -0.33766E-03   -0.53643E-05  8364   0.341E-02    0.108E-02
DAV:  13    -0.184129120364E+02   -0.74125E-03   -0.19908E-04  8232   0.397E-02    0.478E-03
DAV:  14    -0.184129697683E+02   -0.57732E-04   -0.11890E-06  9600   0.585E-03    0.358E-03
DAV:  15    -0.184130789870E+02   -0.10922E-03   -0.93812E-06  7932   0.957E-03    0.163E-03
DAV:  16    -0.184130904270E+02   -0.11440E-04   -0.29685E-07  8208   0.284E-03    0.116E-03
DAV:  17    -0.184130931186E+02   -0.26917E-05   -0.63556E-08  7764   0.974E-04
   1 F= -.18413093E+02 E0= -.18413093E+02  d E =-.114329E-43
