<?xml version="1.0" encoding="ISO-8859-1"?>
<modeling>
 <generator>
  <i name="program" type="string">vasp </i>
  <i name="version" type="string">5.4.1  </i>
  <i name="subversion" type="string">24Jun15 (build Nov 20 2020 10:29:34) complex                          parallel </i>
  <i name="platform" type="string">IFC91_ompi </i>
  <i name="date" type="string">2021 09 14 </i>
  <i name="time" type="string">00:23:36 </i>
 </generator>
 <incar>
  <i type="int" name="ISTART">     1</i>
  <i type="string" name="PREC">a</i>
  <i type="string" name="ALGO"> Normal</i>
  <i type="int" name="ISPIN">     1</i>
  <i type="int" name="ICHARG">     2</i>
  <i type="int" name="NELM">   250</i>
  <i type="int" name="NELMDL">    -5</i>
  <i type="int" name="NELMIN">     6</i>
  <i type="int" name="IBRION">     2</i>
  <i name="EDIFF">      0.00001000</i>
  <i name="EDIFFG">     -0.00500000</i>
  <i type="int" name="NSW">     0</i>
  <i type="int" name="ISIF">     2</i>
  <i name="ENCUT">    520.00000000</i>
  <i name="POTIM">      0.25000000</i>
  <v name="MAGMOM">      0.60000000      0.60000000</v>
  <i type="string" name="LREAL"> Auto</i>
  <i type="int" name="ISMEAR">     0</i>
  <i name="SIGMA">      0.02000000</i>
  <i type="logical" name="LWAVE"> F  </i>
  <i type="logical" name="LCHARG"> F  </i>
  <i type="logical" name="LVHAR"> F  </i>
  <v type="int" name="KPOINT_BSE">    -1     0     0     0</v>
  <i type="int" name="NELM">   250</i>
 </incar>
 <kpoints>
  <generation param="Gamma">
   <v type="int" name="divisions">      24       24        1 </v>
   <v name="usershift">      0.00000000       0.00000000       0.00000000 </v>
   <v name="genvec1">      0.04166667      -0.00000000       0.00000000 </v>
   <v name="genvec2">      0.00000000       0.04166667       0.00000000 </v>
   <v name="genvec3">      0.00000000       0.00000000       1.00000000 </v>
   <v name="shift">      0.00000000       0.00000000       0.00000000 </v>
  </generation>
  <varray name="kpointlist" >
   <v>       0.00000000       0.00000000       0.00000000 </v>
   <v>       0.04166667       0.00000000       0.00000000 </v>
   <v>       0.08333333       0.00000000       0.00000000 </v>
   <v>       0.12500000       0.00000000       0.00000000 </v>
   <v>       0.16666667       0.00000000       0.00000000 </v>
   <v>       0.20833333      -0.00000000       0.00000000 </v>
   <v>       0.25000000       0.00000000       0.00000000 </v>
   <v>       0.29166667       0.00000000       0.00000000 </v>
   <v>       0.33333333      -0.00000000       0.00000000 </v>
   <v>       0.37500000       0.00000000       0.00000000 </v>
   <v>       0.41666667       0.00000000       0.00000000 </v>
   <v>       0.45833333       0.00000000       0.00000000 </v>
   <v>       0.50000000       0.00000000       0.00000000 </v>
   <v>       0.04166667       0.04166667       0.00000000 </v>
   <v>       0.08333333       0.04166667       0.00000000 </v>
   <v>       0.12500000       0.04166667       0.00000000 </v>
   <v>       0.16666667       0.04166667       0.00000000 </v>
   <v>       0.20833333       0.04166667       0.00000000 </v>
   <v>       0.25000000       0.04166667       0.00000000 </v>
   <v>       0.29166667       0.04166667       0.00000000 </v>
   <v>       0.33333333       0.04166667       0.00000000 </v>
   <v>       0.37500000       0.04166667       0.00000000 </v>
   <v>       0.41666667       0.04166667       0.00000000 </v>
   <v>       0.45833333       0.04166667       0.00000000 </v>
   <v>       0.08333333       0.08333333       0.00000000 </v>
   <v>       0.12500000       0.08333333       0.00000000 </v>
   <v>       0.16666667       0.08333333       0.00000000 </v>
   <v>       0.20833333       0.08333333       0.00000000 </v>
   <v>       0.25000000       0.08333333       0.00000000 </v>
   <v>       0.29166667       0.08333333       0.00000000 </v>
   <v>       0.33333333       0.08333333       0.00000000 </v>
   <v>       0.37500000       0.08333333       0.00000000 </v>
   <v>       0.41666667       0.08333333       0.00000000 </v>
   <v>       0.45833333       0.08333333       0.00000000 </v>
   <v>       0.12500000       0.12500000       0.00000000 </v>
   <v>       0.16666667       0.12500000       0.00000000 </v>
   <v>       0.20833333       0.12500000       0.00000000 </v>
   <v>       0.25000000       0.12500000       0.00000000 </v>
   <v>       0.29166667       0.12500000       0.00000000 </v>
   <v>       0.33333333       0.12500000       0.00000000 </v>
   <v>       0.37500000       0.12500000       0.00000000 </v>
   <v>       0.41666667       0.12500000       0.00000000 </v>
   <v>       0.16666667       0.16666667       0.00000000 </v>
   <v>       0.20833333       0.16666667       0.00000000 </v>
   <v>       0.25000000       0.16666667       0.00000000 </v>
   <v>       0.29166667       0.16666667       0.00000000 </v>
   <v>       0.33333333       0.16666667       0.00000000 </v>
   <v>       0.37500000       0.16666667       0.00000000 </v>
   <v>       0.41666667       0.16666667       0.00000000 </v>
   <v>       0.20833333       0.20833333       0.00000000 </v>
   <v>       0.25000000       0.20833333       0.00000000 </v>
   <v>       0.29166667       0.20833333       0.00000000 </v>
   <v>       0.33333333       0.20833333       0.00000000 </v>
   <v>       0.37500000       0.20833333       0.00000000 </v>
   <v>       0.25000000       0.25000000       0.00000000 </v>
   <v>       0.29166667       0.25000000       0.00000000 </v>
   <v>       0.33333333       0.25000000       0.00000000 </v>
   <v>       0.37500000       0.25000000       0.00000000 </v>
   <v>       0.29166667       0.29166667       0.00000000 </v>
   <v>       0.33333333       0.29166667       0.00000000 </v>
   <v>       0.33333333       0.33333333       0.00000000 </v>
  </varray>
  <varray name="weights" >
   <v>       0.00173611 </v>
   <v>       0.01041667 </v>
   <v>       0.01041667 </v>
   <v>       0.01041667 </v>
   <v>       0.01041667 </v>
   <v>       0.01041667 </v>
   <v>       0.01041667 </v>
   <v>       0.01041667 </v>
   <v>       0.01041667 </v>
   <v>       0.01041667 </v>
   <v>       0.01041667 </v>
   <v>       0.01041667 </v>
   <v>       0.00520833 </v>
   <v>       0.01041667 </v>
   <v>       0.02083333 </v>
   <v>       0.02083333 </v>
   <v>       0.02083333 </v>
   <v>       0.02083333 </v>
   <v>       0.02083333 </v>
   <v>       0.02083333 </v>
   <v>       0.02083333 </v>
   <v>       0.02083333 </v>
   <v>       0.02083333 </v>
   <v>       0.02083333 </v>
   <v>       0.01041667 </v>
   <v>       0.02083333 </v>
   <v>       0.02083333 </v>
   <v>       0.02083333 </v>
   <v>       0.02083333 </v>
   <v>       0.02083333 </v>
   <v>       0.02083333 </v>
   <v>       0.02083333 </v>
   <v>       0.02083333 </v>
   <v>       0.01041667 </v>
   <v>       0.01041667 </v>
   <v>       0.02083333 </v>
   <v>       0.02083333 </v>
   <v>       0.02083333 </v>
   <v>       0.02083333 </v>
   <v>       0.02083333 </v>
   <v>       0.02083333 </v>
   <v>       0.02083333 </v>
   <v>       0.01041667 </v>
   <v>       0.02083333 </v>
   <v>       0.02083333 </v>
   <v>       0.02083333 </v>
   <v>       0.02083333 </v>
   <v>       0.02083333 </v>
   <v>       0.01041667 </v>
   <v>       0.01041667 </v>
   <v>       0.02083333 </v>
   <v>       0.02083333 </v>
   <v>       0.02083333 </v>
   <v>       0.02083333 </v>
   <v>       0.01041667 </v>
   <v>       0.02083333 </v>
   <v>       0.02083333 </v>
   <v>       0.01041667 </v>
   <v>       0.01041667 </v>
   <v>       0.02083333 </v>
   <v>       0.00347222 </v>
  </varray>
 </kpoints>
 <parameters>
  <separator name="general" >
   <i type="string" name="SYSTEM">unknown system</i>
   <i type="logical" name="LCOMPAT"> F  </i>
  </separator>
  <separator name="electronic" >
   <i type="string" name="PREC">a</i>
   <i name="ENMAX">    520.00000000</i>
   <i name="ENAUG">    644.87300000</i>
   <i name="EDIFF">      0.00001000</i>
   <i type="int" name="IALGO">    38</i>
   <i type="int" name="IWAVPR">    10</i>
   <i type="int" name="NBANDS">    12</i>
   <i name="NELECT">      8.00000000</i>
   <i type="int" name="TURBO">     0</i>
   <i type="int" name="IRESTART">     0</i>
   <i type="int" name="NREBOOT">     0</i>
   <i type="int" name="NMIN">     0</i>
   <i name="EREF">      0.00000000</i>
   <separator name="electronic smearing" >
    <i type="int" name="ISMEAR">     0</i>
    <i name="SIGMA">      0.02000000</i>
    <i name="KSPACING">      0.50000000</i>
    <i type="logical" name="KGAMMA"> T  </i>
   </separator>
   <separator name="electronic projectors" >
    <i type="logical" name="LREAL"> T  </i>
    <v name="ROPT">     -0.00025000</v>
    <i type="int" name="LMAXPAW">  -100</i>
    <i type="int" name="LMAXMIX">     2</i>
    <i type="logical" name="NLSPLINE"> F  </i>
   </separator>
   <separator name="electronic startup" >
    <i type="int" name="ISTART">     0</i>
    <i type="int" name="ICHARG">     2</i>
    <i type="int" name="INIWAV">     1</i>
   </separator>
   <separator name="electronic spin" >
    <i type="int" name="ISPIN">     1</i>
    <i type="logical" name="LNONCOLLINEAR"> F  </i>
    <v name="MAGMOM">      0.60000000      0.60000000</v>
    <i name="NUPDOWN">     -1.00000000</i>
    <i type="logical" name="LSORBIT"> F  </i>
    <v name="SAXIS">      0.00000000      0.00000000      1.00000000</v>
    <i type="logical" name="LSPIRAL"> F  </i>
    <v name="QSPIRAL">      0.00000000      0.00000000      0.00000000</v>
    <i type="logical" name="LZEROZ"> F  </i>
   </separator>
   <separator name="electronic exchange-correlation" >
    <i type="logical" name="LASPH"> F  </i>
    <i type="logical" name="LMETAGGA"> F  </i>
   </separator>
   <separator name="electronic convergence" >
    <i type="int" name="NELM">   250</i>
    <i type="int" name="NELMDL">    -5</i>
    <i type="int" name="NELMIN">     6</i>
    <i name="ENINI">    520.00000000</i>
    <separator name="electronic convergence detail" >
     <i type="logical" name="LDIAG"> T  </i>
     <i type="logical" name="LSUBROT"> F  </i>
     <i name="WEIMIN">      0.00000000</i>
     <i name="EBREAK">      0.00000021</i>
     <i name="DEPER">      0.30000000</i>
     <i type="int" name="NRMM">     4</i>
     <i name="TIME">      0.40000000</i>
    </separator>
   </separator>
   <separator name="electronic mixer" >
    <i name="AMIX">      0.40000000</i>
    <i name="BMIX">      1.00000000</i>
    <i name="AMIN">      0.10000000</i>
    <i name="AMIX_MAG">      1.60000000</i>
    <i name="BMIX_MAG">      1.00000000</i>
    <separator name="electronic mixer details" >
     <i type="int" name="IMIX">     4</i>
     <i type="logical" name="MIXFIRST"> F  </i>
     <i type="int" name="MAXMIX">   -45</i>
     <i name="WC">    100.00000000</i>
     <i type="int" name="INIMIX">     1</i>
     <i type="int" name="MIXPRE">     1</i>
     <i type="int" name="MREMOVE">     5</i>
    </separator>
   </separator>
   <separator name="electronic dipolcorrection" >
    <i type="logical" name="LDIPOL"> F  </i>
    <i type="logical" name="LMONO"> F  </i>
    <i type="int" name="IDIPOL">     0</i>
    <i name="EPSILON">      1.00000000</i>
    <v name="DIPOL">   -100.00000000   -100.00000000   -100.00000000</v>
    <i name="EFIELD">      0.00000000</i>
   </separator>
  </separator>
  <separator name="grids" >
   <i type="int" name="NGX">    18</i>
   <i type="int" name="NGY">    18</i>
   <i type="int" name="NGZ">   112</i>
   <i type="int" name="NGXF">    36</i>
   <i type="int" name="NGYF">    36</i>
   <i type="int" name="NGZF">   224</i>
   <i type="logical" name="ADDGRID"> F  </i>
  </separator>
  <separator name="ionic" >
   <i type="int" name="NSW">     0</i>
   <i type="int" name="IBRION">    -1</i>
   <i type="int" name="ISIF">     2</i>
   <i name="PSTRESS">      0.00000000</i>
   <i name="EDIFFG">     -0.00500000</i>
   <i type="int" name="NFREE">     1</i>
   <i name="POTIM">      0.25000000</i>
   <i name="SMASS">     -3.00000000</i>
   <i name="SCALEE">      1.00000000</i>
  </separator>
  <separator name="ionic md" >
   <i name="TEBEG">      0.00010000</i>
   <i name="TEEND">      0.00010000</i>
   <i type="int" name="NBLOCK">     1</i>
   <i type="int" name="KBLOCK">     1</i>
   <i type="int" name="NPACO">   256</i>
   <i name="APACO">     16.00000000</i>
  </separator>
  <separator name="symmetry" >
   <i type="int" name="ISYM">     2</i>
   <i name="SYMPREC">      0.00001000</i>
  </separator>
  <separator name="dos" >
   <i type="logical" name="LORBIT"> F  </i>
   <v name="RWIGS">     -1.00000000</v>
   <i type="int" name="NEDOS">   301</i>
   <i name="EMIN">     10.00000000</i>
   <i name="EMAX">    -10.00000000</i>
   <i name="EFERMI">      0.00000000</i>
  </separator>
  <separator name="writing" >
   <i type="int" name="NWRITE">     2</i>
   <i type="logical" name="LWAVE"> F  </i>
   <i type="logical" name="LCHARG"> F  </i>
   <i type="logical" name="LPARD"> F  </i>
   <i type="logical" name="LVTOT"> F  </i>
   <i type="logical" name="LVHAR"> F  </i>
   <i type="logical" name="LELF"> F  </i>
   <i type="logical" name="LOPTICS"> F  </i>
   <v name="STM">      0.00000000      0.00000000      0.00000000      0.00000000      0.00000000      0.00000000      0.00000000</v>
  </separator>
  <separator name="performance" >
   <i type="int" name="NPAR">     6</i>
   <i type="int" name="NSIM">     4</i>
   <i type="int" name="NBLK">    -1</i>
   <i type="logical" name="LPLANE"> T  </i>
   <i type="logical" name="LSCALAPACK"> T  </i>
   <i type="logical" name="LSCAAWARE"> F  </i>
   <i type="logical" name="LSCALU"> F  </i>
   <i type="logical" name="LASYNC"> F  </i>
   <i type="logical" name="LORBITALREAL"> F  </i>
  </separator>
  <separator name="miscellaneous" >
   <i type="int" name="IDIOT">     3</i>
   <i type="logical" name="LMUSIC"> F  </i>
   <v name="POMASS">     12.01100000</v>
   <v name="DARWINR">      0.00000000</v>
   <v name="DARWINV">      1.00000000</v>
   <i type="logical" name="LCORR"> T  </i>
  </separator>
  <i type="logical" name="GGA_COMPAT"> T  </i>
  <i type="logical" name="LBERRY"> F  </i>
  <i type="int" name="ICORELEVEL">     0</i>
  <i type="logical" name="LDAU"> F  </i>
  <i type="int" name="I_CONSTRAINED_M">     0</i>
  <separator name="electronic exchange-correlation" >
   <i type="string" name="GGA">--</i>
   <i type="int" name="VOSKOWN">     0</i>
   <i type="logical" name="LHFCALC"> F  </i>
   <i type="string" name="PRECFOCK"></i>
   <i type="logical" name="LSYMGRAD"> F  </i>
   <i type="logical" name="LHFONE"> F  </i>
   <i type="logical" name="LRHFCALC"> F  </i>
   <i type="logical" name="LTHOMAS"> F  </i>
   <i type="logical" name="LMODELHF"> F  </i>
   <i name="ENCUT4O">     -1.00000000</i>
   <i type="int" name="EXXOEP">     0</i>
   <i type="int" name="FOURORBIT">     0</i>
   <i name="AEXX">      0.00000000</i>
   <i name="HFALPHA">      0.00000000</i>
   <i name="MCALPHA">      0.00000000</i>
   <i name="ALDAX">      1.00000000</i>
   <i name="AGGAX">      1.00000000</i>
   <i name="ALDAC">      1.00000000</i>
   <i name="AGGAC">      1.00000000</i>
   <i type="int" name="NKREDX">     1</i>
   <i type="int" name="NKREDY">     1</i>
   <i type="int" name="NKREDZ">     1</i>
   <i type="logical" name="SHIFTRED"> F  </i>
   <i type="logical" name="ODDONLY"> F  </i>
   <i type="logical" name="EVENONLY"> F  </i>
   <i type="int" name="LMAXFOCK">     0</i>
   <i type="int" name="NMAXFOCKAE">     0</i>
   <i type="logical" name="LFOCKAEDFT"> F  </i>
   <i name="HFSCREEN">      0.00000000</i>
   <i name="HFSCREENC">      0.00000000</i>
   <i type="int" name="NBANDSGWLOW">     0</i>
  </separator>
  <separator name="vdW DFT" >
   <i type="logical" name="LUSE_VDW"> F  </i>
   <i name="Zab_VDW">     -0.84910000</i>
   <i name="PARAM1">      0.12340000</i>
   <i name="PARAM2">      1.00000000</i>
   <i name="PARAM3">      0.00000000</i>
  </separator>
  <separator name="model GW" >
   <i type="int" name="MODEL_GW">     0</i>
   <i name="MODEL_EPS0">     22.55075988</i>
   <i name="MODEL_ALPHA">      1.00000000</i>
  </separator>
  <separator name="linear response parameters" >
   <i type="logical" name="LEPSILON"> F  </i>
   <i type="logical" name="LRPA"> F  </i>
   <i type="logical" name="LNABLA"> F  </i>
   <i type="logical" name="LVEL"> F  </i>
   <i type="int" name="KINTER">     0</i>
   <i name="CSHIFT">      0.10000000</i>
   <i name="OMEGAMAX">     -1.00000000</i>
   <i name="DEG_THRESHOLD">      0.00200000</i>
  </separator>
  <separator name="orbital magnetization" >
   <i type="logical" name="NUCIND"> F  </i>
   <v name="MAGPOS">      0.00000000      0.00000000      0.00000000</v>
   <i type="logical" name="LNICSALL"> T  </i>
   <i type="logical" name="ORBITALMAG"> F  </i>
   <i type="logical" name="LMAGBLOCH"> F  </i>
   <i type="logical" name="LCHIMAG"> F  </i>
   <i type="logical" name="LGAUGE"> T  </i>
   <i type="int" name="MAGATOM">     0</i>
   <v name="MAGDIPOL">      0.00000000      0.00000000      0.00000000</v>
   <v name="AVECCONST">      0.00000000      0.00000000      0.00000000</v>
  </separator>
  <separator name="response functions" >
   <i type="logical" name="LADDER"> F  </i>
   <i type="logical" name="LFXC"> F  </i>
   <i type="logical" name="LHARTREE"> T  </i>
   <i type="int" name="IBSE">     0</i>
   <v type="int" name="KPOINT">    -1     0     0     0</v>
   <i type="logical" name="LTCTE"> F  </i>
   <i type="logical" name="LTETE"> F  </i>
   <i type="logical" name="LTRIPLET"> F  </i>
   <i type="logical" name="LFXCEPS"> F  </i>
   <i type="logical" name="LFXHEG"> F  </i>
   <i type="int" name="NATURALO">     0</i>
   <i type="logical" name="L2ORDER"> F  </i>
   <i type="logical" name="LUSEW"> F  </i>
   <i name="ENCUTGW">     -2.00000000</i>
   <i name="ENCUTGWSOFT">     -2.00000000</i>
   <i name="ENCUTLF">     -1.00000000</i>
   <i type="int" name="LMAXMP2">    -1</i>
   <i name="SCISSOR">      0.00000000</i>
   <i type="int" name="NOMEGA">     0</i>
   <i type="int" name="NOMEGAR">     0</i>
   <i type="int" name="NBANDSGW">    -1</i>
   <i type="int" name="NBANDSO">    -1</i>
   <i type="int" name="NBANDSV">    -1</i>
   <i type="int" name="NELM">   250</i>
   <i type="int" name="NELMHF">     1</i>
   <i type="int" name="DIM">     3</i>
   <i type="int" name="ANTIRES">     0</i>
   <i name="OMEGAMAX">    -30.00000000</i>
   <i name="OMEGAMIN">    -30.00000000</i>
   <i name="OMEGATL">   -200.00000000</i>
   <i type="int" name="OMEGAGRID">     0</i>
   <i name="CSHIFT">     -0.10000000</i>
   <i type="logical" name="SELFENERGY"> F  </i>
   <i type="logical" name="LSPECTRAL"> F  </i>
   <i type="logical" name="LSPECTRALGW"> F  </i>
   <i type="logical" name="LSINGLES"> F  </i>
   <i type="logical" name="LFERMIGW"> F  </i>
   <i type="logical" name="ODDONLYGW"> F  </i>
   <i type="logical" name="EVENONLYGW"> F  </i>
   <i type="int" name="NKREDLFX">     1</i>
   <i type="int" name="NKREDLFY">     1</i>
   <i type="int" name="NKREDLFZ">     1</i>
   <i type="int" name="MAXMEM">  1800</i>
   <i type="int" name="TELESCOPE">     0</i>
   <i type="int" name="TAUPAR">     1</i>
   <i type="int" name="OMEGAPAR">    -1</i>
   <i name="LAMBDA">      1.00000000</i>
  </separator>
  <separator name="External order field" >
   <i name="OFIELD_KAPPA">      0.00000000</i>
   <v name="OFIELD_K">      0.00000000      0.00000000      0.00000000</v>
   <i name="OFIELD_Q6_NEAR">      0.00000000</i>
   <i name="OFIELD_Q6_FAR">      0.00000000</i>
   <i name="OFIELD_A">      0.00000000</i>
  </separator>
 </parameters>
 <atominfo>
  <atoms>       2 </atoms>
  <types>       1 </types>
  <array name="atoms" >
   <dimension dim="1">ion</dimension>
   <field type="string">element</field>
   <field type="int">atomtype</field>
   <set>
    <rc><c>C </c><c>   1</c></rc>
    <rc><c>C </c><c>   1</c></rc>
   </set>
  </array>
  <array name="atomtypes" >
   <dimension dim="1">type</dimension>
   <field type="int">atomspertype</field>
   <field type="string">element</field>
   <field>mass</field>
   <field>valence</field>
   <field type="string">pseudopotential</field>
   <set>
    <rc><c>   2</c><c>C </c><c>     12.01100000</c><c>      4.00000000</c><c>  PAW_PBE C 08Apr2002                   </c></rc>
   </set>
  </array>
 </atominfo>
 <structure name="initialpos" >
  <crystal>
   <varray name="basis" >
    <v>       2.40552100       0.00000000       0.00000000 </v>
    <v>      -1.20276000       2.08324100       0.00000000 </v>
    <v>       0.00000000       0.00000000      15.00000000 </v>
   </varray>
   <i name="volume">     75.16919960 </i>
   <varray name="rec_basis" >
    <v>       0.41571036       0.24001054       0.00000000 </v>
    <v>       0.00000000       0.48002127       0.00000000 </v>
    <v>       0.00000000       0.00000000       0.06666667 </v>
   </varray>
  </crystal>
  <varray name="positions" >
   <v>       0.00000000       0.00000000       0.50000000 </v>
   <v>       0.33333300       0.66666700       0.50000000 </v>
  </varray>
 </structure>
 <calculation>
  <scstep>
   <time name="dav">    0.17    0.17</time>
   <time name="total">    0.18    0.19</time>
   <energy>
    <i name="alphaZ">      4.37129656 </i>
    <i name="ewald">    893.10047918 </i>
    <i name="hartreedc">  -1107.90106248 </i>
    <i name="XCdc">     26.69999107 </i>
    <i name="pawpsdc">    217.04409276 </i>
    <i name="pawaedc">   -218.18290438 </i>
    <i name="eentropy">     -0.00033598 </i>
    <i name="bandstr">    -73.78433845 </i>
    <i name="atom">    294.29778662 </i>
    <i name="e_fr_energy">     35.64500490 </i>
    <i name="e_wo_entrp">     35.64534088 </i>
    <i name="e_0_energy">     35.64517289 </i>
   </energy>
  </scstep>
  <scstep>
   <time name="dav">    0.22    0.22</time>
   <time name="total">    0.22    0.23</time>
   <energy>
    <i name="e_fr_energy">    -18.42321356 </i>
    <i name="e_wo_entrp">    -18.42321356 </i>
    <i name="e_0_energy">    -18.42321356 </i>
   </energy>
  </scstep>
  <scstep>
   <time name="dav">    0.26    0.26</time>
   <time name="total">    0.26    0.26</time>
   <energy>
    <i name="e_fr_energy">    -19.94044857 </i>
    <i name="e_wo_entrp">    -19.94037021 </i>
    <i name="e_0_energy">    -19.94040939 </i>
   </energy>
  </scstep>
  <scstep>
   <time name="dav">    0.24    0.24</time>
   <time name="total">    0.24    0.24</time>
   <energy>
    <i name="e_fr_energy">    -19.94720836 </i>
    <i name="e_wo_entrp">    -19.94713000 </i>
    <i name="e_0_energy">    -19.94716918 </i>
   </energy>
  </scstep>
  <scstep>
   <time name="dav">    0.25    0.25</time>
   <time name="total">    0.26    0.26</time>
   <energy>
    <i name="e_fr_energy">    -19.94721781 </i>
    <i name="e_wo_entrp">    -19.94713945 </i>
    <i name="e_0_energy">    -19.94717863 </i>
   </energy>
  </scstep>
  <scstep>
   <time name="dav">    0.21    0.21</time>
   <time name="total">    0.23    0.23</time>
   <energy>
    <i name="e_fr_energy">    -18.80443731 </i>
    <i name="e_wo_entrp">    -18.80435895 </i>
    <i name="e_0_energy">    -18.80439813 </i>
   </energy>
  </scstep>
  <scstep>
   <time name="dav">    0.24    0.24</time>
   <time name="total">    0.26    0.26</time>
   <energy>
    <i name="e_fr_energy">    -18.36664702 </i>
    <i name="e_wo_entrp">    -18.36656866 </i>
    <i name="e_0_energy">    -18.36660784 </i>
   </energy>
  </scstep>
  <scstep>
   <time name="dav">    0.25    0.25</time>
   <time name="total">    0.26    0.26</time>
   <energy>
    <i name="e_fr_energy">    -18.35709168 </i>
    <i name="e_wo_entrp">    -18.35701332 </i>
    <i name="e_0_energy">    -18.35705250 </i>
   </energy>
  </scstep>
  <scstep>
   <time name="dav">    0.22    0.22</time>
   <time name="total">    0.23    0.23</time>
   <energy>
    <i name="e_fr_energy">    -18.35472601 </i>
    <i name="e_wo_entrp">    -18.35464765 </i>
    <i name="e_0_energy">    -18.35468683 </i>
   </energy>
  </scstep>
  <scstep>
   <time name="dav">    0.20    0.20</time>
   <time name="total">    0.22    0.22</time>
   <energy>
    <i name="e_fr_energy">    -18.35242796 </i>
    <i name="e_wo_entrp">    -18.35234960 </i>
    <i name="e_0_energy">    -18.35238878 </i>
   </energy>
  </scstep>
  <scstep>
   <time name="dav">    0.18    0.18</time>
   <time name="total">    0.20    0.20</time>
   <energy>
    <i name="e_fr_energy">    -18.35273035 </i>
    <i name="e_wo_entrp">    -18.35265199 </i>
    <i name="e_0_energy">    -18.35269117 </i>
   </energy>
  </scstep>
  <scstep>
   <time name="dav">    0.19    0.19</time>
   <time name="total">    0.21    0.21</time>
   <energy>
    <i name="e_fr_energy">    -18.35297480 </i>
    <i name="e_wo_entrp">    -18.35289644 </i>
    <i name="e_0_energy">    -18.35293562 </i>
   </energy>
  </scstep>
  <scstep>
   <time name="dav">    0.18    0.18</time>
   <time name="total">    0.20    0.20</time>
   <energy>
    <i name="e_fr_energy">    -18.35376977 </i>
    <i name="e_wo_entrp">    -18.35369141 </i>
    <i name="e_0_energy">    -18.35373059 </i>
   </energy>
  </scstep>
  <scstep>
   <time name="dav">    0.24    0.24</time>
   <time name="total">    0.26    0.26</time>
   <energy>
    <i name="e_fr_energy">    -18.35383076 </i>
    <i name="e_wo_entrp">    -18.35375240 </i>
    <i name="e_0_energy">    -18.35379158 </i>
   </energy>
  </scstep>
  <scstep>
   <time name="dav">    0.18    0.18</time>
   <time name="total">    0.20    0.20</time>
   <energy>
    <i name="e_fr_energy">    -18.35394036 </i>
    <i name="e_wo_entrp">    -18.35386200 </i>
    <i name="e_0_energy">    -18.35390118 </i>
   </energy>
  </scstep>
  <scstep>
   <time name="dav">    0.18    0.18</time>
   <time name="total">    0.19    0.19</time>
   <energy>
    <i name="alphaZ">      4.37129656 </i>
    <i name="ewald">    893.10047918 </i>
    <i name="hartreedc">  -1145.55526828 </i>
    <i name="XCdc">     28.00071663 </i>
    <i name="pawpsdc">    937.53959863 </i>
    <i name="pawaedc">   -938.94754085 </i>
    <i name="eentropy">     -0.00007836 </i>
    <i name="bandstr">    -91.16093872 </i>
    <i name="atom">    294.29778662 </i>
    <i name="e_fr_energy">    -18.35394858 </i>
    <i name="e_wo_entrp">    -18.35387022 </i>
    <i name="e_0_energy">    -18.35390940 </i>
   </energy>
  </scstep>
  <structure>
   <crystal>
    <varray name="basis" >
     <v>       2.40552100       0.00000000       0.00000000 </v>
     <v>      -1.20276000       2.08324100       0.00000000 </v>
     <v>       0.00000000       0.00000000      15.00000000 </v>
    </varray>
    <i name="volume">     75.16919960 </i>
    <varray name="rec_basis" >
     <v>       0.41571036       0.24001054       0.00000000 </v>
     <v>       0.00000000       0.48002127       0.00000000 </v>
     <v>       0.00000000       0.00000000       0.06666667 </v>
    </varray>
   </crystal>
   <varray name="positions" >
    <v>       0.00000000       0.00000000       0.50000000 </v>
    <v>       0.33333300       0.66666700       0.50000000 </v>
   </varray>
  </structure>
  <varray name="forces" >
   <v>       0.00000000       0.00000000       0.00000000 </v>
   <v>      -0.00000000       0.00000000       0.00000000 </v>
  </varray>
  <varray name="stress" >
   <v>      78.78442707       0.00001891       0.00000000 </v>
   <v>       0.00001891      78.78432909      -0.00000000 </v>
   <v>      -0.00000000      -0.00000000      -0.35365065 </v>
  </varray>
  <energy>
   <i name="e_fr_energy">    -18.35394858 </i>
   <i name="e_wo_entrp">    -18.35390940 </i>
   <i name="e_0_energy">     -0.00007836 </i>
  </energy>
  <time name="totalsc">    3.79    3.83</time>
  <eigenvalues>
   <array>
    <dimension dim="1">band</dimension>
    <dimension dim="2">kpoint</dimension>
    <dimension dim="3">spin</dimension>
    <field>eigene</field>
    <field>occ</field>
    <set>
     <set comment="spin 1">
      <set comment="kpoint 1">
       <r>  -22.0928    1.0000 </r>
       <r>  -10.1056    1.0000 </r>
       <r>   -4.9648    1.0000 </r>
       <r>   -4.9647    1.0000 </r>
       <r>    1.0458    0.0000 </r>
       <r>    1.9653    0.0000 </r>
       <r>    2.4665    0.0000 </r>
       <r>    4.3878    0.0000 </r>
       <r>    5.1258    0.0000 </r>
       <r>    6.8466    0.0000 </r>
       <r>    6.8467    0.0000 </r>
       <r>    8.2747    0.0000 </r>
      </set>
      <set comment="kpoint 2">
       <r>  -22.0499    1.0000 </r>
       <r>  -10.0535    1.0000 </r>
       <r>   -5.1390    1.0000 </r>
       <r>   -5.0614    1.0000 </r>
       <r>    1.1042    0.0000 </r>
       <r>    2.0245    0.0000 </r>
       <r>    2.5262    0.0000 </r>
       <r>    4.4466    0.0000 </r>
       <r>    5.1834    0.0000 </r>
       <r>    6.8745    0.0000 </r>
       <r>    7.0392    0.0000 </r>
       <r>    8.3320    0.0000 </r>
      </set>
      <set comment="kpoint 3">
       <r>  -21.9214    1.0000 </r>
       <r>   -9.8977    1.0000 </r>
       <r>   -5.6360    1.0000 </r>
       <r>   -5.3309    1.0000 </r>
       <r>    1.2797    0.0000 </r>
       <r>    2.2018    0.0000 </r>
       <r>    2.7051    0.0000 </r>
       <r>    4.6230    0.0000 </r>
       <r>    5.3560    0.0000 </r>
       <r>    6.9339    0.0000 </r>
       <r>    7.5951    0.0000 </r>
       <r>    8.5036    0.0000 </r>
      </set>
      <set comment="kpoint 4">
       <r>  -21.7076    1.0000 </r>
       <r>   -9.6390    1.0000 </r>
       <r>   -6.3920    1.0000 </r>
       <r>   -5.7237    1.0000 </r>
       <r>    1.5722    0.0000 </r>
       <r>    2.4972    0.0000 </r>
       <r>    3.0033    0.0000 </r>
       <r>    4.9166    0.0000 </r>
       <r>    5.6432    0.0000 </r>
       <r>    6.9760    0.0000 </r>
       <r>    8.4613    0.0000 </r>
       <r>    8.7827    0.0000 </r>
      </set>
      <set comment="kpoint 5">
       <r>  -21.4091    1.0000 </r>
       <r>   -9.2793    1.0000 </r>
       <r>   -7.3325    1.0000 </r>
       <r>   -6.1839    1.0000 </r>
       <r>    1.9817    0.0000 </r>
       <r>    2.9098    0.0000 </r>
       <r>    3.4208    0.0000 </r>
       <r>    5.3261    0.0000 </r>
       <r>    6.0406    0.0000 </r>
       <r>    6.9702    0.0000 </r>
       <r>    8.0810    0.0000 </r>
       <r>    9.1927    0.0000 </r>
      </set>
      <set comment="kpoint 6">
       <r>  -21.0265    1.0000 </r>
       <r>   -8.8213    1.0000 </r>
       <r>   -8.3910    1.0000 </r>
       <r>   -6.6632    1.0000 </r>
       <r>    2.5078    0.0000 </r>
       <r>    3.4382    0.0000 </r>
       <r>    3.9576    0.0000 </r>
       <r>    5.8442    0.0000 </r>
       <r>    6.5110    0.0000 </r>
       <r>    6.9500    0.0000 </r>
       <r>    6.9997    0.0000 </r>
       <r>    9.7018    0.0000 </r>
      </set>
      <set comment="kpoint 7">
       <r>  -20.5613    1.0000 </r>
       <r>   -9.5149    1.0000 </r>
       <r>   -8.2697    1.0000 </r>
       <r>   -7.1258    1.0000 </r>
       <r>    3.1500    0.0000 </r>
       <r>    4.0744    0.0000 </r>
       <r>    4.6132    0.0000 </r>
       <r>    5.7666    0.0000 </r>
       <r>    6.5351    0.0000 </r>
       <r>    6.6849    0.0000 </r>
       <r>    7.3021    0.0000 </r>
       <r>   10.3194    0.0000 </r>
      </set>
      <set comment="kpoint 8">
       <r>  -20.0148    1.0000 </r>
       <r>  -10.6654    1.0000 </r>
       <r>   -7.6317    1.0000 </r>
       <r>   -7.5466    1.0000 </r>
       <r>    3.9070    0.0000 </r>
       <r>    4.4112    0.0000 </r>
       <r>    4.9607    0.0000 </r>
       <r>    5.3862    0.0000 </r>
       <r>    6.5855    0.0000 </r>
       <r>    7.2746    0.0000 </r>
       <r>    8.0275    0.0000 </r>
       <r>   11.0388    0.0000 </r>
      </set>
      <set comment="kpoint 9">
       <r>  -19.3894    1.0000 </r>
       <r>  -11.8134    1.0000 </r>
       <r>   -7.9083    1.0000 </r>
       <r>   -6.9199    1.0000 </r>
       <r>    3.2297    0.0000 </r>
       <r>    4.7760    0.0000 </r>
       <r>    5.7647    0.0000 </r>
       <r>    6.2503    0.0000 </r>
       <r>    6.4931    0.0000 </r>
       <r>    8.1437    0.0000 </r>
       <r>    8.8933    0.0000 </r>
       <r>   11.8468    0.0000 </r>
      </set>
      <set comment="kpoint 10">
       <r>  -18.6884    1.0000 </r>
       <r>  -12.9370    1.0000 </r>
       <r>   -8.1993    1.0000 </r>
       <r>   -6.1584    1.0000 </r>
       <r>    2.0216    0.0000 </r>
       <r>    5.7397    0.0000 </r>
       <r>    6.3552    0.0000 </r>
       <r>    6.7515    0.0000 </r>
       <r>    7.3089    0.0000 </r>
       <r>    9.1239    0.0000 </r>
       <r>    9.8779    0.0000 </r>
       <r>   12.7027    0.0000 </r>
      </set>
      <set comment="kpoint 11">
       <r>  -17.9185    1.0000 </r>
       <r>  -14.0168    1.0000 </r>
       <r>   -8.4118    1.0000 </r>
       <r>   -5.3981    1.0000 </r>
       <r>    0.9248    0.0000 </r>
       <r>    6.2015    0.0000 </r>
       <r>    6.9048    0.0000 </r>
       <r>    7.8534    0.0000 </r>
       <r>    8.4362    0.0000 </r>
       <r>   10.2062    0.0000 </r>
       <r>   10.9747    0.0000 </r>
       <r>   12.2192    0.0000 </r>
      </set>
      <set comment="kpoint 12">
       <r>  -17.1019    1.0000 </r>
       <r>  -15.0223    1.0000 </r>
       <r>   -8.5411    1.0000 </r>
       <r>   -4.7591    1.0000 </r>
       <r>    0.0777    0.0000 </r>
       <r>    6.1648    0.0000 </r>
       <r>    8.0889    0.0000 </r>
       <r>    9.0601    0.0000 </r>
       <r>    9.6839    0.0000 </r>
       <r>   10.7814    0.0000 </r>
       <r>   11.3310    0.0000 </r>
       <r>   11.8131    0.0000 </r>
      </set>
      <set comment="kpoint 13">
       <r>  -16.5007    1.0000 </r>
       <r>  -15.6870    1.0000 </r>
       <r>   -8.5845    1.0000 </r>
       <r>   -4.4852    1.0000 </r>
       <r>   -0.2665    0.0000 </r>
       <r>    6.1483    0.0000 </r>
       <r>    9.3182    0.0000 </r>
       <r>    9.4642    0.0000 </r>
       <r>   10.2679    0.0000 </r>
       <r>   10.4588    0.0000 </r>
       <r>   11.0389    0.0000 </r>
       <r>   11.0607    0.0000 </r>
      </set>
      <set comment="kpoint 14">
       <r>  -21.9642    1.0000 </r>
       <r>   -9.9496    1.0000 </r>
       <r>   -5.4645    1.0000 </r>
       <r>   -5.2547    1.0000 </r>
       <r>    1.2212    0.0000 </r>
       <r>    2.1427    0.0000 </r>
       <r>    2.6454    0.0000 </r>
       <r>    4.5643    0.0000 </r>
       <r>    5.2985    0.0000 </r>
       <r>    6.9407    0.0000 </r>
       <r>    7.3892    0.0000 </r>
       <r>    8.4465    0.0000 </r>
      </set>
      <set comment="kpoint 15">
       <r>  -21.7930    1.0000 </r>
       <r>   -9.7423    1.0000 </r>
       <r>   -6.0683    1.0000 </r>
       <r>   -5.6088    1.0000 </r>
       <r>    1.4552    0.0000 </r>
       <r>    2.3791    0.0000 </r>
       <r>    2.8840    0.0000 </r>
       <r>    4.7993    0.0000 </r>
       <r>    5.5289    0.0000 </r>
       <r>    7.0409    0.0000 </r>
       <r>    8.0395    0.0000 </r>
       <r>    8.6745    0.0000 </r>
      </set>
      <set comment="kpoint 16">
       <r>  -21.5369    1.0000 </r>
       <r>   -9.4331    1.0000 </r>
       <r>   -6.8941    1.0000 </r>
       <r>   -6.0581    1.0000 </r>
       <r>    1.8064    0.0000 </r>
       <r>    2.7332    0.0000 </r>
       <r>    3.2420    0.0000 </r>
       <r>    5.1510    0.0000 </r>
       <r>    5.8735    0.0000 </r>
       <r>    7.1024    0.0000 </r>
       <r>    8.4784    0.0000 </r>
       <r>    9.0201    0.0000 </r>
      </set>
      <set comment="kpoint 17">
       <r>  -21.1964    1.0000 </r>
       <r>   -9.0241    1.0000 </r>
       <r>   -7.8762    1.0000 </r>
       <r>   -6.5454    1.0000 </r>
       <r>    2.2743    0.0000 </r>
       <r>    3.2040    0.0000 </r>
       <r>    3.7192    0.0000 </r>
       <r>    5.6171    0.0000 </r>
       <r>    6.3239    0.0000 </r>
       <r>    7.1025    0.0000 </r>
       <r>    7.4760    0.0000 </r>
       <r>    9.4726    0.0000 </r>
      </set>
      <set comment="kpoint 18">
       <r>  -20.7725    1.0000 </r>
       <r>   -8.9553    1.0000 </r>
       <r>   -8.5189    1.0000 </r>
       <r>   -7.0285    1.0000 </r>
       <r>    2.8587    0.0000 </r>
       <r>    3.7885    0.0000 </r>
       <r>    4.3155    0.0000 </r>
       <r>    6.1301    0.0000 </r>
       <r>    6.4171    0.0000 </r>
       <r>    6.7856    0.0000 </r>
       <r>    7.1446    0.0000 </r>
       <r>   10.0350    0.0000 </r>
      </set>
      <set comment="kpoint 19">
       <r>  -20.2667    1.0000 </r>
       <r>  -10.0845    1.0000 </r>
       <r>   -7.9234    1.0000 </r>
       <r>   -7.4781    1.0000 </r>
       <r>    3.5586    0.0000 </r>
       <r>    4.4517    0.0000 </r>
       <r>    5.0304    0.0000 </r>
       <r>    5.1508    0.0000 </r>
       <r>    6.8202    0.0000 </r>
       <r>    6.9237    0.0000 </r>
       <r>    7.6925    0.0000 </r>
       <r>   10.7010    0.0000 </r>
      </set>
      <set comment="kpoint 20">
       <r>  -19.6807    1.0000 </r>
       <r>  -11.2284    1.0000 </r>
       <r>   -7.8742    1.0000 </r>
       <r>   -7.2468    1.0000 </r>
       <r>    3.8198    0.0000 </r>
       <r>    4.3725    0.0000 </r>
       <r>    5.3594    0.0000 </r>
       <r>    5.8611    0.0000 </r>
       <r>    6.7124    0.0000 </r>
       <r>    7.7337    0.0000 </r>
       <r>    8.4897    0.0000 </r>
       <r>   11.4600    0.0000 </r>
      </set>
      <set comment="kpoint 21">
       <r>  -19.0174    1.0000 </r>
       <r>  -12.3610    1.0000 </r>
       <r>   -8.2035    1.0000 </r>
       <r>   -6.5063    1.0000 </r>
       <r>    2.5997    0.0000 </r>
       <r>    5.2959    0.0000 </r>
       <r>    6.2819    0.0000 </r>
       <r>    6.5614    0.0000 </r>
       <r>    6.8518    0.0000 </r>
       <r>    8.6574    0.0000 </r>
       <r>    9.4148    0.0000 </r>
       <r>   12.2851    0.0000 </r>
      </set>
      <set comment="kpoint 22">
       <r>  -18.2813    1.0000 </r>
       <r>  -13.4612    1.0000 </r>
       <r>   -8.4570    1.0000 </r>
       <r>   -5.7361    1.0000 </r>
       <r>    1.4415    0.0000 </r>
       <r>    6.2581    0.0000 </r>
       <r>    6.5604    0.0000 </r>
       <r>    7.3264    0.0000 </r>
       <r>    7.9018    0.0000 </r>
       <r>    9.6862    0.0000 </r>
       <r>   10.4556    0.0000 </r>
       <r>   13.0349    0.0000 </r>
      </set>
      <set comment="kpoint 23">
       <r>  -17.4836    1.0000 </r>
       <r>  -14.5071    1.0000 </r>
       <r>   -8.6288    1.0000 </r>
       <r>   -5.0135    1.0000 </r>
       <r>    0.4495    0.0000 </r>
       <r>    6.3744    0.0000 </r>
       <r>    7.5228    0.0000 </r>
       <r>    8.4787    0.0000 </r>
       <r>    9.0898    0.0000 </r>
       <r>   10.8007    0.0000 </r>
       <r>   11.5094    0.0000 </r>
       <r>   11.6262    0.0000 </r>
      </set>
      <set comment="kpoint 24">
       <r>  -16.6865    1.0000 </r>
       <r>  -15.4298    1.0000 </r>
       <r>   -8.7156    1.0000 </r>
       <r>   -4.5185    1.0000 </r>
       <r>   -0.1831    0.0000 </r>
       <r>    6.3445    0.0000 </r>
       <r>    8.7657    0.0000 </r>
       <r>    9.7225    0.0000 </r>
       <r>   10.1154    0.0000 </r>
       <r>   10.3994    0.0000 </r>
       <r>   11.0511    0.0000 </r>
       <r>   11.8183    0.0000 </r>
      </set>
      <set comment="kpoint 25">
       <r>  -21.5795    1.0000 </r>
       <r>   -9.4844    1.0000 </r>
       <r>   -6.6995    1.0000 </r>
       <r>   -6.0620    1.0000 </r>
       <r>    1.7480    0.0000 </r>
       <r>    2.6742    0.0000 </r>
       <r>    3.1824    0.0000 </r>
       <r>    5.0926    0.0000 </r>
       <r>    5.8180    0.0000 </r>
       <r>    7.2557    0.0000 </r>
       <r>    8.6207    0.0000 </r>
       <r>    8.6209    0.0000 </r>
      </set>
      <set comment="kpoint 26">
       <r>  -21.2814    1.0000 </r>
       <r>   -9.1258    1.0000 </r>
       <r>   -7.5114    1.0000 </r>
       <r>   -6.5945    1.0000 </r>
       <r>    2.1577    0.0000 </r>
       <r>    3.0867    0.0000 </r>
       <r>    3.6001    0.0000 </r>
       <r>    5.5021    0.0000 </r>
       <r>    6.2216    0.0000 </r>
       <r>    7.4382    0.0000 </r>
       <r>    7.7374    0.0000 </r>
       <r>    9.3541    0.0000 </r>
      </set>
      <set comment="kpoint 27">
       <r>  -20.8996    1.0000 </r>
       <r>   -8.6692    1.0000 </r>
       <r>   -8.4714    1.0000 </r>
       <r>   -7.1287    1.0000 </r>
       <r>    2.6841    0.0000 </r>
       <r>    3.6151    0.0000 </r>
       <r>    4.1371    0.0000 </r>
       <r>    6.0211    0.0000 </r>
       <r>    6.7137    0.0000 </r>
       <r>    6.7309    0.0000 </r>
       <r>    7.5126    0.0000 </r>
       <r>    9.8578    0.0000 </r>
      </set>
      <set comment="kpoint 28">
       <r>  -20.4351    1.0000 </r>
       <r>   -9.5282    1.0000 </r>
       <r>   -8.1192    1.0000 </r>
       <r>   -7.6261    1.0000 </r>
       <r>    3.3266    0.0000 </r>
       <r>    4.2521    0.0000 </r>
       <r>    4.7931    0.0000 </r>
       <r>    5.5685    0.0000 </r>
       <r>    6.6817    0.0000 </r>
       <r>    7.2405    0.0000 </r>
       <r>    7.6013    0.0000 </r>
       <r>   10.4642    0.0000 </r>
      </set>
      <set comment="kpoint 29">
       <r>  -19.8898    1.0000 </r>
       <r>  -10.6340    1.0000 </r>
       <r>   -8.0675    1.0000 </r>
       <r>   -7.4830    1.0000 </r>
       <r>    4.0841    0.0000 </r>
       <r>    4.3221    0.0000 </r>
       <r>    5.0690    0.0000 </r>
       <r>    5.5676    0.0000 </r>
       <r>    7.2864    0.0000 </r>
       <r>    7.4324    0.0000 </r>
       <r>    8.2145    0.0000 </r>
       <r>   11.1616    0.0000 </r>
      </set>
      <set comment="kpoint 30">
       <r>  -19.2659    1.0000 </r>
       <r>  -11.7523    1.0000 </r>
       <r>   -8.4410    1.0000 </r>
       <r>   -6.7727    1.0000 </r>
       <r>    3.1349    0.0000 </r>
       <r>    4.9549    0.0000 </r>
       <r>    5.9207    0.0000 </r>
       <r>    6.4571    0.0000 </r>
       <r>    7.1915    0.0000 </r>
       <r>    8.2962    0.0000 </r>
       <r>    9.0700    0.0000 </r>
       <r>   11.9212    0.0000 </r>
      </set>
      <set comment="kpoint 31">
       <r>  -18.5669    1.0000 </r>
       <r>  -12.8557    1.0000 </r>
       <r>   -8.7385    1.0000 </r>
       <r>   -6.0118    1.0000 </r>
       <r>    1.9587    0.0000 </r>
       <r>    5.9335    0.0000 </r>
       <r>    6.9050    0.0000 </r>
       <r>    7.0661    0.0000 </r>
       <r>    7.4950    0.0000 </r>
       <r>    9.2635    0.0000 </r>
       <r>   10.0509    0.0000 </r>
       <r>   12.6447    0.0000 </r>
      </set>
      <set comment="kpoint 32">
       <r>  -17.7999    1.0000 </r>
       <r>  -13.9215    1.0000 </r>
       <r>   -8.9545    1.0000 </r>
       <r>   -5.2497    1.0000 </r>
       <r>    0.8837    0.0000 </r>
       <r>    6.8748    0.0000 </r>
       <r>    7.1437    0.0000 </r>
       <r>    7.9963    0.0000 </r>
       <r>    8.6146    0.0000 </r>
       <r>   10.3159    0.0000 </r>
       <r>   11.1437    0.0000 </r>
       <r>   12.3002    0.0000 </r>
      </set>
      <set comment="kpoint 33">
       <r>  -16.9878    1.0000 </r>
       <r>  -14.9166    1.0000 </r>
       <r>   -9.0854    1.0000 </r>
       <r>   -4.6049    1.0000 </r>
       <r>    0.0450    0.0000 </r>
       <r>    6.9056    0.0000 </r>
       <r>    8.2571    0.0000 </r>
       <r>    9.1781    0.0000 </r>
       <r>    9.8608    0.0000 </r>
       <r>   10.9206    0.0000 </r>
       <r>   11.3064    0.0000 </r>
       <r>   11.9446    0.0000 </r>
      </set>
      <set comment="kpoint 34">
       <r>  -16.3928    1.0000 </r>
       <r>  -15.5730    1.0000 </r>
       <r>   -9.1292    1.0000 </r>
       <r>   -4.3262    1.0000 </r>
       <r>   -0.2993    0.0000 </r>
       <r>    6.8906    0.0000 </r>
       <r>    9.4721    0.0000 </r>
       <r>    9.6273    0.0000 </r>
       <r>   10.2524    0.0000 </r>
       <r>   10.6369    0.0000 </r>
       <r>   11.2129    0.0000 </r>
       <r>   11.2367    0.0000 </r>
      </set>
      <set comment="kpoint 35">
       <r>  -20.9419    1.0000 </r>
       <r>   -8.7194    1.0000 </r>
       <r>   -8.2427    1.0000 </r>
       <r>   -7.2325    1.0000 </r>
       <r>    2.6260    0.0000 </r>
       <r>    3.5571    0.0000 </r>
       <r>    4.0776    0.0000 </r>
       <r>    5.9688    0.0000 </r>
       <r>    6.6860    0.0000 </r>
       <r>    6.8371    0.0000 </r>
       <r>    7.8421    0.0000 </r>
       <r>    9.7972    0.0000 </r>
      </set>
      <set comment="kpoint 36">
       <r>  -20.5195    1.0000 </r>
       <r>   -9.1097    1.0000 </r>
       <r>   -8.2175    1.0000 </r>
       <r>   -7.8518    1.0000 </r>
       <r>    3.2107    0.0000 </r>
       <r>    4.1424    0.0000 </r>
       <r>    4.6744    0.0000 </r>
       <r>    5.8195    0.0000 </r>
       <r>    6.5517    0.0000 </r>
       <r>    7.2590    0.0000 </r>
       <r>    8.1138    0.0000 </r>
       <r>   10.3412    0.0000 </r>
      </set>
      <set comment="kpoint 37">
       <r>  -20.0156    1.0000 </r>
       <r>  -10.0958    1.0000 </r>
       <r>   -8.3885    1.0000 </r>
       <r>   -7.6256    1.0000 </r>
       <r>    3.9109    0.0000 </r>
       <r>    4.6689    0.0000 </r>
       <r>    4.8964    0.0000 </r>
       <r>    5.3902    0.0000 </r>
       <r>    7.2451    0.0000 </r>
       <r>    7.8746    0.0000 </r>
       <r>    8.2582    0.0000 </r>
       <r>   10.9713    0.0000 </r>
      </set>
      <set comment="kpoint 38">
       <r>  -19.4323    1.0000 </r>
       <r>  -11.1500    1.0000 </r>
       <r>   -8.8330    1.0000 </r>
       <r>   -6.9528    1.0000 </r>
       <r>    3.5665    0.0000 </r>
       <r>    4.7255    0.0000 </r>
       <r>    5.6703    0.0000 </r>
       <r>    6.2243    0.0000 </r>
       <r>    8.0341    0.0000 </r>
       <r>    8.0469    0.0000 </r>
       <r>    8.8582    0.0000 </r>
       <r>   11.6507    0.0000 </r>
      </set>
      <set comment="kpoint 39">
       <r>  -18.7726    1.0000 </r>
       <r>  -12.2255    1.0000 </r>
       <r>   -9.1884    1.0000 </r>
       <r>   -6.2149    1.0000 </r>
       <r>    2.4195    0.0000 </r>
       <r>    5.6524    0.0000 </r>
       <r>    6.5935    0.0000 </r>
       <r>    7.1742    0.0000 </r>
       <r>    7.9638    0.0000 </r>
       <r>    8.9477    0.0000 </r>
       <r>    9.7651    0.0000 </r>
       <r>   12.2696    0.0000 </r>
      </set>
      <set comment="kpoint 40">
       <r>  -18.0415    1.0000 </r>
       <r>  -13.2882    1.0000 </r>
       <r>   -9.4557    1.0000 </r>
       <r>   -5.4441    1.0000 </r>
       <r>    1.3203    0.0000 </r>
       <r>    6.6861    0.0000 </r>
       <r>    7.6194    0.0000 </r>
       <r>    7.8576    0.0000 </r>
       <r>    8.2667    0.0000 </r>
       <r>    9.9243    0.0000 </r>
       <r>   10.7979    0.0000 </r>
       <r>   12.5480    0.0000 </r>
      </set>
      <set comment="kpoint 41">
       <r>  -17.2508    1.0000 </r>
       <r>  -14.3083    1.0000 </r>
       <r>   -9.6345    1.0000 </r>
       <r>   -4.7137    1.0000 </r>
       <r>    0.3607    0.0000 </r>
       <r>    7.6960    0.0000 </r>
       <r>    7.9311    0.0000 </r>
       <r>    8.7269    0.0000 </r>
       <r>    9.4452    0.0000 </r>
       <r>   10.8823    0.0000 </r>
       <r>   11.7343    0.0000 </r>
       <r>   11.9574    0.0000 </r>
      </set>
      <set comment="kpoint 42">
       <r>  -16.4650    1.0000 </r>
       <r>  -15.2112    1.0000 </r>
       <r>   -9.7242    1.0000 </r>
       <r>   -4.2042    1.0000 </r>
       <r>   -0.2664    0.0000 </r>
       <r>    7.7366    0.0000 </r>
       <r>    9.0914    0.0000 </r>
       <r>    9.8314    0.0000 </r>
       <r>   10.4141    0.0000 </r>
       <r>   10.7517    0.0000 </r>
       <r>   11.0834    0.0000 </r>
       <r>   12.1630    0.0000 </r>
      </set>
      <set comment="kpoint 43">
       <r>  -20.0576    1.0000 </r>
       <r>   -9.8270    1.0000 </r>
       <r>   -8.5893    1.0000 </r>
       <r>   -7.6734    1.0000 </r>
       <r>    3.8531    0.0000 </r>
       <r>    4.7841    0.0000 </r>
       <r>    4.8498    0.0000 </r>
       <r>    5.3309    0.0000 </r>
       <r>    7.1807    0.0000 </r>
       <r>    7.8979    0.0000 </r>
       <r>    8.7152    0.0000 </r>
       <r>   10.9054    0.0000 </r>
      </set>
      <set comment="kpoint 44">
       <r>  -19.5157    1.0000 </r>
       <r>  -10.6736    1.0000 </r>
       <r>   -9.2172    1.0000 </r>
       <r>   -7.0435    1.0000 </r>
       <r>    3.8161    0.0000 </r>
       <r>    4.6104    0.0000 </r>
       <r>    5.5380    0.0000 </r>
       <r>    6.1062    0.0000 </r>
       <r>    7.9180    0.0000 </r>
       <r>    8.6127    0.0000 </r>
       <r>    9.0780    0.0000 </r>
       <r>   11.2009    0.0000 </r>
      </set>
      <set comment="kpoint 45">
       <r>  -18.8965    1.0000 </r>
       <r>  -11.6336    1.0000 </r>
       <r>   -9.6953    1.0000 </r>
       <r>   -6.3392    1.0000 </r>
       <r>    2.7488    0.0000 </r>
       <r>    5.4808    0.0000 </r>
       <r>    6.3986    0.0000 </r>
       <r>    6.9998    0.0000 </r>
       <r>    8.7493    0.0000 </r>
       <r>    8.9796    0.0000 </r>
       <r>    9.6233    0.0000 </r>
       <r>   12.0013    0.0000 </r>
      </set>
      <set comment="kpoint 46">
       <r>  -18.2041    1.0000 </r>
       <r>  -12.6444    1.0000 </r>
       <r>  -10.0451    1.0000 </r>
       <r>   -5.5812    1.0000 </r>
       <r>    1.6854    0.0000 </r>
       <r>    6.4616    0.0000 </r>
       <r>    7.3551    0.0000 </r>
       <r>    8.0097    0.0000 </r>
       <r>    8.9506    0.0000 </r>
       <r>    9.6416    0.0000 </r>
       <r>   10.5715    0.0000 </r>
       <r>   12.1781    0.0000 </r>
      </set>
      <set comment="kpoint 47">
       <r>  -17.4461    1.0000 </r>
       <r>  -13.6532    1.0000 </r>
       <r>  -10.2867    1.0000 </r>
       <r>   -4.8137    1.0000 </r>
       <r>    0.6860    0.0000 </r>
       <r>    7.5468    0.0000 </r>
       <r>    8.3779    0.0000 </r>
       <r>    8.8613    0.0000 </r>
       <r>    9.1594    0.0000 </r>
       <r>   10.4868    0.0000 </r>
       <r>   11.6455    0.0000 </r>
       <r>   12.1946    0.0000 </r>
      </set>
      <set comment="kpoint 48">
       <r>  -16.6472    1.0000 </r>
       <r>  -14.6108    1.0000 </r>
       <r>  -10.4294    1.0000 </r>
       <r>   -4.1484    1.0000 </r>
       <r>   -0.1243    0.0000 </r>
       <r>    8.6727    0.0000 </r>
       <r>    8.8780    0.0000 </r>
       <r>    9.3630    0.0000 </r>
       <r>   10.3907    0.0000 </r>
       <r>   11.0098    0.0000 </r>
       <r>   11.3044    0.0000 </r>
       <r>   12.4155    0.0000 </r>
      </set>
      <set comment="kpoint 49">
       <r>  -16.0694    1.0000 </r>
       <r>  -15.2426    1.0000 </r>
       <r>  -10.4767    1.0000 </r>
       <r>   -3.8508    1.0000 </r>
       <r>   -0.4713    0.0000 </r>
       <r>    8.7810    0.0000 </r>
       <r>    9.8776    0.0000 </r>
       <r>    9.9224    0.0000 </r>
       <r>   10.1097    0.0000 </r>
       <r>   11.1707    0.0000 </r>
       <r>   11.7325    0.0000 </r>
       <r>   11.7627    0.0000 </r>
      </set>
      <set comment="kpoint 50">
       <r>  -18.9380    1.0000 </r>
       <r>  -11.3218    1.0000 </r>
       <r>   -9.9827    1.0000 </r>
       <r>   -6.3810    1.0000 </r>
       <r>    2.8701    0.0000 </r>
       <r>    5.4234    0.0000 </r>
       <r>    6.3315    0.0000 </r>
       <r>    6.9408    0.0000 </r>
       <r>    8.6809    0.0000 </r>
       <r>    9.4151    0.0000 </r>
       <r>    9.8681    0.0000 </r>
       <r>   11.2514    0.0000 </r>
      </set>
      <set comment="kpoint 51">
       <r>  -18.2858    1.0000 </r>
       <r>  -12.1119    1.0000 </r>
       <r>  -10.5608    1.0000 </r>
       <r>   -5.6518    1.0000 </r>
       <r>    1.8976    0.0000 </r>
       <r>    6.3474    0.0000 </r>
       <r>    7.2163    0.0000 </r>
       <r>    7.8933    0.0000 </r>
       <r>    9.4901    0.0000 </r>
       <r>   10.0102    0.0000 </r>
       <r>   10.5109    0.0000 </r>
       <r>   11.7706    0.0000 </r>
      </set>
      <set comment="kpoint 52">
       <r>  -17.5653    1.0000 </r>
       <r>  -13.0165    1.0000 </r>
       <r>  -10.9386    1.0000 </r>
       <r>   -4.8823    1.0000 </r>
       <r>    0.9338    0.0000 </r>
       <r>    7.3779    0.0000 </r>
       <r>    8.1490    0.0000 </r>
       <r>    8.9617    0.0000 </r>
       <r>   10.0570    0.0000 </r>
       <r>   10.2130    0.0000 </r>
       <r>   11.4785    0.0000 </r>
       <r>   11.9741    0.0000 </r>
      </set>
      <set comment="kpoint 53">
       <r>  -16.7896    1.0000 </r>
       <r>  -13.9503    1.0000 </r>
       <r>  -11.1661    1.0000 </r>
       <r>   -4.1342    1.0000 </r>
       <r>    0.0491    0.0000 </r>
       <r>    8.5054    0.0000 </r>
       <r>    8.9882    0.0000 </r>
       <r>    9.9782    0.0000 </r>
       <r>   10.1714    0.0000 </r>
       <r>   10.7107    0.0000 </r>
       <r>   12.0122    0.0000 </r>
       <r>   12.4797    0.0000 </r>
      </set>
      <set comment="kpoint 54">
       <r>  -16.0254    1.0000 </r>
       <r>  -14.8023    1.0000 </r>
       <r>  -11.2743    1.0000 </r>
       <r>   -3.5829    1.0000 </r>
       <r>   -0.5729    0.0000 </r>
       <r>    9.4315    0.0000 </r>
       <r>    9.6906    0.0000 </r>
       <r>    9.9726    0.0000 </r>
       <r>   10.9710    0.0000 </r>
       <r>   11.3408    0.0000 </r>
       <r>   11.4540    0.0000 </r>
       <r>   12.8408    0.0000 </r>
      </set>
      <set comment="kpoint 55">
       <r>  -17.6052    1.0000 </r>
       <r>  -12.6641    1.0000 </r>
       <r>  -11.2989    1.0000 </r>
       <r>   -4.9066    1.0000 </r>
       <r>    1.0271    0.0000 </r>
       <r>    7.3209    0.0000 </r>
       <r>    8.0676    0.0000 </r>
       <r>    8.9035    0.0000 </r>
       <r>   10.1142    0.0000 </r>
       <r>   10.9063    0.0000 </r>
       <r>   11.4901    0.0000 </r>
       <r>   11.6913    0.0000 </r>
      </set>
      <set comment="kpoint 56">
       <r>  -16.8642    1.0000 </r>
       <r>  -13.3771    1.0000 </r>
       <r>  -11.7821    1.0000 </r>
       <r>   -4.1349    1.0000 </r>
       <r>    0.1658    0.0000 </r>
       <r>    8.3927    0.0000 </r>
       <r>    8.7725    0.0000 </r>
       <r>   10.0277    0.0000 </r>
       <r>   10.5305    0.0000 </r>
       <r>   11.1386    0.0000 </r>
       <r>   12.0211    0.0000 </r>
       <r>   12.4150    0.0000 </r>
      </set>
      <set comment="kpoint 57">
       <r>  -16.0889    1.0000 </r>
       <r>  -14.1892    1.0000 </r>
       <r>  -12.0256    1.0000 </r>
       <r>   -3.4222    1.0000 </r>
       <r>   -0.6015    0.0000 </r>
       <r>    9.0588    0.0000 </r>
       <r>    9.5419    0.0000 </r>
       <r>   11.0649    0.0000 </r>
       <r>   11.2458    0.0000 </r>
       <r>   11.2792    0.0000 </r>
       <r>   11.7675    0.0000 </r>
       <r>   13.2718    0.0000 </r>
      </set>
      <set comment="kpoint 58">
       <r>  -15.5315    1.0000 </r>
       <r>  -14.7680    1.0000 </r>
       <r>  -12.0989    1.0000 </r>
       <r>   -3.0641    1.0000 </r>
       <r>   -0.9780    0.0000 </r>
       <r>    9.0943    0.0000 </r>
       <r>   10.6191    0.0000 </r>
       <r>   10.7887    0.0000 </r>
       <r>   11.1148    0.0000 </r>
       <r>   12.0592    0.0000 </r>
       <r>   12.5824    0.0000 </r>
       <r>   12.6299    0.0000 </r>
      </set>
      <set comment="kpoint 59">
       <r>  -16.1171    1.0000 </r>
       <r>  -13.8226    1.0000 </r>
       <r>  -12.4336    1.0000 </r>
       <r>   -3.3698    1.0000 </r>
       <r>   -0.6033    0.0000 </r>
       <r>    8.9202    0.0000 </r>
       <r>    9.4861    0.0000 </r>
       <r>   11.1950    0.0000 </r>
       <r>   11.1991    0.0000 </r>
       <r>   11.8283    0.0000 </r>
       <r>   11.8926    0.0000 </r>
       <r>   13.3439    0.0000 </r>
      </set>
      <set comment="kpoint 60">
       <r>  -15.3842    1.0000 </r>
       <r>  -14.4166    1.0000 </r>
       <r>  -12.7516    1.0000 </r>
       <r>   -2.6966    1.0000 </r>
       <r>   -1.2756    0.0000 </r>
       <r>    8.8518    0.0000 </r>
       <r>   10.5965    0.0000 </r>
       <r>   11.5406    0.0000 </r>
       <r>   11.8540    0.0000 </r>
       <r>   12.2449    0.0000 </r>
       <r>   12.4969    0.0000 </r>
       <r>   13.7860    0.0000 </r>
      </set>
      <set comment="kpoint 61">
       <r>  -14.7812    1.0000 </r>
       <r>  -14.7811    1.0000 </r>
       <r>  -13.0745    1.0000 </r>
       <r>   -1.9761    0.5004 </r>
       <r>   -1.9761    0.4996 </r>
       <r>    8.7536    0.0000 </r>
       <r>   11.3945    0.0000 </r>
       <r>   11.3946    0.0000 </r>
       <r>   11.8550    0.0000 </r>
       <r>   13.2999    0.0000 </r>
       <r>   13.3093    0.0000 </r>
       <r>   13.6974    0.0000 </r>
      </set>
     </set>
    </set>
   </array>
  </eigenvalues>
  <separator name="orbital magnetization" >
   <v name="MAGDIPOLOUT">      0.00000000      0.00000000      0.00000000</v>
  </separator>
  <dos>
   <i name="efermi">     -1.97611407 </i>
   <total>
    <array>
     <dimension dim="1">gridpoints</dimension>
     <dimension dim="2">spin</dimension>
     <field>energy</field>
     <field>total</field>
     <field>integrated</field>
     <set>
      <set comment="spin 1">
       <r>   -23.8867     0.0000     0.0000 </r>
       <r>   -23.7551     0.0000     0.0000 </r>
       <r>   -23.6236     0.0000     0.0000 </r>
       <r>   -23.4920     0.0000     0.0000 </r>
       <r>   -23.3605     0.0000     0.0000 </r>
       <r>   -23.2289     0.0000     0.0000 </r>
       <r>   -23.0974     0.0000     0.0000 </r>
       <r>   -22.9658     0.0000     0.0000 </r>
       <r>   -22.8342     0.0000     0.0000 </r>
       <r>   -22.7027     0.0000     0.0000 </r>
       <r>   -22.5711     0.0000     0.0000 </r>
       <r>   -22.4396     0.0000     0.0000 </r>
       <r>   -22.3080     0.0000     0.0000 </r>
       <r>   -22.1765     0.0000     0.0000 </r>
       <r>   -22.0449     0.1273     0.0168 </r>
       <r>   -21.9134     0.3290     0.0600 </r>
       <r>   -21.7818     0.2943     0.0987 </r>
       <r>   -21.6502     0.2259     0.1285 </r>
       <r>   -21.5187     0.4436     0.1868 </r>
       <r>   -21.3871     0.1802     0.2105 </r>
       <r>   -21.2556     0.3156     0.2521 </r>
       <r>   -21.1240     0.3274     0.2951 </r>
       <r>   -20.9925     0.1571     0.3158 </r>
       <r>   -20.8609     0.4741     0.3783 </r>
       <r>   -20.7294     0.3164     0.4201 </r>
       <r>   -20.5978     0.0008     0.4202 </r>
       <r>   -20.4662     0.4787     0.4832 </r>
       <r>   -20.3347     0.3123     0.5243 </r>
       <r>   -20.2031     0.3167     0.5660 </r>
       <r>   -20.0716     0.0256     0.5693 </r>
       <r>   -19.9400     0.6079     0.6493 </r>
       <r>   -19.8085     0.3167     0.6910 </r>
       <r>   -19.6769     0.1918     0.7162 </r>
       <r>   -19.5454     0.1307     0.7334 </r>
       <r>   -19.4138     0.6042     0.8129 </r>
       <r>   -19.2822     0.2210     0.8420 </r>
       <r>   -19.1507     0.2776     0.8785 </r>
       <r>   -19.0191     0.1426     0.8972 </r>
       <r>   -18.8876     0.5658     0.9717 </r>
       <r>   -18.7560     0.3618     1.0193 </r>
       <r>   -18.6245     0.1967     1.0451 </r>
       <r>   -18.4929     0.3167     1.0868 </r>
       <r>   -18.3614     0.0000     1.0868 </r>
       <r>   -18.2298     0.6443     1.1716 </r>
       <r>   -18.0982     0.3058     1.2118 </r>
       <r>   -17.9667     0.3168     1.2535 </r>
       <r>   -17.8351     0.1603     1.2746 </r>
       <r>   -17.7036     0.3147     1.3160 </r>
       <r>   -17.5720     0.2570     1.3498 </r>
       <r>   -17.4405     0.7405     1.4474 </r>
       <r>   -17.3089     0.1092     1.4618 </r>
       <r>   -17.1774     0.3167     1.5035 </r>
       <r>   -17.0458     0.1584     1.5243 </r>
       <r>   -16.9142     0.3168     1.5660 </r>
       <r>   -16.7827     0.5344     1.6363 </r>
       <r>   -16.6511     0.5370     1.7069 </r>
       <r>   -16.5196     0.2007     1.7336 </r>
       <r>   -16.3880     0.4888     1.7979 </r>
       <r>   -16.2565     0.0582     1.8056 </r>
       <r>   -16.1249     0.0477     1.8118 </r>
       <r>   -15.9934     0.8988     1.9301 </r>
       <r>   -15.8618     0.0000     1.9306 </r>
       <r>   -15.7302     0.0001     1.9306 </r>
       <r>   -15.5987     0.0846     1.9417 </r>
       <r>   -15.4671     0.3126     1.9828 </r>
       <r>   -15.3356     0.6320     2.0660 </r>
       <r>   -15.2040     0.3779     2.1157 </r>
       <r>   -15.0725     0.0967     2.1285 </r>
       <r>   -14.9409     0.1718     2.1511 </r>
       <r>   -14.8094     0.4035     2.2042 </r>
       <r>   -14.6778     0.4804     2.2674 </r>
       <r>   -14.5462     0.3176     2.3091 </r>
       <r>   -14.4147     0.4910     2.3737 </r>
       <r>   -14.2831     0.4464     2.4325 </r>
       <r>   -14.1516     0.3273     2.4755 </r>
       <r>   -14.0200     0.0650     2.4842 </r>
       <r>   -13.8885     0.7237     2.5795 </r>
       <r>   -13.7569     0.1584     2.6007 </r>
       <r>   -13.6254     0.3090     2.6413 </r>
       <r>   -13.4938     0.0111     2.6428 </r>
       <r>   -13.3622     0.5835     2.7196 </r>
       <r>   -13.2307     0.3634     2.7674 </r>
       <r>   -13.0991     0.0021     2.7676 </r>
       <r>   -12.9676     0.3697     2.8163 </r>
       <r>   -12.8360     0.4468     2.8751 </r>
       <r>   -12.7045     0.3428     2.9202 </r>
       <r>   -12.5729     0.4747     2.9826 </r>
       <r>   -12.4414     0.0461     2.9887 </r>
       <r>   -12.3098     0.4290     3.0451 </r>
       <r>   -12.1782     0.3166     3.0868 </r>
       <r>   -12.0467     0.4967     3.1521 </r>
       <r>   -11.9151     0.2951     3.1910 </r>
       <r>   -11.7836     0.3050     3.2311 </r>
       <r>   -11.6520     0.5144     3.2991 </r>
       <r>   -11.5205     0.2864     3.3368 </r>
       <r>   -11.3889     0.0000     3.3368 </r>
       <r>   -11.2574     0.6030     3.4161 </r>
       <r>   -11.1258     0.9659     3.5432 </r>
       <r>   -10.9942     0.0138     3.5451 </r>
       <r>   -10.8627     0.3167     3.5868 </r>
       <r>   -10.7311     0.0000     3.5868 </r>
       <r>   -10.5996     0.7904     3.6908 </r>
       <r>   -10.4680     0.4324     3.7480 </r>
       <r>   -10.3365     0.3585     3.7951 </r>
       <r>   -10.2049     0.3167     3.8368 </r>
       <r>   -10.0734     0.5931     3.9148 </r>
       <r>    -9.9418     0.8119     4.0217 </r>
       <r>    -9.8102     0.3441     4.0670 </r>
       <r>    -9.6787     0.9312     4.1895 </r>
       <r>    -9.5471     0.5428     4.2609 </r>
       <r>    -9.4156     1.2016     4.4190 </r>
       <r>    -9.2840     0.0927     4.4313 </r>
       <r>    -9.1525     0.7494     4.5299 </r>
       <r>    -9.0209     1.2772     4.6981 </r>
       <r>    -8.8894     0.7638     4.7986 </r>
       <r>    -8.7578     0.5033     4.8648 </r>
       <r>    -8.6262     1.2623     5.0309 </r>
       <r>    -8.4947     0.8502     5.1428 </r>
       <r>    -8.3631     1.5648     5.3486 </r>
       <r>    -8.2316     0.3575     5.3957 </r>
       <r>    -8.1000     1.0585     5.5350 </r>
       <r>    -7.9685     0.3412     5.5799 </r>
       <r>    -7.8369     1.3768     5.7610 </r>
       <r>    -7.7054     0.0479     5.7676 </r>
       <r>    -7.5738     0.9525     5.8929 </r>
       <r>    -7.4422     1.1018     6.0379 </r>
       <r>    -7.3107     0.1487     6.0578 </r>
       <r>    -7.1791     0.4848     6.1215 </r>
       <r>    -7.0476     0.6254     6.2038 </r>
       <r>    -6.9160     0.9139     6.3240 </r>
       <r>    -6.7845     0.4239     6.3800 </r>
       <r>    -6.6529     0.5319     6.4500 </r>
       <r>    -6.5214     0.7019     6.5423 </r>
       <r>    -6.3898     0.4166     6.5971 </r>
       <r>    -6.2582     0.5024     6.6632 </r>
       <r>    -6.1267     0.6311     6.7463 </r>
       <r>    -5.9951     1.0705     6.8874 </r>
       <r>    -5.8636     0.0380     6.8924 </r>
       <r>    -5.7320     0.2382     6.9237 </r>
       <r>    -5.6005     0.9668     7.0509 </r>
       <r>    -5.4689     0.4499     7.1102 </r>
       <r>    -5.3374     0.6124     7.1908 </r>
       <r>    -5.2058     0.5819     7.2673 </r>
       <r>    -5.0742     0.1871     7.2920 </r>
       <r>    -4.9427     0.4968     7.3573 </r>
       <r>    -4.8111     0.6587     7.4440 </r>
       <r>    -4.6796     0.6080     7.5240 </r>
       <r>    -4.5480     0.3226     7.5667 </r>
       <r>    -4.4165     0.3900     7.6181 </r>
       <r>    -4.2849     0.1581     7.6389 </r>
       <r>    -4.1534     0.4898     7.7033 </r>
       <r>    -4.0218     0.7771     7.8056 </r>
       <r>    -3.8902     0.0004     7.8056 </r>
       <r>    -3.7587     0.1579     7.8264 </r>
       <r>    -3.6271     0.0003     7.8264 </r>
       <r>    -3.4956     0.3164     7.8681 </r>
       <r>    -3.3640     0.4210     7.9234 </r>
       <r>    -3.2325     0.0541     7.9306 </r>
       <r>    -3.1009     0.0007     7.9307 </r>
       <r>    -2.9694     0.1576     7.9514 </r>
       <r>    -2.8378     0.0000     7.9514 </r>
       <r>    -2.7062     0.0782     7.9617 </r>
       <r>    -2.5747     0.2385     7.9931 </r>
       <r>    -2.4431     0.0000     7.9931 </r>
       <r>    -2.3116     0.0000     7.9931 </r>
       <r>    -2.1800     0.0000     7.9931 </r>
       <r>    -2.0485     0.0000     7.9931 </r>
       <r>    -1.9169     0.1056     8.0069 </r>
       <r>    -1.7854     0.0000     8.0069 </r>
       <r>    -1.6538     0.0000     8.0069 </r>
       <r>    -1.5222     0.0000     8.0069 </r>
       <r>    -1.3907     0.0000     8.0069 </r>
       <r>    -1.2591     0.2779     8.0435 </r>
       <r>    -1.1276     0.0388     8.0486 </r>
       <r>    -0.9960     0.0160     8.0507 </r>
       <r>    -0.8645     0.1424     8.0694 </r>
       <r>    -0.7329     0.0000     8.0694 </r>
       <r>    -0.6014     0.2544     8.1029 </r>
       <r>    -0.4698     0.6234     8.1849 </r>
       <r>    -0.3382     0.0728     8.1945 </r>
       <r>    -0.2067     0.5690     8.2694 </r>
       <r>    -0.0751     0.6182     8.3507 </r>
       <r>     0.0564     0.4814     8.4140 </r>
       <r>     0.1880     0.6086     8.4941 </r>
       <r>     0.3195     0.0191     8.4966 </r>
       <r>     0.4511     0.4887     8.5609 </r>
       <r>     0.5826     0.1442     8.5799 </r>
       <r>     0.7142     0.3094     8.6206 </r>
       <r>     0.8458     0.0085     8.6217 </r>
       <r>     0.9773     0.7903     8.7257 </r>
       <r>     1.1089     0.2843     8.7631 </r>
       <r>     1.2404     0.2038     8.7899 </r>
       <r>     1.3720     0.4884     8.8542 </r>
       <r>     1.5035     0.6333     8.9375 </r>
       <r>     1.6351     0.1584     8.9583 </r>
       <r>     1.7666     0.4611     9.0190 </r>
       <r>     1.8982     0.4942     9.0840 </r>
       <r>     2.0298     0.8706     9.1985 </r>
       <r>     2.1613     0.4347     9.2557 </r>
       <r>     2.2929     0.5862     9.3329 </r>
       <r>     2.4244     0.5479     9.4049 </r>
       <r>     2.5560     0.6143     9.4858 </r>
       <r>     2.6875     0.9695     9.6137 </r>
       <r>     2.8191     0.9311     9.7362 </r>
       <r>     2.9506     0.9490     9.8611 </r>
       <r>     3.0822     0.2770     9.8976 </r>
       <r>     3.2138     1.2820    10.0662 </r>
       <r>     3.3453     0.9432    10.1906 </r>
       <r>     3.4769     0.3456    10.2360 </r>
       <r>     3.6084     1.1206    10.3835 </r>
       <r>     3.7400     0.5985    10.4623 </r>
       <r>     3.8715     1.1173    10.6093 </r>
       <r>     4.0031     0.6469    10.6944 </r>
       <r>     4.1346     0.8627    10.8079 </r>
       <r>     4.2662     0.6705    10.8962 </r>
       <r>     4.3978     1.0359    11.0324 </r>
       <r>     4.5293     0.6255    11.1147 </r>
       <r>     4.6609     0.9336    11.2375 </r>
       <r>     4.7924     1.3111    11.4101 </r>
       <r>     4.9240     1.0287    11.5454 </r>
       <r>     5.0555     0.8851    11.6619 </r>
       <r>     5.1871     1.1844    11.8177 </r>
       <r>     5.3186     0.5878    11.8955 </r>
       <r>     5.4502     1.3754    12.0764 </r>
       <r>     5.5818     1.7963    12.3127 </r>
       <r>     5.7133     1.2166    12.4728 </r>
       <r>     5.8449     1.0579    12.6120 </r>
       <r>     5.9764     1.4241    12.7994 </r>
       <r>     6.1080     0.7145    12.8934 </r>
       <r>     6.2395     1.4579    13.0852 </r>
       <r>     6.3711     2.1622    13.3697 </r>
       <r>     6.5026     1.6549    13.5875 </r>
       <r>     6.6342     1.7352    13.8159 </r>
       <r>     6.7658     2.0570    14.0866 </r>
       <r>     6.8973     1.9567    14.3443 </r>
       <r>     7.0289     2.4618    14.6682 </r>
       <r>     7.1604     1.9479    14.9257 </r>
       <r>     7.2920     2.6330    15.2721 </r>
       <r>     7.4235     1.7791    15.5067 </r>
       <r>     7.5551     1.9937    15.7692 </r>
       <r>     7.6866     1.0682    15.9102 </r>
       <r>     7.8182     1.4042    16.0949 </r>
       <r>     7.9498     2.3838    16.4085 </r>
       <r>     8.0813     2.2970    16.7113 </r>
       <r>     8.2129     1.1486    16.8628 </r>
       <r>     8.3444     1.5965    17.0728 </r>
       <r>     8.4760     1.4423    17.2625 </r>
       <r>     8.6075     1.3814    17.4447 </r>
       <r>     8.7391     2.2947    17.7466 </r>
       <r>     8.8706     2.1793    18.0333 </r>
       <r>     9.0022     2.4024    18.3493 </r>
       <r>     9.1338     2.3829    18.6629 </r>
       <r>     9.2653     0.9937    18.7938 </r>
       <r>     9.3969     0.9021    18.9125 </r>
       <r>     9.5284     2.1401    19.1944 </r>
       <r>     9.6600     1.0431    19.3318 </r>
       <r>     9.7915     1.6376    19.5477 </r>
       <r>     9.9231     1.7682    19.7803 </r>
       <r>    10.0546     2.1214    20.0594 </r>
       <r>    10.1862     1.2653    20.2259 </r>
       <r>    10.3178     0.9997    20.3574 </r>
       <r>    10.4493     1.6492    20.5744 </r>
       <r>    10.5809     1.7713    20.8077 </r>
       <r>    10.7124     1.0953    20.9518 </r>
       <r>    10.8440     1.4758    21.1459 </r>
       <r>    10.9755     1.4282    21.3339 </r>
       <r>    11.1071     1.9332    21.5882 </r>
       <r>    11.2386     2.2291    21.8815 </r>
       <r>    11.3702     1.8473    22.1248 </r>
       <r>    11.5018     1.2546    22.2906 </r>
       <r>    11.6333     0.9034    22.4096 </r>
       <r>    11.7649     1.5939    22.6193 </r>
       <r>    11.8964     1.7293    22.8476 </r>
       <r>    12.0280     2.1183    23.1264 </r>
       <r>    12.1595     0.4659    23.1877 </r>
       <r>    12.2911     1.8546    23.4316 </r>
       <r>    12.4226     0.8044    23.5375 </r>
       <r>    12.5542     1.0397    23.6743 </r>
       <r>    12.6858     0.7518    23.7732 </r>
       <r>    12.8173     0.1553    23.7937 </r>
       <r>    12.9489     0.3014    23.8333 </r>
       <r>    13.0804     0.3165    23.8750 </r>
       <r>    13.2120     0.0000    23.8750 </r>
       <r>    13.3435     0.4996    23.9407 </r>
       <r>    13.4751     0.0806    23.9514 </r>
       <r>    13.6067     0.0000    23.9514 </r>
       <r>    13.7382     0.0528    23.9583 </r>
       <r>    13.8698     0.3166    24.0000 </r>
       <r>    14.0013     0.0000    24.0000 </r>
       <r>    14.1329     0.0000    24.0000 </r>
       <r>    14.2644     0.0000    24.0000 </r>
       <r>    14.3960     0.0000    24.0000 </r>
       <r>    14.5275     0.0000    24.0000 </r>
       <r>    14.6591     0.0000    24.0000 </r>
       <r>    14.7907     0.0000    24.0000 </r>
       <r>    14.9222     0.0000    24.0000 </r>
       <r>    15.0538     0.0000    24.0000 </r>
       <r>    15.1853     0.0000    24.0000 </r>
       <r>    15.3169     0.0000    24.0000 </r>
       <r>    15.4484     0.0000    24.0000 </r>
       <r>    15.5800     0.0000    24.0000 </r>
      </set>
     </set>
    </array>
   </total>
  </dos>
 </calculation>
 <structure name="finalpos" >
  <crystal>
   <varray name="basis" >
    <v>       2.40552100       0.00000000       0.00000000 </v>
    <v>      -1.20276000       2.08324100       0.00000000 </v>
    <v>       0.00000000       0.00000000      15.00000000 </v>
   </varray>
   <i name="volume">     75.16919960 </i>
   <varray name="rec_basis" >
    <v>       0.41571036       0.24001054       0.00000000 </v>
    <v>       0.00000000       0.48002127       0.00000000 </v>
    <v>       0.00000000       0.00000000       0.06666667 </v>
   </varray>
  </crystal>
  <varray name="positions" >
   <v>       0.00000000       0.00000000       0.50000000 </v>
   <v>       0.33333300       0.66666700       0.50000000 </v>
  </varray>
 </structure>
</modeling>
