<?xml version="1.0" encoding="ISO-8859-1"?>
<modeling>
 <generator>
  <i name="program" type="string">vasp </i>
  <i name="version" type="string">5.4.1  </i>
  <i name="subversion" type="string">24Jun15 (build Nov 20 2020 10:29:34) complex                          parallel </i>
  <i name="platform" type="string">IFC91_ompi </i>
  <i name="date" type="string">2021 09 09 </i>
  <i name="time" type="string">15:19:38 </i>
 </generator>
 <incar>
  <i type="string" name="PREC">a</i>
  <i type="string" name="ALGO"> Normal</i>
  <i type="int" name="ISPIN">     1</i>
  <i type="int" name="ICHARG">     2</i>
  <i type="int" name="NELM">   250</i>
  <i type="int" name="NELMDL">    -5</i>
  <i type="int" name="NELMIN">     6</i>
  <i type="int" name="IBRION">     2</i>
  <i name="EDIFF">      0.00001000</i>
  <i name="EDIFFG">     -0.01000000</i>
  <i type="int" name="NSW">   200</i>
  <i type="int" name="ISIF">     2</i>
  <i name="ENCUT">    520.00000000</i>
  <i name="POTIM">      0.30000000</i>
  <i type="logical" name="LREAL"> F  </i>
  <i type="int" name="ISMEAR">     0</i>
  <i name="SIGMA">      0.02000000</i>
  <i type="logical" name="LWAVE"> F  </i>
  <i type="logical" name="LCHARG"> F  </i>
  <i type="logical" name="LAECHG"> F  </i>
  <v type="int" name="KPOINT_BSE">    -1     0     0     0</v>
  <i type="int" name="NELM">   250</i>
 </incar>
 <kpoints>
  <generation param="Gamma">
   <v type="int" name="divisions">      21       15        1 </v>
   <v name="usershift">      0.00000000       0.00000000       0.00000000 </v>
   <v name="genvec1">      0.04761905       0.00000000       0.00000000 </v>
   <v name="genvec2">      0.00000000       0.06666667       0.00000000 </v>
   <v name="genvec3">      0.00000000      -0.00000000       1.00000000 </v>
   <v name="shift">      0.00000000       0.00000000       0.00000000 </v>
  </generation>
  <varray name="kpointlist" >
   <v>       0.00000000       0.00000000       0.00000000 </v>
   <v>       0.04761905       0.00000000       0.00000000 </v>
   <v>       0.09523810       0.00000000       0.00000000 </v>
   <v>       0.14285714       0.00000000       0.00000000 </v>
   <v>       0.19047619       0.00000000       0.00000000 </v>
   <v>       0.23809524       0.00000000       0.00000000 </v>
   <v>       0.28571429       0.00000000       0.00000000 </v>
   <v>       0.33333333       0.00000000       0.00000000 </v>
   <v>       0.38095238       0.00000000       0.00000000 </v>
   <v>       0.42857143       0.00000000       0.00000000 </v>
   <v>       0.47619048       0.00000000       0.00000000 </v>
   <v>       0.00000000       0.06666667       0.00000000 </v>
   <v>       0.04761905       0.06666667       0.00000000 </v>
   <v>       0.09523810       0.06666667       0.00000000 </v>
   <v>       0.14285714       0.06666667       0.00000000 </v>
   <v>       0.19047619       0.06666667       0.00000000 </v>
   <v>       0.23809524       0.06666667       0.00000000 </v>
   <v>       0.28571429       0.06666667       0.00000000 </v>
   <v>       0.33333333       0.06666667       0.00000000 </v>
   <v>       0.38095238       0.06666667       0.00000000 </v>
   <v>       0.42857143       0.06666667       0.00000000 </v>
   <v>       0.47619048       0.06666667       0.00000000 </v>
   <v>      -0.47619048       0.06666667       0.00000000 </v>
   <v>      -0.42857143       0.06666667       0.00000000 </v>
   <v>      -0.38095238       0.06666667       0.00000000 </v>
   <v>      -0.33333333       0.06666667       0.00000000 </v>
   <v>      -0.28571429       0.06666667       0.00000000 </v>
   <v>      -0.23809524       0.06666667       0.00000000 </v>
   <v>      -0.19047619       0.06666667       0.00000000 </v>
   <v>      -0.14285714       0.06666667       0.00000000 </v>
   <v>      -0.09523810       0.06666667       0.00000000 </v>
   <v>      -0.04761905       0.06666667       0.00000000 </v>
   <v>       0.00000000       0.13333333       0.00000000 </v>
   <v>       0.04761905       0.13333333       0.00000000 </v>
   <v>       0.09523810       0.13333333       0.00000000 </v>
   <v>       0.14285714       0.13333333       0.00000000 </v>
   <v>       0.19047619       0.13333333       0.00000000 </v>
   <v>       0.23809524       0.13333333       0.00000000 </v>
   <v>       0.28571429       0.13333333       0.00000000 </v>
   <v>       0.33333333       0.13333333       0.00000000 </v>
   <v>       0.38095238       0.13333333       0.00000000 </v>
   <v>       0.42857143       0.13333333       0.00000000 </v>
   <v>       0.47619048       0.13333333       0.00000000 </v>
   <v>      -0.47619048       0.13333333       0.00000000 </v>
   <v>      -0.42857143       0.13333333       0.00000000 </v>
   <v>      -0.38095238       0.13333333       0.00000000 </v>
   <v>      -0.33333333       0.13333333       0.00000000 </v>
   <v>      -0.28571429       0.13333333       0.00000000 </v>
   <v>      -0.23809524       0.13333333       0.00000000 </v>
   <v>      -0.19047619       0.13333333       0.00000000 </v>
   <v>      -0.14285714       0.13333333       0.00000000 </v>
   <v>      -0.09523810       0.13333333       0.00000000 </v>
   <v>      -0.04761905       0.13333333       0.00000000 </v>
   <v>       0.00000000       0.20000000       0.00000000 </v>
   <v>       0.04761905       0.20000000       0.00000000 </v>
   <v>       0.09523810       0.20000000       0.00000000 </v>
   <v>       0.14285714       0.20000000       0.00000000 </v>
   <v>       0.19047619       0.20000000       0.00000000 </v>
   <v>       0.23809524       0.20000000       0.00000000 </v>
   <v>       0.28571429       0.20000000       0.00000000 </v>
   <v>       0.33333333       0.20000000       0.00000000 </v>
   <v>       0.38095238       0.20000000       0.00000000 </v>
   <v>       0.42857143       0.20000000       0.00000000 </v>
   <v>       0.47619048       0.20000000       0.00000000 </v>
   <v>      -0.47619048       0.20000000       0.00000000 </v>
   <v>      -0.42857143       0.20000000       0.00000000 </v>
   <v>      -0.38095238       0.20000000       0.00000000 </v>
   <v>      -0.33333333       0.20000000       0.00000000 </v>
   <v>      -0.28571429       0.20000000       0.00000000 </v>
   <v>      -0.23809524       0.20000000       0.00000000 </v>
   <v>      -0.19047619       0.20000000       0.00000000 </v>
   <v>      -0.14285714       0.20000000       0.00000000 </v>
   <v>      -0.09523810       0.20000000       0.00000000 </v>
   <v>      -0.04761905       0.20000000       0.00000000 </v>
   <v>       0.00000000       0.26666667       0.00000000 </v>
   <v>       0.04761905       0.26666667       0.00000000 </v>
   <v>       0.09523810       0.26666667       0.00000000 </v>
   <v>       0.14285714       0.26666667       0.00000000 </v>
   <v>       0.19047619       0.26666667       0.00000000 </v>
   <v>       0.23809524       0.26666667       0.00000000 </v>
   <v>       0.28571429       0.26666667       0.00000000 </v>
   <v>       0.33333333       0.26666667       0.00000000 </v>
   <v>       0.38095238       0.26666667       0.00000000 </v>
   <v>       0.42857143       0.26666667       0.00000000 </v>
   <v>       0.47619048       0.26666667       0.00000000 </v>
   <v>      -0.47619048       0.26666667       0.00000000 </v>
   <v>      -0.42857143       0.26666667       0.00000000 </v>
   <v>      -0.38095238       0.26666667       0.00000000 </v>
   <v>      -0.33333333       0.26666667       0.00000000 </v>
   <v>      -0.28571429       0.26666667       0.00000000 </v>
   <v>      -0.23809524       0.26666667       0.00000000 </v>
   <v>      -0.19047619       0.26666667       0.00000000 </v>
   <v>      -0.14285714       0.26666667       0.00000000 </v>
   <v>      -0.09523810       0.26666667       0.00000000 </v>
   <v>      -0.04761905       0.26666667       0.00000000 </v>
   <v>       0.00000000       0.33333333       0.00000000 </v>
   <v>       0.04761905       0.33333333       0.00000000 </v>
   <v>       0.09523810       0.33333333       0.00000000 </v>
   <v>       0.14285714       0.33333333       0.00000000 </v>
   <v>       0.19047619       0.33333333       0.00000000 </v>
   <v>       0.23809524       0.33333333       0.00000000 </v>
   <v>       0.28571429       0.33333333       0.00000000 </v>
   <v>       0.33333333       0.33333333       0.00000000 </v>
   <v>       0.38095238       0.33333333       0.00000000 </v>
   <v>       0.42857143       0.33333333       0.00000000 </v>
   <v>       0.47619048       0.33333333       0.00000000 </v>
   <v>      -0.47619048       0.33333333       0.00000000 </v>
   <v>      -0.42857143       0.33333333       0.00000000 </v>
   <v>      -0.38095238       0.33333333       0.00000000 </v>
   <v>      -0.33333333       0.33333333       0.00000000 </v>
   <v>      -0.28571429       0.33333333       0.00000000 </v>
   <v>      -0.23809524       0.33333333       0.00000000 </v>
   <v>      -0.19047619       0.33333333       0.00000000 </v>
   <v>      -0.14285714       0.33333333       0.00000000 </v>
   <v>      -0.09523810       0.33333333       0.00000000 </v>
   <v>      -0.04761905       0.33333333       0.00000000 </v>
   <v>       0.00000000       0.40000000       0.00000000 </v>
   <v>       0.04761905       0.40000000       0.00000000 </v>
   <v>       0.09523810       0.40000000       0.00000000 </v>
   <v>       0.14285714       0.40000000       0.00000000 </v>
   <v>       0.19047619       0.40000000       0.00000000 </v>
   <v>       0.23809524       0.40000000       0.00000000 </v>
   <v>       0.28571429       0.40000000       0.00000000 </v>
   <v>       0.33333333       0.40000000       0.00000000 </v>
   <v>       0.38095238       0.40000000       0.00000000 </v>
   <v>       0.42857143       0.40000000       0.00000000 </v>
   <v>       0.47619048       0.40000000       0.00000000 </v>
   <v>      -0.47619048       0.40000000       0.00000000 </v>
   <v>      -0.42857143       0.40000000       0.00000000 </v>
   <v>      -0.38095238       0.40000000       0.00000000 </v>
   <v>      -0.33333333       0.40000000       0.00000000 </v>
   <v>      -0.28571429       0.40000000       0.00000000 </v>
   <v>      -0.23809524       0.40000000       0.00000000 </v>
   <v>      -0.19047619       0.40000000       0.00000000 </v>
   <v>      -0.14285714       0.40000000       0.00000000 </v>
   <v>      -0.09523810       0.40000000       0.00000000 </v>
   <v>      -0.04761905       0.40000000       0.00000000 </v>
   <v>       0.00000000       0.46666667       0.00000000 </v>
   <v>       0.04761905       0.46666667       0.00000000 </v>
   <v>       0.09523810       0.46666667       0.00000000 </v>
   <v>       0.14285714       0.46666667       0.00000000 </v>
   <v>       0.19047619       0.46666667       0.00000000 </v>
   <v>       0.23809524       0.46666667       0.00000000 </v>
   <v>       0.28571429       0.46666667       0.00000000 </v>
   <v>       0.33333333       0.46666667       0.00000000 </v>
   <v>       0.38095238       0.46666667       0.00000000 </v>
   <v>       0.42857143       0.46666667       0.00000000 </v>
   <v>       0.47619048       0.46666667       0.00000000 </v>
   <v>      -0.47619048       0.46666667       0.00000000 </v>
   <v>      -0.42857143       0.46666667       0.00000000 </v>
   <v>      -0.38095238       0.46666667       0.00000000 </v>
   <v>      -0.33333333       0.46666667       0.00000000 </v>
   <v>      -0.28571429       0.46666667       0.00000000 </v>
   <v>      -0.23809524       0.46666667       0.00000000 </v>
   <v>      -0.19047619       0.46666667       0.00000000 </v>
   <v>      -0.14285714       0.46666667       0.00000000 </v>
   <v>      -0.09523810       0.46666667       0.00000000 </v>
   <v>      -0.04761905       0.46666667       0.00000000 </v>
  </varray>
  <varray name="weights" >
   <v>       0.00317460 </v>
   <v>       0.00634921 </v>
   <v>       0.00634921 </v>
   <v>       0.00634921 </v>
   <v>       0.00634921 </v>
   <v>       0.00634921 </v>
   <v>       0.00634921 </v>
   <v>       0.00634921 </v>
   <v>       0.00634921 </v>
   <v>       0.00634921 </v>
   <v>       0.00634921 </v>
   <v>       0.00634921 </v>
   <v>       0.00634921 </v>
   <v>       0.00634921 </v>
   <v>       0.00634921 </v>
   <v>       0.00634921 </v>
   <v>       0.00634921 </v>
   <v>       0.00634921 </v>
   <v>       0.00634921 </v>
   <v>       0.00634921 </v>
   <v>       0.00634921 </v>
   <v>       0.00634921 </v>
   <v>       0.00634921 </v>
   <v>       0.00634921 </v>
   <v>       0.00634921 </v>
   <v>       0.00634921 </v>
   <v>       0.00634921 </v>
   <v>       0.00634921 </v>
   <v>       0.00634921 </v>
   <v>       0.00634921 </v>
   <v>       0.00634921 </v>
   <v>       0.00634921 </v>
   <v>       0.00634921 </v>
   <v>       0.00634921 </v>
   <v>       0.00634921 </v>
   <v>       0.00634921 </v>
   <v>       0.00634921 </v>
   <v>       0.00634921 </v>
   <v>       0.00634921 </v>
   <v>       0.00634921 </v>
   <v>       0.00634921 </v>
   <v>       0.00634921 </v>
   <v>       0.00634921 </v>
   <v>       0.00634921 </v>
   <v>       0.00634921 </v>
   <v>       0.00634921 </v>
   <v>       0.00634921 </v>
   <v>       0.00634921 </v>
   <v>       0.00634921 </v>
   <v>       0.00634921 </v>
   <v>       0.00634921 </v>
   <v>       0.00634921 </v>
   <v>       0.00634921 </v>
   <v>       0.00634921 </v>
   <v>       0.00634921 </v>
   <v>       0.00634921 </v>
   <v>       0.00634921 </v>
   <v>       0.00634921 </v>
   <v>       0.00634921 </v>
   <v>       0.00634921 </v>
   <v>       0.00634921 </v>
   <v>       0.00634921 </v>
   <v>       0.00634921 </v>
   <v>       0.00634921 </v>
   <v>       0.00634921 </v>
   <v>       0.00634921 </v>
   <v>       0.00634921 </v>
   <v>       0.00634921 </v>
   <v>       0.00634921 </v>
   <v>       0.00634921 </v>
   <v>       0.00634921 </v>
   <v>       0.00634921 </v>
   <v>       0.00634921 </v>
   <v>       0.00634921 </v>
   <v>       0.00634921 </v>
   <v>       0.00634921 </v>
   <v>       0.00634921 </v>
   <v>       0.00634921 </v>
   <v>       0.00634921 </v>
   <v>       0.00634921 </v>
   <v>       0.00634921 </v>
   <v>       0.00634921 </v>
   <v>       0.00634921 </v>
   <v>       0.00634921 </v>
   <v>       0.00634921 </v>
   <v>       0.00634921 </v>
   <v>       0.00634921 </v>
   <v>       0.00634921 </v>
   <v>       0.00634921 </v>
   <v>       0.00634921 </v>
   <v>       0.00634921 </v>
   <v>       0.00634921 </v>
   <v>       0.00634921 </v>
   <v>       0.00634921 </v>
   <v>       0.00634921 </v>
   <v>       0.00634921 </v>
   <v>       0.00634921 </v>
   <v>       0.00634921 </v>
   <v>       0.00634921 </v>
   <v>       0.00634921 </v>
   <v>       0.00634921 </v>
   <v>       0.00634921 </v>
   <v>       0.00634921 </v>
   <v>       0.00634921 </v>
   <v>       0.00634921 </v>
   <v>       0.00634921 </v>
   <v>       0.00634921 </v>
   <v>       0.00634921 </v>
   <v>       0.00634921 </v>
   <v>       0.00634921 </v>
   <v>       0.00634921 </v>
   <v>       0.00634921 </v>
   <v>       0.00634921 </v>
   <v>       0.00634921 </v>
   <v>       0.00634921 </v>
   <v>       0.00634921 </v>
   <v>       0.00634921 </v>
   <v>       0.00634921 </v>
   <v>       0.00634921 </v>
   <v>       0.00634921 </v>
   <v>       0.00634921 </v>
   <v>       0.00634921 </v>
   <v>       0.00634921 </v>
   <v>       0.00634921 </v>
   <v>       0.00634921 </v>
   <v>       0.00634921 </v>
   <v>       0.00634921 </v>
   <v>       0.00634921 </v>
   <v>       0.00634921 </v>
   <v>       0.00634921 </v>
   <v>       0.00634921 </v>
   <v>       0.00634921 </v>
   <v>       0.00634921 </v>
   <v>       0.00634921 </v>
   <v>       0.00634921 </v>
   <v>       0.00634921 </v>
   <v>       0.00634921 </v>
   <v>       0.00634921 </v>
   <v>       0.00634921 </v>
   <v>       0.00634921 </v>
   <v>       0.00634921 </v>
   <v>       0.00634921 </v>
   <v>       0.00634921 </v>
   <v>       0.00634921 </v>
   <v>       0.00634921 </v>
   <v>       0.00634921 </v>
   <v>       0.00634921 </v>
   <v>       0.00634921 </v>
   <v>       0.00634921 </v>
   <v>       0.00634921 </v>
   <v>       0.00634921 </v>
   <v>       0.00634921 </v>
   <v>       0.00634921 </v>
   <v>       0.00634921 </v>
   <v>       0.00634921 </v>
   <v>       0.00634921 </v>
   <v>       0.00634921 </v>
   <v>       0.00634921 </v>
  </varray>
 </kpoints>
 <parameters>
  <separator name="general" >
   <i type="string" name="SYSTEM">unknown system</i>
   <i type="logical" name="LCOMPAT"> F  </i>
  </separator>
  <separator name="electronic" >
   <i type="string" name="PREC">a</i>
   <i name="ENMAX">    520.00000000</i>
   <i name="ENAUG">    342.92400000</i>
   <i name="EDIFF">      0.00001000</i>
   <i type="int" name="IALGO">    38</i>
   <i type="int" name="IWAVPR">    11</i>
   <i type="int" name="NBANDS">    16</i>
   <i name="NELECT">     20.00000000</i>
   <i type="int" name="TURBO">     0</i>
   <i type="int" name="IRESTART">     0</i>
   <i type="int" name="NREBOOT">     0</i>
   <i type="int" name="NMIN">     0</i>
   <i name="EREF">      0.00000000</i>
   <separator name="electronic smearing" >
    <i type="int" name="ISMEAR">     0</i>
    <i name="SIGMA">      0.02000000</i>
    <i name="KSPACING">      0.50000000</i>
    <i type="logical" name="KGAMMA"> T  </i>
   </separator>
   <separator name="electronic projectors" >
    <i type="logical" name="LREAL"> F  </i>
    <v name="ROPT">      0.00000000</v>
    <i type="int" name="LMAXPAW">  -100</i>
    <i type="int" name="LMAXMIX">     2</i>
    <i type="logical" name="NLSPLINE"> F  </i>
   </separator>
   <separator name="electronic startup" >
    <i type="int" name="ISTART">     0</i>
    <i type="int" name="ICHARG">     2</i>
    <i type="int" name="INIWAV">     1</i>
   </separator>
   <separator name="electronic spin" >
    <i type="int" name="ISPIN">     1</i>
    <i type="logical" name="LNONCOLLINEAR"> F  </i>
    <v name="MAGMOM">      1.00000000      1.00000000      1.00000000      1.00000000</v>
    <i name="NUPDOWN">     -1.00000000</i>
    <i type="logical" name="LSORBIT"> F  </i>
    <v name="SAXIS">      0.00000000      0.00000000      1.00000000</v>
    <i type="logical" name="LSPIRAL"> F  </i>
    <v name="QSPIRAL">      0.00000000      0.00000000      0.00000000</v>
    <i type="logical" name="LZEROZ"> F  </i>
   </separator>
   <separator name="electronic exchange-correlation" >
    <i type="logical" name="LASPH"> F  </i>
    <i type="logical" name="LMETAGGA"> F  </i>
   </separator>
   <separator name="electronic convergence" >
    <i type="int" name="NELM">   250</i>
    <i type="int" name="NELMDL">    -5</i>
    <i type="int" name="NELMIN">     6</i>
    <i name="ENINI">    520.00000000</i>
    <separator name="electronic convergence detail" >
     <i type="logical" name="LDIAG"> T  </i>
     <i type="logical" name="LSUBROT"> F  </i>
     <i name="WEIMIN">      0.00100000</i>
     <i name="EBREAK">      0.00000016</i>
     <i name="DEPER">      0.30000000</i>
     <i type="int" name="NRMM">     4</i>
     <i name="TIME">      0.40000000</i>
    </separator>
   </separator>
   <separator name="electronic mixer" >
    <i name="AMIX">      0.40000000</i>
    <i name="BMIX">      1.00000000</i>
    <i name="AMIN">      0.10000000</i>
    <i name="AMIX_MAG">      1.60000000</i>
    <i name="BMIX_MAG">      1.00000000</i>
    <separator name="electronic mixer details" >
     <i type="int" name="IMIX">     4</i>
     <i type="logical" name="MIXFIRST"> F  </i>
     <i type="int" name="MAXMIX">   -45</i>
     <i name="WC">    100.00000000</i>
     <i type="int" name="INIMIX">     1</i>
     <i type="int" name="MIXPRE">     1</i>
     <i type="int" name="MREMOVE">     5</i>
    </separator>
   </separator>
   <separator name="electronic dipolcorrection" >
    <i type="logical" name="LDIPOL"> F  </i>
    <i type="logical" name="LMONO"> F  </i>
    <i type="int" name="IDIPOL">     0</i>
    <i name="EPSILON">      1.00000000</i>
    <v name="DIPOL">   -100.00000000   -100.00000000   -100.00000000</v>
    <i name="EFIELD">      0.00000000</i>
   </separator>
  </separator>
  <separator name="grids" >
   <i type="int" name="NGX">    28</i>
   <i type="int" name="NGY">    36</i>
   <i type="int" name="NGZ">   150</i>
   <i type="int" name="NGXF">    56</i>
   <i type="int" name="NGYF">    72</i>
   <i type="int" name="NGZF">   300</i>
   <i type="logical" name="ADDGRID"> F  </i>
  </separator>
  <separator name="ionic" >
   <i type="int" name="NSW">   200</i>
   <i type="int" name="IBRION">     2</i>
   <i type="int" name="ISIF">     2</i>
   <i name="PSTRESS">      0.00000000</i>
   <i name="EDIFFG">     -0.01000000</i>
   <i type="int" name="NFREE">     1</i>
   <i name="POTIM">      0.30000000</i>
   <i name="SMASS">     -3.00000000</i>
   <i name="SCALEE">      1.00000000</i>
  </separator>
  <separator name="ionic md" >
   <i name="TEBEG">      0.00010000</i>
   <i name="TEEND">      0.00010000</i>
   <i type="int" name="NBLOCK">     1</i>
   <i type="int" name="KBLOCK">   200</i>
   <i type="int" name="NPACO">   256</i>
   <i name="APACO">     16.00000000</i>
  </separator>
  <separator name="symmetry" >
   <i type="int" name="ISYM">     2</i>
   <i name="SYMPREC">      0.00001000</i>
  </separator>
  <separator name="dos" >
   <i type="logical" name="LORBIT"> F  </i>
   <v name="RWIGS">     -1.00000000</v>
   <i type="int" name="NEDOS">   301</i>
   <i name="EMIN">     10.00000000</i>
   <i name="EMAX">    -10.00000000</i>
   <i name="EFERMI">      0.00000000</i>
  </separator>
  <separator name="writing" >
   <i type="int" name="NWRITE">     2</i>
   <i type="logical" name="LWAVE"> F  </i>
   <i type="logical" name="LCHARG"> F  </i>
   <i type="logical" name="LPARD"> F  </i>
   <i type="logical" name="LVTOT"> F  </i>
   <i type="logical" name="LVHAR"> F  </i>
   <i type="logical" name="LELF"> F  </i>
   <i type="logical" name="LOPTICS"> F  </i>
   <v name="STM">      0.00000000      0.00000000      0.00000000      0.00000000      0.00000000      0.00000000      0.00000000</v>
  </separator>
  <separator name="performance" >
   <i type="int" name="NPAR">     4</i>
   <i type="int" name="NSIM">     4</i>
   <i type="int" name="NBLK">    -1</i>
   <i type="logical" name="LPLANE"> T  </i>
   <i type="logical" name="LSCALAPACK"> T  </i>
   <i type="logical" name="LSCAAWARE"> F  </i>
   <i type="logical" name="LSCALU"> F  </i>
   <i type="logical" name="LASYNC"> F  </i>
   <i type="logical" name="LORBITALREAL"> F  </i>
  </separator>
  <separator name="miscellaneous" >
   <i type="int" name="IDIOT">     3</i>
   <i type="logical" name="LMUSIC"> F  </i>
   <v name="POMASS">     30.97400000</v>
   <v name="DARWINR">      0.00000000</v>
   <v name="DARWINV">      1.00000000</v>
   <i type="logical" name="LCORR"> T  </i>
  </separator>
  <i type="logical" name="GGA_COMPAT"> T  </i>
  <i type="logical" name="LBERRY"> F  </i>
  <i type="int" name="ICORELEVEL">     0</i>
  <i type="logical" name="LDAU"> F  </i>
  <i type="int" name="I_CONSTRAINED_M">     0</i>
  <separator name="electronic exchange-correlation" >
   <i type="string" name="GGA">--</i>
   <i type="int" name="VOSKOWN">     0</i>
   <i type="logical" name="LHFCALC"> F  </i>
   <i type="string" name="PRECFOCK"></i>
   <i type="logical" name="LSYMGRAD"> F  </i>
   <i type="logical" name="LHFONE"> F  </i>
   <i type="logical" name="LRHFCALC"> F  </i>
   <i type="logical" name="LTHOMAS"> F  </i>
   <i type="logical" name="LMODELHF"> F  </i>
   <i name="ENCUT4O">     -1.00000000</i>
   <i type="int" name="EXXOEP">     0</i>
   <i type="int" name="FOURORBIT">     0</i>
   <i name="AEXX">      0.00000000</i>
   <i name="HFALPHA">      0.00000000</i>
   <i name="MCALPHA">      0.00000000</i>
   <i name="ALDAX">      1.00000000</i>
   <i name="AGGAX">      1.00000000</i>
   <i name="ALDAC">      1.00000000</i>
   <i name="AGGAC">      1.00000000</i>
   <i type="int" name="NKREDX">     1</i>
   <i type="int" name="NKREDY">     1</i>
   <i type="int" name="NKREDZ">     1</i>
   <i type="logical" name="SHIFTRED"> F  </i>
   <i type="logical" name="ODDONLY"> F  </i>
   <i type="logical" name="EVENONLY"> F  </i>
   <i type="int" name="LMAXFOCK">     0</i>
   <i type="int" name="NMAXFOCKAE">     0</i>
   <i type="logical" name="LFOCKAEDFT"> F  </i>
   <i name="HFSCREEN">      0.00000000</i>
   <i name="HFSCREENC">      0.00000000</i>
   <i type="int" name="NBANDSGWLOW">     0</i>
  </separator>
  <separator name="vdW DFT" >
   <i type="logical" name="LUSE_VDW"> F  </i>
   <i name="Zab_VDW">     -0.84910000</i>
   <i name="PARAM1">      0.12340000</i>
   <i name="PARAM2">      1.00000000</i>
   <i name="PARAM3">      0.00000000</i>
  </separator>
  <separator name="model GW" >
   <i type="int" name="MODEL_GW">     0</i>
   <i name="MODEL_EPS0">     49.45121628</i>
   <i name="MODEL_ALPHA">      1.00000000</i>
  </separator>
  <separator name="linear response parameters" >
   <i type="logical" name="LEPSILON"> F  </i>
   <i type="logical" name="LRPA"> F  </i>
   <i type="logical" name="LNABLA"> F  </i>
   <i type="logical" name="LVEL"> F  </i>
   <i type="int" name="KINTER">     0</i>
   <i name="CSHIFT">      0.10000000</i>
   <i name="OMEGAMAX">     -1.00000000</i>
   <i name="DEG_THRESHOLD">      0.00200000</i>
  </separator>
  <separator name="orbital magnetization" >
   <i type="logical" name="NUCIND"> F  </i>
   <v name="MAGPOS">      0.00000000      0.00000000      0.00000000</v>
   <i type="logical" name="LNICSALL"> T  </i>
   <i type="logical" name="ORBITALMAG"> F  </i>
   <i type="logical" name="LMAGBLOCH"> F  </i>
   <i type="logical" name="LCHIMAG"> F  </i>
   <i type="logical" name="LGAUGE"> T  </i>
   <i type="int" name="MAGATOM">     0</i>
   <v name="MAGDIPOL">      0.00000000      0.00000000      0.00000000</v>
   <v name="AVECCONST">      0.00000000      0.00000000      0.00000000</v>
  </separator>
  <separator name="response functions" >
   <i type="logical" name="LADDER"> F  </i>
   <i type="logical" name="LFXC"> F  </i>
   <i type="logical" name="LHARTREE"> T  </i>
   <i type="int" name="IBSE">     0</i>
   <v type="int" name="KPOINT">    -1     0     0     0</v>
   <i type="logical" name="LTCTE"> F  </i>
   <i type="logical" name="LTETE"> F  </i>
   <i type="logical" name="LTRIPLET"> F  </i>
   <i type="logical" name="LFXCEPS"> F  </i>
   <i type="logical" name="LFXHEG"> F  </i>
   <i type="int" name="NATURALO">     0</i>
   <i type="logical" name="L2ORDER"> F  </i>
   <i type="logical" name="LUSEW"> F  </i>
   <i name="ENCUTGW">     -2.00000000</i>
   <i name="ENCUTGWSOFT">     -2.00000000</i>
   <i name="ENCUTLF">     -1.00000000</i>
   <i type="int" name="LMAXMP2">    -1</i>
   <i name="SCISSOR">      0.00000000</i>
   <i type="int" name="NOMEGA">     0</i>
   <i type="int" name="NOMEGAR">     0</i>
   <i type="int" name="NBANDSGW">    -1</i>
   <i type="int" name="NBANDSO">    -1</i>
   <i type="int" name="NBANDSV">    -1</i>
   <i type="int" name="NELM">   250</i>
   <i type="int" name="NELMHF">     1</i>
   <i type="int" name="DIM">     3</i>
   <i type="int" name="ANTIRES">     0</i>
   <i name="OMEGAMAX">    -30.00000000</i>
   <i name="OMEGAMIN">    -30.00000000</i>
   <i name="OMEGATL">   -200.00000000</i>
   <i type="int" name="OMEGAGRID">     0</i>
   <i name="CSHIFT">     -0.10000000</i>
   <i type="logical" name="SELFENERGY"> F  </i>
   <i type="logical" name="LSPECTRAL"> F  </i>
   <i type="logical" name="LSPECTRALGW"> F  </i>
   <i type="logical" name="LSINGLES"> F  </i>
   <i type="logical" name="LFERMIGW"> F  </i>
   <i type="logical" name="ODDONLYGW"> F  </i>
   <i type="logical" name="EVENONLYGW"> F  </i>
   <i type="int" name="NKREDLFX">     1</i>
   <i type="int" name="NKREDLFY">     1</i>
   <i type="int" name="NKREDLFZ">     1</i>
   <i type="int" name="MAXMEM">  1800</i>
   <i type="int" name="TELESCOPE">     0</i>
   <i type="int" name="TAUPAR">     1</i>
   <i type="int" name="OMEGAPAR">    -1</i>
   <i name="LAMBDA">      1.00000000</i>
  </separator>
  <separator name="External order field" >
   <i name="OFIELD_KAPPA">      0.00000000</i>
   <v name="OFIELD_K">      0.00000000      0.00000000      0.00000000</v>
   <i name="OFIELD_Q6_NEAR">      0.00000000</i>
   <i name="OFIELD_Q6_FAR">      0.00000000</i>
   <i name="OFIELD_A">      0.00000000</i>
  </separator>
 </parameters>
 <atominfo>
  <atoms>       4 </atoms>
  <types>       1 </types>
  <array name="atoms" >
   <dimension dim="1">ion</dimension>
   <field type="string">element</field>
   <field type="int">atomtype</field>
   <set>
    <rc><c>P </c><c>   1</c></rc>
    <rc><c>P </c><c>   1</c></rc>
    <rc><c>P </c><c>   1</c></rc>
    <rc><c>P </c><c>   1</c></rc>
   </set>
  </array>
  <array name="atomtypes" >
   <dimension dim="1">type</dimension>
   <field type="int">atomspertype</field>
   <field type="string">element</field>
   <field>mass</field>
   <field>valence</field>
   <field type="string">pseudopotential</field>
   <set>
    <rc><c>   4</c><c>P </c><c>     30.97400000</c><c>      5.00000000</c><c>  PAW_PBE P 06Sep2000                   </c></rc>
   </set>
  </array>
 </atominfo>
 <structure name="initialpos" >
  <crystal>
   <varray name="basis" >
    <v>       3.42655500       0.00000000       0.00000000 </v>
    <v>       0.00000000       4.80472700      -0.00005300 </v>
    <v>       0.00000000       0.00000000      20.02439000 </v>
   </varray>
   <i name="volume">    329.67477521 </i>
   <varray name="rec_basis" >
    <v>       0.29183830       0.00000000       0.00000000 </v>
    <v>       0.00000000       0.20812837       0.00000000 </v>
    <v>       0.00000000       0.00000055       0.04993910 </v>
   </varray>
  </crystal>
  <varray name="positions" >
   <v>       0.50000000       0.91077300       0.55252100 </v>
   <v>       0.50000000       0.08922700       0.44747900 </v>
   <v>       0.00000000       0.41076900       0.44747900 </v>
   <v>       0.00000000       0.58923100       0.55252100 </v>
  </varray>
 </structure>
 <calculation>
  <scstep>
   <time name="dav">    1.52    1.52</time>
   <time name="total">    1.55    1.55</time>
   <energy>
    <i name="alphaZ">      4.86588954 </i>
    <i name="ewald">   1688.81335546 </i>
    <i name="hartreedc">  -2283.56504636 </i>
    <i name="XCdc">     12.35091707 </i>
    <i name="pawpsdc">    559.04011960 </i>
    <i name="pawaedc">   -526.39432044 </i>
    <i name="eentropy">     -0.00020980 </i>
    <i name="bandstr">    -29.21360457 </i>
    <i name="atom">    704.16778566 </i>
    <i name="e_fr_energy">    130.06488615 </i>
    <i name="e_wo_entrp">    130.06509595 </i>
    <i name="e_0_energy">    130.06499105 </i>
   </energy>
  </scstep>
  <scstep>
   <time name="dav">    2.03    2.03</time>
   <time name="total">    2.03    2.03</time>
   <energy>
    <i name="e_fr_energy">     -5.67420309 </i>
    <i name="e_wo_entrp">     -5.67420309 </i>
    <i name="e_0_energy">     -5.67420309 </i>
   </energy>
  </scstep>
  <scstep>
   <time name="dav">    1.88    1.88</time>
   <time name="total">    1.88    1.88</time>
   <energy>
    <i name="e_fr_energy">    -21.13107268 </i>
    <i name="e_wo_entrp">    -21.13107268 </i>
    <i name="e_0_energy">    -21.13107268 </i>
   </energy>
  </scstep>
  <scstep>
   <time name="dav">    1.88    1.88</time>
   <time name="total">    1.88    1.88</time>
   <energy>
    <i name="e_fr_energy">    -21.45515039 </i>
    <i name="e_wo_entrp">    -21.45515039 </i>
    <i name="e_0_energy">    -21.45515039 </i>
   </energy>
  </scstep>
  <scstep>
   <time name="dav">    2.01    2.01</time>
   <time name="total">    2.10    2.10</time>
   <energy>
    <i name="e_fr_energy">    -21.46590442 </i>
    <i name="e_wo_entrp">    -21.46590442 </i>
    <i name="e_0_energy">    -21.46590442 </i>
   </energy>
  </scstep>
  <scstep>
   <time name="dav">    1.86    1.86</time>
   <time name="total">    1.97    1.98</time>
   <energy>
    <i name="e_fr_energy">    -21.35903511 </i>
    <i name="e_wo_entrp">    -21.35903511 </i>
    <i name="e_0_energy">    -21.35903511 </i>
   </energy>
  </scstep>
  <scstep>
   <time name="dav">    1.76    1.76</time>
   <time name="total">    1.87    1.88</time>
   <energy>
    <i name="e_fr_energy">    -21.30423004 </i>
    <i name="e_wo_entrp">    -21.30423004 </i>
    <i name="e_0_energy">    -21.30423004 </i>
   </energy>
  </scstep>
  <scstep>
   <time name="dav">    1.85    1.85</time>
   <time name="total">    1.96    1.96</time>
   <energy>
    <i name="e_fr_energy">    -21.30436825 </i>
    <i name="e_wo_entrp">    -21.30436825 </i>
    <i name="e_0_energy">    -21.30436825 </i>
   </energy>
  </scstep>
  <scstep>
   <time name="dav">    2.12    2.12</time>
   <time name="total">    2.23    2.23</time>
   <energy>
    <i name="e_fr_energy">    -21.30429051 </i>
    <i name="e_wo_entrp">    -21.30429051 </i>
    <i name="e_0_energy">    -21.30429051 </i>
   </energy>
  </scstep>
  <scstep>
   <time name="dav">    1.89    1.89</time>
   <time name="total">    2.01    2.01</time>
   <energy>
    <i name="e_fr_energy">    -21.30426182 </i>
    <i name="e_wo_entrp">    -21.30426182 </i>
    <i name="e_0_energy">    -21.30426182 </i>
   </energy>
  </scstep>
  <scstep>
   <time name="dav">    1.77    1.77</time>
   <time name="total">    1.88    1.89</time>
   <energy>
    <i name="e_fr_energy">    -21.30425955 </i>
    <i name="e_wo_entrp">    -21.30425955 </i>
    <i name="e_0_energy">    -21.30425955 </i>
   </energy>
  </scstep>
  <scstep>
   <time name="dav">    1.63    1.64</time>
   <time name="total">    1.74    1.75</time>
   <energy>
    <i name="e_fr_energy">    -21.30448009 </i>
    <i name="e_wo_entrp">    -21.30448009 </i>
    <i name="e_0_energy">    -21.30448009 </i>
   </energy>
  </scstep>
  <scstep>
   <time name="dav">    1.65    1.65</time>
   <time name="total">    1.76    1.76</time>
   <energy>
    <i name="e_fr_energy">    -21.30466257 </i>
    <i name="e_wo_entrp">    -21.30466257 </i>
    <i name="e_0_energy">    -21.30466257 </i>
   </energy>
  </scstep>
  <scstep>
   <time name="dav">    1.58    1.58</time>
   <time name="total">    1.69    1.69</time>
   <energy>
    <i name="e_fr_energy">    -21.30473356 </i>
    <i name="e_wo_entrp">    -21.30473356 </i>
    <i name="e_0_energy">    -21.30473356 </i>
   </energy>
  </scstep>
  <scstep>
   <time name="dav">    1.49    1.49</time>
   <time name="total">    1.60    1.60</time>
   <energy>
    <i name="e_fr_energy">    -21.30476242 </i>
    <i name="e_wo_entrp">    -21.30476242 </i>
    <i name="e_0_energy">    -21.30476242 </i>
   </energy>
  </scstep>
  <scstep>
   <time name="dav">    1.51    1.51</time>
   <time name="total">    1.63    1.63</time>
   <energy>
    <i name="e_fr_energy">    -21.30477806 </i>
    <i name="e_wo_entrp">    -21.30477806 </i>
    <i name="e_0_energy">    -21.30477806 </i>
   </energy>
  </scstep>
  <scstep>
   <time name="dav">    1.47    1.47</time>
   <time name="total">    1.49    1.49</time>
   <energy>
    <i name="alphaZ">      4.86588954 </i>
    <i name="ewald">   1688.81335546 </i>
    <i name="hartreedc">  -2296.03971645 </i>
    <i name="XCdc">     13.30637380 </i>
    <i name="pawpsdc">   1804.38559392 </i>
    <i name="pawaedc">  -1771.97161887 </i>
    <i name="eentropy">     -0.00000000 </i>
    <i name="bandstr">   -168.83244457 </i>
    <i name="atom">    704.16778566 </i>
    <i name="e_fr_energy">    -21.30478151 </i>
    <i name="e_wo_entrp">    -21.30478151 </i>
    <i name="e_0_energy">    -21.30478151 </i>
   </energy>
  </scstep>
  <structure>
   <crystal>
    <varray name="basis" >
     <v>       3.42655500       0.00000000       0.00000000 </v>
     <v>       0.00000000       4.80472700      -0.00005300 </v>
     <v>       0.00000000       0.00000000      20.02439000 </v>
    </varray>
    <i name="volume">    329.67477521 </i>
    <varray name="rec_basis" >
     <v>       0.29183830       0.00000000       0.00000000 </v>
     <v>       0.00000000       0.20812837       0.00000000 </v>
     <v>       0.00000000       0.00000055       0.04993910 </v>
    </varray>
   </crystal>
   <varray name="positions" >
    <v>       0.50000000       0.91077300       0.55252100 </v>
    <v>       0.50000000       0.08922700       0.44747900 </v>
    <v>       0.00000000       0.41076900       0.44747900 </v>
    <v>       0.00000000       0.58923100       0.55252100 </v>
   </varray>
  </structure>
  <varray name="forces" >
   <v>      -0.00000010      -0.58833478      -0.15170964 </v>
   <v>       0.00000010       0.58833478       0.15170964 </v>
   <v>       0.00000006      -0.58835247       0.15172503 </v>
   <v>      -0.00000006       0.58835247      -0.15172503 </v>
  </varray>
  <varray name="stress" >
   <v>     -21.08622897       0.00000122       0.00000002 </v>
   <v>       0.00000121     -15.98629860       0.00035861 </v>
   <v>       0.00000007       0.00035860      -3.16178765 </v>
  </varray>
  <energy>
   <i name="e_fr_energy">    -21.30478151 </i>
   <i name="e_wo_entrp">    -21.30478151 </i>
   <i name="e_0_energy">     -0.00000000 </i>
  </energy>
  <time name="totalsc">   32.10   32.15</time>
 </calculation>
 <calculation>
  <scstep>
   <time name="dav">    1.61    1.61</time>
   <time name="total">    1.72    1.72</time>
   <energy>
    <i name="alphaZ">      4.86588954 </i>
    <i name="ewald">   1694.81453639 </i>
    <i name="hartreedc">  -2301.17546549 </i>
    <i name="XCdc">     13.40554185 </i>
    <i name="pawpsdc">   1804.31043739 </i>
    <i name="pawaedc">  -1771.89647367 </i>
    <i name="eentropy">     -0.00000000 </i>
    <i name="bandstr">   -169.82611326 </i>
    <i name="atom">    704.16778566 </i>
    <i name="e_fr_energy">    -21.33386160 </i>
    <i name="e_wo_entrp">    -21.33386160 </i>
    <i name="e_0_energy">    -21.33386160 </i>
   </energy>
  </scstep>
  <scstep>
   <time name="dav">    1.85    1.85</time>
   <time name="total">    1.96    1.96</time>
   <energy>
    <i name="e_fr_energy">    -21.33762299 </i>
    <i name="e_wo_entrp">    -21.33762299 </i>
    <i name="e_0_energy">    -21.33762299 </i>
   </energy>
  </scstep>
  <scstep>
   <time name="dav">    2.05    2.05</time>
   <time name="total">    2.16    2.16</time>
   <energy>
    <i name="e_fr_energy">    -21.33764760 </i>
    <i name="e_wo_entrp">    -21.33764760 </i>
    <i name="e_0_energy">    -21.33764760 </i>
   </energy>
  </scstep>
  <scstep>
   <time name="dav">    2.03    2.03</time>
   <time name="total">    2.14    2.14</time>
   <energy>
    <i name="e_fr_energy">    -21.33763767 </i>
    <i name="e_wo_entrp">    -21.33763767 </i>
    <i name="e_0_energy">    -21.33763767 </i>
   </energy>
  </scstep>
  <scstep>
   <time name="dav">    1.52    1.52</time>
   <time name="total">    1.63    1.64</time>
   <energy>
    <i name="e_fr_energy">    -21.33764104 </i>
    <i name="e_wo_entrp">    -21.33764104 </i>
    <i name="e_0_energy">    -21.33764104 </i>
   </energy>
  </scstep>
  <scstep>
   <time name="dav">    1.36    1.36</time>
   <time name="total">    1.38    1.38</time>
   <energy>
    <i name="alphaZ">      4.86588954 </i>
    <i name="ewald">   1694.81453639 </i>
    <i name="hartreedc">  -2301.15250899 </i>
    <i name="XCdc">     13.41371394 </i>
    <i name="pawpsdc">   1856.32099085 </i>
    <i name="pawaedc">  -1823.92625664 </i>
    <i name="eentropy">     -0.00000000 </i>
    <i name="bandstr">   -169.84179225 </i>
    <i name="atom">    704.16778566 </i>
    <i name="e_fr_energy">    -21.33764150 </i>
    <i name="e_wo_entrp">    -21.33764150 </i>
    <i name="e_0_energy">    -21.33764150 </i>
   </energy>
  </scstep>
  <structure>
   <crystal>
    <varray name="basis" >
     <v>       3.42655500       0.00000000       0.00000000 </v>
     <v>       0.00000000       4.80472700      -0.00005300 </v>
     <v>       0.00000000       0.00000000      20.02439000 </v>
    </varray>
    <i name="volume">    329.67477521 </i>
    <varray name="rec_basis" >
     <v>       0.29183830       0.00000000       0.00000000 </v>
     <v>       0.00000000       0.20812837       0.00000000 </v>
     <v>       0.00000000       0.00000055       0.04993910 </v>
    </varray>
   </crystal>
   <varray name="positions" >
    <v>       0.50000000       0.90722864       0.55230169 </v>
    <v>       0.50000000       0.09277136       0.44769831 </v>
    <v>       0.00000000       0.40722453       0.44769831 </v>
    <v>      -0.00000000       0.59277547       0.55230169 </v>
   </varray>
  </structure>
  <varray name="forces" >
   <v>       0.00000021      -0.29646161      -0.14224191 </v>
   <v>      -0.00000021       0.29646161       0.14224191 </v>
   <v>       0.00000020      -0.29647711       0.14224698 </v>
   <v>      -0.00000020       0.29647711      -0.14224698 </v>
  </varray>
  <varray name="stress" >
   <v>     -20.57369044      -0.00000096       0.00000140 </v>
   <v>      -0.00000097     -11.70789281       0.00028750 </v>
   <v>       0.00000136       0.00028752      -3.02294570 </v>
  </varray>
  <energy>
   <i name="e_fr_energy">    -21.33764150 </i>
   <i name="e_wo_entrp">    -21.33764150 </i>
   <i name="e_0_energy">     -0.00000000 </i>
  </energy>
  <time name="totalsc">   11.82   11.84</time>
 </calculation>
 <calculation>
  <scstep>
   <time name="dav">    1.61    1.61</time>
   <time name="total">    1.72    1.72</time>
   <energy>
    <i name="alphaZ">      4.86588954 </i>
    <i name="ewald">   1701.13396707 </i>
    <i name="hartreedc">  -2306.50858580 </i>
    <i name="XCdc">     13.51766893 </i>
    <i name="pawpsdc">   1856.65944061 </i>
    <i name="pawaedc">  -1824.26470208 </i>
    <i name="eentropy">     -0.00000000 </i>
    <i name="bandstr">   -170.91714584 </i>
    <i name="atom">    704.16778566 </i>
    <i name="e_fr_energy">    -21.34568191 </i>
    <i name="e_wo_entrp">    -21.34568191 </i>
    <i name="e_0_energy">    -21.34568191 </i>
   </energy>
  </scstep>
  <scstep>
   <time name="dav">    1.85    1.85</time>
   <time name="total">    1.96    1.97</time>
   <energy>
    <i name="e_fr_energy">    -21.34982081 </i>
    <i name="e_wo_entrp">    -21.34982081 </i>
    <i name="e_0_energy">    -21.34982081 </i>
   </energy>
  </scstep>
  <scstep>
   <time name="dav">    2.04    2.04</time>
   <time name="total">    2.15    2.15</time>
   <energy>
    <i name="e_fr_energy">    -21.34984447 </i>
    <i name="e_wo_entrp">    -21.34984447 </i>
    <i name="e_0_energy">    -21.34984447 </i>
   </energy>
  </scstep>
  <scstep>
   <time name="dav">    2.06    2.06</time>
   <time name="total">    2.17    2.18</time>
   <energy>
    <i name="e_fr_energy">    -21.34983476 </i>
    <i name="e_wo_entrp">    -21.34983476 </i>
    <i name="e_0_energy">    -21.34983476 </i>
   </energy>
  </scstep>
  <scstep>
   <time name="dav">    1.49    1.49</time>
   <time name="total">    1.60    1.60</time>
   <energy>
    <i name="e_fr_energy">    -21.34984093 </i>
    <i name="e_wo_entrp">    -21.34984093 </i>
    <i name="e_0_energy">    -21.34984093 </i>
   </energy>
  </scstep>
  <scstep>
   <time name="dav">    1.34    1.34</time>
   <time name="total">    1.36    1.36</time>
   <energy>
    <i name="alphaZ">      4.86588954 </i>
    <i name="ewald">   1701.13396707 </i>
    <i name="hartreedc">  -2306.47059678 </i>
    <i name="XCdc">     13.52621618 </i>
    <i name="pawpsdc">   1913.79377732 </i>
    <i name="pawaedc">  -1881.42007893 </i>
    <i name="eentropy">     -0.00000000 </i>
    <i name="bandstr">   -170.94680296 </i>
    <i name="atom">    704.16778566 </i>
    <i name="e_fr_energy">    -21.34984290 </i>
    <i name="e_wo_entrp">    -21.34984290 </i>
    <i name="e_0_energy">    -21.34984290 </i>
   </energy>
  </scstep>
  <structure>
   <crystal>
    <varray name="basis" >
     <v>       3.42655500       0.00000000       0.00000000 </v>
     <v>       0.00000000       4.80472700      -0.00005300 </v>
     <v>       0.00000000       0.00000000      20.02439000 </v>
    </varray>
    <i name="volume">    329.67477521 </i>
    <varray name="rec_basis" >
     <v>       0.29183830       0.00000000       0.00000000 </v>
     <v>       0.00000000       0.20812837       0.00000000 </v>
     <v>       0.00000000       0.00000055       0.04993910 </v>
    </varray>
   </crystal>
   <varray name="positions" >
    <v>       0.50000000       0.90353579       0.55207320 </v>
    <v>       0.50000000       0.09646421       0.44792680 </v>
    <v>       0.00000000       0.40353157       0.44792681 </v>
    <v>      -0.00000000       0.59646843       0.55207319 </v>
   </varray>
  </structure>
  <varray name="forces" >
   <v>       0.00000040       0.02952644      -0.13749448 </v>
   <v>      -0.00000040      -0.02952644       0.13749448 </v>
   <v>       0.00000037       0.02951388       0.13749082 </v>
   <v>      -0.00000037      -0.02951388      -0.13749082 </v>
  </varray>
  <varray name="stress" >
   <v>     -19.68950682      -0.00000222       0.00000025 </v>
   <v>      -0.00000219      -7.14903273       0.00020405 </v>
   <v>       0.00000023       0.00020409      -2.92125819 </v>
  </varray>
  <energy>
   <i name="e_fr_energy">    -21.34984290 </i>
   <i name="e_wo_entrp">    -21.34984290 </i>
   <i name="e_0_energy">     -0.00000000 </i>
  </energy>
  <time name="totalsc">   11.78   11.80</time>
 </calculation>
 <calculation>
  <scstep>
   <time name="dav">    1.48    1.49</time>
   <time name="total">    1.60    1.60</time>
   <energy>
    <i name="alphaZ">      4.86588954 </i>
    <i name="ewald">   1705.39034090 </i>
    <i name="hartreedc">  -2310.48321549 </i>
    <i name="XCdc">     13.55549124 </i>
    <i name="pawpsdc">   1914.12824280 </i>
    <i name="pawaedc">  -1881.75453976 </i>
    <i name="eentropy">     -0.00000000 </i>
    <i name="bandstr">   -171.22153397 </i>
    <i name="atom">    704.16778566 </i>
    <i name="e_fr_energy">    -21.35153908 </i>
    <i name="e_wo_entrp">    -21.35153908 </i>
    <i name="e_0_energy">    -21.35153908 </i>
   </energy>
  </scstep>
  <scstep>
   <time name="dav">    1.85    1.85</time>
   <time name="total">    1.96    1.96</time>
   <energy>
    <i name="e_fr_energy">    -21.35197594 </i>
    <i name="e_wo_entrp">    -21.35197594 </i>
    <i name="e_0_energy">    -21.35197594 </i>
   </energy>
  </scstep>
  <scstep>
   <time name="dav">    2.02    2.02</time>
   <time name="total">    2.13    2.13</time>
   <energy>
    <i name="e_fr_energy">    -21.35196931 </i>
    <i name="e_wo_entrp">    -21.35196931 </i>
    <i name="e_0_energy">    -21.35196931 </i>
   </energy>
  </scstep>
  <scstep>
   <time name="dav">    1.70    1.70</time>
   <time name="total">    1.81    1.81</time>
   <energy>
    <i name="e_fr_energy">    -21.35197127 </i>
    <i name="e_wo_entrp">    -21.35197127 </i>
    <i name="e_0_energy">    -21.35197127 </i>
   </energy>
  </scstep>
  <scstep>
   <time name="dav">    1.29    1.29</time>
   <time name="total">    1.40    1.40</time>
   <energy>
    <i name="e_fr_energy">    -21.35197271 </i>
    <i name="e_wo_entrp">    -21.35197271 </i>
    <i name="e_0_energy">    -21.35197271 </i>
   </energy>
  </scstep>
  <scstep>
   <time name="dav">    1.27    1.28</time>
   <time name="total">    1.29    1.30</time>
   <energy>
    <i name="alphaZ">      4.86588954 </i>
    <i name="ewald">   1705.39034090 </i>
    <i name="hartreedc">  -2310.45107178 </i>
    <i name="XCdc">     13.55704450 </i>
    <i name="pawpsdc">   1927.74896821 </i>
    <i name="pawaedc">  -1895.37991588 </i>
    <i name="eentropy">     -0.00000000 </i>
    <i name="bandstr">   -171.25101565 </i>
    <i name="atom">    704.16778566 </i>
    <i name="e_fr_energy">    -21.35197451 </i>
    <i name="e_wo_entrp">    -21.35197451 </i>
    <i name="e_0_energy">    -21.35197451 </i>
   </energy>
  </scstep>
  <structure>
   <crystal>
    <varray name="basis" >
     <v>       3.42655500       0.00000000       0.00000000 </v>
     <v>       0.00000000       4.80472700      -0.00005300 </v>
     <v>       0.00000000       0.00000000      20.02439000 </v>
    </varray>
    <i name="volume">    329.67477521 </i>
    <varray name="rec_basis" >
     <v>       0.29183830       0.00000000       0.00000000 </v>
     <v>       0.00000000       0.20812837       0.00000000 </v>
     <v>       0.00000000       0.00000055       0.04993910 </v>
    </varray>
   </crystal>
   <varray name="positions" >
    <v>       0.50000000       0.90356182       0.55182134 </v>
    <v>       0.50000000       0.09643818       0.44817866 </v>
    <v>       0.00000000       0.40355750       0.44817866 </v>
    <v>      -0.00000000       0.59644250       0.55182134 </v>
   </varray>
  </structure>
  <varray name="forces" >
   <v>      -0.00000035       0.00973242      -0.07033051 </v>
   <v>       0.00000035      -0.00973242       0.07033051 </v>
   <v>      -0.00000034       0.00972217       0.07032899 </v>
   <v>       0.00000034      -0.00972217      -0.07032899 </v>
  </varray>
  <varray name="stress" >
   <v>     -19.57244053      -0.00000466       0.00000043 </v>
   <v>      -0.00000465      -6.92746919       0.00017772 </v>
   <v>       0.00000048       0.00017774      -1.51889336 </v>
  </varray>
  <energy>
   <i name="e_fr_energy">    -21.35197451 </i>
   <i name="e_wo_entrp">    -21.35197451 </i>
   <i name="e_0_energy">     -0.00000000 </i>
  </energy>
  <time name="totalsc">   11.00   11.02</time>
 </calculation>
 <calculation>
  <scstep>
   <time name="dav">    1.48    1.48</time>
   <time name="total">    1.59    1.59</time>
   <energy>
    <i name="alphaZ">      4.86588954 </i>
    <i name="ewald">   1709.83590688 </i>
    <i name="hartreedc">  -2314.63128713 </i>
    <i name="XCdc">     13.58773828 </i>
    <i name="pawpsdc">   1927.78152413 </i>
    <i name="pawaedc">  -1895.41238457 </i>
    <i name="eentropy">     -0.00000000 </i>
    <i name="bandstr">   -171.54741427 </i>
    <i name="atom">    704.16778566 </i>
    <i name="e_fr_energy">    -21.35224149 </i>
    <i name="e_wo_entrp">    -21.35224149 </i>
    <i name="e_0_energy">    -21.35224149 </i>
   </energy>
  </scstep>
  <scstep>
   <time name="dav">    1.86    1.86</time>
   <time name="total">    1.97    1.97</time>
   <energy>
    <i name="e_fr_energy">    -21.35272163 </i>
    <i name="e_wo_entrp">    -21.35272163 </i>
    <i name="e_0_energy">    -21.35272163 </i>
   </energy>
  </scstep>
  <scstep>
   <time name="dav">    2.01    2.01</time>
   <time name="total">    2.12    2.13</time>
   <energy>
    <i name="e_fr_energy">    -21.35271233 </i>
    <i name="e_wo_entrp">    -21.35271233 </i>
    <i name="e_0_energy">    -21.35271233 </i>
   </energy>
  </scstep>
  <scstep>
   <time name="dav">    1.72    1.72</time>
   <time name="total">    1.83    1.83</time>
   <energy>
    <i name="e_fr_energy">    -21.35271214 </i>
    <i name="e_wo_entrp">    -21.35271214 </i>
    <i name="e_0_energy">    -21.35271214 </i>
   </energy>
  </scstep>
  <scstep>
   <time name="dav">    1.25    1.25</time>
   <time name="total">    1.36    1.37</time>
   <energy>
    <i name="e_fr_energy">    -21.35271226 </i>
    <i name="e_wo_entrp">    -21.35271226 </i>
    <i name="e_0_energy">    -21.35271226 </i>
   </energy>
  </scstep>
  <scstep>
   <time name="dav">    1.23    1.23</time>
   <time name="total">    1.24    1.25</time>
   <energy>
    <i name="alphaZ">      4.86588954 </i>
    <i name="ewald">   1709.83590688 </i>
    <i name="hartreedc">  -2314.62647980 </i>
    <i name="XCdc">     13.58977246 </i>
    <i name="pawpsdc">   1942.19111417 </i>
    <i name="pawaedc">  -1909.82705223 </i>
    <i name="eentropy">     -0.00000000 </i>
    <i name="bandstr">   -171.54964951 </i>
    <i name="atom">    704.16778566 </i>
    <i name="e_fr_energy">    -21.35271283 </i>
    <i name="e_wo_entrp">    -21.35271283 </i>
    <i name="e_0_energy">    -21.35271283 </i>
   </energy>
  </scstep>
  <structure>
   <crystal>
    <varray name="basis" >
     <v>       3.42655500       0.00000000       0.00000000 </v>
     <v>       0.00000000       4.80472700      -0.00005300 </v>
     <v>       0.00000000       0.00000000      20.02439000 </v>
    </varray>
    <i name="volume">    329.67477521 </i>
    <varray name="rec_basis" >
     <v>       0.29183830       0.00000000       0.00000000 </v>
     <v>       0.00000000       0.20812837       0.00000000 </v>
     <v>       0.00000000       0.00000055       0.04993910 </v>
    </varray>
   </crystal>
   <varray name="positions" >
    <v>       0.50000001       0.90358897       0.55155862 </v>
    <v>       0.49999999       0.09641103       0.44844138 </v>
    <v>       0.00000001       0.40358455       0.44844137 </v>
    <v>      -0.00000001       0.59641545       0.55155863 </v>
   </varray>
  </structure>
  <varray name="forces" >
   <v>      -0.00000056      -0.01192260       0.00249206 </v>
   <v>       0.00000056       0.01192260      -0.00249206 </v>
   <v>      -0.00000052      -0.01193132      -0.00249144 </v>
   <v>       0.00000052       0.01193132       0.00249144 </v>
  </varray>
  <varray name="stress" >
   <v>     -19.43402134      -0.00000705       0.00000065 </v>
   <v>      -0.00000709      -6.68590092       0.00015834 </v>
   <v>       0.00000065       0.00015831      -0.04888663 </v>
  </varray>
  <energy>
   <i name="e_fr_energy">    -21.35271283 </i>
   <i name="e_wo_entrp">    -21.35271283 </i>
   <i name="e_0_energy">     -0.00000000 </i>
  </energy>
  <time name="totalsc">   10.94   10.95</time>
 </calculation>
 <calculation>
  <scstep>
   <time name="dav">    1.54    1.54</time>
   <time name="total">    1.65    1.65</time>
   <energy>
    <i name="alphaZ">      4.86588954 </i>
    <i name="ewald">   1709.66690816 </i>
    <i name="hartreedc">  -2314.45466010 </i>
    <i name="XCdc">     13.58842188 </i>
    <i name="pawpsdc">   1942.22025109 </i>
    <i name="pawaedc">  -1909.85609027 </i>
    <i name="eentropy">     -0.00000000 </i>
    <i name="bandstr">   -171.55122000 </i>
    <i name="atom">    704.16778566 </i>
    <i name="e_fr_energy">    -21.35271404 </i>
    <i name="e_wo_entrp">    -21.35271404 </i>
    <i name="e_0_energy">    -21.35271404 </i>
   </energy>
  </scstep>
  <scstep>
   <time name="dav">    1.30    1.30</time>
   <time name="total">    1.41    1.41</time>
   <energy>
    <i name="e_fr_energy">    -21.35271493 </i>
    <i name="e_wo_entrp">    -21.35271493 </i>
    <i name="e_0_energy">    -21.35271493 </i>
   </energy>
  </scstep>
  <scstep>
   <time name="dav">    1.21    1.21</time>
   <time name="total">    1.32    1.32</time>
   <energy>
    <i name="e_fr_energy">    -21.35271553 </i>
    <i name="e_wo_entrp">    -21.35271553 </i>
    <i name="e_0_energy">    -21.35271553 </i>
   </energy>
  </scstep>
  <scstep>
   <time name="dav">    1.27    1.27</time>
   <time name="total">    1.38    1.38</time>
   <energy>
    <i name="e_fr_energy">    -21.35271614 </i>
    <i name="e_wo_entrp">    -21.35271614 </i>
    <i name="e_0_energy">    -21.35271614 </i>
   </energy>
  </scstep>
  <scstep>
   <time name="dav">    1.37    1.37</time>
   <time name="total">    1.48    1.48</time>
   <energy>
    <i name="e_fr_energy">    -21.35271688 </i>
    <i name="e_wo_entrp">    -21.35271688 </i>
    <i name="e_0_energy">    -21.35271688 </i>
   </energy>
  </scstep>
  <scstep>
   <time name="dav">    1.23    1.23</time>
   <time name="total">    1.25    1.25</time>
   <energy>
    <i name="alphaZ">      4.86588954 </i>
    <i name="ewald">   1709.66690816 </i>
    <i name="hartreedc">  -2314.43817810 </i>
    <i name="XCdc">     13.58818898 </i>
    <i name="pawpsdc">   1941.66121977 </i>
    <i name="pawaedc">  -1909.29688602 </i>
    <i name="eentropy">     -0.00000000 </i>
    <i name="bandstr">   -171.56764523 </i>
    <i name="atom">    704.16778566 </i>
    <i name="e_fr_energy">    -21.35271724 </i>
    <i name="e_wo_entrp">    -21.35271724 </i>
    <i name="e_0_energy">    -21.35271724 </i>
   </energy>
  </scstep>
  <structure>
   <crystal>
    <varray name="basis" >
     <v>       3.42655500       0.00000000       0.00000000 </v>
     <v>       0.00000000       4.80472700      -0.00005300 </v>
     <v>       0.00000000       0.00000000      20.02439000 </v>
    </varray>
    <i name="volume">    329.67477521 </i>
    <varray name="rec_basis" >
     <v>       0.29183830       0.00000000       0.00000000 </v>
     <v>       0.00000000       0.20812837       0.00000000 </v>
     <v>       0.00000000       0.00000055       0.04993910 </v>
    </varray>
   </crystal>
   <varray name="positions" >
    <v>       0.50000001       0.90358794       0.55156861 </v>
    <v>       0.49999999       0.09641206       0.44843139 </v>
    <v>       0.00000001       0.40358353       0.44843139 </v>
    <v>      -0.00000001       0.59641647       0.55156861 </v>
   </varray>
  </structure>
  <varray name="forces" >
   <v>      -0.00000041      -0.01093520      -0.00083699 </v>
   <v>       0.00000041       0.01093520       0.00083699 </v>
   <v>      -0.00000045      -0.01094435       0.00083795 </v>
   <v>       0.00000045       0.01094435      -0.00083795 </v>
  </varray>
  <varray name="stress" >
   <v>     -19.42594367      -0.00000505       0.00000037 </v>
   <v>      -0.00000504      -6.68849227       0.00016280 </v>
   <v>       0.00000034       0.00016281      -0.08602102 </v>
  </varray>
  <energy>
   <i name="e_fr_energy">    -21.35271724 </i>
   <i name="e_wo_entrp">    -21.35271724 </i>
   <i name="e_0_energy">     -0.00000000 </i>
  </energy>
  <time name="totalsc">    9.31    9.32</time>
 </calculation>
 <calculation>
  <scstep>
   <time name="dav">    1.41    1.41</time>
   <time name="total">    1.52    1.53</time>
   <energy>
    <i name="alphaZ">      4.86588954 </i>
    <i name="ewald">   1709.69546474 </i>
    <i name="hartreedc">  -2314.45961663 </i>
    <i name="XCdc">     13.58834364 </i>
    <i name="pawpsdc">   1941.63358407 </i>
    <i name="pawaedc">  -1909.26926008 </i>
    <i name="eentropy">     -0.00000000 </i>
    <i name="bandstr">   -171.57490877 </i>
    <i name="atom">    704.16778566 </i>
    <i name="e_fr_energy">    -21.35271783 </i>
    <i name="e_wo_entrp">    -21.35271783 </i>
    <i name="e_0_energy">    -21.35271783 </i>
   </energy>
  </scstep>
  <scstep>
   <time name="dav">    1.23    1.23</time>
   <time name="total">    1.34    1.34</time>
   <energy>
    <i name="e_fr_energy">    -21.35271789 </i>
    <i name="e_wo_entrp">    -21.35271789 </i>
    <i name="e_0_energy">    -21.35271789 </i>
   </energy>
  </scstep>
  <scstep>
   <time name="dav">    1.18    1.18</time>
   <time name="total">    1.29    1.29</time>
   <energy>
    <i name="e_fr_energy">    -21.35271792 </i>
    <i name="e_wo_entrp">    -21.35271792 </i>
    <i name="e_0_energy">    -21.35271792 </i>
   </energy>
  </scstep>
  <scstep>
   <time name="dav">    1.17    1.17</time>
   <time name="total">    1.27    1.28</time>
   <energy>
    <i name="e_fr_energy">    -21.35271794 </i>
    <i name="e_wo_entrp">    -21.35271794 </i>
    <i name="e_0_energy">    -21.35271794 </i>
   </energy>
  </scstep>
  <scstep>
   <time name="dav">    1.11    1.11</time>
   <time name="total">    1.21    1.22</time>
   <energy>
    <i name="e_fr_energy">    -21.35271795 </i>
    <i name="e_wo_entrp">    -21.35271795 </i>
    <i name="e_0_energy">    -21.35271795 </i>
   </energy>
  </scstep>
  <scstep>
   <time name="dav">    1.13    1.13</time>
   <time name="total">    1.15    1.15</time>
   <energy>
    <i name="alphaZ">      4.86588954 </i>
    <i name="ewald">   1709.69546474 </i>
    <i name="hartreedc">  -2314.45849968 </i>
    <i name="XCdc">     13.58835023 </i>
    <i name="pawpsdc">   1941.73399371 </i>
    <i name="pawaedc">  -1909.36970222 </i>
    <i name="eentropy">     -0.00000000 </i>
    <i name="bandstr">   -171.57599993 </i>
    <i name="atom">    704.16778566 </i>
    <i name="e_fr_energy">    -21.35271795 </i>
    <i name="e_wo_entrp">    -21.35271795 </i>
    <i name="e_0_energy">    -21.35271795 </i>
   </energy>
  </scstep>
  <structure>
   <crystal>
    <varray name="basis" >
     <v>       3.42655500       0.00000000       0.00000000 </v>
     <v>       0.00000000       4.80472700      -0.00005300 </v>
     <v>       0.00000000       0.00000000      20.02439000 </v>
    </varray>
    <i name="volume">    329.67477521 </i>
    <varray name="rec_basis" >
     <v>       0.29183830       0.00000000       0.00000000 </v>
     <v>       0.00000000       0.20812837       0.00000000 </v>
     <v>       0.00000000       0.00000055       0.04993910 </v>
    </varray>
   </crystal>
   <varray name="positions" >
    <v>       0.50000001       0.90358811       0.55156692 </v>
    <v>       0.49999999       0.09641189       0.44843308 </v>
    <v>       0.00000001       0.40358370       0.44843308 </v>
    <v>      -0.00000001       0.59641630       0.55156692 </v>
   </varray>
  </structure>
  <varray name="forces" >
   <v>      -0.00000043      -0.01108229      -0.00025315 </v>
   <v>       0.00000043       0.01108229       0.00025315 </v>
   <v>      -0.00000045      -0.01109144       0.00025412 </v>
   <v>       0.00000045       0.01109144      -0.00025412 </v>
  </varray>
  <varray name="stress" >
   <v>     -19.42488943      -0.00000516       0.00000031 </v>
   <v>      -0.00000524      -6.68664983       0.00016223 </v>
   <v>       0.00000033       0.00016223      -0.07349071 </v>
  </varray>
  <energy>
   <i name="e_fr_energy">    -21.35271795 </i>
   <i name="e_wo_entrp">    -21.35271795 </i>
   <i name="e_0_energy">     -0.00000000 </i>
  </energy>
  <time name="totalsc">    8.61    8.63</time>
 </calculation>
 <calculation>
  <scstep>
   <time name="dav">    1.61    1.61</time>
   <time name="total">    1.71    1.72</time>
   <energy>
    <i name="alphaZ">      4.86588954 </i>
    <i name="ewald">   1709.87605912 </i>
    <i name="hartreedc">  -2314.61263592 </i>
    <i name="XCdc">     13.59117158 </i>
    <i name="pawpsdc">   1941.73749407 </i>
    <i name="pawaedc">  -1909.37320128 </i>
    <i name="eentropy">     -0.00000000 </i>
    <i name="bandstr">   -171.60529049 </i>
    <i name="atom">    704.16778566 </i>
    <i name="e_fr_energy">    -21.35272772 </i>
    <i name="e_wo_entrp">    -21.35272772 </i>
    <i name="e_0_energy">    -21.35272772 </i>
   </energy>
  </scstep>
  <scstep>
   <time name="dav">    1.68    1.68</time>
   <time name="total">    1.79    1.79</time>
   <energy>
    <i name="e_fr_energy">    -21.35273089 </i>
    <i name="e_wo_entrp">    -21.35273089 </i>
    <i name="e_0_energy">    -21.35273089 </i>
   </energy>
  </scstep>
  <scstep>
   <time name="dav">    1.14    1.14</time>
   <time name="total">    1.25    1.25</time>
   <energy>
    <i name="e_fr_energy">    -21.35273102 </i>
    <i name="e_wo_entrp">    -21.35273102 </i>
    <i name="e_0_energy">    -21.35273102 </i>
   </energy>
  </scstep>
  <scstep>
   <time name="dav">    1.11    1.11</time>
   <time name="total">    1.22    1.22</time>
   <energy>
    <i name="e_fr_energy">    -21.35273122 </i>
    <i name="e_wo_entrp">    -21.35273122 </i>
    <i name="e_0_energy">    -21.35273122 </i>
   </energy>
  </scstep>
  <scstep>
   <time name="dav">    1.10    1.10</time>
   <time name="total">    1.21    1.21</time>
   <energy>
    <i name="e_fr_energy">    -21.35273118 </i>
    <i name="e_wo_entrp">    -21.35273118 </i>
    <i name="e_0_energy">    -21.35273118 </i>
   </energy>
  </scstep>
  <scstep>
   <time name="dav">    1.10    1.10</time>
   <time name="total">    1.12    1.12</time>
   <energy>
    <i name="alphaZ">      4.86588954 </i>
    <i name="ewald">   1709.87605912 </i>
    <i name="hartreedc">  -2314.61260971 </i>
    <i name="XCdc">     13.59139208 </i>
    <i name="pawpsdc">   1943.20575008 </i>
    <i name="pawaedc">  -1910.84203227 </i>
    <i name="eentropy">     -0.00000000 </i>
    <i name="bandstr">   -171.60496568 </i>
    <i name="atom">    704.16778566 </i>
    <i name="e_fr_energy">    -21.35273117 </i>
    <i name="e_wo_entrp">    -21.35273117 </i>
    <i name="e_0_energy">    -21.35273117 </i>
   </energy>
  </scstep>
  <structure>
   <crystal>
    <varray name="basis" >
     <v>       3.42655500       0.00000000       0.00000000 </v>
     <v>       0.00000000       4.80472700      -0.00005300 </v>
     <v>       0.00000000       0.00000000      20.02439000 </v>
    </varray>
    <i name="volume">    329.67477521 </i>
    <varray name="rec_basis" >
     <v>       0.29183830       0.00000000       0.00000000 </v>
     <v>       0.00000000       0.20812837       0.00000000 </v>
     <v>       0.00000000       0.00000055       0.04993910 </v>
    </varray>
   </crystal>
   <varray name="positions" >
    <v>       0.50000000       0.90349179       0.55156003 </v>
    <v>       0.50000000       0.09650821       0.44843997 </v>
    <v>       0.00000000       0.40348730       0.44843997 </v>
    <v>      -0.00000000       0.59651270       0.55156003 </v>
   </varray>
  </structure>
  <varray name="forces" >
   <v>      -0.00000009      -0.00233509      -0.00006635 </v>
   <v>       0.00000009       0.00233509       0.00006635 </v>
   <v>      -0.00000011      -0.00234202       0.00006662 </v>
   <v>       0.00000011       0.00234202      -0.00006662 </v>
  </varray>
  <varray name="stress" >
   <v>     -19.39576054      -0.00000135       0.00000036 </v>
   <v>      -0.00000131      -6.56636812       0.00013916 </v>
   <v>       0.00000031       0.00013912      -0.07148658 </v>
  </varray>
  <energy>
   <i name="e_fr_energy">    -21.35273117 </i>
   <i name="e_wo_entrp">    -21.35273117 </i>
   <i name="e_0_energy">     -0.00000000 </i>
  </energy>
  <time name="totalsc">    9.04    9.06</time>
  <eigenvalues>
   <array>
    <dimension dim="1">band</dimension>
    <dimension dim="2">kpoint</dimension>
    <dimension dim="3">spin</dimension>
    <field>eigene</field>
    <field>occ</field>
    <set>
     <set comment="spin 1">
      <set comment="kpoint 1">
       <r>  -17.1154    1.0000 </r>
       <r>  -14.7147    1.0000 </r>
       <r>  -11.8760    1.0000 </r>
       <r>   -7.9151    1.0000 </r>
       <r>   -7.3154    1.0000 </r>
       <r>   -6.6852    1.0000 </r>
       <r>   -6.1347    1.0000 </r>
       <r>   -4.5981    1.0000 </r>
       <r>   -3.8163    1.0000 </r>
       <r>   -2.5325    1.0000 </r>
       <r>   -1.3281    0.0000 </r>
       <r>   -1.2721    0.0000 </r>
       <r>   -0.5346    0.0000 </r>
       <r>    0.2276    0.0000 </r>
       <r>    1.9811    0.0000 </r>
       <r>    2.1799    0.0000 </r>
      </set>
      <set comment="kpoint 2">
       <r>  -17.0909    1.0000 </r>
       <r>  -14.6887    1.0000 </r>
       <r>  -11.8886    1.0000 </r>
       <r>   -7.8978    1.0000 </r>
       <r>   -7.3482    1.0000 </r>
       <r>   -6.6641    1.0000 </r>
       <r>   -6.2770    1.0000 </r>
       <r>   -4.7444    1.0000 </r>
       <r>   -3.8141    1.0000 </r>
       <r>   -2.5408    1.0000 </r>
       <r>   -1.2506    0.0000 </r>
       <r>   -1.1142    0.0000 </r>
       <r>   -0.3206    0.0000 </r>
       <r>    0.0993    0.0000 </r>
       <r>    2.0057    0.0000 </r>
       <r>    2.2081    0.0000 </r>
      </set>
      <set comment="kpoint 3">
       <r>  -17.0175    1.0000 </r>
       <r>  -14.6108    1.0000 </r>
       <r>  -11.9306    1.0000 </r>
       <r>   -7.8470    1.0000 </r>
       <r>   -7.4658    1.0000 </r>
       <r>   -6.6290    1.0000 </r>
       <r>   -6.6013    1.0000 </r>
       <r>   -5.0726    1.0000 </r>
       <r>   -3.8124    1.0000 </r>
       <r>   -2.5760    1.0000 </r>
       <r>   -1.1870    0.0000 </r>
       <r>   -0.5368    0.0000 </r>
       <r>   -0.2194    0.0000 </r>
       <r>    0.2100    0.0000 </r>
       <r>    2.0687    0.0000 </r>
       <r>    2.2919    0.0000 </r>
      </set>
      <set comment="kpoint 4">
       <r>  -16.8956    1.0000 </r>
       <r>  -14.4812    1.0000 </r>
       <r>  -12.0145    1.0000 </r>
       <r>   -7.7653    1.0000 </r>
       <r>   -7.7160    1.0000 </r>
       <r>   -7.0538    1.0000 </r>
       <r>   -6.4982    1.0000 </r>
       <r>   -5.3874    1.0000 </r>
       <r>   -3.8262    1.0000 </r>
       <r>   -2.6503    1.0000 </r>
       <r>   -1.0841    0.0000 </r>
       <r>   -0.6032    0.0000 </r>
       <r>    0.2766    0.0000 </r>
       <r>    0.8104    0.0000 </r>
       <r>    1.9680    0.0000 </r>
       <r>    2.3293    0.0000 </r>
      </set>
      <set comment="kpoint 5">
       <r>  -16.7260    1.0000 </r>
       <r>  -14.3001    1.0000 </r>
       <r>  -12.1582    1.0000 </r>
       <r>   -8.1276    1.0000 </r>
       <r>   -7.6584    1.0000 </r>
       <r>   -7.4457    1.0000 </r>
       <r>   -6.3577    1.0000 </r>
       <r>   -5.5680    1.0000 </r>
       <r>   -3.8802    1.0000 </r>
       <r>   -2.7714    1.0000 </r>
       <r>   -0.9489    0.0000 </r>
       <r>   -0.9447    0.0000 </r>
       <r>    1.0552    0.0000 </r>
       <r>    1.2031    0.0000 </r>
       <r>    1.4917    0.0000 </r>
       <r>    2.4763    0.0000 </r>
      </set>
      <set comment="kpoint 6">
       <r>  -16.5095    1.0000 </r>
       <r>  -14.0680    1.0000 </r>
       <r>  -12.3779    1.0000 </r>
       <r>   -8.6666    1.0000 </r>
       <r>   -7.7410    1.0000 </r>
       <r>   -7.5354    1.0000 </r>
       <r>   -6.1840    1.0000 </r>
       <r>   -5.6059    1.0000 </r>
       <r>   -3.9979    1.0000 </r>
       <r>   -2.9449    1.0000 </r>
       <r>   -1.1671    0.0000 </r>
       <r>   -0.7991    0.0000 </r>
       <r>    0.7264    0.0000 </r>
       <r>    0.9958    0.0000 </r>
       <r>    1.9460    0.0000 </r>
       <r>    2.7212    0.0000 </r>
      </set>
      <set comment="kpoint 7">
       <r>  -16.2477    1.0000 </r>
       <r>  -13.7854    1.0000 </r>
       <r>  -12.6792    1.0000 </r>
       <r>   -9.2709    1.0000 </r>
       <r>   -7.9110    1.0000 </r>
       <r>   -7.4120    1.0000 </r>
       <r>   -5.9844    1.0000 </r>
       <r>   -5.5470    1.0000 </r>
       <r>   -4.1775    1.0000 </r>
       <r>   -3.1708    1.0000 </r>
       <r>   -1.2334    0.0000 </r>
       <r>   -0.6854    0.0000 </r>
       <r>    0.2092    0.0000 </r>
       <r>    0.5970    0.0000 </r>
       <r>    1.8403    0.0000 </r>
       <r>    2.9140    0.0000 </r>
      </set>
      <set comment="kpoint 8">
       <r>  -15.9426    1.0000 </r>
       <r>  -13.4531    1.0000 </r>
       <r>  -13.0512    1.0000 </r>
       <r>   -9.8937    1.0000 </r>
       <r>   -7.9561    1.0000 </r>
       <r>   -7.3124    1.0000 </r>
       <r>   -5.7698    1.0000 </r>
       <r>   -5.4378    1.0000 </r>
       <r>   -4.3754    1.0000 </r>
       <r>   -3.4400    1.0000 </r>
       <r>   -1.1500    0.0000 </r>
       <r>   -0.7207    0.0000 </r>
       <r>   -0.3039    0.0000 </r>
       <r>    0.4364    0.0000 </r>
       <r>    1.4389    0.0000 </r>
       <r>    2.7214    0.0000 </r>
      </set>
      <set comment="kpoint 9">
       <r>  -15.5970    1.0000 </r>
       <r>  -13.4718    1.0000 </r>
       <r>  -13.0721    1.0000 </r>
       <r>  -10.5076    1.0000 </r>
       <r>   -7.8968    1.0000 </r>
       <r>   -7.2684    1.0000 </r>
       <r>   -5.5573    1.0000 </r>
       <r>   -5.3174    1.0000 </r>
       <r>   -4.5241    1.0000 </r>
       <r>   -3.7341    1.0000 </r>
       <r>   -0.9467    0.0000 </r>
       <r>   -0.9271    0.0000 </r>
       <r>   -0.7466    0.0000 </r>
       <r>    0.5608    0.0000 </r>
       <r>    0.9976    0.0000 </r>
       <r>    2.3904    0.0000 </r>
      </set>
      <set comment="kpoint 10">
       <r>  -15.2149    1.0000 </r>
       <r>  -13.9168    1.0000 </r>
       <r>  -12.6437    1.0000 </r>
       <r>  -11.0971    1.0000 </r>
       <r>   -7.7638    1.0000 </r>
       <r>   -7.3066    1.0000 </r>
       <r>   -5.3712    1.0000 </r>
       <r>   -5.2232    1.0000 </r>
       <r>   -4.5657    1.0000 </r>
       <r>   -4.0274    1.0000 </r>
       <r>   -1.1511    0.0000 </r>
       <r>   -1.0768    0.0000 </r>
       <r>   -0.6535    0.0000 </r>
       <r>    0.5492    0.0000 </r>
       <r>    0.8437    0.0000 </r>
       <r>    1.9998    0.0000 </r>
      </set>
      <set comment="kpoint 11">
       <r>  -14.8017    1.0000 </r>
       <r>  -14.3653    1.0000 </r>
       <r>  -12.1698    1.0000 </r>
       <r>  -11.6530    1.0000 </r>
       <r>   -7.5930    1.0000 </r>
       <r>   -7.4257    1.0000 </r>
       <r>   -5.2408    1.0000 </r>
       <r>   -5.1904    1.0000 </r>
       <r>   -4.4803    1.0000 </r>
       <r>   -4.2884    1.0000 </r>
       <r>   -1.2802    0.0000 </r>
       <r>   -1.2603    0.0000 </r>
       <r>   -0.2941    0.0000 </r>
       <r>    0.1127    0.0000 </r>
       <r>    1.2001    0.0000 </r>
       <r>    1.5936    0.0000 </r>
      </set>
      <set comment="kpoint 12">
       <r>  -17.0961    1.0000 </r>
       <r>  -14.7525    1.0000 </r>
       <r>  -11.8567    1.0000 </r>
       <r>   -8.1265    1.0000 </r>
       <r>   -7.1368    1.0000 </r>
       <r>   -6.6185    1.0000 </r>
       <r>   -6.1196    1.0000 </r>
       <r>   -4.6157    1.0000 </r>
       <r>   -3.7596    1.0000 </r>
       <r>   -2.6833    1.0000 </r>
       <r>   -1.3127    0.0000 </r>
       <r>   -1.1271    0.0000 </r>
       <r>   -0.5832    0.0000 </r>
       <r>    0.2284    0.0000 </r>
       <r>    2.0278    0.0000 </r>
       <r>    2.2065    0.0000 </r>
      </set>
      <set comment="kpoint 13">
       <r>  -17.0716    1.0000 </r>
       <r>  -14.7268    1.0000 </r>
       <r>  -11.8683    1.0000 </r>
       <r>   -8.1182    1.0000 </r>
       <r>   -7.1596    1.0000 </r>
       <r>   -6.6140    1.0000 </r>
       <r>   -6.2455    1.0000 </r>
       <r>   -4.7651    1.0000 </r>
       <r>   -3.7594    1.0000 </r>
       <r>   -2.6882    1.0000 </r>
       <r>   -1.1101    0.0000 </r>
       <r>   -1.0984    0.0000 </r>
       <r>   -0.3710    0.0000 </r>
       <r>    0.1084    0.0000 </r>
       <r>    2.0515    0.0000 </r>
       <r>    2.2348    0.0000 </r>
      </set>
      <set comment="kpoint 14">
       <r>  -16.9983    1.0000 </r>
       <r>  -14.6498    1.0000 </r>
       <r>  -11.9074    1.0000 </r>
       <r>   -8.1026    1.0000 </r>
       <r>   -7.2395    1.0000 </r>
       <r>   -6.7228    1.0000 </r>
       <r>   -6.4274    1.0000 </r>
       <r>   -5.0995    1.0000 </r>
       <r>   -3.7649    1.0000 </r>
       <r>   -2.7121    1.0000 </r>
       <r>   -1.0584    0.0000 </r>
       <r>   -0.5225    0.0000 </r>
       <r>   -0.2195    0.0000 </r>
       <r>    0.1871    0.0000 </r>
       <r>    2.1089    0.0000 </r>
       <r>    2.3187    0.0000 </r>
      </set>
      <set comment="kpoint 15">
       <r>  -16.8765    1.0000 </r>
       <r>  -14.5217    1.0000 </r>
       <r>  -11.9865    1.0000 </r>
       <r>   -8.1254    1.0000 </r>
       <r>   -7.3847    1.0000 </r>
       <r>   -7.0985    1.0000 </r>
       <r>   -6.3773    1.0000 </r>
       <r>   -5.4177    1.0000 </r>
       <r>   -3.7920    1.0000 </r>
       <r>   -2.7678    1.0000 </r>
       <r>   -0.9735    0.0000 </r>
       <r>   -0.5758    0.0000 </r>
       <r>    0.2852    0.0000 </r>
       <r>    0.7948    0.0000 </r>
       <r>    1.8919    0.0000 </r>
       <r>    2.3031    0.0000 </r>
      </set>
      <set comment="kpoint 16">
       <r>  -16.7070    1.0000 </r>
       <r>  -14.3435    1.0000 </r>
       <r>  -12.1233    1.0000 </r>
       <r>   -8.3184    1.0000 </r>
       <r>   -7.5003    1.0000 </r>
       <r>   -7.4824    1.0000 </r>
       <r>   -6.2511    1.0000 </r>
       <r>   -5.5972    1.0000 </r>
       <r>   -3.8639    1.0000 </r>
       <r>   -2.8664    1.0000 </r>
       <r>   -0.8915    0.0000 </r>
       <r>   -0.8597    0.0000 </r>
       <r>    1.0838    0.0000 </r>
       <r>    1.1196    0.0000 </r>
       <r>    1.4777    0.0000 </r>
       <r>    2.4539    0.0000 </r>
      </set>
      <set comment="kpoint 17">
       <r>  -16.4909    1.0000 </r>
       <r>  -14.1167    1.0000 </r>
       <r>  -12.3339    1.0000 </r>
       <r>   -8.7558    1.0000 </r>
       <r>   -7.7757    1.0000 </r>
       <r>   -7.4832    1.0000 </r>
       <r>   -6.0883    1.0000 </r>
       <r>   -5.6356    1.0000 </r>
       <r>   -3.9979    1.0000 </r>
       <r>   -3.0164    1.0000 </r>
       <r>   -1.0883    0.0000 </r>
       <r>   -0.7322    0.0000 </r>
       <r>    0.7901    0.0000 </r>
       <r>    0.8332    0.0000 </r>
       <r>    2.0558    0.0000 </r>
       <r>    2.6771    0.0000 </r>
      </set>
      <set comment="kpoint 18">
       <r>  -16.2295    1.0000 </r>
       <r>  -13.8462    1.0000 </r>
       <r>  -12.6203    1.0000 </r>
       <r>   -9.3228    1.0000 </r>
       <r>   -7.9442    1.0000 </r>
       <r>   -7.3969    1.0000 </r>
       <r>   -5.9018    1.0000 </r>
       <r>   -5.5872    1.0000 </r>
       <r>   -4.1811    1.0000 </r>
       <r>   -3.2193    1.0000 </r>
       <r>   -1.1362    0.0000 </r>
       <r>   -0.6442    0.0000 </r>
       <r>    0.2832    0.0000 </r>
       <r>    0.4480    0.0000 </r>
       <r>    2.0037    0.0000 </r>
       <r>    2.8637    0.0000 </r>
      </set>
      <set comment="kpoint 19">
       <r>  -15.9250    1.0000 </r>
       <r>  -13.5585    1.0000 </r>
       <r>  -12.9462    1.0000 </r>
       <r>   -9.9296    1.0000 </r>
       <r>   -7.9868    1.0000 </r>
       <r>   -7.3082    1.0000 </r>
       <r>   -5.7064    1.0000 </r>
       <r>   -5.5061    1.0000 </r>
       <r>   -4.3591    1.0000 </r>
       <r>   -3.4649    1.0000 </r>
       <r>   -1.0488    0.0000 </r>
       <r>   -0.7190    0.0000 </r>
       <r>   -0.2248    0.0000 </r>
       <r>    0.3070    0.0000 </r>
       <r>    1.6400    0.0000 </r>
       <r>    2.6736    0.0000 </r>
      </set>
      <set comment="kpoint 20">
       <r>  -15.5804    1.0000 </r>
       <r>  -13.5414    1.0000 </r>
       <r>  -13.0026    1.0000 </r>
       <r>  -10.5350    1.0000 </r>
       <r>   -7.9233    1.0000 </r>
       <r>   -7.2659    1.0000 </r>
       <r>   -5.5240    1.0000 </r>
       <r>   -5.4314    1.0000 </r>
       <r>   -4.4615    1.0000 </r>
       <r>   -3.7313    1.0000 </r>
       <r>   -0.9539    0.0000 </r>
       <r>   -0.9023    0.0000 </r>
       <r>   -0.6164    0.0000 </r>
       <r>    0.4181    0.0000 </r>
       <r>    1.2484    0.0000 </r>
       <r>    2.3483    0.0000 </r>
      </set>
      <set comment="kpoint 21">
       <r>  -15.1999    1.0000 </r>
       <r>  -13.9242    1.0000 </r>
       <r>  -12.6370    1.0000 </r>
       <r>  -11.1186    1.0000 </r>
       <r>   -7.7844    1.0000 </r>
       <r>   -7.3060    1.0000 </r>
       <r>   -5.3847    1.0000 </r>
       <r>   -5.3731    1.0000 </r>
       <r>   -4.4550    1.0000 </r>
       <r>   -3.9879    1.0000 </r>
       <r>   -1.1820    0.0000 </r>
       <r>   -1.0777    0.0000 </r>
       <r>   -0.4958    0.0000 </r>
       <r>    0.4984    0.0000 </r>
       <r>    1.0128    0.0000 </r>
       <r>    1.9667    0.0000 </r>
      </set>
      <set comment="kpoint 22">
       <r>  -14.7895    1.0000 </r>
       <r>  -14.3587    1.0000 </r>
       <r>  -12.1784    1.0000 </r>
       <r>  -11.6690    1.0000 </r>
       <r>   -7.6061    1.0000 </r>
       <r>   -7.4309    1.0000 </r>
       <r>   -5.3262    1.0000 </r>
       <r>   -5.3180    1.0000 </r>
       <r>   -4.3615    1.0000 </r>
       <r>   -4.2038    1.0000 </r>
       <r>   -1.3015    0.0000 </r>
       <r>   -1.2669    0.0000 </r>
       <r>   -0.1598    0.0000 </r>
       <r>    0.2135    0.0000 </r>
       <r>    1.2172    0.0000 </r>
       <r>    1.5759    0.0000 </r>
      </set>
      <set comment="kpoint 23">
       <r>  -14.7895    1.0000 </r>
       <r>  -14.3587    1.0000 </r>
       <r>  -12.1784    1.0000 </r>
[...]
       <r>    2.8745    0.0000 </r>
       <r>    3.1277    0.0000 </r>
      </set>
      <set comment="kpoint 153">
       <r>  -15.4151    1.0000 </r>
       <r>  -15.1870    1.0000 </r>
       <r>  -11.1827    1.0000 </r>
       <r>  -10.8742    1.0000 </r>
       <r>   -7.9615    1.0000 </r>
       <r>   -7.8189    1.0000 </r>
       <r>   -5.4562    1.0000 </r>
       <r>   -5.2648    1.0000 </r>
       <r>   -3.9782    1.0000 </r>
       <r>   -3.9192    1.0000 </r>
       <r>   -0.1691    0.0000 </r>
       <r>    0.1330    0.0000 </r>
       <r>    0.8391    0.0000 </r>
       <r>    1.0906    0.0000 </r>
       <r>    2.7257    0.0000 </r>
       <r>    2.9851    0.0000 </r>
      </set>
      <set comment="kpoint 154">
       <r>  -15.6563    1.0000 </r>
       <r>  -15.4225    1.0000 </r>
       <r>  -10.9742    1.0000 </r>
       <r>  -10.6496    1.0000 </r>
       <r>   -7.7369    1.0000 </r>
       <r>   -7.5970    1.0000 </r>
       <r>   -5.2697    1.0000 </r>
       <r>   -5.0346    1.0000 </r>
       <r>   -4.0034    1.0000 </r>
       <r>   -3.9630    1.0000 </r>
       <r>   -0.1550    0.0000 </r>
       <r>    0.0643    0.0000 </r>
       <r>    0.9771    0.0000 </r>
       <r>    1.2718    0.0000 </r>
       <r>    2.2424    0.0000 </r>
       <r>    2.5025    0.0000 </r>
      </set>
      <set comment="kpoint 155">
       <r>  -15.8599    1.0000 </r>
       <r>  -15.6229    1.0000 </r>
       <r>  -10.8650    1.0000 </r>
       <r>  -10.5359    1.0000 </r>
       <r>   -7.3391    1.0000 </r>
       <r>   -7.1934    1.0000 </r>
       <r>   -5.2120    1.0000 </r>
       <r>   -4.9279    1.0000 </r>
       <r>   -4.0288    1.0000 </r>
       <r>   -3.8651    1.0000 </r>
       <r>   -0.0921    0.0000 </r>
       <r>    0.0239    0.0000 </r>
       <r>    1.0273    0.0000 </r>
       <r>    1.3586    0.0000 </r>
       <r>    1.5782    0.0000 </r>
       <r>    1.7783    0.0000 </r>
      </set>
      <set comment="kpoint 156">
       <r>  -16.0214    1.0000 </r>
       <r>  -15.7827    1.0000 </r>
       <r>  -10.8271    1.0000 </r>
       <r>  -10.4997    1.0000 </r>
       <r>   -6.8178    1.0000 </r>
       <r>   -6.6626    1.0000 </r>
       <r>   -5.2295    1.0000 </r>
       <r>   -4.9167    1.0000 </r>
       <r>   -4.0370    1.0000 </r>
       <r>   -3.7636    1.0000 </r>
       <r>   -0.0867    0.0000 </r>
       <r>   -0.0738    0.0000 </r>
       <r>    0.9047    0.0000 </r>
       <r>    0.9348    0.0000 </r>
       <r>    1.2731    0.0000 </r>
       <r>    1.4234    0.0000 </r>
      </set>
      <set comment="kpoint 157">
       <r>  -16.1382    1.0000 </r>
       <r>  -15.8986    1.0000 </r>
       <r>  -10.8248    1.0000 </r>
       <r>  -10.5007    1.0000 </r>
       <r>   -6.2457    1.0000 </r>
       <r>   -6.0843    1.0000 </r>
       <r>   -5.2685    1.0000 </r>
       <r>   -4.9448    1.0000 </r>
       <r>   -4.0936    1.0000 </r>
       <r>   -3.7342    1.0000 </r>
       <r>   -0.4229    0.0000 </r>
       <r>   -0.3823    0.0000 </r>
       <r>    0.7037    0.0000 </r>
       <r>    0.8087    0.0000 </r>
       <r>    1.1581    0.0000 </r>
       <r>    1.4142    0.0000 </r>
      </set>
      <set comment="kpoint 158">
       <r>  -16.2089    1.0000 </r>
       <r>  -15.9688    1.0000 </r>
       <r>  -10.8326    1.0000 </r>
       <r>  -10.5108    1.0000 </r>
       <r>   -5.7286    1.0000 </r>
       <r>   -5.5744    1.0000 </r>
       <r>   -5.3006    1.0000 </r>
       <r>   -4.9761    1.0000 </r>
       <r>   -4.2235    1.0000 </r>
       <r>   -3.8011    1.0000 </r>
       <r>   -0.8256    0.0000 </r>
       <r>   -0.7713    0.0000 </r>
       <r>    0.7228    0.0000 </r>
       <r>    0.9182    0.0000 </r>
       <r>    1.1116    0.0000 </r>
       <r>    1.3970    0.0000 </r>
      </set>
     </set>
    </set>
   </array>
  </eigenvalues>
  <separator name="orbital magnetization" >
   <v name="MAGDIPOLOUT">      0.00000000      0.00000000      0.00000000</v>
  </separator>
  <dos>
   <i name="efermi">     -2.42894789 </i>
   <total>
    <array>
     <dimension dim="1">gridpoints</dimension>
     <dimension dim="2">spin</dimension>
     <field>energy</field>
     <field>total</field>
     <field>integrated</field>
     <set>
      <set comment="spin 1">
       <r>   -18.1346     0.0000     0.0000 </r>
       <r>   -18.0599     0.0000     0.0000 </r>
       <r>   -17.9851     0.0000     0.0000 </r>
       <r>   -17.9104     0.0000     0.0000 </r>
       <r>   -17.8357     0.0000     0.0000 </r>
       <r>   -17.7609     0.0000     0.0000 </r>
       <r>   -17.6862     0.0000     0.0000 </r>
       <r>   -17.6114     0.0000     0.0000 </r>
       <r>   -17.5367     0.0000     0.0000 </r>
       <r>   -17.4619     0.0000     0.0000 </r>
       <r>   -17.3872     0.0000     0.0000 </r>
       <r>   -17.3124     0.0000     0.0000 </r>
       <r>   -17.2377     0.0000     0.0000 </r>
       <r>   -17.1630     0.0000     0.0000 </r>
       <r>   -17.0882     0.3420     0.0256 </r>
       <r>   -17.0135     0.9131     0.0938 </r>
       <r>   -16.9387     0.8541     0.1577 </r>
       <r>   -16.8640     1.0040     0.2327 </r>
       <r>   -16.7892     1.0250     0.3093 </r>
       <r>   -16.7145     0.8781     0.3749 </r>
       <r>   -16.6397     0.9357     0.4449 </r>
       <r>   -16.5650     0.9147     0.5132 </r>
       <r>   -16.4903     0.8552     0.5772 </r>
       <r>   -16.4155     1.5273     0.6913 </r>
       <r>   -16.3408     0.6766     0.7419 </r>
       <r>   -16.2660     0.4000     0.7718 </r>
       <r>   -16.1913     1.8147     0.9074 </r>
       <r>   -16.1165     0.6706     0.9576 </r>
       <r>   -16.0418     1.0157     1.0335 </r>
       <r>   -15.9670     0.8387     1.0961 </r>
       <r>   -15.8923     1.1549     1.1825 </r>
       <r>   -15.8176     1.1668     1.2697 </r>
       <r>   -15.7428     1.0198     1.3459 </r>
       <r>   -15.6681     0.6804     1.3968 </r>
       <r>   -15.5933     1.5968     1.5161 </r>
       <r>   -15.5186     1.0814     1.5969 </r>
       <r>   -15.4438     1.0303     1.6740 </r>
       <r>   -15.3691     1.3415     1.7742 </r>
       <r>   -15.2943     0.8525     1.8379 </r>
       <r>   -15.2196     0.7769     1.8960 </r>
       <r>   -15.1449     2.2126     2.0614 </r>
       <r>   -15.0701     0.9894     2.1353 </r>
       <r>   -14.9954     1.2518     2.2289 </r>
       <r>   -14.9206     1.3538     2.3301 </r>
       <r>   -14.8459     1.4859     2.4412 </r>
       <r>   -14.7711     1.3379     2.5412 </r>
       <r>   -14.6964     2.0693     2.6958 </r>
       <r>   -14.6216     2.4881     2.8818 </r>
       <r>   -14.5469     0.7960     2.9413 </r>
       <r>   -14.4722     0.9815     3.0147 </r>
       <r>   -14.3974     2.1601     3.1761 </r>
       <r>   -14.3227     1.6803     3.3017 </r>
       <r>   -14.2479     2.4641     3.4859 </r>
       <r>   -14.1732     1.0542     3.5647 </r>
       <r>   -14.0984     0.5319     3.6045 </r>
       <r>   -14.0237     0.8988     3.6716 </r>
       <r>   -13.9489     1.1756     3.7595 </r>
       <r>   -13.8742     0.7568     3.8161 </r>
       <r>   -13.7995     0.6198     3.8624 </r>
       <r>   -13.7247     0.4812     3.8984 </r>
       <r>   -13.6500     0.3395     3.9237 </r>
       <r>   -13.5752     0.0440     3.9270 </r>
       <r>   -13.5005     0.6397     3.9748 </r>
       <r>   -13.4257     0.3321     3.9997 </r>
       <r>   -13.3510     0.0046     4.0000 </r>
       <r>   -13.2762     0.0000     4.0000 </r>
       <r>   -13.2015     0.0000     4.0000 </r>
       <r>   -13.1268     0.0000     4.0000 </r>
       <r>   -13.0520     0.2376     4.0178 </r>
       <r>   -12.9773     0.4342     4.0502 </r>
       <r>   -12.9025     0.3473     4.0762 </r>
       <r>   -12.8278     0.3315     4.1010 </r>
       <r>   -12.7530     0.1139     4.1095 </r>
       <r>   -12.6783     0.5024     4.1470 </r>
       <r>   -12.6035     1.3174     4.2455 </r>
       <r>   -12.5288     0.5475     4.2864 </r>
       <r>   -12.4541     1.2087     4.3768 </r>
       <r>   -12.3793     0.4510     4.4105 </r>
       <r>   -12.3046     0.7161     4.4640 </r>
       <r>   -12.2298     2.7390     4.6687 </r>
       <r>   -12.1551     1.6489     4.7920 </r>
       <r>   -12.0803     1.1206     4.8757 </r>
       <r>   -12.0056     1.8464     5.0137 </r>
       <r>   -11.9308     1.0823     5.0946 </r>
       <r>   -11.8561     2.0781     5.2499 </r>
       <r>   -11.7814     2.0840     5.4057 </r>
       <r>   -11.7066     2.0328     5.5576 </r>
       <r>   -11.6319     1.3195     5.6563 </r>
       <r>   -11.5571     1.5661     5.7733 </r>
       <r>   -11.4824     0.9616     5.8452 </r>
       <r>   -11.4076     0.9983     5.9198 </r>
       <r>   -11.3329     1.4742     6.0300 </r>
       <r>   -11.2581     0.7535     6.0863 </r>
       <r>   -11.1834     0.7014     6.1388 </r>
       <r>   -11.1086     2.0799     6.2942 </r>
       <r>   -11.0339     0.6508     6.3429 </r>
       <r>   -10.9592     0.2937     6.3648 </r>
       <r>   -10.8844     0.8304     6.4269 </r>
       <r>   -10.8097     1.6561     6.5507 </r>
       <r>   -10.7349     0.3718     6.5785 </r>
       <r>   -10.6602     0.2898     6.6001 </r>
       <r>   -10.5854     0.8135     6.6609 </r>
       <r>   -10.5107     1.4893     6.7722 </r>
       <r>   -10.4359     0.8936     6.8390 </r>
       <r>   -10.3612     0.3272     6.8635 </r>
       <r>   -10.2865     0.3242     6.8877 </r>
       <r>   -10.2117     0.4217     6.9192 </r>
       <r>   -10.1370     1.5132     7.0323 </r>
       <r>   -10.0622     0.2975     7.0546 </r>
       <r>    -9.9875     0.3444     7.0803 </r>
       <r>    -9.9127     0.9814     7.1537 </r>
       <r>    -9.8380     0.2028     7.1688 </r>
       <r>    -9.7632     0.8817     7.2347 </r>
       <r>    -9.6885     0.7942     7.2941 </r>
       <r>    -9.6138     0.3448     7.3199 </r>
       <r>    -9.5390     0.1800     7.3333 </r>
       <r>    -9.4643     0.2140     7.3493 </r>
       <r>    -9.3895     0.4730     7.3847 </r>
       <r>    -9.3148     1.4220     7.4910 </r>
       <r>    -9.2400     0.6059     7.5362 </r>
       <r>    -9.1653     0.0035     7.5365 </r>
       <r>    -9.0905     0.0000     7.5365 </r>
       <r>    -9.0158     0.3207     7.5605 </r>
       <r>    -8.9411     0.7365     7.6155 </r>
       <r>    -8.8663     0.8116     7.6762 </r>
       <r>    -8.7916     0.0019     7.6763 </r>
       <r>    -8.7168     0.3369     7.7015 </r>
       <r>    -8.6421     0.4698     7.7366 </r>
       <r>    -8.5673     0.0421     7.7398 </r>
       <r>    -8.4926     1.0531     7.8185 </r>
       <r>    -8.4178     0.1348     7.8286 </r>
       <r>    -8.3431     0.0138     7.8296 </r>
       <r>    -8.2684     0.3259     7.8540 </r>
       <r>    -8.1936     0.0597     7.8584 </r>
       <r>    -8.1189     2.2630     8.0276 </r>
       <r>    -8.0441     2.9677     8.2494 </r>
       <r>    -7.9694     1.9155     8.3926 </r>
       <r>    -7.8946     3.1197     8.6257 </r>
       <r>    -7.8199     2.6611     8.8247 </r>
       <r>    -7.7451     1.7710     8.9570 </r>
       <r>    -7.6704     1.6466     9.0801 </r>
       <r>    -7.5957     2.6437     9.2777 </r>
       <r>    -7.5209     2.4170     9.4584 </r>
       <r>    -7.4462     2.8283     9.6698 </r>
       <r>    -7.3714     4.2140     9.9847 </r>
       <r>    -7.2967     4.7209    10.3376 </r>
       <r>    -7.2219     3.9443    10.6324 </r>
       <r>    -7.1472     1.5543    10.7486 </r>
       <r>    -7.0724     1.0709    10.8286 </r>
       <r>    -6.9977     1.1481    10.9144 </r>
       <r>    -6.9230     1.1268    10.9987 </r>
       <r>    -6.8482     0.5355    11.0387 </r>
       <r>    -6.7735     1.1723    11.1263 </r>
       <r>    -6.6987     1.5410    11.2415 </r>
       <r>    -6.6240     1.4931    11.3531 </r>
       <r>    -6.5492     1.9535    11.4991 </r>
       <r>    -6.4745     2.6148    11.6946 </r>
       <r>    -6.3997     1.0921    11.7762 </r>
       <r>    -6.3250     1.4513    11.8847 </r>
       <r>    -6.2503     2.2188    12.0505 </r>
       <r>    -6.1755     2.0108    12.2008 </r>
       <r>    -6.1008     2.1713    12.3631 </r>
       <r>    -6.0260     1.6899    12.4894 </r>
       <r>    -5.9513     3.3119    12.7369 </r>
       <r>    -5.8765     2.4005    12.9164 </r>
       <r>    -5.8018     1.3824    13.0197 </r>
       <r>    -5.7270     3.8859    13.3101 </r>
       <r>    -5.6523     5.1348    13.6939 </r>
       <r>    -5.5776     3.6397    13.9660 </r>
       <r>    -5.5028     3.6640    14.2399 </r>
       <r>    -5.4281     3.8330    14.5263 </r>
       <r>    -5.3533     3.1917    14.7649 </r>
       <r>    -5.2786     3.2311    15.0064 </r>
       <r>    -5.2038     2.3902    15.1851 </r>
       <r>    -5.1291     2.1181    15.3434 </r>
       <r>    -5.0543     1.2198    15.4346 </r>
       <r>    -4.9796     1.2243    15.5261 </r>
       <r>    -4.9049     1.8839    15.6669 </r>
       <r>    -4.8301     1.5515    15.7828 </r>
       <r>    -4.7554     0.8072    15.8432 </r>
       <r>    -4.6806     0.8693    15.9081 </r>
       <r>    -4.6059     1.2627    16.0025 </r>
       <r>    -4.5311     0.7012    16.0549 </r>
       <r>    -4.4564     0.9903    16.1290 </r>
       <r>    -4.3816     0.4198    16.1603 </r>
       <r>    -4.3069     1.8647    16.2997 </r>
       <r>    -4.2322     1.3668    16.4019 </r>
       <r>    -4.1574     3.6627    16.6756 </r>
       <r>    -4.0827     2.3957    16.8547 </r>
       <r>    -4.0079     2.8525    17.0679 </r>
       <r>    -3.9332     4.5182    17.4056 </r>
       <r>    -3.8584     2.4575    17.5893 </r>
       <r>    -3.7837     4.6588    17.9375 </r>
       <r>    -3.7089     5.7300    18.3658 </r>
       <r>    -3.6342     3.0529    18.5940 </r>
       <r>    -3.5595     3.4288    18.8503 </r>
       <r>    -3.4847     4.1587    19.1611 </r>
       <r>    -3.4100     3.2409    19.4034 </r>
       <r>    -3.3352     1.7223    19.5321 </r>
       <r>    -3.2605     0.9515    19.6032 </r>
       <r>    -3.1857     0.8026    19.6632 </r>
       <r>    -3.1110     0.3113    19.6865 </r>
       <r>    -3.0362     0.6595    19.7358 </r>
       <r>    -2.9615     1.0923    19.8174 </r>
       <r>    -2.8868     0.1749    19.8305 </r>
       <r>    -2.8120     0.3149    19.8540 </r>
       <r>    -2.7373     0.5152    19.8925 </r>
       <r>    -2.6625     0.8522    19.9562 </r>
       <r>    -2.5878     0.1954    19.9708 </r>
       <r>    -2.5130     0.3790    19.9992 </r>
       <r>    -2.4383     0.0113    20.0000 </r>
       <r>    -2.3635     0.0000    20.0000 </r>
       <r>    -2.2888     0.0000    20.0000 </r>
       <r>    -2.2141     0.0000    20.0000 </r>
       <r>    -2.1393     0.0000    20.0000 </r>
       <r>    -2.0646     0.0000    20.0000 </r>
       <r>    -1.9898     0.0000    20.0000 </r>
       <r>    -1.9151     0.0000    20.0000 </r>
       <r>    -1.8403     0.0000    20.0000 </r>
       <r>    -1.7656     0.0000    20.0000 </r>
       <r>    -1.6908     0.0000    20.0000 </r>
       <r>    -1.6161     0.0000    20.0000 </r>
       <r>    -1.5414     0.0000    20.0000 </r>
       <r>    -1.4666     0.0000    20.0000 </r>
       <r>    -1.3919     0.0000    20.0000 </r>
       <r>    -1.3171     0.2618    20.0196 </r>
       <r>    -1.2424     1.8125    20.1550 </r>
       <r>    -1.1676     2.2244    20.3213 </r>
       <r>    -1.0929     2.2483    20.4894 </r>
       <r>    -1.0181     3.4364    20.7462 </r>
       <r>    -0.9434     2.9618    20.9676 </r>
       <r>    -0.8687     2.8315    21.1792 </r>
       <r>    -0.7939     2.7399    21.3840 </r>
       <r>    -0.7192     4.6792    21.7338 </r>
       <r>    -0.6444     2.4934    21.9201 </r>
       <r>    -0.5697     1.4000    22.0248 </r>
       <r>    -0.4949     3.1055    22.2569 </r>
       <r>    -0.4202     4.6290    22.6029 </r>
       <r>    -0.3454     3.8930    22.8938 </r>
       <r>    -0.2707     2.8382    23.1060 </r>
       <r>    -0.1960     2.9331    23.3252 </r>
       <r>    -0.1212     3.1589    23.5613 </r>
       <r>    -0.0465     3.1296    23.7952 </r>
       <r>     0.0283     3.7205    24.0733 </r>
       <r>     0.1030     3.5277    24.3370 </r>
       <r>     0.1778     4.8941    24.7028 </r>
       <r>     0.2525     4.2763    25.0224 </r>
       <r>     0.3273     5.6521    25.4449 </r>
       <r>     0.4020     4.2229    25.7605 </r>
       <r>     0.4767     3.3317    26.0096 </r>
       <r>     0.5515     3.8531    26.2976 </r>
       <r>     0.6262     1.5523    26.4136 </r>
       <r>     0.7010     3.3532    26.6642 </r>
       <r>     0.7757     2.9423    26.8841 </r>
       <r>     0.8505     3.4440    27.1416 </r>
       <r>     0.9252     2.4447    27.3243 </r>
       <r>     1.0000     2.5415    27.5143 </r>
       <r>     1.0747     1.9969    27.6635 </r>
       <r>     1.1494     2.9088    27.8809 </r>
       <r>     1.2242     2.8290    28.0924 </r>
       <r>     1.2989     2.2866    28.2633 </r>
       <r>     1.3737     1.3523    28.3644 </r>
       <r>     1.4484     2.2901    28.5355 </r>
       <r>     1.5232     1.6881    28.6617 </r>
       <r>     1.5979     1.7423    28.7919 </r>
       <r>     1.6727     2.4152    28.9725 </r>
       <r>     1.7474     1.2886    29.0688 </r>
       <r>     1.8221     2.1933    29.2327 </r>
       <r>     1.8969     1.2367    29.3252 </r>
       <r>     1.9716     1.9829    29.4734 </r>
       <r>     2.0464     3.0202    29.6991 </r>
       <r>     2.1211     2.5299    29.8882 </r>
       <r>     2.1959     1.9030    30.0304 </r>
       <r>     2.2706     3.8473    30.3180 </r>
       <r>     2.3454     3.5774    30.5854 </r>
       <r>     2.4201     2.7738    30.7927 </r>
       <r>     2.4948     3.0584    31.0213 </r>
       <r>     2.5696     2.6114    31.2165 </r>
       <r>     2.6443     1.7599    31.3481 </r>
       <r>     2.7191     1.4909    31.4595 </r>
       <r>     2.7938     2.0804    31.6150 </r>
       <r>     2.8686     0.5624    31.6570 </r>
       <r>     2.9433     1.3872    31.7607 </r>
       <r>     3.0181     0.8975    31.8278 </r>
       <r>     3.0928     0.3129    31.8512 </r>
       <r>     3.1675     1.6169    31.9720 </r>
       <r>     3.2423     0.0436    31.9753 </r>
       <r>     3.3170     0.3304    32.0000 </r>
       <r>     3.3918     0.0001    32.0000 </r>
       <r>     3.4665     0.0000    32.0000 </r>
       <r>     3.5413     0.0000    32.0000 </r>
       <r>     3.6160     0.0000    32.0000 </r>
       <r>     3.6908     0.0000    32.0000 </r>
       <r>     3.7655     0.0000    32.0000 </r>
       <r>     3.8402     0.0000    32.0000 </r>
       <r>     3.9150     0.0000    32.0000 </r>
       <r>     3.9897     0.0000    32.0000 </r>
       <r>     4.0645     0.0000    32.0000 </r>
       <r>     4.1392     0.0000    32.0000 </r>
       <r>     4.2140     0.0000    32.0000 </r>
       <r>     4.2887     0.0000    32.0000 </r>
      </set>
     </set>
    </array>
   </total>
  </dos>
 </calculation>
 <structure name="finalpos" >
  <crystal>
   <varray name="basis" >
    <v>       3.42655500       0.00000000       0.00000000 </v>
    <v>       0.00000000       4.80472700      -0.00005300 </v>
    <v>       0.00000000       0.00000000      20.02439000 </v>
   </varray>
   <i name="volume">    329.67477521 </i>
   <varray name="rec_basis" >
    <v>       0.29183830       0.00000000       0.00000000 </v>
    <v>       0.00000000       0.20812837       0.00000000 </v>
    <v>       0.00000000       0.00000055       0.04993910 </v>
   </varray>
  </crystal>
  <varray name="positions" >
   <v>       0.50000000       0.90349179       0.55156003 </v>
   <v>       0.50000000       0.09650821       0.44843997 </v>
   <v>       0.00000000       0.40348730       0.44843997 </v>
   <v>      -0.00000000       0.59651270       0.55156003 </v>
  </varray>
 </structure>
</modeling>
