<?xml version="1.0" encoding="ISO-8859-1"?>
<modeling>
 <generator>
  <i name="program" type="string">vasp </i>
  <i name="version" type="string">5.4.1  </i>
  <i name="subversion" type="string">24Jun15 (build Nov 20 2020 10:29:34) complex                          parallel </i>
  <i name="platform" type="string">IFC91_ompi </i>
  <i name="date" type="string">2021 09 09 </i>
  <i name="time" type="string">14:56:09 </i>
 </generator>
 <incar>
  <i type="string" name="PREC">a</i>
  <i type="string" name="ALGO"> Normal</i>
  <i type="int" name="ISPIN">     1</i>
  <i type="int" name="ICHARG">     2</i>
  <i type="int" name="NELM">   250</i>
  <i type="int" name="NELMDL">    -5</i>
  <i type="int" name="NELMIN">     6</i>
  <i type="int" name="IBRION">     2</i>
  <i name="EDIFF">      0.00001000</i>
  <i name="EDIFFG">     -0.01000000</i>
  <i type="int" name="NSW">   200</i>
  <i type="int" name="ISIF">     2</i>
  <i name="ENCUT">    520.00000000</i>
  <i name="POTIM">      0.30000000</i>
  <i type="logical" name="LREAL"> F  </i>
  <i type="int" name="ISMEAR">     0</i>
  <i name="SIGMA">      0.02000000</i>
  <i type="logical" name="LWAVE"> F  </i>
  <i type="logical" name="LCHARG"> F  </i>
  <i type="logical" name="LAECHG"> F  </i>
  <v type="int" name="KPOINT_BSE">    -1     0     0     0</v>
  <i type="int" name="NELM">   250</i>
 </incar>
 <kpoints>
  <generation param="Gamma">
   <v type="int" name="divisions">      15       13        1 </v>
   <v name="usershift">      0.00000000       0.00000000       0.00000000 </v>
   <v name="genvec1">      0.06666667       0.00000000       0.00000000 </v>
   <v name="genvec2">      0.00000000       0.07692308       0.00000000 </v>
   <v name="genvec3">      0.00000000       0.00000000       1.00000000 </v>
   <v name="shift">      0.00000000       0.00000000       0.00000000 </v>
  </generation>
  <varray name="kpointlist" >
   <v>       0.00000000       0.00000000       0.00000000 </v>
   <v>       0.06666667       0.00000000       0.00000000 </v>
   <v>       0.13333333       0.00000000       0.00000000 </v>
   <v>       0.20000000       0.00000000       0.00000000 </v>
   <v>       0.26666667       0.00000000       0.00000000 </v>
   <v>       0.33333333       0.00000000       0.00000000 </v>
   <v>       0.40000000       0.00000000       0.00000000 </v>
   <v>       0.46666667       0.00000000       0.00000000 </v>
   <v>       0.00000000       0.07692308       0.00000000 </v>
   <v>       0.06666667       0.07692308       0.00000000 </v>
   <v>       0.13333333       0.07692308       0.00000000 </v>
   <v>       0.20000000       0.07692308       0.00000000 </v>
   <v>       0.26666667       0.07692308       0.00000000 </v>
   <v>       0.33333333       0.07692308       0.00000000 </v>
   <v>       0.40000000       0.07692308       0.00000000 </v>
   <v>       0.46666667       0.07692308       0.00000000 </v>
   <v>       0.00000000       0.15384615       0.00000000 </v>
   <v>       0.06666667       0.15384615       0.00000000 </v>
   <v>       0.13333333       0.15384615       0.00000000 </v>
   <v>       0.20000000       0.15384615       0.00000000 </v>
   <v>       0.26666667       0.15384615       0.00000000 </v>
   <v>       0.33333333       0.15384615       0.00000000 </v>
   <v>       0.40000000       0.15384615       0.00000000 </v>
   <v>       0.46666667       0.15384615       0.00000000 </v>
   <v>       0.00000000       0.23076923       0.00000000 </v>
   <v>       0.06666667       0.23076923       0.00000000 </v>
   <v>       0.13333333       0.23076923       0.00000000 </v>
   <v>       0.20000000       0.23076923       0.00000000 </v>
   <v>       0.26666667       0.23076923       0.00000000 </v>
   <v>       0.33333333       0.23076923       0.00000000 </v>
   <v>       0.40000000       0.23076923       0.00000000 </v>
   <v>       0.46666667       0.23076923       0.00000000 </v>
   <v>       0.00000000       0.30769231       0.00000000 </v>
   <v>       0.06666667       0.30769231       0.00000000 </v>
   <v>       0.13333333       0.30769231       0.00000000 </v>
   <v>       0.20000000       0.30769231       0.00000000 </v>
   <v>       0.26666667       0.30769231       0.00000000 </v>
   <v>       0.33333333       0.30769231       0.00000000 </v>
   <v>       0.40000000       0.30769231       0.00000000 </v>
   <v>       0.46666667       0.30769231       0.00000000 </v>
   <v>       0.00000000       0.38461538       0.00000000 </v>
   <v>       0.06666667       0.38461538       0.00000000 </v>
   <v>       0.13333333       0.38461538       0.00000000 </v>
   <v>       0.20000000       0.38461538       0.00000000 </v>
   <v>       0.26666667       0.38461538       0.00000000 </v>
   <v>       0.33333333       0.38461538       0.00000000 </v>
   <v>       0.40000000       0.38461538       0.00000000 </v>
   <v>       0.46666667       0.38461538       0.00000000 </v>
   <v>       0.00000000       0.46153846       0.00000000 </v>
   <v>       0.06666667       0.46153846       0.00000000 </v>
   <v>       0.13333333       0.46153846       0.00000000 </v>
   <v>       0.20000000       0.46153846       0.00000000 </v>
   <v>       0.26666667       0.46153846       0.00000000 </v>
   <v>       0.33333333       0.46153846       0.00000000 </v>
   <v>       0.40000000       0.46153846       0.00000000 </v>
   <v>       0.46666667       0.46153846       0.00000000 </v>
  </varray>
  <varray name="weights" >
   <v>       0.00512821 </v>
   <v>       0.01025641 </v>
   <v>       0.01025641 </v>
   <v>       0.01025641 </v>
   <v>       0.01025641 </v>
   <v>       0.01025641 </v>
   <v>       0.01025641 </v>
   <v>       0.01025641 </v>
   <v>       0.01025641 </v>
   <v>       0.02051282 </v>
   <v>       0.02051282 </v>
   <v>       0.02051282 </v>
   <v>       0.02051282 </v>
   <v>       0.02051282 </v>
   <v>       0.02051282 </v>
   <v>       0.02051282 </v>
   <v>       0.01025641 </v>
   <v>       0.02051282 </v>
   <v>       0.02051282 </v>
   <v>       0.02051282 </v>
   <v>       0.02051282 </v>
   <v>       0.02051282 </v>
   <v>       0.02051282 </v>
   <v>       0.02051282 </v>
   <v>       0.01025641 </v>
   <v>       0.02051282 </v>
   <v>       0.02051282 </v>
   <v>       0.02051282 </v>
   <v>       0.02051282 </v>
   <v>       0.02051282 </v>
   <v>       0.02051282 </v>
   <v>       0.02051282 </v>
   <v>       0.01025641 </v>
   <v>       0.02051282 </v>
   <v>       0.02051282 </v>
   <v>       0.02051282 </v>
   <v>       0.02051282 </v>
   <v>       0.02051282 </v>
   <v>       0.02051282 </v>
   <v>       0.02051282 </v>
   <v>       0.01025641 </v>
   <v>       0.02051282 </v>
   <v>       0.02051282 </v>
   <v>       0.02051282 </v>
   <v>       0.02051282 </v>
   <v>       0.02051282 </v>
   <v>       0.02051282 </v>
   <v>       0.02051282 </v>
   <v>       0.01025641 </v>
   <v>       0.02051282 </v>
   <v>       0.02051282 </v>
   <v>       0.02051282 </v>
   <v>       0.02051282 </v>
   <v>       0.02051282 </v>
   <v>       0.02051282 </v>
   <v>       0.02051282 </v>
  </varray>
 </kpoints>
 <parameters>
  <separator name="general" >
   <i type="string" name="SYSTEM">unknown system</i>
   <i type="logical" name="LCOMPAT"> F  </i>
  </separator>
  <separator name="electronic" >
   <i type="string" name="PREC">a</i>
   <i name="ENMAX">    520.00000000</i>
   <i name="ENAUG">    531.35600000</i>
   <i name="EDIFF">      0.00001000</i>
   <i type="int" name="IALGO">    38</i>
   <i type="int" name="IWAVPR">    11</i>
   <i type="int" name="NBANDS">    32</i>
   <i name="NELECT">     52.00000000</i>
   <i type="int" name="TURBO">     0</i>
   <i type="int" name="IRESTART">     0</i>
   <i type="int" name="NREBOOT">     0</i>
   <i type="int" name="NMIN">     0</i>
   <i name="EREF">      0.00000000</i>
   <separator name="electronic smearing" >
    <i type="int" name="ISMEAR">     0</i>
    <i name="SIGMA">      0.02000000</i>
    <i name="KSPACING">      0.50000000</i>
    <i type="logical" name="KGAMMA"> T  </i>
   </separator>
   <separator name="electronic projectors" >
    <i type="logical" name="LREAL"> F  </i>
    <v name="ROPT">      0.00000000      0.00000000</v>
    <i type="int" name="LMAXPAW">  -100</i>
    <i type="int" name="LMAXMIX">     2</i>
    <i type="logical" name="NLSPLINE"> F  </i>
   </separator>
   <separator name="electronic startup" >
    <i type="int" name="ISTART">     0</i>
    <i type="int" name="ICHARG">     2</i>
    <i type="int" name="INIWAV">     1</i>
   </separator>
   <separator name="electronic spin" >
    <i type="int" name="ISPIN">     1</i>
    <i type="logical" name="LNONCOLLINEAR"> F  </i>
    <v name="MAGMOM">      1.00000000      1.00000000      1.00000000      1.00000000      1.00000000      1.00000000</v>
    <i name="NUPDOWN">     -1.00000000</i>
    <i type="logical" name="LSORBIT"> F  </i>
    <v name="SAXIS">      0.00000000      0.00000000      1.00000000</v>
    <i type="logical" name="LSPIRAL"> F  </i>
    <v name="QSPIRAL">      0.00000000      0.00000000      0.00000000</v>
    <i type="logical" name="LZEROZ"> F  </i>
   </separator>
   <separator name="electronic exchange-correlation" >
    <i type="logical" name="LASPH"> F  </i>
    <i type="logical" name="LMETAGGA"> F  </i>
   </separator>
   <separator name="electronic convergence" >
    <i type="int" name="NELM">   250</i>
    <i type="int" name="NELMDL">    -5</i>
    <i type="int" name="NELMIN">     6</i>
    <i name="ENINI">    520.00000000</i>
    <separator name="electronic convergence detail" >
     <i type="logical" name="LDIAG"> T  </i>
     <i type="logical" name="LSUBROT"> F  </i>
     <i name="WEIMIN">      0.00100000</i>
     <i name="EBREAK">      0.00000008</i>
     <i name="DEPER">      0.30000000</i>
     <i type="int" name="NRMM">     4</i>
     <i name="TIME">      0.40000000</i>
    </separator>
   </separator>
   <separator name="electronic mixer" >
    <i name="AMIX">      0.40000000</i>
    <i name="BMIX">      1.00000000</i>
    <i name="AMIN">      0.10000000</i>
    <i name="AMIX_MAG">      1.60000000</i>
    <i name="BMIX_MAG">      1.00000000</i>
    <separator name="electronic mixer details" >
     <i type="int" name="IMIX">     4</i>
     <i type="logical" name="MIXFIRST"> F  </i>
     <i type="int" name="MAXMIX">   -45</i>
     <i name="WC">    100.00000000</i>
     <i type="int" name="INIMIX">     1</i>
     <i type="int" name="MIXPRE">     1</i>
     <i type="int" name="MREMOVE">     5</i>
    </separator>
   </separator>
   <separator name="electronic dipolcorrection" >
    <i type="logical" name="LDIPOL"> F  </i>
    <i type="logical" name="LMONO"> F  </i>
    <i type="int" name="IDIPOL">     0</i>
    <i name="EPSILON">      1.00000000</i>
    <v name="DIPOL">   -100.00000000   -100.00000000   -100.00000000</v>
    <i name="EFIELD">      0.00000000</i>
   </separator>
  </separator>
  <separator name="grids" >
   <i type="int" name="NGX">    36</i>
   <i type="int" name="NGY">    42</i>
   <i type="int" name="NGZ">   140</i>
   <i type="int" name="NGXF">    72</i>
   <i type="int" name="NGYF">    84</i>
   <i type="int" name="NGZF">   280</i>
   <i type="logical" name="ADDGRID"> F  </i>
  </separator>
  <separator name="ionic" >
   <i type="int" name="NSW">   200</i>
   <i type="int" name="IBRION">     2</i>
   <i type="int" name="ISIF">     2</i>
   <i name="PSTRESS">      0.00000000</i>
   <i name="EDIFFG">     -0.01000000</i>
   <i type="int" name="NFREE">     1</i>
   <i name="POTIM">      0.30000000</i>
   <i name="SMASS">     -3.00000000</i>
   <i name="SCALEE">      1.00000000</i>
  </separator>
  <separator name="ionic md" >
   <i name="TEBEG">      0.00010000</i>
   <i name="TEEND">      0.00010000</i>
   <i type="int" name="NBLOCK">     1</i>
   <i type="int" name="KBLOCK">   200</i>
   <i type="int" name="NPACO">   256</i>
   <i name="APACO">     16.00000000</i>
  </separator>
  <separator name="symmetry" >
   <i type="int" name="ISYM">     2</i>
   <i name="SYMPREC">      0.00001000</i>
  </separator>
  <separator name="dos" >
   <i type="logical" name="LORBIT"> F  </i>
   <v name="RWIGS">     -1.00000000     -1.00000000</v>
   <i type="int" name="NEDOS">   301</i>
   <i name="EMIN">     10.00000000</i>
   <i name="EMAX">    -10.00000000</i>
   <i name="EFERMI">      0.00000000</i>
  </separator>
  <separator name="writing" >
   <i type="int" name="NWRITE">     2</i>
   <i type="logical" name="LWAVE"> F  </i>
   <i type="logical" name="LCHARG"> F  </i>
   <i type="logical" name="LPARD"> F  </i>
   <i type="logical" name="LVTOT"> F  </i>
   <i type="logical" name="LVHAR"> F  </i>
   <i type="logical" name="LELF"> F  </i>
   <i type="logical" name="LOPTICS"> F  </i>
   <v name="STM">      0.00000000      0.00000000      0.00000000      0.00000000      0.00000000      0.00000000      0.00000000</v>
  </separator>
  <separator name="performance" >
   <i type="int" name="NPAR">     4</i>
   <i type="int" name="NSIM">     4</i>
   <i type="int" name="NBLK">    -1</i>
   <i type="logical" name="LPLANE"> T  </i>
   <i type="logical" name="LSCALAPACK"> T  </i>
   <i type="logical" name="LSCAAWARE"> F  </i>
   <i type="logical" name="LSCALU"> F  </i>
   <i type="logical" name="LASYNC"> F  </i>
   <i type="logical" name="LORBITALREAL"> F  </i>
  </separator>
  <separator name="miscellaneous" >
   <i type="int" name="IDIOT">     3</i>
   <i type="logical" name="LMUSIC"> F  </i>
   <v name="POMASS">     72.61000000     78.96000000</v>
   <v name="DARWINR">      0.00000000      0.00000000</v>
   <v name="DARWINV">      1.00000000      1.00000000</v>
   <i type="logical" name="LCORR"> T  </i>
  </separator>
  <i type="logical" name="GGA_COMPAT"> T  </i>
  <i type="logical" name="LBERRY"> F  </i>
  <i type="int" name="ICORELEVEL">     0</i>
  <i type="logical" name="LDAU"> F  </i>
  <i type="int" name="I_CONSTRAINED_M">     0</i>
  <separator name="electronic exchange-correlation" >
   <i type="string" name="GGA">--</i>
   <i type="int" name="VOSKOWN">     0</i>
   <i type="logical" name="LHFCALC"> F  </i>
   <i type="string" name="PRECFOCK"></i>
   <i type="logical" name="LSYMGRAD"> F  </i>
   <i type="logical" name="LHFONE"> F  </i>
   <i type="logical" name="LRHFCALC"> F  </i>
   <i type="logical" name="LTHOMAS"> F  </i>
   <i type="logical" name="LMODELHF"> F  </i>
   <i name="ENCUT4O">     -1.00000000</i>
   <i type="int" name="EXXOEP">     0</i>
   <i type="int" name="FOURORBIT">     0</i>
   <i name="AEXX">      0.00000000</i>
   <i name="HFALPHA">      0.00000000</i>
   <i name="MCALPHA">      0.00000000</i>
   <i name="ALDAX">      1.00000000</i>
   <i name="AGGAX">      1.00000000</i>
   <i name="ALDAC">      1.00000000</i>
   <i name="AGGAC">      1.00000000</i>
   <i type="int" name="NKREDX">     1</i>
   <i type="int" name="NKREDY">     1</i>
   <i type="int" name="NKREDZ">     1</i>
   <i type="logical" name="SHIFTRED"> F  </i>
   <i type="logical" name="ODDONLY"> F  </i>
   <i type="logical" name="EVENONLY"> F  </i>
   <i type="int" name="LMAXFOCK">     0</i>
   <i type="int" name="NMAXFOCKAE">     0</i>
   <i type="logical" name="LFOCKAEDFT"> F  </i>
   <i name="HFSCREEN">      0.00000000</i>
   <i name="HFSCREENC">      0.00000000</i>
   <i type="int" name="NBANDSGWLOW">     0</i>
  </separator>
  <separator name="vdW DFT" >
   <i type="logical" name="LUSE_VDW"> F  </i>
   <i name="Zab_VDW">     -0.84910000</i>
   <i name="PARAM1">      0.12340000</i>
   <i name="PARAM2">      1.00000000</i>
   <i name="PARAM3">      0.00000000</i>
  </separator>
  <separator name="model GW" >
   <i type="int" name="MODEL_GW">     0</i>
   <i name="MODEL_EPS0">     48.42735264</i>
   <i name="MODEL_ALPHA">      1.00000000</i>
  </separator>
  <separator name="linear response parameters" >
   <i type="logical" name="LEPSILON"> F  </i>
   <i type="logical" name="LRPA"> F  </i>
   <i type="logical" name="LNABLA"> F  </i>
   <i type="logical" name="LVEL"> F  </i>
   <i type="int" name="KINTER">     0</i>
   <i name="CSHIFT">      0.10000000</i>
   <i name="OMEGAMAX">     -1.00000000</i>
   <i name="DEG_THRESHOLD">      0.00200000</i>
  </separator>
  <separator name="orbital magnetization" >
   <i type="logical" name="NUCIND"> F  </i>
   <v name="MAGPOS">      0.00000000      0.00000000      0.00000000</v>
   <i type="logical" name="LNICSALL"> T  </i>
   <i type="logical" name="ORBITALMAG"> F  </i>
   <i type="logical" name="LMAGBLOCH"> F  </i>
   <i type="logical" name="LCHIMAG"> F  </i>
   <i type="logical" name="LGAUGE"> T  </i>
   <i type="int" name="MAGATOM">     0</i>
   <v name="MAGDIPOL">      0.00000000      0.00000000      0.00000000</v>
   <v name="AVECCONST">      0.00000000      0.00000000      0.00000000</v>
  </separator>
  <separator name="response functions" >
   <i type="logical" name="LADDER"> F  </i>
   <i type="logical" name="LFXC"> F  </i>
   <i type="logical" name="LHARTREE"> T  </i>
   <i type="int" name="IBSE">     0</i>
   <v type="int" name="KPOINT">    -1     0     0     0</v>
   <i type="logical" name="LTCTE"> F  </i>
   <i type="logical" name="LTETE"> F  </i>
   <i type="logical" name="LTRIPLET"> F  </i>
   <i type="logical" name="LFXCEPS"> F  </i>
   <i type="logical" name="LFXHEG"> F  </i>
   <i type="int" name="NATURALO">     0</i>
   <i type="logical" name="L2ORDER"> F  </i>
   <i type="logical" name="LUSEW"> F  </i>
   <i name="ENCUTGW">     -2.00000000</i>
   <i name="ENCUTGWSOFT">     -2.00000000</i>
   <i name="ENCUTLF">     -1.00000000</i>
   <i type="int" name="LMAXMP2">    -1</i>
   <i name="SCISSOR">      0.00000000</i>
   <i type="int" name="NOMEGA">     0</i>
   <i type="int" name="NOMEGAR">     0</i>
   <i type="int" name="NBANDSGW">    -1</i>
   <i type="int" name="NBANDSO">    -1</i>
   <i type="int" name="NBANDSV">    -1</i>
   <i type="int" name="NELM">   250</i>
   <i type="int" name="NELMHF">     1</i>
   <i type="int" name="DIM">     3</i>
   <i type="int" name="ANTIRES">     0</i>
   <i name="OMEGAMAX">    -30.00000000</i>
   <i name="OMEGAMIN">    -30.00000000</i>
   <i name="OMEGATL">   -200.00000000</i>
   <i type="int" name="OMEGAGRID">     0</i>
   <i name="CSHIFT">     -0.10000000</i>
   <i type="logical" name="SELFENERGY"> F  </i>
   <i type="logical" name="LSPECTRAL"> F  </i>
   <i type="logical" name="LSPECTRALGW"> F  </i>
   <i type="logical" name="LSINGLES"> F  </i>
   <i type="logical" name="LFERMIGW"> F  </i>
   <i type="logical" name="ODDONLYGW"> F  </i>
   <i type="logical" name="EVENONLYGW"> F  </i>
   <i type="int" name="NKREDLFX">     1</i>
   <i type="int" name="NKREDLFY">     1</i>
   <i type="int" name="NKREDLFZ">     1</i>
   <i type="int" name="MAXMEM">  1800</i>
   <i type="int" name="TELESCOPE">     0</i>
   <i type="int" name="TAUPAR">     1</i>
   <i type="int" name="OMEGAPAR">    -1</i>
   <i name="LAMBDA">      1.00000000</i>
  </separator>
  <separator name="External order field" >
   <i name="OFIELD_KAPPA">      0.00000000</i>
   <v name="OFIELD_K">      0.00000000      0.00000000      0.00000000</v>
   <i name="OFIELD_Q6_NEAR">      0.00000000</i>
   <i name="OFIELD_Q6_FAR">      0.00000000</i>
   <i name="OFIELD_A">      0.00000000</i>
  </separator>
 </parameters>
 <atominfo>
  <atoms>       6 </atoms>
  <types>       2 </types>
  <array name="atoms" >
   <dimension dim="1">ion</dimension>
   <field type="string">element</field>
   <field type="int">atomtype</field>
   <set>
    <rc><c>Ge</c><c>   1</c></rc>
    <rc><c>Ge</c><c>   1</c></rc>
    <rc><c>Se</c><c>   2</c></rc>
    <rc><c>Se</c><c>   2</c></rc>
    <rc><c>Se</c><c>   2</c></rc>
    <rc><c>Se</c><c>   2</c></rc>
   </set>
  </array>
  <array name="atomtypes" >
   <dimension dim="1">type</dimension>
   <field type="int">atomspertype</field>
   <field type="string">element</field>
   <field>mass</field>
   <field>valence</field>
   <field type="string">pseudopotential</field>
   <set>
    <rc><c>   2</c><c>Ge</c><c>     72.61000000</c><c>     14.00000000</c><c>  PAW_PBE Ge_d 03Jul2007                </c></rc>
    <rc><c>   4</c><c>Se</c><c>     78.96000000</c><c>      6.00000000</c><c>  PAW_PBE Se 06Sep2000                  </c></rc>
   </set>
  </array>
 </atominfo>
 <structure name="initialpos" >
  <crystal>
   <varray name="basis" >
    <v>       4.85676800       0.00000000       0.00000000 </v>
    <v>       0.00000000       5.51520900       0.00000000 </v>
    <v>       0.00000000       0.00000000      18.07929100 </v>
   </varray>
   <i name="volume">    484.27352643 </i>
   <varray name="rec_basis" >
    <v>       0.20589824       0.00000000       0.00000000 </v>
    <v>       0.00000000       0.18131679       0.00000000 </v>
    <v>       0.00000000       0.00000000       0.05531190 </v>
   </varray>
  </crystal>
  <varray name="positions" >
   <v>       0.50000000       0.50000000       0.50000000 </v>
   <v>       0.00000000       0.00000000       0.50000000 </v>
   <v>       0.25000000       0.25000000       0.41502600 </v>
   <v>       0.75000000       0.75000000       0.41502600 </v>
   <v>       0.75000000       0.25000000       0.58497400 </v>
   <v>       0.25000000       0.75000000       0.58497400 </v>
  </varray>
 </structure>
 <calculation>
  <scstep>
   <time name="dav">    1.61    1.61</time>
   <time name="total">    1.65    1.65</time>
   <energy>
    <i name="alphaZ">     47.43401443 </i>
    <i name="ewald">   5129.31663616 </i>
    <i name="hartreedc">  -9918.30816276 </i>
    <i name="XCdc">    142.67744731 </i>
    <i name="pawpsdc">   4514.43351212 </i>
    <i name="pawaedc">  -5329.26418529 </i>
    <i name="eentropy">     -0.00048776 </i>
    <i name="bandstr">   -364.63446550 </i>
    <i name="atom">   6220.98622430 </i>
    <i name="e_fr_energy">    442.64053302 </i>
    <i name="e_wo_entrp">    442.64102078 </i>
    <i name="e_0_energy">    442.64077690 </i>
   </energy>
  </scstep>
  <scstep>
   <time name="dav">    1.70    1.70</time>
   <time name="total">    1.71    1.71</time>
   <energy>
    <i name="e_fr_energy">     46.20725118 </i>
    <i name="e_wo_entrp">     46.20760197 </i>
    <i name="e_0_energy">     46.20742658 </i>
   </energy>
  </scstep>
  <scstep>
   <time name="dav">    1.82    1.82</time>
   <time name="total">    1.82    1.82</time>
   <energy>
    <i name="e_fr_energy">    -21.47374225 </i>
    <i name="e_wo_entrp">    -21.47374225 </i>
    <i name="e_0_energy">    -21.47374225 </i>
   </energy>
  </scstep>
  <scstep>
   <time name="dav">    1.66    1.66</time>
   <time name="total">    1.66    1.66</time>
   <energy>
    <i name="e_fr_energy">    -24.73801260 </i>
    <i name="e_wo_entrp">    -24.73801260 </i>
    <i name="e_0_energy">    -24.73801260 </i>
   </energy>
  </scstep>
  <scstep>
   <time name="dav">    1.95    1.95</time>
   <time name="total">    2.05    2.05</time>
   <energy>
    <i name="e_fr_energy">    -24.84848466 </i>
    <i name="e_wo_entrp">    -24.84848466 </i>
    <i name="e_0_energy">    -24.84848466 </i>
   </energy>
  </scstep>
  <scstep>
   <time name="dav">    1.89    1.89</time>
   <time name="total">    2.01    2.02</time>
   <energy>
    <i name="e_fr_energy">    -24.35560246 </i>
    <i name="e_wo_entrp">    -24.35560246 </i>
    <i name="e_0_energy">    -24.35560246 </i>
   </energy>
  </scstep>
  <scstep>
   <time name="dav">    1.72    1.72</time>
   <time name="total">    1.84    1.84</time>
   <energy>
    <i name="e_fr_energy">    -24.25681646 </i>
    <i name="e_wo_entrp">    -24.25681646 </i>
    <i name="e_0_energy">    -24.25681646 </i>
   </energy>
  </scstep>
  <scstep>
   <time name="dav">    1.80    1.80</time>
   <time name="total">    1.92    1.93</time>
   <energy>
    <i name="e_fr_energy">    -24.25077872 </i>
    <i name="e_wo_entrp">    -24.25077872 </i>
    <i name="e_0_energy">    -24.25077872 </i>
   </energy>
  </scstep>
  <scstep>
   <time name="dav">    1.84    1.85</time>
   <time name="total">    1.96    1.97</time>
   <energy>
    <i name="e_fr_energy">    -24.25011208 </i>
    <i name="e_wo_entrp">    -24.25011208 </i>
    <i name="e_0_energy">    -24.25011208 </i>
   </energy>
  </scstep>
  <scstep>
   <time name="dav">    1.92    1.92</time>
   <time name="total">    2.04    2.04</time>
   <energy>
    <i name="e_fr_energy">    -24.24984825 </i>
    <i name="e_wo_entrp">    -24.24984825 </i>
    <i name="e_0_energy">    -24.24984825 </i>
   </energy>
  </scstep>
  <scstep>
   <time name="dav">    1.56    1.56</time>
   <time name="total">    1.68    1.68</time>
   <energy>
    <i name="e_fr_energy">    -24.24960304 </i>
    <i name="e_wo_entrp">    -24.24960304 </i>
    <i name="e_0_energy">    -24.24960304 </i>
   </energy>
  </scstep>
  <scstep>
   <time name="dav">    1.52    1.52</time>
   <time name="total">    1.64    1.64</time>
   <energy>
    <i name="e_fr_energy">    -24.24973825 </i>
    <i name="e_wo_entrp">    -24.24973825 </i>
    <i name="e_0_energy">    -24.24973825 </i>
   </energy>
  </scstep>
  <scstep>
   <time name="dav">    1.50    1.50</time>
   <time name="total">    1.62    1.62</time>
   <energy>
    <i name="e_fr_energy">    -24.25001141 </i>
    <i name="e_wo_entrp">    -24.25001141 </i>
    <i name="e_0_energy">    -24.25001141 </i>
   </energy>
  </scstep>
  <scstep>
   <time name="dav">    1.42    1.42</time>
   <time name="total">    1.54    1.54</time>
   <energy>
    <i name="e_fr_energy">    -24.25011458 </i>
    <i name="e_wo_entrp">    -24.25011458 </i>
    <i name="e_0_energy">    -24.25011458 </i>
   </energy>
  </scstep>
  <scstep>
   <time name="dav">    1.40    1.40</time>
   <time name="total">    1.52    1.52</time>
   <energy>
    <i name="e_fr_energy">    -24.25017204 </i>
    <i name="e_wo_entrp">    -24.25017204 </i>
    <i name="e_0_energy">    -24.25017204 </i>
   </energy>
  </scstep>
  <scstep>
   <time name="dav">    1.34    1.34</time>
   <time name="total">    1.46    1.46</time>
   <energy>
    <i name="e_fr_energy">    -24.25024048 </i>
    <i name="e_wo_entrp">    -24.25024048 </i>
    <i name="e_0_energy">    -24.25024048 </i>
   </energy>
  </scstep>
  <scstep>
   <time name="dav">    1.26    1.26</time>
   <time name="total">    1.38    1.38</time>
   <energy>
    <i name="e_fr_energy">    -24.25029004 </i>
    <i name="e_wo_entrp">    -24.25029004 </i>
    <i name="e_0_energy">    -24.25029004 </i>
   </energy>
  </scstep>
  <scstep>
   <time name="dav">    1.30    1.30</time>
   <time name="total">    1.42    1.42</time>
   <energy>
    <i name="e_fr_energy">    -24.25031945 </i>
    <i name="e_wo_entrp">    -24.25031945 </i>
    <i name="e_0_energy">    -24.25031945 </i>
   </energy>
  </scstep>
  <scstep>
   <time name="dav">    1.32    1.32</time>
   <time name="total">    1.34    1.35</time>
   <energy>
    <i name="alphaZ">     47.43401443 </i>
    <i name="ewald">   5129.31663616 </i>
    <i name="hartreedc">  -9924.30111197 </i>
    <i name="XCdc">    143.22439569 </i>
    <i name="pawpsdc">   5820.27954154 </i>
    <i name="pawaedc">  -6640.78514070 </i>
    <i name="eentropy">     -0.00000000 </i>
    <i name="bandstr">   -820.40488396 </i>
    <i name="atom">   6220.98622430 </i>
    <i name="e_fr_energy">    -24.25032450 </i>
    <i name="e_wo_entrp">    -24.25032450 </i>
    <i name="e_0_energy">    -24.25032450 </i>
   </energy>
  </scstep>
  <structure>
   <crystal>
    <varray name="basis" >
     <v>       4.85676800       0.00000000       0.00000000 </v>
     <v>       0.00000000       5.51520900       0.00000000 </v>
     <v>       0.00000000       0.00000000      18.07929100 </v>
    </varray>
    <i name="volume">    484.27352643 </i>
    <varray name="rec_basis" >
     <v>       0.20589824       0.00000000       0.00000000 </v>
     <v>       0.00000000       0.18131679       0.00000000 </v>
     <v>       0.00000000       0.00000000       0.05531190 </v>
    </varray>
   </crystal>
   <varray name="positions" >
    <v>       0.50000000       0.50000000       0.50000000 </v>
    <v>       0.00000000       0.00000000       0.50000000 </v>
    <v>       0.25000000       0.25000000       0.41502600 </v>
    <v>       0.75000000       0.75000000       0.41502600 </v>
    <v>       0.75000000       0.25000000       0.58497400 </v>
    <v>       0.25000000       0.75000000       0.58497400 </v>
   </varray>
  </structure>
  <varray name="forces" >
   <v>       0.00000000       0.00000000       0.00000000 </v>
   <v>       0.00000000       0.00000000       0.00000000 </v>
   <v>      -0.00000000       0.00000000      -0.10680424 </v>
   <v>      -0.00000000      -0.00000000      -0.10680424 </v>
   <v>      -0.00000000       0.00000000       0.10680424 </v>
   <v>      -0.00000000      -0.00000000       0.10680424 </v>
  </varray>
  <varray name="stress" >
   <v>       3.75155157       0.00000000       0.00000000 </v>
   <v>       0.00000000       4.67772705       0.00000000 </v>
   <v>       0.00000000       0.00000000       2.13060278 </v>
  </varray>
  <energy>
   <i name="e_fr_energy">    -24.25032450 </i>
   <i name="e_wo_entrp">    -24.25032450 </i>
   <i name="e_0_energy">     -0.00000000 </i>
  </energy>
  <time name="totalsc">   33.40   33.45</time>
 </calculation>
 <calculation>
  <scstep>
   <time name="dav">    1.45    1.45</time>
   <time name="total">    1.57    1.57</time>
   <energy>
    <i name="alphaZ">     47.43401443 </i>
    <i name="ewald">   5122.10145141 </i>
    <i name="hartreedc">  -9917.32228829 </i>
    <i name="XCdc">    143.19534714 </i>
    <i name="pawpsdc">   5820.26312803 </i>
    <i name="pawaedc">  -6640.76890959 </i>
    <i name="eentropy">     -0.00000000 </i>
    <i name="bandstr">   -820.14022053 </i>
    <i name="atom">   6220.98622430 </i>
    <i name="e_fr_energy">    -24.25125309 </i>
    <i name="e_wo_entrp">    -24.25125309 </i>
    <i name="e_0_energy">    -24.25125309 </i>
   </energy>
  </scstep>
  <scstep>
   <time name="dav">    1.66    1.66</time>
   <time name="total">    1.78    1.78</time>
   <energy>
    <i name="e_fr_energy">    -24.25142199 </i>
    <i name="e_wo_entrp">    -24.25142199 </i>
    <i name="e_0_energy">    -24.25142199 </i>
   </energy>
  </scstep>
  <scstep>
   <time name="dav">    1.49    1.49</time>
   <time name="total">    1.61    1.61</time>
   <energy>
    <i name="e_fr_energy">    -24.25141514 </i>
    <i name="e_wo_entrp">    -24.25141514 </i>
    <i name="e_0_energy">    -24.25141514 </i>
   </energy>
  </scstep>
  <scstep>
   <time name="dav">    1.31    1.31</time>
   <time name="total">    1.43    1.43</time>
   <energy>
    <i name="e_fr_energy">    -24.25141224 </i>
    <i name="e_wo_entrp">    -24.25141224 </i>
    <i name="e_0_energy">    -24.25141224 </i>
   </energy>
  </scstep>
  <scstep>
   <time name="dav">    1.18    1.19</time>
   <time name="total">    1.30    1.31</time>
   <energy>
    <i name="e_fr_energy">    -24.25141099 </i>
    <i name="e_wo_entrp">    -24.25141099 </i>
    <i name="e_0_energy">    -24.25141099 </i>
   </energy>
  </scstep>
  <scstep>
   <time name="dav">    1.12    1.12</time>
   <time name="total">    1.15    1.15</time>
   <energy>
    <i name="alphaZ">     47.43401443 </i>
    <i name="ewald">   5122.10145141 </i>
    <i name="hartreedc">  -9917.32394110 </i>
    <i name="XCdc">    143.19907339 </i>
    <i name="pawpsdc">   5812.53525423 </i>
    <i name="pawaedc">  -6632.98992710 </i>
    <i name="eentropy">     -0.00000000 </i>
    <i name="bandstr">   -820.19356046 </i>
    <i name="atom">   6220.98622430 </i>
    <i name="e_fr_energy">    -24.25141090 </i>
    <i name="e_wo_entrp">    -24.25141090 </i>
    <i name="e_0_energy">    -24.25141090 </i>
   </energy>
  </scstep>
  <structure>
   <crystal>
    <varray name="basis" >
     <v>       4.85676800       0.00000000       0.00000000 </v>
     <v>       0.00000000       5.51520900       0.00000000 </v>
     <v>       0.00000000       0.00000000      18.07929100 </v>
    </varray>
    <i name="volume">    484.27352643 </i>
    <varray name="rec_basis" >
     <v>       0.20589824       0.00000000       0.00000000 </v>
     <v>       0.00000000       0.18131679       0.00000000 </v>
     <v>       0.00000000       0.00000000       0.05531190 </v>
    </varray>
   </crystal>
   <varray name="positions" >
    <v>       0.50000000       0.50000000       0.50000000 </v>
    <v>       0.00000000       0.00000000       0.50000000 </v>
    <v>       0.25000000       0.25000000       0.41485500 </v>
    <v>       0.75000000       0.75000000       0.41485500 </v>
    <v>       0.75000000       0.25000000       0.58514500 </v>
    <v>       0.25000000       0.75000000       0.58514500 </v>
   </varray>
  </structure>
  <varray name="forces" >
   <v>       0.00000000      -0.00000000      -0.00000000 </v>
   <v>       0.00000000      -0.00000000      -0.00000000 </v>
   <v>       0.00000000      -0.00000000      -0.06974524 </v>
   <v>       0.00000000      -0.00000000      -0.06974524 </v>
   <v>       0.00000000      -0.00000000       0.06974524 </v>
   <v>       0.00000000       0.00000000       0.06974524 </v>
  </varray>
  <varray name="stress" >
   <v>       3.55076607       0.00000000       0.00000000 </v>
   <v>       0.00000000       4.44583680       0.00000000 </v>
   <v>       0.00000000       0.00000000       1.39612528 </v>
  </varray>
  <energy>
   <i name="e_fr_energy">    -24.25141090 </i>
   <i name="e_wo_entrp">    -24.25141090 </i>
   <i name="e_0_energy">     -0.00000000 </i>
  </energy>
  <time name="totalsc">    9.99   10.01</time>
 </calculation>
 <calculation>
  <scstep>
   <time name="dav">    1.44    1.44</time>
   <time name="total">    1.56    1.56</time>
   <energy>
    <i name="alphaZ">     47.43401443 </i>
    <i name="ewald">   5108.52355585 </i>
    <i name="hartreedc">  -9904.20190856 </i>
    <i name="XCdc">    143.14458301 </i>
    <i name="pawpsdc">   5812.48581605 </i>
    <i name="pawaedc">  -6632.94075237 </i>
    <i name="eentropy">     -0.00000000 </i>
    <i name="bandstr">   -819.68317224 </i>
    <i name="atom">   6220.98622430 </i>
    <i name="e_fr_energy">    -24.25163953 </i>
    <i name="e_wo_entrp">    -24.25163953 </i>
    <i name="e_0_energy">    -24.25163953 </i>
   </energy>
  </scstep>
  <scstep>
   <time name="dav">    1.67    1.67</time>
   <time name="total">    1.79    1.79</time>
   <energy>
    <i name="e_fr_energy">    -24.25224230 </i>
    <i name="e_wo_entrp">    -24.25224230 </i>
    <i name="e_0_energy">    -24.25224230 </i>
   </energy>
  </scstep>
  <scstep>
   <time name="dav">    1.48    1.48</time>
   <time name="total">    1.60    1.60</time>
   <energy>
    <i name="e_fr_energy">    -24.25222085 </i>
    <i name="e_wo_entrp">    -24.25222085 </i>
    <i name="e_0_energy">    -24.25222085 </i>
   </energy>
  </scstep>
  <scstep>
   <time name="dav">    1.49    1.49</time>
   <time name="total">    1.61    1.61</time>
   <energy>
    <i name="e_fr_energy">    -24.25221371 </i>
    <i name="e_wo_entrp">    -24.25221371 </i>
    <i name="e_0_energy">    -24.25221371 </i>
   </energy>
  </scstep>
  <scstep>
   <time name="dav">    1.24    1.24</time>
   <time name="total">    1.36    1.36</time>
   <energy>
    <i name="e_fr_energy">    -24.25221123 </i>
    <i name="e_wo_entrp">    -24.25221123 </i>
    <i name="e_0_energy">    -24.25221123 </i>
   </energy>
  </scstep>
  <scstep>
   <time name="dav">    1.09    1.09</time>
   <time name="total">    1.12    1.13</time>
   <energy>
    <i name="alphaZ">     47.43401443 </i>
    <i name="ewald">   5108.52355585 </i>
    <i name="hartreedc">  -9904.21374501 </i>
    <i name="XCdc">    143.15166307 </i>
    <i name="pawpsdc">   5798.03135607 </i>
    <i name="pawaedc">  -6618.39045696 </i>
    <i name="eentropy">     -0.00000000 </i>
    <i name="bandstr">   -819.77482289 </i>
    <i name="atom">   6220.98622430 </i>
    <i name="e_fr_energy">    -24.25221114 </i>
    <i name="e_wo_entrp">    -24.25221114 </i>
    <i name="e_0_energy">    -24.25221114 </i>
   </energy>
  </scstep>
  <structure>
   <crystal>
    <varray name="basis" >
     <v>       4.85676800       0.00000000       0.00000000 </v>
     <v>       0.00000000       5.51520900       0.00000000 </v>
     <v>       0.00000000       0.00000000      18.07929100 </v>
    </varray>
    <i name="volume">    484.27352643 </i>
    <varray name="rec_basis" >
     <v>       0.20589824       0.00000000       0.00000000 </v>
     <v>       0.00000000       0.18131679       0.00000000 </v>
     <v>       0.00000000       0.00000000       0.05531190 </v>
    </varray>
   </crystal>
   <varray name="positions" >
    <v>       0.50000000       0.50000000       0.50000000 </v>
    <v>       0.00000000       0.00000000       0.50000000 </v>
    <v>       0.25000000       0.25000000       0.41453318 </v>
    <v>       0.75000000       0.75000000       0.41453318 </v>
    <v>       0.75000000       0.25000000       0.58546682 </v>
    <v>       0.25000000       0.75000000       0.58546682 </v>
   </varray>
  </structure>
  <varray name="forces" >
   <v>      -0.00000000       0.00000000       0.00000000 </v>
   <v>       0.00000000       0.00000000      -0.00000000 </v>
   <v>       0.00000000       0.00000000      -0.00025697 </v>
   <v>       0.00000000      -0.00000000      -0.00025697 </v>
   <v>       0.00000000      -0.00000000       0.00025697 </v>
   <v>       0.00000000      -0.00000000       0.00025697 </v>
  </varray>
  <varray name="stress" >
   <v>       3.18878091       0.00000000       0.00000000 </v>
   <v>       0.00000000       4.02905960       0.00000000 </v>
   <v>       0.00000000       0.00000000       0.01762459 </v>
  </varray>
  <energy>
   <i name="e_fr_energy">    -24.25221114 </i>
   <i name="e_wo_entrp">    -24.25221114 </i>
   <i name="e_0_energy">     -0.00000000 </i>
  </energy>
  <time name="totalsc">   10.13   10.14</time>
  <eigenvalues>
   <array>
    <dimension dim="1">band</dimension>
    <dimension dim="2">kpoint</dimension>
    <dimension dim="3">spin</dimension>
    <field>eigene</field>
    <field>occ</field>
    <set>
     <set comment="spin 1">
      <set comment="kpoint 1">
       <r>  -27.7156    1.0000 </r>
       <r>  -27.7123    1.0000 </r>
       <r>  -27.7107    1.0000 </r>
       <r>  -27.7021    1.0000 </r>
       <r>  -27.7006    1.0000 </r>
       <r>  -27.6868    1.0000 </r>
       <r>  -27.6828    1.0000 </r>
       <r>  -27.6819    1.0000 </r>
       <r>  -27.6706    1.0000 </r>
       <r>  -27.6648    1.0000 </r>
       <r>  -16.9142    1.0000 </r>
       <r>  -15.3849    1.0000 </r>
       <r>  -14.9021    1.0000 </r>
       <r>  -14.6889    1.0000 </r>
       <r>  -11.7247    1.0000 </r>
       <r>   -9.1928    1.0000 </r>
       <r>   -7.4477    1.0000 </r>
       <r>   -5.8651    1.0000 </r>
       <r>   -5.4604    1.0000 </r>
       <r>   -5.3094    1.0000 </r>
       <r>   -5.1106    1.0000 </r>
       <r>   -5.0858    1.0000 </r>
       <r>   -4.6538    1.0000 </r>
       <r>   -4.1427    1.0000 </r>
       <r>   -2.7373    1.0000 </r>
       <r>   -2.6769    1.0000 </r>
       <r>   -1.6661    0.0000 </r>
       <r>   -1.3398    0.0000 </r>
       <r>   -0.7478    0.0000 </r>
       <r>    0.1663    0.0000 </r>
       <r>    0.6999    0.0000 </r>
       <r>    1.9996    0.0000 </r>
      </set>
      <set comment="kpoint 2">
       <r>  -27.7154    1.0000 </r>
       <r>  -27.7120    1.0000 </r>
       <r>  -27.7106    1.0000 </r>
       <r>  -27.7022    1.0000 </r>
       <r>  -27.7006    1.0000 </r>
       <r>  -27.6868    1.0000 </r>
       <r>  -27.6831    1.0000 </r>
       <r>  -27.6819    1.0000 </r>
       <r>  -27.6705    1.0000 </r>
       <r>  -27.6648    1.0000 </r>
       <r>  -16.8969    1.0000 </r>
       <r>  -15.3779    1.0000 </r>
       <r>  -14.9050    1.0000 </r>
       <r>  -14.7298    1.0000 </r>
       <r>  -11.6808    1.0000 </r>
       <r>   -9.2061    1.0000 </r>
       <r>   -7.4456    1.0000 </r>
       <r>   -5.8597    1.0000 </r>
       <r>   -5.5587    1.0000 </r>
       <r>   -5.3935    1.0000 </r>
       <r>   -5.1520    1.0000 </r>
       <r>   -5.0045    1.0000 </r>
       <r>   -4.6479    1.0000 </r>
       <r>   -4.1274    1.0000 </r>
       <r>   -2.8008    1.0000 </r>
       <r>   -2.7105    1.0000 </r>
       <r>   -1.5631    0.0000 </r>
       <r>   -1.3353    0.0000 </r>
       <r>   -0.6313    0.0000 </r>
       <r>    0.2179    0.0000 </r>
       <r>    0.7490    0.0000 </r>
       <r>    2.0323    0.0000 </r>
      </set>
      <set comment="kpoint 3">
       <r>  -27.7150    1.0000 </r>
       <r>  -27.7115    1.0000 </r>
       <r>  -27.7104    1.0000 </r>
       <r>  -27.7027    1.0000 </r>
       <r>  -27.7006    1.0000 </r>
       <r>  -27.6866    1.0000 </r>
       <r>  -27.6840    1.0000 </r>
       <r>  -27.6820    1.0000 </r>
       <r>  -27.6704    1.0000 </r>
       <r>  -27.6650    1.0000 </r>
       <r>  -16.8455    1.0000 </r>
       <r>  -15.3574    1.0000 </r>
       <r>  -14.9141    1.0000 </r>
       <r>  -14.8448    1.0000 </r>
       <r>  -11.5564    1.0000 </r>
       <r>   -9.2481    1.0000 </r>
       <r>   -7.4385    1.0000 </r>
       <r>   -5.8402    1.0000 </r>
       <r>   -5.7211    1.0000 </r>
       <r>   -5.6074    1.0000 </r>
       <r>   -5.3230    1.0000 </r>
       <r>   -4.8229    1.0000 </r>
       <r>   -4.6504    1.0000 </r>
       <r>   -4.0833    1.0000 </r>
       <r>   -2.9647    1.0000 </r>
       <r>   -2.8022    1.0000 </r>
       <r>   -1.3095    0.0000 </r>
       <r>   -1.2988    0.0000 </r>
       <r>   -0.3050    0.0000 </r>
       <r>    0.3620    0.0000 </r>
       <r>    0.8845    0.0000 </r>
       <r>    2.0882    0.0000 </r>
      </set>
      <set comment="kpoint 4">
       <r>  -27.7143    1.0000 </r>
       <r>  -27.7106    1.0000 </r>
       <r>  -27.7102    1.0000 </r>
       <r>  -27.7034    1.0000 </r>
       <r>  -27.7006    1.0000 </r>
       <r>  -27.6862    1.0000 </r>
       <r>  -27.6853    1.0000 </r>
       <r>  -27.6821    1.0000 </r>
       <r>  -27.6701    1.0000 </r>
       <r>  -27.6653    1.0000 </r>
       <r>  -16.7608    1.0000 </r>
       <r>  -15.3247    1.0000 </r>
       <r>  -15.0163    1.0000 </r>
       <r>  -14.9300    1.0000 </r>
       <r>  -11.3681    1.0000 </r>
       <r>   -9.3241    1.0000 </r>
       <r>   -7.4227    1.0000 </r>
       <r>   -5.8874    1.0000 </r>
       <r>   -5.8698    1.0000 </r>
       <r>   -5.7991    1.0000 </r>
       <r>   -5.5412    1.0000 </r>
       <r>   -4.6848    1.0000 </r>
       <r>   -4.6525    1.0000 </r>
       <r>   -4.0148    1.0000 </r>
       <r>   -3.1851    1.0000 </r>
       <r>   -2.9316    1.0000 </r>
       <r>   -1.2372    0.0000 </r>
       <r>   -0.9557    0.0000 </r>
       <r>    0.1813    0.0000 </r>
       <r>    0.5734    0.0000 </r>
       <r>    1.0704    0.0000 </r>
       <r>    1.9163    0.0000 </r>
      </set>
      <set comment="kpoint 5">
       <r>  -27.7134    1.0000 </r>
       <r>  -27.7098    1.0000 </r>
       <r>  -27.7096    1.0000 </r>
       <r>  -27.7043    1.0000 </r>
       <r>  -27.7003    1.0000 </r>
       <r>  -27.6872    1.0000 </r>
       <r>  -27.6858    1.0000 </r>
       <r>  -27.6823    1.0000 </r>
       <r>  -27.6697    1.0000 </r>
       <r>  -27.6657    1.0000 </r>
       <r>  -16.6440    1.0000 </r>
       <r>  -15.2819    1.0000 </r>
       <r>  -15.2240    1.0000 </r>
       <r>  -14.9535    1.0000 </r>
       <r>  -11.1346    1.0000 </r>
       <r>   -9.4408    1.0000 </r>
       <r>   -7.3919    1.0000 </r>
       <r>   -6.1864    1.0000 </r>
       <r>   -5.9892    1.0000 </r>
       <r>   -5.7547    1.0000 </r>
       <r>   -5.7291    1.0000 </r>
       <r>   -4.7590    1.0000 </r>
       <r>   -4.5137    1.0000 </r>
       <r>   -3.9275    1.0000 </r>
       <r>   -3.4266    1.0000 </r>
       <r>   -3.0767    1.0000 </r>
       <r>   -1.1012    0.0000 </r>
       <r>   -0.6124    0.0000 </r>
       <r>    0.7777    0.0000 </r>
       <r>    0.8210    0.0000 </r>
       <r>    1.2494    0.0000 </r>
       <r>    1.7447    0.0000 </r>
      </set>
      <set comment="kpoint 6">
       <r>  -27.7122    1.0000 </r>
       <r>  -27.7094    1.0000 </r>
       <r>  -27.7088    1.0000 </r>
       <r>  -27.7055    1.0000 </r>
       <r>  -27.6996    1.0000 </r>
       <r>  -27.6893    1.0000 </r>
       <r>  -27.6852    1.0000 </r>
       <r>  -27.6827    1.0000 </r>
       <r>  -27.6692    1.0000 </r>
       <r>  -27.6662    1.0000 </r>
       <r>  -16.4975    1.0000 </r>
       <r>  -15.4509    1.0000 </r>
       <r>  -15.2319    1.0000 </r>
       <r>  -14.9850    1.0000 </r>
       <r>  -10.8723    1.0000 </r>
       <r>   -9.6024    1.0000 </r>
       <r>   -7.3374    1.0000 </r>
       <r>   -6.4742    1.0000 </r>
       <r>   -6.0759    1.0000 </r>
       <r>   -5.9307    1.0000 </r>
       <r>   -5.6272    1.0000 </r>
       <r>   -4.8717    1.0000 </r>
       <r>   -4.4030    1.0000 </r>
       <r>   -3.8269    1.0000 </r>
       <r>   -3.6624    1.0000 </r>
       <r>   -3.2209    1.0000 </r>
       <r>   -0.9050    0.0000 </r>
       <r>   -0.3450    0.0000 </r>
       <r>    1.0692    0.0000 </r>
       <r>    1.3671    0.0000 </r>
       <r>    1.4402    0.0000 </r>
       <r>    1.6058    0.0000 </r>
      </set>
      <set comment="kpoint 7">
       <r>  -27.7109    1.0000 </r>
       <r>  -27.7090    1.0000 </r>
       <r>  -27.7084    1.0000 </r>
       <r>  -27.7068    1.0000 </r>
       <r>  -27.6982    1.0000 </r>
       <r>  -27.6917    1.0000 </r>
       <r>  -27.6847    1.0000 </r>
       <r>  -27.6831    1.0000 </r>
       <r>  -27.6687    1.0000 </r>
       <r>  -27.6668    1.0000 </r>
       <r>  -16.3239    1.0000 </r>
       <r>  -15.6835    1.0000 </r>
       <r>  -15.1778    1.0000 </r>
       <r>  -15.0246    1.0000 </r>
       <r>  -10.5954    1.0000 </r>
       <r>   -9.8079    1.0000 </r>
       <r>   -7.2501    1.0000 </r>
       <r>   -6.7322    1.0000 </r>
       <r>   -6.1290    1.0000 </r>
       <r>   -6.0542    1.0000 </r>
       <r>   -5.4959    1.0000 </r>
       <r>   -5.0155    1.0000 </r>
       <r>   -4.3025    1.0000 </r>
       <r>   -3.8737    1.0000 </r>
       <r>   -3.7177    1.0000 </r>
       <r>   -3.3565    1.0000 </r>
       <r>   -0.6721    0.0000 </r>
       <r>   -0.2226    0.0000 </r>
       <r>    1.2791    0.0000 </r>
       <r>    1.4132    0.0000 </r>
       <r>    1.4971    0.0000 </r>
       <r>    1.5794    0.0000 </r>
      </set>
      <set comment="kpoint 8">
       <r>  -27.7096    1.0000 </r>
       <r>  -27.7086    1.0000 </r>
       <r>  -27.7083    1.0000 </r>
       <r>  -27.7082    1.0000 </r>
       <r>  -27.6964    1.0000 </r>
       <r>  -27.6941    1.0000 </r>
       <r>  -27.6841    1.0000 </r>
       <r>  -27.6836    1.0000 </r>
       <r>  -27.6681    1.0000 </r>
       <r>  -27.6674    1.0000 </r>
       <r>  -16.1269    1.0000 </r>
       <r>  -15.9114    1.0000 </r>
       <r>  -15.1232    1.0000 </r>
       <r>  -15.0713    1.0000 </r>
       <r>  -10.3169    1.0000 </r>
       <r>  -10.0500    1.0000 </r>
       <r>   -7.1224    1.0000 </r>
       <r>   -6.9499    1.0000 </r>
       <r>   -6.1467    1.0000 </r>
       <r>   -6.1242    1.0000 </r>
       <r>   -5.3422    1.0000 </r>
       <r>   -5.1774    1.0000 </r>
       <r>   -4.1906    1.0000 </r>
       <r>   -4.0504    1.0000 </r>
       <r>   -3.6027    1.0000 </r>
       <r>   -3.4829    1.0000 </r>
       <r>   -0.4420    0.0000 </r>
       <r>   -0.2696    0.0000 </r>
       <r>    1.4224    0.0000 </r>
       <r>    1.4241    0.0000 </r>
       <r>    1.4430    0.0000 </r>
       <r>    1.5050    0.0000 </r>
      </set>
      <set comment="kpoint 9">
       <r>  -27.7154    1.0000 </r>
       <r>  -27.7120    1.0000 </r>
       <r>  -27.7105    1.0000 </r>
       <r>  -27.7021    1.0000 </r>
       <r>  -27.7007    1.0000 </r>
       <r>  -27.6868    1.0000 </r>
       <r>  -27.6832    1.0000 </r>
       <r>  -27.6819    1.0000 </r>
       <r>  -27.6705    1.0000 </r>
       <r>  -27.6649    1.0000 </r>
       <r>  -16.8948    1.0000 </r>
       <r>  -15.3752    1.0000 </r>
       <r>  -14.9551    1.0000 </r>
       <r>  -14.6994    1.0000 </r>
       <r>  -11.6595    1.0000 </r>
       <r>   -9.2082    1.0000 </r>
       <r>   -7.4330    1.0000 </r>
       <r>   -5.8901    1.0000 </r>
       <r>   -5.4527    1.0000 </r>
       <r>   -5.3744    1.0000 </r>
       <r>   -5.1769    1.0000 </r>
       <r>   -5.0747    1.0000 </r>
       <r>   -4.6466    1.0000 </r>
       <r>   -4.1107    1.0000 </r>
       <r>   -2.7694    1.0000 </r>
       <r>   -2.7512    1.0000 </r>
       <r>   -1.5456    0.0000 </r>
       <r>   -1.3148    0.0000 </r>
       <r>   -0.6125    0.0000 </r>
       <r>    0.1846    0.0000 </r>
       <r>    0.7363    0.0000 </r>
       <r>    2.0297    0.0000 </r>
      </set>
      <set comment="kpoint 10">
       <r>  -27.7153    1.0000 </r>
       <r>  -27.7118    1.0000 </r>
       <r>  -27.7105    1.0000 </r>
       <r>  -27.7023    1.0000 </r>
       <r>  -27.7007    1.0000 </r>
       <r>  -27.6867    1.0000 </r>
       <r>  -27.6835    1.0000 </r>
       <r>  -27.6819    1.0000 </r>
       <r>  -27.6704    1.0000 </r>
       <r>  -27.6649    1.0000 </r>
       <r>  -16.8778    1.0000 </r>
       <r>  -15.3684    1.0000 </r>
       <r>  -14.9618    1.0000 </r>
       <r>  -14.7334    1.0000 </r>
       <r>  -11.6201    1.0000 </r>
       <r>   -9.2231    1.0000 </r>
       <r>   -7.4277    1.0000 </r>
       <r>   -5.8979    1.0000 </r>
       <r>   -5.5325    1.0000 </r>
       <r>   -5.5238    1.0000 </r>
       <r>   -5.1439    1.0000 </r>
       <r>   -4.9750    1.0000 </r>
       <r>   -4.6506    1.0000 </r>
       <r>   -4.0965    1.0000 </r>
       <r>   -2.9099    1.0000 </r>
       <r>   -2.6895    1.0000 </r>
       <r>   -1.5033    0.0000 </r>
       <r>   -1.3090    0.0000 </r>
       <r>   -0.4731    0.0000 </r>
       <r>    0.2344    0.0000 </r>
       <r>    0.7841    0.0000 </r>
       <r>    2.0192    0.0000 </r>
      </set>
      <set comment="kpoint 11">
       <r>  -27.7149    1.0000 </r>
       <r>  -27.7113    1.0000 </r>
       <r>  -27.7102    1.0000 </r>
       <r>  -27.7027    1.0000 </r>
       <r>  -27.7007    1.0000 </r>
       <r>  -27.6865    1.0000 </r>
       <r>  -27.6844    1.0000 </r>
       <r>  -27.6820    1.0000 </r>
       <r>  -27.6703    1.0000 </r>
       <r>  -27.6651    1.0000 </r>
       <r>  -16.8269    1.0000 </r>
       <r>  -15.3485    1.0000 </r>
       <r>  -14.9900    1.0000 </r>
       <r>  -14.8210    1.0000 </r>
       <r>  -11.5076    1.0000 </r>
       <r>   -9.2696    1.0000 </r>
       <r>   -7.4113    1.0000 </r>
       <r>   -5.9323    1.0000 </r>
       <r>   -5.7901    1.0000 </r>
       <r>   -5.6406    1.0000 </r>
       <r>   -5.1991    1.0000 </r>
       <r>   -4.7983    1.0000 </r>
       <r>   -4.6653    1.0000 </r>
       <r>   -4.0541    1.0000 </r>
       <r>   -3.1099    1.0000 </r>
       <r>   -2.7093    1.0000 </r>
       <r>   -1.3488    0.0000 </r>
       <r>   -1.2805    0.0000 </r>
       <r>   -0.1139    0.0000 </r>
       <r>    0.3727    0.0000 </r>
       <r>    0.9171    0.0000 </r>
       <r>    1.9068    0.0000 </r>
      </set>
      <set comment="kpoint 12">
       <r>  -27.7143    1.0000 </r>
       <r>  -27.7105    1.0000 </r>
       <r>  -27.7099    1.0000 </r>
       <r>  -27.7034    1.0000 </r>
       <r>  -27.7006    1.0000 </r>
       <r>  -27.6861    1.0000 </r>
       <r>  -27.6858    1.0000 </r>
       <r>  -27.6821    1.0000 </r>
       <r>  -27.6700    1.0000 </r>
       <r>  -27.6654    1.0000 </r>
       <r>  -16.7431    1.0000 </r>
       <r>  -15.3168    1.0000 </r>
       <r>  -15.0813    1.0000 </r>
       <r>  -14.9060    1.0000 </r>
       <r>  -11.3360    1.0000 </r>
       <r>   -9.3527    1.0000 </r>
       <r>   -7.3822    1.0000 </r>
       <r>   -6.0723    1.0000 </r>
       <r>   -6.0062    1.0000 </r>
       <r>   -5.6785    1.0000 </r>
       <r>   -5.3598    1.0000 </r>
       <r>   -4.7089    1.0000 </r>
       <r>   -4.6325    1.0000 </r>
       <r>   -3.9848    1.0000 </r>
       <r>   -3.3313    1.0000 </r>
       <r>   -2.8021    1.0000 </r>
       <r>   -1.2066    0.0000 </r>
       <r>   -1.0826    0.0000 </r>
       <r>    0.3734    0.0000 </r>
       <r>    0.5735    0.0000 </r>
       <r>    1.1027    0.0000 </r>
       <r>    1.7426    0.0000 </r>
      </set>
      <set comment="kpoint 13">
       <r>  -27.7135    1.0000 </r>
       <r>  -27.7097    1.0000 </r>
       <r>  -27.7095    1.0000 </r>
       <r>  -27.7042    1.0000 </r>
       <r>  -27.7003    1.0000 </r>
       <r>  -27.6876    1.0000 </r>
       <r>  -27.6857    1.0000 </r>
       <r>  -27.6823    1.0000 </r>
       <r>  -27.6696    1.0000 </r>
       <r>  -27.6658    1.0000 </r>
       <r>  -16.6279    1.0000 </r>
       <r>  -15.2755    1.0000 </r>
       <r>  -15.2550    1.0000 </r>
       <r>  -14.9519    1.0000 </r>
       <r>  -11.1213    1.0000 </r>
       <r>   -9.4776    1.0000 </r>
       <r>   -7.3374    1.0000 </r>
       <r>   -6.3350    1.0000 </r>
       <r>   -6.0882    1.0000 </r>
       <r>   -5.6522    1.0000 </r>
       <r>   -5.5691    1.0000 </r>
       <r>   -4.7944    1.0000 </r>
       <r>   -4.4995    1.0000 </r>
       <r>   -3.8921    1.0000 </r>
       <r>   -3.5490    1.0000 </r>
       <r>   -2.9382    1.0000 </r>
       <r>   -1.0730    0.0000 </r>
       <r>   -0.7670    0.0000 </r>
       <r>    0.8045    0.0000 </r>
       <r>    0.9243    0.0000 </r>
       <r>    1.2882    0.0000 </r>
       <r>    1.5965    0.0000 </r>
      </set>
      <set comment="kpoint 14">
       <r>  -27.7126    1.0000 </r>
       <r>  -27.7091    1.0000 </r>
       <r>  -27.7089    1.0000 </r>
       <r>  -27.7051    1.0000 </r>
       <r>  -27.6996    1.0000 </r>
       <r>  -27.6897    1.0000 </r>
       <r>  -27.6851    1.0000 </r>
       <r>  -27.6826    1.0000 </r>
       <r>  -27.6692    1.0000 </r>
       <r>  -27.6663    1.0000 </r>
       <r>  -16.4834    1.0000 </r>
       <r>  -15.4658    1.0000 </r>
       <r>  -15.2273    1.0000 </r>
       <r>  -14.9884    1.0000 </r>
       <r>  -10.8778    1.0000 </r>
       <r>   -9.6463    1.0000 </r>
       <r>   -7.2728    1.0000 </r>
       <r>   -6.5645    1.0000 </r>
       <r>   -6.1455    1.0000 </r>
       <r>   -5.7773    1.0000 </r>
       <r>   -5.5851    1.0000 </r>
       <r>   -4.9181    1.0000 </r>
       <r>   -4.3942    1.0000 </r>
       <r>   -3.7823    1.0000 </r>
       <r>   -3.7476    1.0000 </r>
       <r>   -3.0919    1.0000 </r>
       <r>   -0.8856    0.0000 </r>
       <r>   -0.4894    0.0000 </r>
       <r>    1.0308    0.0000 </r>
       <r>    1.3989    0.0000 </r>
       <r>    1.4204    0.0000 </r>
       <r>    1.5955    0.0000 </r>
      </set>
      <set comment="kpoint 15">
       <r>  -27.7115    1.0000 </r>
       <r>  -27.7091    1.0000 </r>
       <r>  -27.7083    1.0000 </r>
       <r>  -27.7060    1.0000 </r>
       <r>  -27.6984    1.0000 </r>
       <r>  -27.6920    1.0000 </r>
       <r>  -27.6846    1.0000 </r>
       <r>  -27.6830    1.0000 </r>
       <r>  -27.6686    1.0000 </r>
       <r>  -27.6668    1.0000 </r>
       <r>  -16.3126    1.0000 </r>
       <r>  -15.6883    1.0000 </r>
       <r>  -15.1753    1.0000 </r>
       <r>  -15.0281    1.0000 </r>
       <r>  -10.6180    1.0000 </r>
       <r>   -9.8551    1.0000 </r>
       <r>   -7.1844    1.0000 </r>
       <r>   -6.7606    1.0000 </r>
       <r>   -6.1657    1.0000 </r>
       <r>   -5.9511    1.0000 </r>
       <r>   -5.4868    1.0000 </r>
       <r>   -5.0656    1.0000 </r>
       <r>   -4.2987    1.0000 </r>
       <r>   -3.9217    1.0000 </r>
       <r>   -3.6611    1.0000 </r>
       <r>   -3.2461    1.0000 </r>
       <r>   -0.6707    0.0000 </r>
       <r>   -0.3337    0.0000 </r>
       <r>    1.2199    0.0000 </r>
       <r>    1.4324    0.0000 </r>
       <r>    1.4824    0.0000 </r>
       <r>    1.6261    0.0000 </r>
      </set>
      <set comment="kpoint 16">
       <r>  -27.7105    1.0000 </r>
       <r>  -27.7096    1.0000 </r>
       <r>  -27.7076    1.0000 </r>
       <r>  -27.7068    1.0000 </r>
       <r>  -27.6965    1.0000 </r>
       <r>  -27.6943    1.0000 </r>
       <r>  -27.6840    1.0000 </r>
       <r>  -27.6834    1.0000 </r>
       <r>  -27.6680    1.0000 </r>
       <r>  -27.6674    1.0000 </r>
       <r>  -16.1195    1.0000 </r>
       <r>  -15.9092    1.0000 </r>
       <r>  -15.1230    1.0000 </r>
       <r>  -15.0732    1.0000 </r>
       <r>  -10.3530    1.0000 </r>
       <r>  -10.0946    1.0000 </r>
       <r>   -7.0696    1.0000 </r>
       <r>   -6.9282    1.0000 </r>
       <r>   -6.1436    1.0000 </r>
       <r>   -6.0738    1.0000 </r>
       <r>   -5.3627    1.0000 </r>
       <r>   -5.2189    1.0000 </r>
       <r>   -4.1947    1.0000 </r>
       <r>   -4.0705    1.0000 </r>
       <r>   -3.5313    1.0000 </r>
       <r>   -3.3931    1.0000 </r>
       <r>   -0.4698    0.0000 </r>
       <r>   -0.3375    0.0000 </r>
       <r>    1.3615    0.0000 </r>
       <r>    1.4572    0.0000 </r>
       <r>    1.4912    0.0000 </r>
       <r>    1.4917    0.0000 </r>
      </set>
      <set comment="kpoint 17">
       <r>  -27.7151    1.0000 </r>
       <r>  -27.7114    1.0000 </r>
       <r>  -27.7101    1.0000 </r>
       <r>  -27.7020    1.0000 </r>
       <r>  -27.7012    1.0000 </r>
       <r>  -27.6865    1.0000 </r>
       <r>  -27.6843    1.0000 </r>
       <r>  -27.6821    1.0000 </r>
       <r>  -27.6703    1.0000 </r>
       <r>  -27.6651    1.0000 </r>
       <r>  -16.8370    1.0000 </r>
       <r>  -15.3468    1.0000 </r>
       <r>  -15.1004    1.0000 </r>
       <r>  -14.7303    1.0000 </r>
       <r>  -11.4786    1.0000 </r>
       <r>   -9.2574    1.0000 </r>
       <r>   -7.3877    1.0000 </r>
       <r>   -5.9536    1.0000 </r>
       <r>   -5.5416    1.0000 </r>
       <r>   -5.4272    1.0000 </r>
       <r>   -5.4023    1.0000 </r>
       <r>   -4.9772    1.0000 </r>
       <r>   -4.6514    1.0000 </r>
       <r>   -4.0213    1.0000 </r>
       <r>   -2.9338    1.0000 </r>
       <r>   -2.8514    1.0000 </r>
       <r>   -1.2458    0.0000 </r>
       <r>   -1.2370    0.0000 </r>
       <r>   -0.2388    0.0000 </r>
       <r>    0.2381    0.0000 </r>
       <r>    0.8369    0.0000 </r>
       <r>    1.9784    0.0000 </r>
      </set>
      <set comment="kpoint 18">
       <r>  -27.7150    1.0000 </r>
       <r>  -27.7113    1.0000 </r>
       <r>  -27.7100    1.0000 </r>
       <r>  -27.7022    1.0000 </r>
       <r>  -27.7011    1.0000 </r>
       <r>  -27.6864    1.0000 </r>
       <r>  -27.6846    1.0000 </r>
       <r>  -27.6820    1.0000 </r>
       <r>  -27.6702    1.0000 </r>
       <r>  -27.6652    1.0000 </r>
       <r>  -16.8205    1.0000 </r>
       <r>  -15.3406    1.0000 </r>
       <r>  -15.1093    1.0000 </r>
       <r>  -14.7540    1.0000 </r>
       <r>  -11.4507    1.0000 </r>
       <r>   -9.2768    1.0000 </r>
       <r>   -7.3734    1.0000 </r>
       <r>   -5.9795    1.0000 </r>
       <r>   -5.7720    1.0000 </r>
       <r>   -5.4802    1.0000 </r>
       <r>   -5.2277    1.0000 </r>
       <r>   -4.8910    1.0000 </r>
       <r>   -4.6661    1.0000 </r>
       <r>   -4.0085    1.0000 </r>
       <r>   -3.1037    1.0000 </r>
       <r>   -2.7309    1.0000 </r>
       <r>   -1.3018    0.0000 </r>
       <r>   -1.2282    0.0000 </r>
       <r>   -0.0708    0.0000 </r>
       <r>    0.2822    0.0000 </r>
       <r>    0.8817    0.0000 </r>
       <r>    1.8529    0.0000 </r>
      </set>
      <set comment="kpoint 19">
       <r>  -27.7148    1.0000 </r>
       <r>  -27.7109    1.0000 </r>
       <r>  -27.7097    1.0000 </r>
       <r>  -27.7027    1.0000 </r>
       <r>  -27.7009    1.0000 </r>
       <r>  -27.6862    1.0000 </r>
       <r>  -27.6856    1.0000 </r>
       <r>  -27.6820    1.0000 </r>
       <r>  -27.6701    1.0000 </r>
       <r>  -27.6653    1.0000 </r>
       <r>  -16.7714    1.0000 </r>
       <r>  -15.3225    1.0000 </r>
       <r>  -15.1414    1.0000 </r>
       <r>  -14.8163    1.0000 </r>
       <r>  -11.3701    1.0000 </r>
       <r>   -9.3362    1.0000 </r>
       <r>   -7.3314    1.0000 </r>
       <r>   -6.0631    1.0000 </r>
       <r>   -6.0574    1.0000 </r>
       <r>   -5.5461    1.0000 </r>
       <r>   -5.1114    1.0000 </r>
       <r>   -4.7289    1.0000 </r>
       <r>   -4.7078    1.0000 </r>
       <r>   -3.9666    1.0000 </r>
       <r>   -3.3270    1.0000 </r>
       <r>   -2.6501    1.0000 </r>
       <r>   -1.3467    0.0000 </r>
       <r>   -1.1937    0.0000 </r>
       <r>    0.3094    0.0000 </r>
       <r>    0.4033    0.0000 </r>
       <r>    1.0089    0.0000 </r>
       <r>    1.6847    0.0000 </r>
      </set>
      <set comment="kpoint 20">
       <r>  -27.7144    1.0000 </r>
       <r>  -27.7104    1.0000 </r>
       <r>  -27.7092    1.0000 </r>
       <r>  -27.7033    1.0000 </r>
       <r>  -27.7007    1.0000 </r>
       <r>  -27.6869    1.0000 </r>
       <r>  -27.6858    1.0000 </r>
       <r>  -27.6820    1.0000 </r>
       <r>  -27.6698    1.0000 </r>
       <r>  -27.6656    1.0000 </r>
       <r>  -16.6906    1.0000 </r>
       <r>  -15.2939    1.0000 </r>
       <r>  -15.2134    1.0000 </r>
       <r>  -14.8913    1.0000 </r>
       <r>  -11.2437    1.0000 </r>
       <r>   -9.4385    1.0000 </r>
       <r>   -7.2645    1.0000 </r>
       <r>   -6.3260    1.0000 </r>
       <r>   -6.1639    1.0000 </r>
       <r>   -5.5650    1.0000 </r>
       <r>   -5.1366    1.0000 </r>
       <r>   -4.7798    1.0000 </r>
       <r>   -4.5802    1.0000 </r>
       <r>   -3.8893    1.0000 </r>
       <r>   -3.5412    1.0000 </r>
       <r>   -2.6528    1.0000 </r>
       <r>   -1.2627    0.0000 </r>
       <r>   -1.1181    0.0000 </r>
       <r>    0.5751    0.0000 </r>
       <r>    0.7538    0.0000 </r>
       <r>    1.1937    0.0000 </r>
       <r>    1.5408    0.0000 </r>
      </set>
      <set comment="kpoint 21">
       <r>  -27.7138    1.0000 </r>
       <r>  -27.7100    1.0000 </r>
       <r>  -27.7086    1.0000 </r>
       <r>  -27.7038    1.0000 </r>
       <r>  -27.7005    1.0000 </r>
       <r>  -27.6887    1.0000 </r>
       <r>  -27.6854    1.0000 </r>
       <r>  -27.6821    1.0000 </r>
       <r>  -27.6694    1.0000 </r>
       <r>  -27.6659    1.0000 </r>
       <r>  -16.5799    1.0000 </r>
       <r>  -15.3397    1.0000 </r>
       <r>  -15.2568    1.0000 </r>
       <r>  -14.9524    1.0000 </r>
       <r>  -11.0802    1.0000 </r>
       <r>   -9.5842    1.0000 </r>
       <r>   -7.1795    1.0000 </r>
       <r>   -6.5390    1.0000 </r>
       <r>   -6.2540    1.0000 </r>
       <r>   -5.5482    1.0000 </r>
       <r>   -5.2745    1.0000 </r>
       <r>   -4.8943    1.0000 </r>
       <r>   -4.4688    1.0000 </r>
       <r>   -3.7773    1.0000 </r>
       <r>   -3.7258    1.0000 </r>
       <r>   -2.7292    1.0000 </r>
       <r>   -1.0573    0.0000 </r>
       <r>   -0.9947    0.0000 </r>
       <r>    0.7688    0.0000 </r>
       <r>    1.1193    0.0000 </r>
       <r>    1.3889    0.0000 </r>
       <r>    1.5290    0.0000 </r>
      </set>
      <set comment="kpoint 22">
       <r>  -27.7132    1.0000 </r>
       <r>  -27.7099    1.0000 </r>
       <r>  -27.7078    1.0000 </r>
       <r>  -27.7043    1.0000 </r>
       <r>  -27.6998    1.0000 </r>
       <r>  -27.6907    1.0000 </r>
       <r>  -27.6848    1.0000 </r>
       <r>  -27.6824    1.0000 </r>
       <r>  -27.6690    1.0000 </r>
       <r>  -27.6663    1.0000 </r>
       <r>  -16.4417    1.0000 </r>
       <r>  -15.5103    1.0000 </r>
       <r>  -15.2139    1.0000 </r>
       <r>  -14.9979    1.0000 </r>
       <r>  -10.8880    1.0000 </r>
       <r>   -9.7688    1.0000 </r>
       <r>   -7.0891    1.0000 </r>
       <r>   -6.6974    1.0000 </r>
       <r>   -6.2904    1.0000 </r>
       <r>   -5.5113    1.0000 </r>
       <r>   -5.4773    1.0000 </r>
       <r>   -5.0382    1.0000 </r>
       <r>   -4.3841    1.0000 </r>
       <r>   -3.8782    1.0000 </r>
       <r>   -3.6414    1.0000 </r>
       <r>   -2.8552    1.0000 </r>
       <r>   -0.8364    0.0000 </r>
       <r>   -0.8085    0.0000 </r>
       <r>    0.9611    0.0000 </r>
       <r>    1.2153    0.0000 </r>
       <r>    1.5356    0.0000 </r>
       <r>    1.8259    0.0000 </r>
      </set>
      <set comment="kpoint 23">
       <r>  -27.7125    1.0000 </r>
       <r>  -27.7102    1.0000 </r>
       <r>  -27.7070    1.0000 </r>
       <r>  -27.7048    1.0000 </r>
       <r>  -27.6987    1.0000 </r>
       <r>  -27.6928    1.0000 </r>
       <r>  -27.6843    1.0000 </r>
       <r>  -27.6827    1.0000 </r>
       <r>  -27.6684    1.0000 </r>
       <r>  -27.6668    1.0000 </r>
       <r>  -16.2796    1.0000 </r>
       <r>  -15.7037    1.0000 </r>
       <r>  -15.1681    1.0000 </r>
       <r>  -15.0379    1.0000 </r>
       <r>  -10.6743    1.0000 </r>
       <r>   -9.9825    1.0000 </r>
       <r>   -7.0093    1.0000 </r>
       <r>   -6.8079    1.0000 </r>
       <r>   -6.2480    1.0000 </r>
       <r>   -5.7074    1.0000 </r>
       <r>   -5.4600    1.0000 </r>
       <r>   -5.1805    1.0000 </r>
       <r>   -4.3058    1.0000 </r>
       <r>   -4.0071    1.0000 </r>
       <r>   -3.4921    1.0000 </r>
       <r>   -3.0080    1.0000 </r>
       <r>   -0.6755    0.0000 </r>
       <r>   -0.6093    0.0000 </r>
       <r>    1.1386    0.0000 </r>
       <r>    1.2695    0.0000 </r>
       <r>    1.5950    0.0000 </r>
       <r>    1.7665    0.0000 </r>
      </set>
      <set comment="kpoint 24">
       <r>  -27.7117    1.0000 </r>
       <r>  -27.7109    1.0000 </r>
       <r>  -27.7062    1.0000 </r>
       <r>  -27.7054    1.0000 </r>
       <r>  -27.6970    1.0000 </r>
       <r>  -27.6950    1.0000 </r>
       <r>  -27.6837    1.0000 </r>
       <r>  -27.6832    1.0000 </r>
       <r>  -27.6679    1.0000 </r>
       <r>  -27.6674    1.0000 </r>
       <r>  -16.0982    1.0000 </r>
       <r>  -15.9035    1.0000 </r>
       <r>  -15.1224    1.0000 </r>
       <r>  -15.0787    1.0000 </r>
       <r>  -10.4464    1.0000 </r>
       <r>  -10.2124    1.0000 </r>
       <r>   -6.9454    1.0000 </r>
       <r>   -6.8847    1.0000 </r>
       <r>   -6.1224    1.0000 </r>
       <r>   -5.9325    1.0000 </r>
       <r>   -5.3919    1.0000 </r>
       <r>   -5.3002    1.0000 </r>
       <r>   -4.2195    1.0000 </r>
       <r>   -4.1202    1.0000 </r>
       <r>   -3.3342    1.0000 </r>
       <r>   -3.1711    1.0000 </r>
       <r>   -0.5559    0.0000 </r>
       <r>   -0.5228    0.0000 </r>
       <r>    1.2935    0.0000 </r>
       <r>    1.3469    0.0000 </r>
       <r>    1.5755    0.0000 </r>
       <r>    1.5992    0.0000 </r>
      </set>
      <set comment="kpoint 25">
       <r>  -27.7144    1.0000 </r>
       <r>  -27.7107    1.0000 </r>
       <r>  -27.7094    1.0000 </r>
       <r>  -27.7019    1.0000 </r>
       <r>  -27.7017    1.0000 </r>
       <r>  -27.6861    1.0000 </r>
       <r>  -27.6860    1.0000 </r>
       <r>  -27.6823    1.0000 </r>
       <r>  -27.6700    1.0000 </r>
       <r>  -27.6656    1.0000 </r>
       <r>  -16.7416    1.0000 </r>
       <r>  -15.3072    1.0000 </r>
       <r>  -15.3010    1.0000 </r>
       <r>  -14.7796    1.0000 </r>
       <r>  -11.2149    1.0000 </r>
       <r>   -9.3483    1.0000 </r>
       <r>   -7.3087    1.0000 </r>
       <r>   -6.0340    1.0000 </r>
       <r>   -5.7512    1.0000 </r>
       <r>   -5.6946    1.0000 </r>
       <r>   -5.3796    1.0000 </r>
       <r>   -4.8358    1.0000 </r>
       <r>   -4.6894    1.0000 </r>
       <r>   -3.8912    1.0000 </r>
       <r>   -3.1738    1.0000 </r>
       <r>   -2.9583    1.0000 </r>
       <r>   -1.1009    0.0000 </r>
       <r>   -0.8667    0.0000 </r>
       <r>    0.3102    0.0000 </r>
       <r>    0.3232    0.0000 </r>
       <r>    0.9778    0.0000 </r>
       <r>    1.7182    0.0000 </r>
      </set>
      <set comment="kpoint 26">
       <r>  -27.7144    1.0000 </r>
       <r>  -27.7107    1.0000 </r>
       <r>  -27.7093    1.0000 </r>
       <r>  -27.7022    1.0000 </r>
       <r>  -27.7014    1.0000 </r>
       <r>  -27.6864    1.0000 </r>
       <r>  -27.6860    1.0000 </r>
       <r>  -27.6822    1.0000 </r>
       <r>  -27.6699    1.0000 </r>
       <r>  -27.6656    1.0000 </r>
       <r>  -16.7260    1.0000 </r>
       <r>  -15.3137    1.0000 </r>
       <r>  -15.2958    1.0000 </r>
       <r>  -14.7959    1.0000 </r>
       <r>  -11.2024    1.0000 </r>
       <r>   -9.3743    1.0000 </r>
       <r>   -7.2824    1.0000 </r>
       <r>   -6.0666    1.0000 </r>
       <r>   -6.0317    1.0000 </r>
       <r>   -5.4207    1.0000 </r>
       <r>   -5.4191    1.0000 </r>
       <r>   -4.7636    1.0000 </r>
       <r>   -4.7122    1.0000 </r>
       <r>   -3.8763    1.0000 </r>
       <r>   -3.3252    1.0000 </r>
       <r>   -2.8285    1.0000 </r>
       <r>   -1.0897    0.0000 </r>
       <r>   -0.9816    0.0000 </r>
       <r>    0.3576    0.0000 </r>
       <r>    0.4703    0.0000 </r>
       <r>    1.0199    0.0000 </r>
       <r>    1.6149    0.0000 </r>
      </set>
      <set comment="kpoint 27">
       <r>  -27.7144    1.0000 </r>
       <r>  -27.7106    1.0000 </r>
       <r>  -27.7088    1.0000 </r>
       <r>  -27.7026    1.0000 </r>
       <r>  -27.7011    1.0000 </r>
       <r>  -27.6873    1.0000 </r>
       <r>  -27.6858    1.0000 </r>
       <r>  -27.6821    1.0000 </r>
       <r>  -27.6697    1.0000 </r>
       <r>  -27.6657    1.0000 </r>
       <r>  -16.6799    1.0000 </r>
       <r>  -15.3361    1.0000 </r>
       <r>  -15.2808    1.0000 </r>
       <r>  -14.8406    1.0000 </r>
       <r>  -11.1647    1.0000 </r>
       <r>   -9.4522    1.0000 </r>
       <r>   -7.2054    1.0000 </r>
       <r>   -6.3068    1.0000 </r>
       <r>   -6.1611    1.0000 </r>
       <r>   -5.4755    1.0000 </r>
       <r>   -5.1733    1.0000 </r>
       <r>   -4.7805    1.0000 </r>
       <r>   -4.6257    1.0000 </r>
       <r>   -3.8248    1.0000 </r>
       <r>   -3.5391    1.0000 </r>
       <r>   -2.6776    1.0000 </r>
       <r>   -1.1785    0.0000 </r>
       <r>   -1.0521    0.0000 </r>
       <r>    0.4513    0.0000 </r>
       <r>    0.7969    0.0000 </r>
       <r>    1.1419    0.0000 </r>
       <r>    1.4823    0.0000 </r>
      </set>
      <set comment="kpoint 28">
       <r>  -27.7143    1.0000 </r>
       <r>  -27.7104    1.0000 </r>
       <r>  -27.7082    1.0000 </r>
       <r>  -27.7029    1.0000 </r>
       <r>  -27.7009    1.0000 </r>
       <r>  -27.6886    1.0000 </r>
       <r>  -27.6854    1.0000 </r>
       <r>  -27.6820    1.0000 </r>
       <r>  -27.6694    1.0000 </r>
       <r>  -27.6659    1.0000 </r>
       <r>  -16.6043    1.0000 </r>
       <r>  -15.3827    1.0000 </r>
       <r>  -15.2573    1.0000 </r>
       <r>  -14.9015    1.0000 </r>
       <r>  -11.1003    1.0000 </r>
       <r>   -9.5793    1.0000 </r>
       <r>   -7.0841    1.0000 </r>
       <r>   -6.5282    1.0000 </r>
       <r>   -6.2910    1.0000 </r>
       <r>   -5.4921    1.0000 </r>
       <r>   -5.0385    1.0000 </r>
       <r>   -4.8917    1.0000 </r>
       <r>   -4.5096    1.0000 </r>
       <r>   -3.7259    1.0000 </r>
       <r>   -3.7250    1.0000 </r>
       <r>   -2.5902    1.0000 </r>
       <r>   -1.2942    0.0000 </r>
       <r>   -0.9828    0.0000 </r>
       <r>    0.5842    0.0000 </r>
       <r>    1.0509    0.0000 </r>
       <r>    1.3242    0.0000 </r>
       <r>    1.4806    0.0000 </r>
      </set>
      <set comment="kpoint 29">
       <r>  -27.7141    1.0000 </r>
       <r>  -27.7105    1.0000 </r>
       <r>  -27.7074    1.0000 </r>
       <r>  -27.7031    1.0000 </r>
       <r>  -27.7007    1.0000 </r>
       <r>  -27.6903    1.0000 </r>
       <r>  -27.6849    1.0000 </r>
       <r>  -27.6820    1.0000 </r>
       <r>  -27.6691    1.0000 </r>
       <r>  -27.6662    1.0000 </r>
       <r>  -16.5014    1.0000 </r>
       <r>  -15.4639    1.0000 </r>
       <r>  -15.2272    1.0000 </r>
       <r>  -14.9622    1.0000 </r>
       <r>  -11.0082    1.0000 </r>
       <r>   -9.7483    1.0000 </r>
       <r>   -6.9356    1.0000 </r>
       <r>   -6.6876    1.0000 </r>
       <r>   -6.4085    1.0000 </r>
       <r>   -5.4782    1.0000 </r>
       <r>   -5.0486    1.0000 </r>
       <r>   -5.0327    1.0000 </r>
       <r>   -4.4359    1.0000 </r>
       <r>   -3.8726    1.0000 </r>
       <r>   -3.5813    1.0000 </r>
       <r>   -2.5791    1.0000 </r>
       <r>   -1.2704    0.0000 </r>
       <r>   -0.8862    0.0000 </r>
       <r>    0.7398    0.0000 </r>
       <r>    1.0763    0.0000 </r>
       <r>    1.5214    0.0000 </r>
       <r>    1.7288    0.0000 </r>
      </set>
      <set comment="kpoint 30">
       <r>  -27.7137    1.0000 </r>
       <r>  -27.7108    1.0000 </r>
       <r>  -27.7065    1.0000 </r>
       <r>  -27.7032    1.0000 </r>
       <r>  -27.7002    1.0000 </r>
       <r>  -27.6921    1.0000 </r>
       <r>  -27.6844    1.0000 </r>
       <r>  -27.6822    1.0000 </r>
       <r>  -27.6686    1.0000 </r>
       <r>  -27.6665    1.0000 </r>
       <r>  -16.3742    1.0000 </r>
       <r>  -15.5832    1.0000 </r>
       <r>  -15.1930    1.0000 </r>
       <r>  -15.0122    1.0000 </r>
       <r>  -10.8875    1.0000 </r>
       <r>   -9.9463    1.0000 </r>
       <r>   -6.8166    1.0000 </r>
       <r>   -6.7885    1.0000 </r>
       <r>   -6.4373    1.0000 </r>
       <r>   -5.4500    1.0000 </r>
       <r>   -5.2413    1.0000 </r>
       <r>   -5.1269    1.0000 </r>
       <r>   -4.3852    1.0000 </r>
       <r>   -3.9898    1.0000 </r>
       <r>   -3.4139    1.0000 </r>
       <r>   -2.6387    1.0000 </r>
       <r>   -1.1289    0.0000 </r>
       <r>   -0.7842    0.0000 </r>
       <r>    0.9092    0.0000 </r>
       <r>    1.0709    0.0000 </r>
       <r>    1.6683    0.0000 </r>
       <r>    2.0017    0.0000 </r>
      </set>
      <set comment="kpoint 31">
       <r>  -27.7132    1.0000 </r>
       <r>  -27.7114    1.0000 </r>
       <r>  -27.7056    1.0000 </r>
       <r>  -27.7035    1.0000 </r>
       <r>  -27.6991    1.0000 </r>
       <r>  -27.6940    1.0000 </r>
       <r>  -27.6838    1.0000 </r>
       <r>  -27.6825    1.0000 </r>
       <r>  -27.6682    1.0000 </r>
       <r>  -27.6669    1.0000 </r>
       <r>  -16.2270    1.0000 </r>
       <r>  -15.7322    1.0000 </r>
       <r>  -15.1572    1.0000 </r>
       <r>  -15.0520    1.0000 </r>
       <r>  -10.7385    1.0000 </r>
       <r>  -10.1575    1.0000 </r>
       <r>   -6.8404    1.0000 </r>
       <r>   -6.8055    1.0000 </r>
       <r>   -6.2939    1.0000 </r>
       <r>   -5.4909    1.0000 </r>
       <r>   -5.4154    1.0000 </r>
       <r>   -5.2305    1.0000 </r>
       <r>   -4.3334    1.0000 </r>
       <r>   -4.0925    1.0000 </r>
       <r>   -3.2389    1.0000 </r>
       <r>   -2.7519    1.0000 </r>
       <r>   -0.9419    0.0000 </r>
       <r>   -0.7124    0.0000 </r>
       <r>    1.0836    0.0000 </r>
       <r>    1.1252    0.0000 </r>
       <r>    1.7125    0.0000 </r>
       <r>    1.8818    0.0000 </r>
      </set>
      <set comment="kpoint 32">
       <r>  -27.7126    1.0000 </r>
       <r>  -27.7120    1.0000 </r>
       <r>  -27.7048    1.0000 </r>
       <r>  -27.7041    1.0000 </r>
       <r>  -27.6977    1.0000 </r>
       <r>  -27.6959    1.0000 </r>
       <r>  -27.6833    1.0000 </r>
       <r>  -27.6828    1.0000 </r>
       <r>  -27.6677    1.0000 </r>
       <r>  -27.6673    1.0000 </r>
       <r>  -16.0655    1.0000 </r>
       <r>  -15.8972    1.0000 </r>
       <r>  -15.1216    1.0000 </r>
       <r>  -15.0871    1.0000 </r>
       <r>  -10.5635    1.0000 </r>
       <r>  -10.3671    1.0000 </r>
       <r>   -6.8535    1.0000 </r>
       <r>   -6.8367    1.0000 </r>
       <r>   -6.0486    1.0000 </r>
       <r>   -5.7700    1.0000 </r>
       <r>   -5.3727    1.0000 </r>
       <r>   -5.3136    1.0000 </r>
       <r>   -4.2675    1.0000 </r>
       <r>   -4.1859    1.0000 </r>
       <r>   -3.0650    1.0000 </r>
       <r>   -2.8991    1.0000 </r>
       <r>   -0.7857    0.0000 </r>
       <r>   -0.7064    0.0000 </r>
       <r>    1.2225    0.0000 </r>
       <r>    1.2254    0.0000 </r>
       <r>    1.6721    0.0000 </r>
       <r>    1.7167    0.0000 </r>
      </set>
      <set comment="kpoint 33">
       <r>  -27.7137    1.0000 </r>
       <r>  -27.7103    1.0000 </r>
       <r>  -27.7085    1.0000 </r>
       <r>  -27.7028    1.0000 </r>
       <r>  -27.7007    1.0000 </r>
       <r>  -27.6883    1.0000 </r>
       <r>  -27.6856    1.0000 </r>
       <r>  -27.6827    1.0000 </r>
       <r>  -27.6695    1.0000 </r>
       <r>  -27.6661    1.0000 </r>
       <r>  -16.6101    1.0000 </r>
       <r>  -15.5451    1.0000 </r>
       <r>  -15.2401    1.0000 </r>
       <r>  -14.8442    1.0000 </r>
       <r>  -10.9028    1.0000 </r>
       <r>   -9.4905    1.0000 </r>
       <r>   -7.1919    1.0000 </r>
       <r>   -6.1127    1.0000 </r>
       <r>   -6.0078    1.0000 </r>
       <r>   -5.9476    1.0000 </r>
       <r>   -5.3073    1.0000 </r>
       <r>   -4.7614    1.0000 </r>
       <r>   -4.6616    1.0000 </r>
       <r>   -3.7406    1.0000 </r>
       <r>   -3.4412    1.0000 </r>
       <r>   -3.0735    1.0000 </r>
       <r>   -0.9061    0.0000 </r>
       <r>   -0.5023    0.0000 </r>
       <r>    0.4362    0.0000 </r>
       <r>    0.9804    0.0000 </r>
       <r>    1.1236    0.0000 </r>
       <r>    1.4449    0.0000 </r>
      </set>
      <set comment="kpoint 34">
       <r>  -27.7137    1.0000 </r>
       <r>  -27.7104    1.0000 </r>
       <r>  -27.7083    1.0000 </r>
       <r>  -27.7028    1.0000 </r>
       <r>  -27.7007    1.0000 </r>
       <r>  -27.6886    1.0000 </r>
       <r>  -27.6855    1.0000 </r>
       <r>  -27.6826    1.0000 </r>
       <r>  -27.6694    1.0000 </r>
       <r>  -27.6662    1.0000 </r>
       <r>  -16.5960    1.0000 </r>
       <r>  -15.5472    1.0000 </r>
       <r>  -15.2364    1.0000 </r>
       <r>  -14.8551    1.0000 </r>
       <r>  -10.9067    1.0000 </r>
       <r>   -9.5236    1.0000 </r>
       <r>   -7.1550    1.0000 </r>
       <r>   -6.2626    1.0000 </r>
       <r>   -6.1400    1.0000 </r>
       <r>   -5.6635    1.0000 </r>
       <r>   -5.3496    1.0000 </r>
       <r>   -4.7945    1.0000 </r>
       <r>   -4.6046    1.0000 </r>
       <r>   -3.7181    1.0000 </r>
       <r>   -3.5551    1.0000 </r>
       <r>   -2.9535    1.0000 </r>
       <r>   -0.8963    0.0000 </r>
       <r>   -0.6295    0.0000 </r>
       <r>    0.4584    0.0000 </r>
       <r>    1.0773    0.0000 </r>
       <r>    1.1641    0.0000 </r>
       <r>    1.3966    0.0000 </r>
      </set>
      <set comment="kpoint 35">
       <r>  -27.7139    1.0000 </r>
       <r>  -27.7105    1.0000 </r>
       <r>  -27.7078    1.0000 </r>
       <r>  -27.7027    1.0000 </r>
       <r>  -27.7007    1.0000 </r>
       <r>  -27.6894    1.0000 </r>
       <r>  -27.6852    1.0000 </r>
       <r>  -27.6824    1.0000 </r>
       <r>  -27.6692    1.0000 </r>
       <r>  -27.6662    1.0000 </r>
       <r>  -16.5543    1.0000 </r>
       <r>  -15.5555    1.0000 </r>
       <r>  -15.2257    1.0000 </r>
       <r>  -14.8863    1.0000 </r>
       <r>  -10.9147    1.0000 </r>
       <r>   -9.6195    1.0000 </r>
       <r>   -7.0482    1.0000 </r>
       <r>   -6.4930    1.0000 </r>
       <r>   -6.2226    1.0000 </r>
       <r>   -5.4166    1.0000 </r>
       <r>   -5.3584    1.0000 </r>
       <r>   -4.8901    1.0000 </r>
       <r>   -4.5008    1.0000 </r>
       <r>   -3.7304    1.0000 </r>
       <r>   -3.6430    1.0000 </r>
       <r>   -2.7651    1.0000 </r>
       <r>   -0.8968    0.0000 </r>
       <r>   -0.8676    0.0000 </r>
       <r>    0.5212    0.0000 </r>
       <r>    1.1387    0.0000 </r>
       <r>    1.2813    0.0000 </r>
       <r>    1.4789    0.0000 </r>
[...]
       <r>    1.3914    0.0000 </r>
       <r>    1.4724    0.0000 </r>
      </set>
      <set comment="kpoint 54">
       <r>  -27.7138    1.0000 </r>
       <r>  -27.7133    1.0000 </r>
       <r>  -27.7029    1.0000 </r>
       <r>  -27.7020    1.0000 </r>
       <r>  -27.6990    1.0000 </r>
       <r>  -27.6973    1.0000 </r>
       <r>  -27.6829    1.0000 </r>
       <r>  -27.6825    1.0000 </r>
       <r>  -27.6675    1.0000 </r>
       <r>  -27.6672    1.0000 </r>
       <r>  -16.0522    1.0000 </r>
       <r>  -15.9238    1.0000 </r>
       <r>  -15.1068    1.0000 </r>
       <r>  -15.0781    1.0000 </r>
       <r>  -10.6864    1.0000 </r>
       <r>  -10.5367    1.0000 </r>
       <r>   -6.8231    1.0000 </r>
       <r>   -6.7785    1.0000 </r>
       <r>   -5.8125    1.0000 </r>
       <r>   -5.6344    1.0000 </r>
       <r>   -5.2268    1.0000 </r>
       <r>   -5.0428    1.0000 </r>
       <r>   -4.3127    1.0000 </r>
       <r>   -4.2459    1.0000 </r>
       <r>   -2.6537    1.0000 </r>
       <r>   -2.5177    1.0000 </r>
       <r>   -1.2047    0.0000 </r>
       <r>   -1.0123    0.0000 </r>
       <r>    1.1728    0.0000 </r>
       <r>    1.1853    0.0000 </r>
       <r>    1.4647    0.0000 </r>
       <r>    1.4689    0.0000 </r>
      </set>
      <set comment="kpoint 55">
       <r>  -27.7140    1.0000 </r>
       <r>  -27.7137    1.0000 </r>
       <r>  -27.7021    1.0000 </r>
       <r>  -27.7012    1.0000 </r>
       <r>  -27.6997    1.0000 </r>
       <r>  -27.6983    1.0000 </r>
       <r>  -27.6826    1.0000 </r>
       <r>  -27.6823    1.0000 </r>
       <r>  -27.6674    1.0000 </r>
       <r>  -27.6672    1.0000 </r>
       <r>  -15.9935    1.0000 </r>
       <r>  -15.9107    1.0000 </r>
       <r>  -15.1142    1.0000 </r>
       <r>  -15.0993    1.0000 </r>
       <r>  -10.7495    1.0000 </r>
       <r>  -10.6570    1.0000 </r>
       <r>   -6.8461    1.0000 </r>
       <r>   -6.8166    1.0000 </r>
       <r>   -5.7819    1.0000 </r>
       <r>   -5.6920    1.0000 </r>
       <r>   -5.0598    1.0000 </r>
       <r>   -4.9059    1.0000 </r>
       <r>   -4.3410    1.0000 </r>
       <r>   -4.2922    1.0000 </r>
       <r>   -2.5197    1.0000 </r>
       <r>   -2.4403    1.0000 </r>
       <r>   -1.3473    0.0000 </r>
       <r>   -1.1968    0.0000 </r>
       <r>    1.2017    0.0000 </r>
       <r>    1.2984    0.0000 </r>
       <r>    1.4412    0.0000 </r>
       <r>    1.5013    0.0000 </r>
      </set>
      <set comment="kpoint 56">
       <r>  -27.7141    1.0000 </r>
       <r>  -27.7140    1.0000 </r>
       <r>  -27.7013    1.0000 </r>
       <r>  -27.7007    1.0000 </r>
       <r>  -27.7000    1.0000 </r>
       <r>  -27.6992    1.0000 </r>
       <r>  -27.6824    1.0000 </r>
       <r>  -27.6823    1.0000 </r>
       <r>  -27.6672    1.0000 </r>
       <r>  -27.6672    1.0000 </r>
       <r>  -15.9460    1.0000 </r>
       <r>  -15.9172    1.0000 </r>
       <r>  -15.1177    1.0000 </r>
       <r>  -15.1133    1.0000 </r>
       <r>  -10.7675    1.0000 </r>
       <r>  -10.7362    1.0000 </r>
       <r>   -6.8556    1.0000 </r>
       <r>   -6.8457    1.0000 </r>
       <r>   -5.7560    1.0000 </r>
       <r>   -5.7289    1.0000 </r>
       <r>   -4.9252    1.0000 </r>
       <r>   -4.8670    1.0000 </r>
       <r>   -4.3436    1.0000 </r>
       <r>   -4.3241    1.0000 </r>
       <r>   -2.4425    1.0000 </r>
       <r>   -2.4181    1.0000 </r>
       <r>   -1.3891    0.0000 </r>
       <r>   -1.3330    0.0000 </r>
       <r>    1.2558    0.0000 </r>
       <r>    1.3144    0.0000 </r>
       <r>    1.4504    0.0000 </r>
       <r>    1.4911    0.0000 </r>
      </set>
     </set>
    </set>
   </array>
  </eigenvalues>
  <separator name="orbital magnetization" >
   <v name="MAGDIPOLOUT">      0.00000000      0.00000000      0.00000000</v>
  </separator>
  <dos>
   <i name="efermi">     -2.29546298 </i>
   <total>
    <array>
     <dimension dim="1">gridpoints</dimension>
     <dimension dim="2">spin</dimension>
     <field>energy</field>
     <field>total</field>
     <field>integrated</field>
     <set>
      <set comment="spin 1">
       <r>   -29.2058     0.0000     0.0000 </r>
       <r>   -29.0965     0.0000     0.0000 </r>
       <r>   -28.9872     0.0000     0.0000 </r>
       <r>   -28.8779     0.0000     0.0000 </r>
       <r>   -28.7686     0.0000     0.0000 </r>
       <r>   -28.6594     0.0000     0.0000 </r>
       <r>   -28.5501     0.0000     0.0000 </r>
       <r>   -28.4408     0.0000     0.0000 </r>
       <r>   -28.3315     0.0000     0.0000 </r>
       <r>   -28.2222     0.0000     0.0000 </r>
       <r>   -28.1130     0.0000     0.0000 </r>
       <r>   -28.0037     0.0000     0.0000 </r>
       <r>   -27.8944     0.0000     0.0000 </r>
       <r>   -27.7851     0.0000     0.0000 </r>
       <r>   -27.6758   141.4392    15.4565 </r>
       <r>   -27.5666    41.5762    20.0000 </r>
       <r>   -27.4573     0.0000    20.0000 </r>
       <r>   -27.3480     0.0000    20.0000 </r>
       <r>   -27.2387     0.0000    20.0000 </r>
       <r>   -27.1294     0.0000    20.0000 </r>
       <r>   -27.0202     0.0000    20.0000 </r>
       <r>   -26.9109     0.0000    20.0000 </r>
       <r>   -26.8016     0.0000    20.0000 </r>
       <r>   -26.6923     0.0000    20.0000 </r>
       <r>   -26.5830     0.0000    20.0000 </r>
       <r>   -26.4738     0.0000    20.0000 </r>
       <r>   -26.3645     0.0000    20.0000 </r>
       <r>   -26.2552     0.0000    20.0000 </r>
       <r>   -26.1459     0.0000    20.0000 </r>
       <r>   -26.0366     0.0000    20.0000 </r>
       <r>   -25.9274     0.0000    20.0000 </r>
       <r>   -25.8181     0.0000    20.0000 </r>
       <r>   -25.7088     0.0000    20.0000 </r>
       <r>   -25.5995     0.0000    20.0000 </r>
       <r>   -25.4902     0.0000    20.0000 </r>
       <r>   -25.3809     0.0000    20.0000 </r>
       <r>   -25.2717     0.0000    20.0000 </r>
       <r>   -25.1624     0.0000    20.0000 </r>
       <r>   -25.0531     0.0000    20.0000 </r>
       <r>   -24.9438     0.0000    20.0000 </r>
       <r>   -24.8345     0.0000    20.0000 </r>
       <r>   -24.7253     0.0000    20.0000 </r>
       <r>   -24.6160     0.0000    20.0000 </r>
       <r>   -24.5067     0.0000    20.0000 </r>
       <r>   -24.3974     0.0000    20.0000 </r>
       <r>   -24.2881     0.0000    20.0000 </r>
       <r>   -24.1789     0.0000    20.0000 </r>
       <r>   -24.0696     0.0000    20.0000 </r>
       <r>   -23.9603     0.0000    20.0000 </r>
       <r>   -23.8510     0.0000    20.0000 </r>
       <r>   -23.7417     0.0000    20.0000 </r>
       <r>   -23.6325     0.0000    20.0000 </r>
       <r>   -23.5232     0.0000    20.0000 </r>
       <r>   -23.4139     0.0000    20.0000 </r>
       <r>   -23.3046     0.0000    20.0000 </r>
       <r>   -23.1953     0.0000    20.0000 </r>
       <r>   -23.0861     0.0000    20.0000 </r>
       <r>   -22.9768     0.0000    20.0000 </r>
       <r>   -22.8675     0.0000    20.0000 </r>
       <r>   -22.7582     0.0000    20.0000 </r>
       <r>   -22.6489     0.0000    20.0000 </r>
       <r>   -22.5397     0.0000    20.0000 </r>
       <r>   -22.4304     0.0000    20.0000 </r>
       <r>   -22.3211     0.0000    20.0000 </r>
       <r>   -22.2118     0.0000    20.0000 </r>
       <r>   -22.1025     0.0000    20.0000 </r>
       <r>   -21.9933     0.0000    20.0000 </r>
       <r>   -21.8840     0.0000    20.0000 </r>
       <r>   -21.7747     0.0000    20.0000 </r>
       <r>   -21.6654     0.0000    20.0000 </r>
       <r>   -21.5561     0.0000    20.0000 </r>
       <r>   -21.4469     0.0000    20.0000 </r>
       <r>   -21.3376     0.0000    20.0000 </r>
       <r>   -21.2283     0.0000    20.0000 </r>
       <r>   -21.1190     0.0000    20.0000 </r>
       <r>   -21.0097     0.0000    20.0000 </r>
       <r>   -20.9005     0.0000    20.0000 </r>
       <r>   -20.7912     0.0000    20.0000 </r>
       <r>   -20.6819     0.0000    20.0000 </r>
       <r>   -20.5726     0.0000    20.0000 </r>
       <r>   -20.4633     0.0000    20.0000 </r>
       <r>   -20.3541     0.0000    20.0000 </r>
       <r>   -20.2448     0.0000    20.0000 </r>
       <r>   -20.1355     0.0000    20.0000 </r>
       <r>   -20.0262     0.0000    20.0000 </r>
       <r>   -19.9169     0.0000    20.0000 </r>
       <r>   -19.8076     0.0000    20.0000 </r>
       <r>   -19.6984     0.0000    20.0000 </r>
       <r>   -19.5891     0.0000    20.0000 </r>
       <r>   -19.4798     0.0000    20.0000 </r>
       <r>   -19.3705     0.0000    20.0000 </r>
       <r>   -19.2612     0.0000    20.0000 </r>
       <r>   -19.1520     0.0000    20.0000 </r>
       <r>   -19.0427     0.0000    20.0000 </r>
       <r>   -18.9334     0.0000    20.0000 </r>
       <r>   -18.8241     0.0000    20.0000 </r>
       <r>   -18.7148     0.0000    20.0000 </r>
       <r>   -18.6056     0.0000    20.0000 </r>
       <r>   -18.4963     0.0000    20.0000 </r>
       <r>   -18.3870     0.0000    20.0000 </r>
       <r>   -18.2777     0.0000    20.0000 </r>
       <r>   -18.1684     0.0000    20.0000 </r>
       <r>   -18.0592     0.0000    20.0000 </r>
       <r>   -17.9499     0.0000    20.0000 </r>
       <r>   -17.8406     0.0000    20.0000 </r>
       <r>   -17.7313     0.0000    20.0000 </r>
       <r>   -17.6220     0.0000    20.0000 </r>
       <r>   -17.5128     0.0000    20.0000 </r>
       <r>   -17.4035     0.0000    20.0000 </r>
       <r>   -17.2942     0.0000    20.0000 </r>
       <r>   -17.1849     0.0000    20.0000 </r>
       <r>   -17.0756     0.0000    20.0000 </r>
       <r>   -16.9664     0.0000    20.0000 </r>
       <r>   -16.8571     0.8779    20.0959 </r>
       <r>   -16.7478     1.8286    20.2958 </r>
       <r>   -16.6385     1.7310    20.4849 </r>
       <r>   -16.5292     2.0361    20.7075 </r>
       <r>   -16.4200     2.1919    20.9470 </r>
       <r>   -16.3107     1.9364    21.1586 </r>
       <r>   -16.2014     2.5502    21.4373 </r>
       <r>   -16.0921     2.4336    21.7032 </r>
       <r>   -15.9828     3.1448    22.0469 </r>
       <r>   -15.8736     4.3874    22.5263 </r>
       <r>   -15.7643     2.6352    22.8143 </r>
       <r>   -15.6550     1.9143    23.0235 </r>
       <r>   -15.5457     1.7168    23.2111 </r>
       <r>   -15.4364     1.6359    23.3899 </r>
       <r>   -15.3272     3.2678    23.7470 </r>
       <r>   -15.2179     6.4148    24.4480 </r>
       <r>   -15.1086    10.2294    25.5659 </r>
       <r>   -14.9993    11.0616    26.7747 </r>
       <r>   -14.8900     6.7784    27.5155 </r>
       <r>   -14.7807     2.8806    27.8303 </r>
       <r>   -14.6715     1.5385    27.9984 </r>
       <r>   -14.5622     0.0147    28.0000 </r>
       <r>   -14.4529     0.0000    28.0000 </r>
       <r>   -14.3436     0.0000    28.0000 </r>
       <r>   -14.2343     0.0000    28.0000 </r>
       <r>   -14.1251     0.0000    28.0000 </r>
       <r>   -14.0158     0.0000    28.0000 </r>
       <r>   -13.9065     0.0000    28.0000 </r>
       <r>   -13.7972     0.0000    28.0000 </r>
       <r>   -13.6879     0.0000    28.0000 </r>
       <r>   -13.5787     0.0000    28.0000 </r>
       <r>   -13.4694     0.0000    28.0000 </r>
       <r>   -13.3601     0.0000    28.0000 </r>
       <r>   -13.2508     0.0000    28.0000 </r>
       <r>   -13.1415     0.0000    28.0000 </r>
       <r>   -13.0323     0.0000    28.0000 </r>
       <r>   -12.9230     0.0000    28.0000 </r>
       <r>   -12.8137     0.0000    28.0000 </r>
       <r>   -12.7044     0.0000    28.0000 </r>
       <r>   -12.5951     0.0000    28.0000 </r>
       <r>   -12.4859     0.0000    28.0000 </r>
       <r>   -12.3766     0.0000    28.0000 </r>
       <r>   -12.2673     0.0000    28.0000 </r>
       <r>   -12.1580     0.0000    28.0000 </r>
       <r>   -12.0487     0.0000    28.0000 </r>
       <r>   -11.9395     0.0000    28.0000 </r>
       <r>   -11.8302     0.0000    28.0000 </r>
       <r>   -11.7209     0.0572    28.0063 </r>
       <r>   -11.6116     0.6843    28.0810 </r>
       <r>   -11.5023     0.5419    28.1403 </r>
       <r>   -11.3931     0.7143    28.2183 </r>
       <r>   -11.2838     0.9125    28.3180 </r>
       <r>   -11.1745     1.0200    28.4295 </r>
       <r>   -11.0652     1.5505    28.5989 </r>
       <r>   -10.9559     0.4338    28.6464 </r>
       <r>   -10.8467     3.3002    29.0070 </r>
       <r>   -10.7374     2.8636    29.3199 </r>
       <r>   -10.6281     3.2152    29.6713 </r>
       <r>   -10.5188     2.6281    29.9585 </r>
       <r>   -10.4095     1.1532    30.0845 </r>
       <r>   -10.3003     2.4112    30.3480 </r>
       <r>   -10.1910     1.3266    30.4930 </r>
       <r>   -10.0817     1.6553    30.6739 </r>
       <r>    -9.9724     1.3543    30.8219 </r>
       <r>    -9.8631     1.2277    30.9561 </r>
       <r>    -9.7539     1.6013    31.1311 </r>
       <r>    -9.6446     1.1332    31.2549 </r>
       <r>    -9.5353     1.5450    31.4237 </r>
       <r>    -9.4260     1.6899    31.6084 </r>
       <r>    -9.3167     1.5210    31.7746 </r>
       <r>    -9.2074     1.7404    31.9648 </r>
       <r>    -9.0982     0.3218    32.0000 </r>
       <r>    -8.9889     0.0000    32.0000 </r>
       <r>    -8.8796     0.0000    32.0000 </r>
       <r>    -8.7703     0.0000    32.0000 </r>
       <r>    -8.6610     0.0000    32.0000 </r>
       <r>    -8.5518     0.0000    32.0000 </r>
       <r>    -8.4425     0.0000    32.0000 </r>
       <r>    -8.3332     0.0000    32.0000 </r>
       <r>    -8.2239     0.0000    32.0000 </r>
       <r>    -8.1146     0.0000    32.0000 </r>
       <r>    -8.0054     0.0000    32.0000 </r>
       <r>    -7.8961     0.0000    32.0000 </r>
       <r>    -7.7868     0.0000    32.0000 </r>
       <r>    -7.6775     0.0000    32.0000 </r>
       <r>    -7.5682     0.0000    32.0000 </r>
       <r>    -7.4590     0.0786    32.0086 </r>
       <r>    -7.3497     2.7664    32.3109 </r>
       <r>    -7.2404     2.2522    32.5570 </r>
       <r>    -7.1311     1.7882    32.7524 </r>
       <r>    -7.0218     1.8765    32.9575 </r>
       <r>    -6.9126     1.9978    33.1758 </r>
       <r>    -6.8033     8.4528    34.0996 </r>
       <r>    -6.6940     6.8664    34.8499 </r>
       <r>    -6.5847     2.8864    35.1654 </r>
       <r>    -6.4754     1.9386    35.3772 </r>
       <r>    -6.3662     1.7122    35.5643 </r>
       <r>    -6.2569     3.3626    35.9318 </r>
       <r>    -6.1476     5.3888    36.5207 </r>
       <r>    -6.0383     6.2401    37.2026 </r>
       <r>    -5.9290     3.7643    37.6140 </r>
       <r>    -5.8198     3.5267    37.9994 </r>
       <r>    -5.7105     4.6176    38.5040 </r>
       <r>    -5.6012     4.3488    38.9792 </r>
       <r>    -5.4919     5.5985    39.5911 </r>
       <r>    -5.3826     7.6072    40.4224 </r>
       <r>    -5.2734     7.1408    41.2027 </r>
       <r>    -5.1641     6.1963    41.8799 </r>
       <r>    -5.0548     5.2488    42.4535 </r>
       <r>    -4.9455     5.3963    43.0432 </r>
       <r>    -4.8362     4.9255    43.5814 </r>
       <r>    -4.7270     3.2219    43.9335 </r>
       <r>    -4.6177     4.5342    44.4290 </r>
       <r>    -4.5084     1.3933    44.5813 </r>
       <r>    -4.3991     3.0247    44.9118 </r>
       <r>    -4.2898     7.6934    45.7526 </r>
       <r>    -4.1805     5.0858    46.3084 </r>
       <r>    -4.0713     4.0053    46.7461 </r>
       <r>    -3.9620     4.5276    47.2409 </r>
       <r>    -3.8527     3.6792    47.6429 </r>
       <r>    -3.7434     2.2796    47.8920 </r>
       <r>    -3.6341     3.3898    48.2625 </r>
       <r>    -3.5249     3.0187    48.5924 </r>
       <r>    -3.4156     2.2266    48.8357 </r>
       <r>    -3.3063     3.0813    49.1724 </r>
       <r>    -3.1970     2.3342    49.4275 </r>
       <r>    -3.0877     2.4696    49.6974 </r>
       <r>    -2.9785     2.5635    49.9775 </r>
       <r>    -2.8692     3.2347    50.3310 </r>
       <r>    -2.7599     3.4324    50.7061 </r>
       <r>    -2.6506     4.6813    51.2177 </r>
       <r>    -2.5413     3.3156    51.5800 </r>
       <r>    -2.4321     3.2937    51.9399 </r>
       <r>    -2.3228     0.5496    52.0000 </r>
       <r>    -2.2135     0.0000    52.0000 </r>
       <r>    -2.1042     0.0000    52.0000 </r>
       <r>    -1.9949     0.0000    52.0000 </r>
       <r>    -1.8857     0.0000    52.0000 </r>
       <r>    -1.7764     0.0000    52.0000 </r>
       <r>    -1.6671     0.0442    52.0048 </r>
       <r>    -1.5578     0.2073    52.0275 </r>
       <r>    -1.4485     0.5931    52.0923 </r>
       <r>    -1.3393     2.0216    52.3132 </r>
       <r>    -1.2300     5.6011    52.9253 </r>
       <r>    -1.1207     4.0032    53.3628 </r>
       <r>    -1.0114     3.2122    53.7138 </r>
       <r>    -0.9021     3.7748    54.1263 </r>
       <r>    -0.7929     4.4786    54.6158 </r>
       <r>    -0.6836     3.7694    55.0277 </r>
       <r>    -0.5743     3.7678    55.4394 </r>
       <r>    -0.4650     2.5037    55.7130 </r>
       <r>    -0.3557     1.4261    55.8689 </r>
       <r>    -0.2465     1.9498    56.0820 </r>
       <r>    -0.1372     0.4889    56.1354 </r>
       <r>    -0.0279     0.7316    56.2153 </r>
       <r>     0.0814     0.0005    56.2154 </r>
       <r>     0.1907     0.3606    56.2548 </r>
       <r>     0.2999     1.3437    56.4016 </r>
       <r>     0.4092     2.2066    56.6428 </r>
       <r>     0.5185     1.5979    56.8174 </r>
       <r>     0.6278     2.5165    57.0924 </r>
       <r>     0.7371     1.2553    57.2296 </r>
       <r>     0.8463     4.2019    57.6888 </r>
       <r>     0.9556     2.9718    58.0135 </r>
       <r>     1.0649     6.1385    58.6844 </r>
       <r>     1.1742     8.1422    59.5742 </r>
       <r>     1.2835     6.1269    60.2437 </r>
       <r>     1.3928     6.0626    60.9062 </r>
       <r>     1.5020     9.2812    61.9205 </r>
       <r>     1.6113     5.0534    62.4727 </r>
       <r>     1.7206     5.4166    63.0647 </r>
       <r>     1.8299     4.1882    63.5223 </r>
       <r>     1.9392     2.6816    63.8154 </r>
       <r>     2.0484     1.4533    63.9742 </r>
       <r>     2.1577     0.2359    64.0000 </r>
       <r>     2.2670     0.0000    64.0000 </r>
       <r>     2.3763     0.0000    64.0000 </r>
       <r>     2.4856     0.0000    64.0000 </r>
       <r>     2.5948     0.0000    64.0000 </r>
       <r>     2.7041     0.0000    64.0000 </r>
       <r>     2.8134     0.0000    64.0000 </r>
       <r>     2.9227     0.0000    64.0000 </r>
       <r>     3.0320     0.0000    64.0000 </r>
       <r>     3.1412     0.0000    64.0000 </r>
       <r>     3.2505     0.0000    64.0000 </r>
       <r>     3.3598     0.0000    64.0000 </r>
       <r>     3.4691     0.0000    64.0000 </r>
       <r>     3.5784     0.0000    64.0000 </r>
      </set>
     </set>
    </array>
   </total>
  </dos>
 </calculation>
 <structure name="finalpos" >
  <crystal>
   <varray name="basis" >
    <v>       4.85676800       0.00000000       0.00000000 </v>
    <v>       0.00000000       5.51520900       0.00000000 </v>
    <v>       0.00000000       0.00000000      18.07929100 </v>
   </varray>
   <i name="volume">    484.27352643 </i>
   <varray name="rec_basis" >
    <v>       0.20589824       0.00000000       0.00000000 </v>
    <v>       0.00000000       0.18131679       0.00000000 </v>
    <v>       0.00000000       0.00000000       0.05531190 </v>
   </varray>
  </crystal>
  <varray name="positions" >
   <v>       0.50000000       0.50000000       0.50000000 </v>
   <v>       0.00000000       0.00000000       0.50000000 </v>
   <v>       0.25000000       0.25000000       0.41453318 </v>
   <v>       0.75000000       0.75000000       0.41453318 </v>
   <v>       0.75000000       0.25000000       0.58546682 </v>
   <v>       0.25000000       0.75000000       0.58546682 </v>
  </varray>
 </structure>
</modeling>
