<?xml version="1.0" encoding="ISO-8859-1"?>
<modeling>
 <generator>
  <i name="program" type="string">vasp </i>
  <i name="version" type="string">5.4.1  </i>
  <i name="subversion" type="string">24Jun15 (build Nov 20 2020 10:29:34) complex                          parallel </i>
  <i name="platform" type="string">IFC91_ompi </i>
  <i name="date" type="string">2021 09 09 </i>
  <i name="time" type="string">14:51:25 </i>
 </generator>
 <incar>
  <i type="string" name="PREC">a</i>
  <i type="string" name="ALGO"> Normal</i>
  <i type="int" name="ISPIN">     1</i>
  <i type="int" name="ICHARG">     2</i>
  <i type="int" name="NELM">   250</i>
  <i type="int" name="NELMDL">    -5</i>
  <i type="int" name="NELMIN">     6</i>
  <i type="int" name="IBRION">     2</i>
  <i name="EDIFF">      0.00001000</i>
  <i name="EDIFFG">     -0.01000000</i>
  <i type="int" name="NSW">   200</i>
  <i type="int" name="ISIF">     2</i>
  <i name="ENCUT">    520.00000000</i>
  <i name="POTIM">      0.30000000</i>
  <i type="logical" name="LREAL"> F  </i>
  <i type="int" name="ISMEAR">     0</i>
  <i name="SIGMA">      0.02000000</i>
  <i type="logical" name="LWAVE"> F  </i>
  <i type="logical" name="LCHARG"> F  </i>
  <i type="logical" name="LAECHG"> F  </i>
  <v type="int" name="KPOINT_BSE">    -1     0     0     0</v>
  <i type="int" name="NELM">   250</i>
 </incar>
 <kpoints>
  <generation param="Gamma">
   <v type="int" name="divisions">      21       15        1 </v>
   <v name="usershift">      0.00000000       0.00000000       0.00000000 </v>
   <v name="genvec1">      0.04761905       0.00000000       0.00000000 </v>
   <v name="genvec2">      0.00000000       0.06666667       0.00000000 </v>
   <v name="genvec3">      0.00000000       0.00000000       1.00000000 </v>
   <v name="shift">      0.00000000       0.00000000       0.00000000 </v>
  </generation>
  <varray name="kpointlist" >
   <v>       0.00000000       0.00000000       0.00000000 </v>
   <v>       0.04761905       0.00000000       0.00000000 </v>
   <v>       0.09523810       0.00000000       0.00000000 </v>
   <v>       0.14285714       0.00000000       0.00000000 </v>
   <v>       0.19047619       0.00000000       0.00000000 </v>
   <v>       0.23809524       0.00000000       0.00000000 </v>
   <v>       0.28571429       0.00000000       0.00000000 </v>
   <v>       0.33333333       0.00000000       0.00000000 </v>
   <v>       0.38095238       0.00000000       0.00000000 </v>
   <v>       0.42857143       0.00000000       0.00000000 </v>
   <v>       0.47619048       0.00000000       0.00000000 </v>
   <v>       0.00000000       0.06666667       0.00000000 </v>
   <v>       0.04761905       0.06666667       0.00000000 </v>
   <v>       0.09523810       0.06666667       0.00000000 </v>
   <v>       0.14285714       0.06666667       0.00000000 </v>
   <v>       0.19047619       0.06666667       0.00000000 </v>
   <v>       0.23809524       0.06666667       0.00000000 </v>
   <v>       0.28571429       0.06666667       0.00000000 </v>
   <v>       0.33333333       0.06666667       0.00000000 </v>
   <v>       0.38095238       0.06666667       0.00000000 </v>
   <v>       0.42857143       0.06666667       0.00000000 </v>
   <v>       0.47619048       0.06666667       0.00000000 </v>
   <v>      -0.47619048       0.06666667       0.00000000 </v>
   <v>      -0.42857143       0.06666667       0.00000000 </v>
   <v>      -0.38095238       0.06666667       0.00000000 </v>
   <v>      -0.33333333       0.06666667       0.00000000 </v>
   <v>      -0.28571429       0.06666667       0.00000000 </v>
   <v>      -0.23809524       0.06666667       0.00000000 </v>
   <v>      -0.19047619       0.06666667       0.00000000 </v>
   <v>      -0.14285714       0.06666667       0.00000000 </v>
   <v>      -0.09523810       0.06666667       0.00000000 </v>
   <v>      -0.04761905       0.06666667       0.00000000 </v>
   <v>       0.00000000       0.13333333       0.00000000 </v>
   <v>       0.04761905       0.13333333       0.00000000 </v>
   <v>       0.09523810       0.13333333       0.00000000 </v>
   <v>       0.14285714       0.13333333       0.00000000 </v>
   <v>       0.19047619       0.13333333       0.00000000 </v>
   <v>       0.23809524       0.13333333       0.00000000 </v>
   <v>       0.28571429       0.13333333       0.00000000 </v>
   <v>       0.33333333       0.13333333       0.00000000 </v>
   <v>       0.38095238       0.13333333       0.00000000 </v>
   <v>       0.42857143       0.13333333       0.00000000 </v>
   <v>       0.47619048       0.13333333       0.00000000 </v>
   <v>      -0.47619048       0.13333333       0.00000000 </v>
   <v>      -0.42857143       0.13333333       0.00000000 </v>
   <v>      -0.38095238       0.13333333       0.00000000 </v>
   <v>      -0.33333333       0.13333333       0.00000000 </v>
   <v>      -0.28571429       0.13333333       0.00000000 </v>
   <v>      -0.23809524       0.13333333       0.00000000 </v>
   <v>      -0.19047619       0.13333333       0.00000000 </v>
   <v>      -0.14285714       0.13333333       0.00000000 </v>
   <v>      -0.09523810       0.13333333       0.00000000 </v>
   <v>      -0.04761905       0.13333333       0.00000000 </v>
   <v>       0.00000000       0.20000000       0.00000000 </v>
   <v>       0.04761905       0.20000000       0.00000000 </v>
   <v>       0.09523810       0.20000000       0.00000000 </v>
   <v>       0.14285714       0.20000000       0.00000000 </v>
   <v>       0.19047619       0.20000000       0.00000000 </v>
   <v>       0.23809524       0.20000000       0.00000000 </v>
   <v>       0.28571429       0.20000000       0.00000000 </v>
   <v>       0.33333333       0.20000000       0.00000000 </v>
   <v>       0.38095238       0.20000000       0.00000000 </v>
   <v>       0.42857143       0.20000000       0.00000000 </v>
   <v>       0.47619048       0.20000000       0.00000000 </v>
   <v>      -0.47619048       0.20000000       0.00000000 </v>
   <v>      -0.42857143       0.20000000       0.00000000 </v>
   <v>      -0.38095238       0.20000000       0.00000000 </v>
   <v>      -0.33333333       0.20000000       0.00000000 </v>
   <v>      -0.28571429       0.20000000       0.00000000 </v>
   <v>      -0.23809524       0.20000000       0.00000000 </v>
   <v>      -0.19047619       0.20000000       0.00000000 </v>
   <v>      -0.14285714       0.20000000       0.00000000 </v>
   <v>      -0.09523810       0.20000000       0.00000000 </v>
   <v>      -0.04761905       0.20000000       0.00000000 </v>
   <v>       0.00000000       0.26666667       0.00000000 </v>
   <v>       0.04761905       0.26666667       0.00000000 </v>
   <v>       0.09523810       0.26666667       0.00000000 </v>
   <v>       0.14285714       0.26666667       0.00000000 </v>
   <v>       0.19047619       0.26666667       0.00000000 </v>
   <v>       0.23809524       0.26666667       0.00000000 </v>
   <v>       0.28571429       0.26666667       0.00000000 </v>
   <v>       0.33333333       0.26666667       0.00000000 </v>
   <v>       0.38095238       0.26666667       0.00000000 </v>
   <v>       0.42857143       0.26666667       0.00000000 </v>
   <v>       0.47619048       0.26666667       0.00000000 </v>
   <v>      -0.47619048       0.26666667       0.00000000 </v>
   <v>      -0.42857143       0.26666667       0.00000000 </v>
   <v>      -0.38095238       0.26666667       0.00000000 </v>
   <v>      -0.33333333       0.26666667       0.00000000 </v>
   <v>      -0.28571429       0.26666667       0.00000000 </v>
   <v>      -0.23809524       0.26666667       0.00000000 </v>
   <v>      -0.19047619       0.26666667       0.00000000 </v>
   <v>      -0.14285714       0.26666667       0.00000000 </v>
   <v>      -0.09523810       0.26666667       0.00000000 </v>
   <v>      -0.04761905       0.26666667       0.00000000 </v>
   <v>       0.00000000       0.33333333       0.00000000 </v>
   <v>       0.04761905       0.33333333       0.00000000 </v>
   <v>       0.09523810       0.33333333       0.00000000 </v>
   <v>       0.14285714       0.33333333       0.00000000 </v>
   <v>       0.19047619       0.33333333       0.00000000 </v>
   <v>       0.23809524       0.33333333       0.00000000 </v>
   <v>       0.28571429       0.33333333       0.00000000 </v>
   <v>       0.33333333       0.33333333       0.00000000 </v>
   <v>       0.38095238       0.33333333       0.00000000 </v>
   <v>       0.42857143       0.33333333       0.00000000 </v>
   <v>       0.47619048       0.33333333       0.00000000 </v>
   <v>      -0.47619048       0.33333333       0.00000000 </v>
   <v>      -0.42857143       0.33333333       0.00000000 </v>
   <v>      -0.38095238       0.33333333       0.00000000 </v>
   <v>      -0.33333333       0.33333333       0.00000000 </v>
   <v>      -0.28571429       0.33333333       0.00000000 </v>
   <v>      -0.23809524       0.33333333       0.00000000 </v>
   <v>      -0.19047619       0.33333333       0.00000000 </v>
   <v>      -0.14285714       0.33333333       0.00000000 </v>
   <v>      -0.09523810       0.33333333       0.00000000 </v>
   <v>      -0.04761905       0.33333333       0.00000000 </v>
   <v>       0.00000000       0.40000000       0.00000000 </v>
   <v>       0.04761905       0.40000000       0.00000000 </v>
   <v>       0.09523810       0.40000000       0.00000000 </v>
   <v>       0.14285714       0.40000000       0.00000000 </v>
   <v>       0.19047619       0.40000000       0.00000000 </v>
   <v>       0.23809524       0.40000000       0.00000000 </v>
   <v>       0.28571429       0.40000000       0.00000000 </v>
   <v>       0.33333333       0.40000000       0.00000000 </v>
   <v>       0.38095238       0.40000000       0.00000000 </v>
   <v>       0.42857143       0.40000000       0.00000000 </v>
   <v>       0.47619048       0.40000000       0.00000000 </v>
   <v>      -0.47619048       0.40000000       0.00000000 </v>
   <v>      -0.42857143       0.40000000       0.00000000 </v>
   <v>      -0.38095238       0.40000000       0.00000000 </v>
   <v>      -0.33333333       0.40000000       0.00000000 </v>
   <v>      -0.28571429       0.40000000       0.00000000 </v>
   <v>      -0.23809524       0.40000000       0.00000000 </v>
   <v>      -0.19047619       0.40000000       0.00000000 </v>
   <v>      -0.14285714       0.40000000       0.00000000 </v>
   <v>      -0.09523810       0.40000000       0.00000000 </v>
   <v>      -0.04761905       0.40000000       0.00000000 </v>
   <v>       0.00000000       0.46666667       0.00000000 </v>
   <v>       0.04761905       0.46666667       0.00000000 </v>
   <v>       0.09523810       0.46666667       0.00000000 </v>
   <v>       0.14285714       0.46666667       0.00000000 </v>
   <v>       0.19047619       0.46666667       0.00000000 </v>
   <v>       0.23809524       0.46666667       0.00000000 </v>
   <v>       0.28571429       0.46666667       0.00000000 </v>
   <v>       0.33333333       0.46666667       0.00000000 </v>
   <v>       0.38095238       0.46666667       0.00000000 </v>
   <v>       0.42857143       0.46666667       0.00000000 </v>
   <v>       0.47619048       0.46666667       0.00000000 </v>
   <v>      -0.47619048       0.46666667       0.00000000 </v>
   <v>      -0.42857143       0.46666667       0.00000000 </v>
   <v>      -0.38095238       0.46666667       0.00000000 </v>
   <v>      -0.33333333       0.46666667       0.00000000 </v>
   <v>      -0.28571429       0.46666667       0.00000000 </v>
   <v>      -0.23809524       0.46666667       0.00000000 </v>
   <v>      -0.19047619       0.46666667       0.00000000 </v>
   <v>      -0.14285714       0.46666667       0.00000000 </v>
   <v>      -0.09523810       0.46666667       0.00000000 </v>
   <v>      -0.04761905       0.46666667       0.00000000 </v>
  </varray>
  <varray name="weights" >
   <v>       0.00317460 </v>
   <v>       0.00634921 </v>
   <v>       0.00634921 </v>
   <v>       0.00634921 </v>
   <v>       0.00634921 </v>
   <v>       0.00634921 </v>
   <v>       0.00634921 </v>
   <v>       0.00634921 </v>
   <v>       0.00634921 </v>
   <v>       0.00634921 </v>
   <v>       0.00634921 </v>
   <v>       0.00634921 </v>
   <v>       0.00634921 </v>
   <v>       0.00634921 </v>
   <v>       0.00634921 </v>
   <v>       0.00634921 </v>
   <v>       0.00634921 </v>
   <v>       0.00634921 </v>
   <v>       0.00634921 </v>
   <v>       0.00634921 </v>
   <v>       0.00634921 </v>
   <v>       0.00634921 </v>
   <v>       0.00634921 </v>
   <v>       0.00634921 </v>
   <v>       0.00634921 </v>
   <v>       0.00634921 </v>
   <v>       0.00634921 </v>
   <v>       0.00634921 </v>
   <v>       0.00634921 </v>
   <v>       0.00634921 </v>
   <v>       0.00634921 </v>
   <v>       0.00634921 </v>
   <v>       0.00634921 </v>
   <v>       0.00634921 </v>
   <v>       0.00634921 </v>
   <v>       0.00634921 </v>
   <v>       0.00634921 </v>
   <v>       0.00634921 </v>
   <v>       0.00634921 </v>
   <v>       0.00634921 </v>
   <v>       0.00634921 </v>
   <v>       0.00634921 </v>
   <v>       0.00634921 </v>
   <v>       0.00634921 </v>
   <v>       0.00634921 </v>
   <v>       0.00634921 </v>
   <v>       0.00634921 </v>
   <v>       0.00634921 </v>
   <v>       0.00634921 </v>
   <v>       0.00634921 </v>
   <v>       0.00634921 </v>
   <v>       0.00634921 </v>
   <v>       0.00634921 </v>
   <v>       0.00634921 </v>
   <v>       0.00634921 </v>
   <v>       0.00634921 </v>
   <v>       0.00634921 </v>
   <v>       0.00634921 </v>
   <v>       0.00634921 </v>
   <v>       0.00634921 </v>
   <v>       0.00634921 </v>
   <v>       0.00634921 </v>
   <v>       0.00634921 </v>
   <v>       0.00634921 </v>
   <v>       0.00634921 </v>
   <v>       0.00634921 </v>
   <v>       0.00634921 </v>
   <v>       0.00634921 </v>
   <v>       0.00634921 </v>
   <v>       0.00634921 </v>
   <v>       0.00634921 </v>
   <v>       0.00634921 </v>
   <v>       0.00634921 </v>
   <v>       0.00634921 </v>
   <v>       0.00634921 </v>
   <v>       0.00634921 </v>
   <v>       0.00634921 </v>
   <v>       0.00634921 </v>
   <v>       0.00634921 </v>
   <v>       0.00634921 </v>
   <v>       0.00634921 </v>
   <v>       0.00634921 </v>
   <v>       0.00634921 </v>
   <v>       0.00634921 </v>
   <v>       0.00634921 </v>
   <v>       0.00634921 </v>
   <v>       0.00634921 </v>
   <v>       0.00634921 </v>
   <v>       0.00634921 </v>
   <v>       0.00634921 </v>
   <v>       0.00634921 </v>
   <v>       0.00634921 </v>
   <v>       0.00634921 </v>
   <v>       0.00634921 </v>
   <v>       0.00634921 </v>
   <v>       0.00634921 </v>
   <v>       0.00634921 </v>
   <v>       0.00634921 </v>
   <v>       0.00634921 </v>
   <v>       0.00634921 </v>
   <v>       0.00634921 </v>
   <v>       0.00634921 </v>
   <v>       0.00634921 </v>
   <v>       0.00634921 </v>
   <v>       0.00634921 </v>
   <v>       0.00634921 </v>
   <v>       0.00634921 </v>
   <v>       0.00634921 </v>
   <v>       0.00634921 </v>
   <v>       0.00634921 </v>
   <v>       0.00634921 </v>
   <v>       0.00634921 </v>
   <v>       0.00634921 </v>
   <v>       0.00634921 </v>
   <v>       0.00634921 </v>
   <v>       0.00634921 </v>
   <v>       0.00634921 </v>
   <v>       0.00634921 </v>
   <v>       0.00634921 </v>
   <v>       0.00634921 </v>
   <v>       0.00634921 </v>
   <v>       0.00634921 </v>
   <v>       0.00634921 </v>
   <v>       0.00634921 </v>
   <v>       0.00634921 </v>
   <v>       0.00634921 </v>
   <v>       0.00634921 </v>
   <v>       0.00634921 </v>
   <v>       0.00634921 </v>
   <v>       0.00634921 </v>
   <v>       0.00634921 </v>
   <v>       0.00634921 </v>
   <v>       0.00634921 </v>
   <v>       0.00634921 </v>
   <v>       0.00634921 </v>
   <v>       0.00634921 </v>
   <v>       0.00634921 </v>
   <v>       0.00634921 </v>
   <v>       0.00634921 </v>
   <v>       0.00634921 </v>
   <v>       0.00634921 </v>
   <v>       0.00634921 </v>
   <v>       0.00634921 </v>
   <v>       0.00634921 </v>
   <v>       0.00634921 </v>
   <v>       0.00634921 </v>
   <v>       0.00634921 </v>
   <v>       0.00634921 </v>
   <v>       0.00634921 </v>
   <v>       0.00634921 </v>
   <v>       0.00634921 </v>
   <v>       0.00634921 </v>
   <v>       0.00634921 </v>
   <v>       0.00634921 </v>
   <v>       0.00634921 </v>
   <v>       0.00634921 </v>
   <v>       0.00634921 </v>
   <v>       0.00634921 </v>
  </varray>
 </kpoints>
 <parameters>
  <separator name="general" >
   <i type="string" name="SYSTEM">unknown system</i>
   <i type="logical" name="LCOMPAT"> F  </i>
  </separator>
  <separator name="electronic" >
   <i type="string" name="PREC">a</i>
   <i name="ENMAX">    520.00000000</i>
   <i name="ENAUG">    342.92400000</i>
   <i name="EDIFF">      0.00001000</i>
   <i type="int" name="IALGO">    38</i>
   <i type="int" name="IWAVPR">    11</i>
   <i type="int" name="NBANDS">    16</i>
   <i name="NELECT">     20.00000000</i>
   <i type="int" name="TURBO">     0</i>
   <i type="int" name="IRESTART">     0</i>
   <i type="int" name="NREBOOT">     0</i>
   <i type="int" name="NMIN">     0</i>
   <i name="EREF">      0.00000000</i>
   <separator name="electronic smearing" >
    <i type="int" name="ISMEAR">     0</i>
    <i name="SIGMA">      0.02000000</i>
    <i name="KSPACING">      0.50000000</i>
    <i type="logical" name="KGAMMA"> T  </i>
   </separator>
   <separator name="electronic projectors" >
    <i type="logical" name="LREAL"> F  </i>
    <v name="ROPT">      0.00000000</v>
    <i type="int" name="LMAXPAW">  -100</i>
    <i type="int" name="LMAXMIX">     2</i>
    <i type="logical" name="NLSPLINE"> F  </i>
   </separator>
   <separator name="electronic startup" >
    <i type="int" name="ISTART">     0</i>
    <i type="int" name="ICHARG">     2</i>
    <i type="int" name="INIWAV">     1</i>
   </separator>
   <separator name="electronic spin" >
    <i type="int" name="ISPIN">     1</i>
    <i type="logical" name="LNONCOLLINEAR"> F  </i>
    <v name="MAGMOM">      1.00000000      1.00000000      1.00000000      1.00000000</v>
    <i name="NUPDOWN">     -1.00000000</i>
    <i type="logical" name="LSORBIT"> F  </i>
    <v name="SAXIS">      0.00000000      0.00000000      1.00000000</v>
    <i type="logical" name="LSPIRAL"> F  </i>
    <v name="QSPIRAL">      0.00000000      0.00000000      0.00000000</v>
    <i type="logical" name="LZEROZ"> F  </i>
   </separator>
   <separator name="electronic exchange-correlation" >
    <i type="logical" name="LASPH"> F  </i>
    <i type="logical" name="LMETAGGA"> F  </i>
   </separator>
   <separator name="electronic convergence" >
    <i type="int" name="NELM">   250</i>
    <i type="int" name="NELMDL">    -5</i>
    <i type="int" name="NELMIN">     6</i>
    <i name="ENINI">    520.00000000</i>
    <separator name="electronic convergence detail" >
     <i type="logical" name="LDIAG"> T  </i>
     <i type="logical" name="LSUBROT"> F  </i>
     <i name="WEIMIN">      0.00100000</i>
     <i name="EBREAK">      0.00000016</i>
     <i name="DEPER">      0.30000000</i>
     <i type="int" name="NRMM">     4</i>
     <i name="TIME">      0.40000000</i>
    </separator>
   </separator>
   <separator name="electronic mixer" >
    <i name="AMIX">      0.40000000</i>
    <i name="BMIX">      1.00000000</i>
    <i name="AMIN">      0.10000000</i>
    <i name="AMIX_MAG">      1.60000000</i>
    <i name="BMIX_MAG">      1.00000000</i>
    <separator name="electronic mixer details" >
     <i type="int" name="IMIX">     4</i>
     <i type="logical" name="MIXFIRST"> F  </i>
     <i type="int" name="MAXMIX">   -45</i>
     <i name="WC">    100.00000000</i>
     <i type="int" name="INIMIX">     1</i>
     <i type="int" name="MIXPRE">     1</i>
     <i type="int" name="MREMOVE">     5</i>
    </separator>
   </separator>
   <separator name="electronic dipolcorrection" >
    <i type="logical" name="LDIPOL"> F  </i>
    <i type="logical" name="LMONO"> F  </i>
    <i type="int" name="IDIPOL">     0</i>
    <i name="EPSILON">      1.00000000</i>
    <v name="DIPOL">   -100.00000000   -100.00000000   -100.00000000</v>
    <i name="EFIELD">      0.00000000</i>
   </separator>
  </separator>
  <separator name="grids" >
   <i type="int" name="NGX">    28</i>
   <i type="int" name="NGY">    36</i>
   <i type="int" name="NGZ">   150</i>
   <i type="int" name="NGXF">    56</i>
   <i type="int" name="NGYF">    72</i>
   <i type="int" name="NGZF">   300</i>
   <i type="logical" name="ADDGRID"> F  </i>
  </separator>
  <separator name="ionic" >
   <i type="int" name="NSW">   200</i>
   <i type="int" name="IBRION">     2</i>
   <i type="int" name="ISIF">     2</i>
   <i name="PSTRESS">      0.00000000</i>
   <i name="EDIFFG">     -0.01000000</i>
   <i type="int" name="NFREE">     1</i>
   <i name="POTIM">      0.30000000</i>
   <i name="SMASS">     -3.00000000</i>
   <i name="SCALEE">      1.00000000</i>
  </separator>
  <separator name="ionic md" >
   <i name="TEBEG">      0.00010000</i>
   <i name="TEEND">      0.00010000</i>
   <i type="int" name="NBLOCK">     1</i>
   <i type="int" name="KBLOCK">   200</i>
   <i type="int" name="NPACO">   256</i>
   <i name="APACO">     16.00000000</i>
  </separator>
  <separator name="symmetry" >
   <i type="int" name="ISYM">     2</i>
   <i name="SYMPREC">      0.00001000</i>
  </separator>
  <separator name="dos" >
   <i type="logical" name="LORBIT"> F  </i>
   <v name="RWIGS">     -1.00000000</v>
   <i type="int" name="NEDOS">   301</i>
   <i name="EMIN">     10.00000000</i>
   <i name="EMAX">    -10.00000000</i>
   <i name="EFERMI">      0.00000000</i>
  </separator>
  <separator name="writing" >
   <i type="int" name="NWRITE">     2</i>
   <i type="logical" name="LWAVE"> F  </i>
   <i type="logical" name="LCHARG"> F  </i>
   <i type="logical" name="LPARD"> F  </i>
   <i type="logical" name="LVTOT"> F  </i>
   <i type="logical" name="LVHAR"> F  </i>
   <i type="logical" name="LELF"> F  </i>
   <i type="logical" name="LOPTICS"> F  </i>
   <v name="STM">      0.00000000      0.00000000      0.00000000      0.00000000      0.00000000      0.00000000      0.00000000</v>
  </separator>
  <separator name="performance" >
   <i type="int" name="NPAR">     4</i>
   <i type="int" name="NSIM">     4</i>
   <i type="int" name="NBLK">    -1</i>
   <i type="logical" name="LPLANE"> T  </i>
   <i type="logical" name="LSCALAPACK"> T  </i>
   <i type="logical" name="LSCAAWARE"> F  </i>
   <i type="logical" name="LSCALU"> F  </i>
   <i type="logical" name="LASYNC"> F  </i>
   <i type="logical" name="LORBITALREAL"> F  </i>
  </separator>
  <separator name="miscellaneous" >
   <i type="int" name="IDIOT">     3</i>
   <i type="logical" name="LMUSIC"> F  </i>
   <v name="POMASS">     30.97400000</v>
   <v name="DARWINR">      0.00000000</v>
   <v name="DARWINV">      1.00000000</v>
   <i type="logical" name="LCORR"> T  </i>
  </separator>
  <i type="logical" name="GGA_COMPAT"> T  </i>
  <i type="logical" name="LBERRY"> F  </i>
  <i type="int" name="ICORELEVEL">     0</i>
  <i type="logical" name="LDAU"> F  </i>
  <i type="int" name="I_CONSTRAINED_M">     0</i>
  <separator name="electronic exchange-correlation" >
   <i type="string" name="GGA">--</i>
   <i type="int" name="VOSKOWN">     0</i>
   <i type="logical" name="LHFCALC"> F  </i>
   <i type="string" name="PRECFOCK"></i>
   <i type="logical" name="LSYMGRAD"> F  </i>
   <i type="logical" name="LHFONE"> F  </i>
   <i type="logical" name="LRHFCALC"> F  </i>
   <i type="logical" name="LTHOMAS"> F  </i>
   <i type="logical" name="LMODELHF"> F  </i>
   <i name="ENCUT4O">     -1.00000000</i>
   <i type="int" name="EXXOEP">     0</i>
   <i type="int" name="FOURORBIT">     0</i>
   <i name="AEXX">      0.00000000</i>
   <i name="HFALPHA">      0.00000000</i>
   <i name="MCALPHA">      0.00000000</i>
   <i name="ALDAX">      1.00000000</i>
   <i name="AGGAX">      1.00000000</i>
   <i name="ALDAC">      1.00000000</i>
   <i name="AGGAC">      1.00000000</i>
   <i type="int" name="NKREDX">     1</i>
   <i type="int" name="NKREDY">     1</i>
   <i type="int" name="NKREDZ">     1</i>
   <i type="logical" name="SHIFTRED"> F  </i>
   <i type="logical" name="ODDONLY"> F  </i>
   <i type="logical" name="EVENONLY"> F  </i>
   <i type="int" name="LMAXFOCK">     0</i>
   <i type="int" name="NMAXFOCKAE">     0</i>
   <i type="logical" name="LFOCKAEDFT"> F  </i>
   <i name="HFSCREEN">      0.00000000</i>
   <i name="HFSCREENC">      0.00000000</i>
   <i type="int" name="NBANDSGWLOW">     0</i>
  </separator>
  <separator name="vdW DFT" >
   <i type="logical" name="LUSE_VDW"> F  </i>
   <i name="Zab_VDW">     -0.84910000</i>
   <i name="PARAM1">      0.12340000</i>
   <i name="PARAM2">      1.00000000</i>
   <i name="PARAM3">      0.00000000</i>
  </separator>
  <separator name="model GW" >
   <i type="int" name="MODEL_GW">     0</i>
   <i name="MODEL_EPS0">     47.16181771</i>
   <i name="MODEL_ALPHA">      1.00000000</i>
  </separator>
  <separator name="linear response parameters" >
   <i type="logical" name="LEPSILON"> F  </i>
   <i type="logical" name="LRPA"> F  </i>
   <i type="logical" name="LNABLA"> F  </i>
   <i type="logical" name="LVEL"> F  </i>
   <i type="int" name="KINTER">     0</i>
   <i name="CSHIFT">      0.10000000</i>
   <i name="OMEGAMAX">     -1.00000000</i>
   <i name="DEG_THRESHOLD">      0.00200000</i>
  </separator>
  <separator name="orbital magnetization" >
   <i type="logical" name="NUCIND"> F  </i>
   <v name="MAGPOS">      0.00000000      0.00000000      0.00000000</v>
   <i type="logical" name="LNICSALL"> T  </i>
   <i type="logical" name="ORBITALMAG"> F  </i>
   <i type="logical" name="LMAGBLOCH"> F  </i>
   <i type="logical" name="LCHIMAG"> F  </i>
   <i type="logical" name="LGAUGE"> T  </i>
   <i type="int" name="MAGATOM">     0</i>
   <v name="MAGDIPOL">      0.00000000      0.00000000      0.00000000</v>
   <v name="AVECCONST">      0.00000000      0.00000000      0.00000000</v>
  </separator>
  <separator name="response functions" >
   <i type="logical" name="LADDER"> F  </i>
   <i type="logical" name="LFXC"> F  </i>
   <i type="logical" name="LHARTREE"> T  </i>
   <i type="int" name="IBSE">     0</i>
   <v type="int" name="KPOINT">    -1     0     0     0</v>
   <i type="logical" name="LTCTE"> F  </i>
   <i type="logical" name="LTETE"> F  </i>
   <i type="logical" name="LTRIPLET"> F  </i>
   <i type="logical" name="LFXCEPS"> F  </i>
   <i type="logical" name="LFXHEG"> F  </i>
   <i type="int" name="NATURALO">     0</i>
   <i type="logical" name="L2ORDER"> F  </i>
   <i type="logical" name="LUSEW"> F  </i>
   <i name="ENCUTGW">     -2.00000000</i>
   <i name="ENCUTGWSOFT">     -2.00000000</i>
   <i name="ENCUTLF">     -1.00000000</i>
   <i type="int" name="LMAXMP2">    -1</i>
   <i name="SCISSOR">      0.00000000</i>
   <i type="int" name="NOMEGA">     0</i>
   <i type="int" name="NOMEGAR">     0</i>
   <i type="int" name="NBANDSGW">    -1</i>
   <i type="int" name="NBANDSO">    -1</i>
   <i type="int" name="NBANDSV">    -1</i>
   <i type="int" name="NELM">   250</i>
   <i type="int" name="NELMHF">     1</i>
   <i type="int" name="DIM">     3</i>
   <i type="int" name="ANTIRES">     0</i>
   <i name="OMEGAMAX">    -30.00000000</i>
   <i name="OMEGAMIN">    -30.00000000</i>
   <i name="OMEGATL">   -200.00000000</i>
   <i type="int" name="OMEGAGRID">     0</i>
   <i name="CSHIFT">     -0.10000000</i>
   <i type="logical" name="SELFENERGY"> F  </i>
   <i type="logical" name="LSPECTRAL"> F  </i>
   <i type="logical" name="LSPECTRALGW"> F  </i>
   <i type="logical" name="LSINGLES"> F  </i>
   <i type="logical" name="LFERMIGW"> F  </i>
   <i type="logical" name="ODDONLYGW"> F  </i>
   <i type="logical" name="EVENONLYGW"> F  </i>
   <i type="int" name="NKREDLFX">     1</i>
   <i type="int" name="NKREDLFY">     1</i>
   <i type="int" name="NKREDLFZ">     1</i>
   <i type="int" name="MAXMEM">  1800</i>
   <i type="int" name="TELESCOPE">     0</i>
   <i type="int" name="TAUPAR">     1</i>
   <i type="int" name="OMEGAPAR">    -1</i>
   <i name="LAMBDA">      1.00000000</i>
  </separator>
  <separator name="External order field" >
   <i name="OFIELD_KAPPA">      0.00000000</i>
   <v name="OFIELD_K">      0.00000000      0.00000000      0.00000000</v>
   <i name="OFIELD_Q6_NEAR">      0.00000000</i>
   <i name="OFIELD_Q6_FAR">      0.00000000</i>
   <i name="OFIELD_A">      0.00000000</i>
  </separator>
 </parameters>
 <atominfo>
  <atoms>       4 </atoms>
  <types>       1 </types>
  <array name="atoms" >
   <dimension dim="1">ion</dimension>
   <field type="string">element</field>
   <field type="int">atomtype</field>
   <set>
    <rc><c>P </c><c>   1</c></rc>
    <rc><c>P </c><c>   1</c></rc>
    <rc><c>P </c><c>   1</c></rc>
    <rc><c>P </c><c>   1</c></rc>
   </set>
  </array>
  <array name="atomtypes" >
   <dimension dim="1">type</dimension>
   <field type="int">atomspertype</field>
   <field type="string">element</field>
   <field>mass</field>
   <field>valence</field>
   <field type="string">pseudopotential</field>
   <set>
    <rc><c>   4</c><c>P </c><c>     30.97400000</c><c>      5.00000000</c><c>  PAW_PBE P 06Sep2000                   </c></rc>
   </set>
  </array>
 </atominfo>
 <structure name="initialpos" >
  <crystal>
   <varray name="basis" >
    <v>       3.34629700       0.00000000       0.00000000 </v>
    <v>       0.00000000       4.69218900      -0.00005300 </v>
    <v>       0.00000000       0.00000000      20.02439000 </v>
   </varray>
   <i name="volume">    314.41211804 </i>
   <varray name="rec_basis" >
    <v>       0.29883779       0.00000000       0.00000000 </v>
    <v>       0.00000000       0.21312014       0.00000000 </v>
    <v>       0.00000000       0.00000056       0.04993910 </v>
   </varray>
  </crystal>
  <varray name="positions" >
   <v>       0.50000000       0.91077300       0.55252100 </v>
   <v>       0.50000000       0.08922700       0.44747900 </v>
   <v>       0.00000000       0.41076900       0.44747900 </v>
   <v>       0.00000000       0.58923100       0.55252100 </v>
  </varray>
 </structure>
 <calculation>
  <scstep>
   <time name="dav">    1.50    1.50</time>
   <time name="total">    1.53    1.53</time>
   <energy>
    <i name="alphaZ">      5.10209673 </i>
    <i name="ewald">   1794.37598468 </i>
    <i name="hartreedc">  -2388.59525920 </i>
    <i name="XCdc">     12.76209647 </i>
    <i name="pawpsdc">    559.04011960 </i>
    <i name="pawaedc">   -526.39432044 </i>
    <i name="eentropy">     -0.00049899 </i>
    <i name="bandstr">    -27.79991863 </i>
    <i name="atom">    704.16778566 </i>
    <i name="e_fr_energy">    132.65808589 </i>
    <i name="e_wo_entrp">    132.65858487 </i>
    <i name="e_0_energy">    132.65833538 </i>
   </energy>
  </scstep>
  <scstep>
   <time name="dav">    2.00    2.00</time>
   <time name="total">    2.01    2.01</time>
   <energy>
    <i name="e_fr_energy">     -5.99551232 </i>
    <i name="e_wo_entrp">     -5.99533987 </i>
    <i name="e_0_energy">     -5.99542610 </i>
   </energy>
  </scstep>
  <scstep>
   <time name="dav">    1.85    1.85</time>
   <time name="total">    1.85    1.85</time>
   <energy>
    <i name="e_fr_energy">    -21.29446014 </i>
    <i name="e_wo_entrp">    -21.29446014 </i>
    <i name="e_0_energy">    -21.29446014 </i>
   </energy>
  </scstep>
  <scstep>
   <time name="dav">    1.88    1.88</time>
   <time name="total">    1.88    1.88</time>
   <energy>
    <i name="e_fr_energy">    -21.61324460 </i>
    <i name="e_wo_entrp">    -21.61324460 </i>
    <i name="e_0_energy">    -21.61324460 </i>
   </energy>
  </scstep>
  <scstep>
   <time name="dav">    1.99    1.99</time>
   <time name="total">    2.09    2.09</time>
   <energy>
    <i name="e_fr_energy">    -21.62283326 </i>
    <i name="e_wo_entrp">    -21.62283326 </i>
    <i name="e_0_energy">    -21.62283326 </i>
   </energy>
  </scstep>
  <scstep>
   <time name="dav">    1.82    1.82</time>
   <time name="total">    1.94    1.94</time>
   <energy>
    <i name="e_fr_energy">    -21.49622960 </i>
    <i name="e_wo_entrp">    -21.49622960 </i>
    <i name="e_0_energy">    -21.49622960 </i>
   </energy>
  </scstep>
  <scstep>
   <time name="dav">    1.73    1.73</time>
   <time name="total">    1.84    1.85</time>
   <energy>
    <i name="e_fr_energy">    -21.43394443 </i>
    <i name="e_wo_entrp">    -21.43394443 </i>
    <i name="e_0_energy">    -21.43394443 </i>
   </energy>
  </scstep>
  <scstep>
   <time name="dav">    1.81    1.81</time>
   <time name="total">    1.92    1.92</time>
   <energy>
    <i name="e_fr_energy">    -21.43368062 </i>
    <i name="e_wo_entrp">    -21.43368062 </i>
    <i name="e_0_energy">    -21.43368062 </i>
   </energy>
  </scstep>
  <scstep>
   <time name="dav">    2.12    2.12</time>
   <time name="total">    2.24    2.24</time>
   <energy>
    <i name="e_fr_energy">    -21.43355311 </i>
    <i name="e_wo_entrp">    -21.43355311 </i>
    <i name="e_0_energy">    -21.43355311 </i>
   </energy>
  </scstep>
  <scstep>
   <time name="dav">    1.84    1.84</time>
   <time name="total">    1.95    1.95</time>
   <energy>
    <i name="e_fr_energy">    -21.43345629 </i>
    <i name="e_wo_entrp">    -21.43345629 </i>
    <i name="e_0_energy">    -21.43345629 </i>
   </energy>
  </scstep>
  <scstep>
   <time name="dav">    1.80    1.80</time>
   <time name="total">    1.91    1.92</time>
   <energy>
    <i name="e_fr_energy">    -21.43339665 </i>
    <i name="e_wo_entrp">    -21.43339665 </i>
    <i name="e_0_energy">    -21.43339665 </i>
   </energy>
  </scstep>
  <scstep>
   <time name="dav">    1.63    1.63</time>
   <time name="total">    1.74    1.75</time>
   <energy>
    <i name="e_fr_energy">    -21.43375591 </i>
    <i name="e_wo_entrp">    -21.43375591 </i>
    <i name="e_0_energy">    -21.43375591 </i>
   </energy>
  </scstep>
  <scstep>
   <time name="dav">    1.62    1.62</time>
   <time name="total">    1.73    1.73</time>
   <energy>
    <i name="e_fr_energy">    -21.43385321 </i>
    <i name="e_wo_entrp">    -21.43385321 </i>
    <i name="e_0_energy">    -21.43385321 </i>
   </energy>
  </scstep>
  <scstep>
   <time name="dav">    1.52    1.52</time>
   <time name="total">    1.63    1.63</time>
   <energy>
    <i name="e_fr_energy">    -21.43396505 </i>
    <i name="e_wo_entrp">    -21.43396505 </i>
    <i name="e_0_energy">    -21.43396505 </i>
   </energy>
  </scstep>
  <scstep>
   <time name="dav">    1.53    1.53</time>
   <time name="total">    1.64    1.65</time>
   <energy>
    <i name="e_fr_energy">    -21.43398976 </i>
    <i name="e_wo_entrp">    -21.43398976 </i>
    <i name="e_0_energy">    -21.43398976 </i>
   </energy>
  </scstep>
  <scstep>
   <time name="dav">    1.49    1.49</time>
   <time name="total">    1.60    1.60</time>
   <energy>
    <i name="e_fr_energy">    -21.43401715 </i>
    <i name="e_wo_entrp">    -21.43401715 </i>
    <i name="e_0_energy">    -21.43401715 </i>
   </energy>
  </scstep>
  <scstep>
   <time name="dav">    1.47    1.47</time>
   <time name="total">    1.49    1.49</time>
   <energy>
    <i name="alphaZ">      5.10209673 </i>
    <i name="ewald">   1794.37598468 </i>
    <i name="hartreedc">  -2402.75449516 </i>
    <i name="XCdc">     13.78511552 </i>
    <i name="pawpsdc">   1979.33113637 </i>
    <i name="pawaedc">  -1946.98032597 </i>
    <i name="eentropy">     -0.00000000 </i>
    <i name="bandstr">   -168.46131743 </i>
    <i name="atom">    704.16778566 </i>
    <i name="e_fr_energy">    -21.43401959 </i>
    <i name="e_wo_entrp">    -21.43401959 </i>
    <i name="e_0_energy">    -21.43401959 </i>
   </energy>
  </scstep>
  <structure>
   <crystal>
    <varray name="basis" >
     <v>       3.34629700       0.00000000       0.00000000 </v>
     <v>       0.00000000       4.69218900      -0.00005300 </v>
     <v>       0.00000000       0.00000000      20.02439000 </v>
    </varray>
    <i name="volume">    314.41211804 </i>
    <varray name="rec_basis" >
     <v>       0.29883779       0.00000000       0.00000000 </v>
     <v>       0.00000000       0.21312014       0.00000000 </v>
     <v>       0.00000000       0.00000056       0.04993910 </v>
    </varray>
   </crystal>
   <varray name="positions" >
    <v>       0.50000000       0.91077300       0.55252100 </v>
    <v>       0.50000000       0.08922700       0.44747900 </v>
    <v>       0.00000000       0.41076900       0.44747900 </v>
    <v>       0.00000000       0.58923100       0.55252100 </v>
   </varray>
  </structure>
  <varray name="forces" >
   <v>      -0.00000012      -0.25329498      -0.05978008 </v>
   <v>       0.00000012       0.25329498       0.05978008 </v>
   <v>       0.00000009      -0.25332153       0.05978819 </v>
   <v>      -0.00000009       0.25332153      -0.05978819 </v>
  </varray>
  <varray name="stress" >
   <v>      -9.30073069      -0.00000293      -0.00000040 </v>
   <v>      -0.00000298      -6.92399110       0.00035863 </v>
   <v>      -0.00000050       0.00035864      -1.34429548 </v>
  </varray>
  <energy>
   <i name="e_fr_energy">    -21.43401959 </i>
   <i name="e_wo_entrp">    -21.43401959 </i>
   <i name="e_0_energy">     -0.00000000 </i>
  </energy>
  <time name="totalsc">   31.78   31.83</time>
 </calculation>
 <calculation>
  <scstep>
   <time name="dav">    1.60    1.60</time>
   <time name="total">    1.71    1.72</time>
   <energy>
    <i name="alphaZ">      5.10209673 </i>
    <i name="ewald">   1796.97901242 </i>
    <i name="hartreedc">  -2404.94698720 </i>
    <i name="XCdc">     13.82884653 </i>
    <i name="pawpsdc">   1979.12955508 </i>
    <i name="pawaedc">  -1946.77876943 </i>
    <i name="eentropy">     -0.00000000 </i>
    <i name="bandstr">   -168.92059317 </i>
    <i name="atom">    704.16778566 </i>
    <i name="e_fr_energy">    -21.43905337 </i>
    <i name="e_wo_entrp">    -21.43905337 </i>
    <i name="e_0_energy">    -21.43905337 </i>
   </energy>
  </scstep>
  <scstep>
   <time name="dav">    1.88    1.88</time>
   <time name="total">    1.99    1.99</time>
   <energy>
    <i name="e_fr_energy">    -21.43977768 </i>
    <i name="e_wo_entrp">    -21.43977768 </i>
    <i name="e_0_energy">    -21.43977768 </i>
   </energy>
  </scstep>
  <scstep>
   <time name="dav">    2.02    2.02</time>
   <time name="total">    2.13    2.13</time>
   <energy>
    <i name="e_fr_energy">    -21.43977669 </i>
    <i name="e_wo_entrp">    -21.43977669 </i>
    <i name="e_0_energy">    -21.43977669 </i>
   </energy>
  </scstep>
  <scstep>
   <time name="dav">    1.67    1.67</time>
   <time name="total">    1.79    1.79</time>
   <energy>
    <i name="e_fr_energy">    -21.43977740 </i>
    <i name="e_wo_entrp">    -21.43977740 </i>
    <i name="e_0_energy">    -21.43977740 </i>
   </energy>
  </scstep>
  <scstep>
   <time name="dav">    1.30    1.30</time>
   <time name="total">    1.41    1.42</time>
   <energy>
    <i name="e_fr_energy">    -21.43977805 </i>
    <i name="e_wo_entrp">    -21.43977805 </i>
    <i name="e_0_energy">    -21.43977805 </i>
   </energy>
  </scstep>
  <scstep>
   <time name="dav">    1.22    1.22</time>
   <time name="total">    1.24    1.25</time>
   <energy>
    <i name="alphaZ">      5.10209673 </i>
    <i name="ewald">   1796.97901242 </i>
    <i name="hartreedc">  -2404.95610072 </i>
    <i name="XCdc">     13.83332408 </i>
    <i name="pawpsdc">   2005.33275368 </i>
    <i name="pawaedc">  -1972.99169576 </i>
    <i name="eentropy">     -0.00000000 </i>
    <i name="bandstr">   -168.90695469 </i>
    <i name="atom">    704.16778566 </i>
    <i name="e_fr_energy">    -21.43977860 </i>
    <i name="e_wo_entrp">    -21.43977860 </i>
    <i name="e_0_energy">    -21.43977860 </i>
   </energy>
  </scstep>
  <structure>
   <crystal>
    <varray name="basis" >
     <v>       3.34629700       0.00000000       0.00000000 </v>
     <v>       0.00000000       4.69218900      -0.00005300 </v>
     <v>       0.00000000       0.00000000      20.02439000 </v>
    </varray>
    <i name="volume">    314.41211804 </i>
    <varray name="rec_basis" >
     <v>       0.29883779       0.00000000       0.00000000 </v>
     <v>       0.00000000       0.21312014       0.00000000 </v>
     <v>       0.00000000       0.00000056       0.04993910 </v>
    </varray>
   </crystal>
   <varray name="positions" >
    <v>       0.50000000       0.90921045       0.55243458 </v>
    <v>       0.50000000       0.09078955       0.44756542 </v>
    <v>       0.00000000       0.40920629       0.44756542 </v>
    <v>      -0.00000000       0.59079371       0.55243458 </v>
   </varray>
  </structure>
  <varray name="forces" >
   <v>      -0.00000010      -0.10931046      -0.05780069 </v>
   <v>       0.00000010       0.10931046       0.05780069 </v>
   <v>      -0.00000008      -0.10933261       0.05780321 </v>
   <v>       0.00000008       0.10933261      -0.05780321 </v>
  </varray>
  <varray name="stress" >
   <v>      -8.78753558      -0.00000204      -0.00000134 </v>
   <v>      -0.00000198      -4.81461178       0.00028630 </v>
   <v>      -0.00000130       0.00028629      -1.34013190 </v>
  </varray>
  <energy>
   <i name="e_fr_energy">    -21.43977860 </i>
   <i name="e_wo_entrp">    -21.43977860 </i>
   <i name="e_0_energy">     -0.00000000 </i>
  </energy>
  <time name="totalsc">   11.06   11.09</time>
 </calculation>
 <calculation>
  <scstep>
   <time name="dav">    1.59    1.59</time>
   <time name="total">    1.70    1.71</time>
   <energy>
    <i name="alphaZ">      5.10209673 </i>
    <i name="ewald">   1799.20570462 </i>
    <i name="hartreedc">  -2406.80700878 </i>
    <i name="XCdc">     13.87053296 </i>
    <i name="pawpsdc">   2005.56759873 </i>
    <i name="pawaedc">  -1973.22645671 </i>
    <i name="eentropy">     -0.00000000 </i>
    <i name="bandstr">   -169.32101722 </i>
    <i name="atom">    704.16778566 </i>
    <i name="e_fr_energy">    -21.44076402 </i>
    <i name="e_wo_entrp">    -21.44076402 </i>
    <i name="e_0_energy">    -21.44076402 </i>
   </energy>
  </scstep>
  <scstep>
   <time name="dav">    1.90    1.90</time>
   <time name="total">    2.01    2.01</time>
   <energy>
    <i name="e_fr_energy">    -21.44129613 </i>
    <i name="e_wo_entrp">    -21.44129613 </i>
    <i name="e_0_energy">    -21.44129613 </i>
   </energy>
  </scstep>
  <scstep>
   <time name="dav">    2.00    2.00</time>
   <time name="total">    2.11    2.11</time>
   <energy>
    <i name="e_fr_energy">    -21.44129505 </i>
    <i name="e_wo_entrp">    -21.44129505 </i>
    <i name="e_0_energy">    -21.44129505 </i>
   </energy>
  </scstep>
  <scstep>
   <time name="dav">    1.57    1.57</time>
   <time name="total">    1.68    1.68</time>
   <energy>
    <i name="e_fr_energy">    -21.44129529 </i>
    <i name="e_wo_entrp">    -21.44129529 </i>
    <i name="e_0_energy">    -21.44129529 </i>
   </energy>
  </scstep>
  <scstep>
   <time name="dav">    1.26    1.26</time>
   <time name="total">    1.37    1.37</time>
   <energy>
    <i name="e_fr_energy">    -21.44129587 </i>
    <i name="e_wo_entrp">    -21.44129587 </i>
    <i name="e_0_energy">    -21.44129587 </i>
   </energy>
  </scstep>
  <scstep>
   <time name="dav">    1.21    1.21</time>
   <time name="total">    1.23    1.23</time>
   <energy>
    <i name="alphaZ">      5.10209673 </i>
    <i name="ewald">   1799.20570462 </i>
    <i name="hartreedc">  -2406.80614013 </i>
    <i name="XCdc">     13.87434884 </i>
    <i name="pawpsdc">   2028.39705056 </i>
    <i name="pawaedc">  -1996.06437514 </i>
    <i name="eentropy">     -0.00000000 </i>
    <i name="bandstr">   -169.31776744 </i>
    <i name="atom">    704.16778566 </i>
    <i name="e_fr_energy">    -21.44129631 </i>
    <i name="e_wo_entrp">    -21.44129631 </i>
    <i name="e_0_energy">    -21.44129631 </i>
   </energy>
  </scstep>
  <structure>
   <crystal>
    <varray name="basis" >
     <v>       3.34629700       0.00000000       0.00000000 </v>
     <v>       0.00000000       4.69218900      -0.00005300 </v>
     <v>       0.00000000       0.00000000      20.02439000 </v>
    </varray>
    <i name="volume">    314.41211804 </i>
    <varray name="rec_basis" >
     <v>       0.29883779       0.00000000       0.00000000 </v>
     <v>       0.00000000       0.21312014       0.00000000 </v>
     <v>       0.00000000       0.00000056       0.04993910 </v>
    </varray>
   </crystal>
   <varray name="positions" >
    <v>       0.50000000       0.90788037       0.55236102 </v>
    <v>       0.50000000       0.09211963       0.44763898 </v>
    <v>       0.00000000       0.40787607       0.44763898 </v>
    <v>      -0.00000000       0.59212393       0.55236102 </v>
   </varray>
  </structure>
  <varray name="forces" >
   <v>       0.00000004       0.01641258      -0.05697637 </v>
   <v>      -0.00000004      -0.01641258       0.05697637 </v>
   <v>       0.00000005       0.01639425       0.05697396 </v>
   <v>      -0.00000005      -0.01639425      -0.05697396 </v>
  </varray>
  <varray name="stress" >
   <v>      -8.29337191      -0.00000056      -0.00000019 </v>
   <v>      -0.00000060      -2.99499568       0.00022541 </v>
   <v>      -0.00000014       0.00022542      -1.31850270 </v>
  </varray>
  <energy>
   <i name="e_fr_energy">    -21.44129631 </i>
   <i name="e_wo_entrp">    -21.44129631 </i>
   <i name="e_0_energy">     -0.00000000 </i>
  </energy>
  <time name="totalsc">   10.89   10.90</time>
 </calculation>
 <calculation>
  <scstep>
   <time name="dav">    1.60    1.60</time>
   <time name="total">    1.71    1.71</time>
   <energy>
    <i name="alphaZ">      5.10209673 </i>
    <i name="ewald">   1799.15330915 </i>
    <i name="hartreedc">  -2406.75145722 </i>
    <i name="XCdc">     13.87334091 </i>
    <i name="pawpsdc">   2028.62889357 </i>
    <i name="pawaedc">  -1996.29614429 </i>
    <i name="eentropy">     -0.00000000 </i>
    <i name="bandstr">   -169.31912238 </i>
    <i name="atom">    704.16778566 </i>
    <i name="e_fr_energy">    -21.44129787 </i>
    <i name="e_wo_entrp">    -21.44129787 </i>
    <i name="e_0_energy">    -21.44129787 </i>
   </energy>
  </scstep>
  <scstep>
   <time name="dav">    1.25    1.25</time>
   <time name="total">    1.36    1.36</time>
   <energy>
    <i name="e_fr_energy">    -21.44129847 </i>
    <i name="e_wo_entrp">    -21.44129847 </i>
    <i name="e_0_energy">    -21.44129847 </i>
   </energy>
  </scstep>
  <scstep>
   <time name="dav">    1.19    1.19</time>
   <time name="total">    1.30    1.30</time>
   <energy>
    <i name="e_fr_energy">    -21.44129894 </i>
    <i name="e_wo_entrp">    -21.44129894 </i>
    <i name="e_0_energy">    -21.44129894 </i>
   </energy>
  </scstep>
  <scstep>
   <time name="dav">    1.27    1.27</time>
   <time name="total">    1.38    1.39</time>
   <energy>
    <i name="e_fr_energy">    -21.44129966 </i>
    <i name="e_wo_entrp">    -21.44129966 </i>
    <i name="e_0_energy">    -21.44129966 </i>
   </energy>
  </scstep>
  <scstep>
   <time name="dav">    1.29    1.29</time>
   <time name="total">    1.40    1.40</time>
   <energy>
    <i name="e_fr_energy">    -21.44130023 </i>
    <i name="e_wo_entrp">    -21.44130023 </i>
    <i name="e_0_energy">    -21.44130023 </i>
   </energy>
  </scstep>
  <scstep>
   <time name="dav">    1.36    1.36</time>
   <time name="total">    1.38    1.39</time>
   <energy>
    <i name="alphaZ">      5.10209673 </i>
    <i name="ewald">   1799.15330915 </i>
    <i name="hartreedc">  -2406.73592183 </i>
    <i name="XCdc">     13.87311366 </i>
    <i name="pawpsdc">   2028.18383723 </i>
    <i name="pawaedc">  -1995.85090177 </i>
    <i name="eentropy">     -0.00000000 </i>
    <i name="bandstr">   -169.33461979 </i>
    <i name="atom">    704.16778566 </i>
    <i name="e_fr_energy">    -21.44130097 </i>
    <i name="e_wo_entrp">    -21.44130097 </i>
    <i name="e_0_energy">    -21.44130097 </i>
   </energy>
  </scstep>
  <structure>
   <crystal>
    <varray name="basis" >
     <v>       3.34629700       0.00000000       0.00000000 </v>
     <v>       0.00000000       4.69218900      -0.00005300 </v>
     <v>       0.00000000       0.00000000      20.02439000 </v>
    </varray>
    <i name="volume">    314.41211804 </i>
    <varray name="rec_basis" >
     <v>       0.29883779       0.00000000       0.00000000 </v>
     <v>       0.00000000       0.21312014       0.00000000 </v>
     <v>       0.00000000       0.00000056       0.04993910 </v>
    </varray>
   </crystal>
   <varray name="positions" >
    <v>       0.50000000       0.90791160       0.55236275 </v>
    <v>       0.50000000       0.09208840       0.44763725 </v>
    <v>       0.00000000       0.40790730       0.44763726 </v>
    <v>      -0.00000000       0.59209270       0.55236274 </v>
   </varray>
  </structure>
  <varray name="forces" >
   <v>       0.00000004       0.01327227      -0.05698548 </v>
   <v>      -0.00000004      -0.01327227       0.05698548 </v>
   <v>      -0.00000002       0.01325386       0.05698308 </v>
   <v>       0.00000002      -0.01325386      -0.05698308 </v>
  </varray>
  <varray name="stress" >
   <v>      -8.31128751       0.00000023       0.00000036 </v>
   <v>       0.00000030      -3.03027564       0.00022710 </v>
   <v>       0.00000040       0.00022714      -1.28751246 </v>
  </varray>
  <energy>
   <i name="e_fr_energy">    -21.44130097 </i>
   <i name="e_wo_entrp">    -21.44130097 </i>
   <i name="e_0_energy">     -0.00000000 </i>
  </energy>
  <time name="totalsc">    9.33    9.34</time>
 </calculation>
 <calculation>
  <scstep>
   <time name="dav">    1.46    1.46</time>
   <time name="total">    1.57    1.57</time>
   <energy>
    <i name="alphaZ">      5.10209673 </i>
    <i name="ewald">   1800.95728442 </i>
    <i name="hartreedc">  -2408.44089408 </i>
    <i name="XCdc">     13.88532015 </i>
    <i name="pawpsdc">   2028.18940947 </i>
    <i name="pawaedc">  -1995.85647275 </i>
    <i name="eentropy">     -0.00000000 </i>
    <i name="bandstr">   -169.44610920 </i>
    <i name="atom">    704.16778566 </i>
    <i name="e_fr_energy">    -21.44157961 </i>
    <i name="e_wo_entrp">    -21.44157961 </i>
    <i name="e_0_energy">    -21.44157961 </i>
   </energy>
  </scstep>
  <scstep>
   <time name="dav">    1.81    1.81</time>
   <time name="total">    1.92    1.92</time>
   <energy>
    <i name="e_fr_energy">    -21.44165183 </i>
    <i name="e_wo_entrp">    -21.44165183 </i>
    <i name="e_0_energy">    -21.44165183 </i>
   </energy>
  </scstep>
  <scstep>
   <time name="dav">    1.51    1.51</time>
   <time name="total">    1.62    1.63</time>
   <energy>
    <i name="e_fr_energy">    -21.44165024 </i>
    <i name="e_wo_entrp">    -21.44165024 </i>
    <i name="e_0_energy">    -21.44165024 </i>
   </energy>
  </scstep>
  <scstep>
   <time name="dav">    1.24    1.24</time>
   <time name="total">    1.35    1.35</time>
   <energy>
    <i name="e_fr_energy">    -21.44165068 </i>
    <i name="e_wo_entrp">    -21.44165068 </i>
    <i name="e_0_energy">    -21.44165068 </i>
   </energy>
  </scstep>
  <scstep>
   <time name="dav">    1.16    1.16</time>
   <time name="total">    1.28    1.28</time>
   <energy>
    <i name="e_fr_energy">    -21.44165062 </i>
    <i name="e_wo_entrp">    -21.44165062 </i>
    <i name="e_0_energy">    -21.44165062 </i>
   </energy>
  </scstep>
  <scstep>
   <time name="dav">    1.12    1.12</time>
   <time name="total">    1.14    1.14</time>
   <energy>
    <i name="alphaZ">      5.10209673 </i>
    <i name="ewald">   1800.95728442 </i>
    <i name="hartreedc">  -2408.44343644 </i>
    <i name="XCdc">     13.88613414 </i>
    <i name="pawpsdc">   2033.91534504 </i>
    <i name="pawaedc">  -2001.58441052 </i>
    <i name="eentropy">     -0.00000000 </i>
    <i name="bandstr">   -169.44244968 </i>
    <i name="atom">    704.16778566 </i>
    <i name="e_fr_energy">    -21.44165065 </i>
    <i name="e_wo_entrp">    -21.44165065 </i>
    <i name="e_0_energy">    -21.44165065 </i>
   </energy>
  </scstep>
  <structure>
   <crystal>
    <varray name="basis" >
     <v>       3.34629700       0.00000000       0.00000000 </v>
     <v>       0.00000000       4.69218900      -0.00005300 </v>
     <v>       0.00000000       0.00000000      20.02439000 </v>
    </varray>
    <i name="volume">    314.41211804 </i>
    <varray name="rec_basis" >
     <v>       0.29883779       0.00000000       0.00000000 </v>
     <v>       0.00000000       0.21312014       0.00000000 </v>
     <v>       0.00000000       0.00000056       0.04993910 </v>
    </varray>
   </crystal>
   <varray name="positions" >
    <v>       0.50000000       0.90791626       0.55226166 </v>
    <v>       0.50000000       0.09208374       0.44773834 </v>
    <v>       0.00000000       0.40791182       0.44773834 </v>
    <v>      -0.00000000       0.59208818       0.55226166 </v>
   </varray>
  </structure>
  <varray name="forces" >
   <v>       0.00000002       0.00630043      -0.02831851 </v>
   <v>      -0.00000002      -0.00630043       0.02831851 </v>
   <v>       0.00000006       0.00628531       0.02831709 </v>
   <v>      -0.00000006      -0.00628531      -0.02831709 </v>
  </varray>
  <varray name="stress" >
   <v>      -8.26150274      -0.00000029       0.00000000 </v>
   <v>      -0.00000028      -2.93465681       0.00019103 </v>
   <v>      -0.00000002       0.00019108      -0.68360530 </v>
  </varray>
  <energy>
   <i name="e_fr_energy">    -21.44165065 </i>
   <i name="e_wo_entrp">    -21.44165065 </i>
   <i name="e_0_energy">     -0.00000000 </i>
  </energy>
  <time name="totalsc">    9.67    9.69</time>
 </calculation>
 <calculation>
  <scstep>
   <time name="dav">    1.46    1.47</time>
   <time name="total">    1.57    1.58</time>
   <energy>
    <i name="alphaZ">      5.10209673 </i>
    <i name="ewald">   1802.73981996 </i>
    <i name="hartreedc">  -2410.12371141 </i>
    <i name="XCdc">     13.89816409 </i>
    <i name="pawpsdc">   2033.99588541 </i>
    <i name="pawaedc">  -2001.66490773 </i>
    <i name="eentropy">     -0.00000000 </i>
    <i name="bandstr">   -169.55682950 </i>
    <i name="atom">    704.16778566 </i>
    <i name="e_fr_energy">    -21.44169679 </i>
    <i name="e_wo_entrp">    -21.44169679 </i>
    <i name="e_0_energy">    -21.44169679 </i>
   </energy>
  </scstep>
  <scstep>
   <time name="dav">    1.85    1.85</time>
   <time name="total">    1.96    1.96</time>
   <energy>
    <i name="e_fr_energy">    -21.44176834 </i>
    <i name="e_wo_entrp">    -21.44176834 </i>
    <i name="e_0_energy">    -21.44176834 </i>
   </energy>
  </scstep>
  <scstep>
   <time name="dav">    1.54    1.54</time>
   <time name="total">    1.65    1.65</time>
   <energy>
    <i name="e_fr_energy">    -21.44176688 </i>
    <i name="e_wo_entrp">    -21.44176688 </i>
    <i name="e_0_energy">    -21.44176688 </i>
   </energy>
  </scstep>
  <scstep>
   <time name="dav">    1.24    1.24</time>
   <time name="total">    1.35    1.35</time>
   <energy>
    <i name="e_fr_energy">    -21.44176726 </i>
    <i name="e_wo_entrp">    -21.44176726 </i>
    <i name="e_0_energy">    -21.44176726 </i>
   </energy>
  </scstep>
  <scstep>
   <time name="dav">    1.16    1.16</time>
   <time name="total">    1.27    1.27</time>
   <energy>
    <i name="e_fr_energy">    -21.44176724 </i>
    <i name="e_wo_entrp">    -21.44176724 </i>
    <i name="e_0_energy">    -21.44176724 </i>
   </energy>
  </scstep>
  <scstep>
   <time name="dav">    1.09    1.09</time>
   <time name="total">    1.11    1.11</time>
   <energy>
    <i name="alphaZ">      5.10209673 </i>
    <i name="ewald">   1802.73981996 </i>
    <i name="hartreedc">  -2410.12445414 </i>
    <i name="XCdc">     13.89897149 </i>
    <i name="pawpsdc">   2039.76987040 </i>
    <i name="pawaedc">  -2007.44090143 </i>
    <i name="eentropy">     -0.00000000 </i>
    <i name="bandstr">   -169.55495595 </i>
    <i name="atom">    704.16778566 </i>
    <i name="e_fr_energy">    -21.44176728 </i>
    <i name="e_wo_entrp">    -21.44176728 </i>
    <i name="e_0_energy">    -21.44176728 </i>
   </energy>
  </scstep>
  <structure>
   <crystal>
    <varray name="basis" >
     <v>       3.34629700       0.00000000       0.00000000 </v>
     <v>       0.00000000       4.69218900      -0.00005300 </v>
     <v>       0.00000000       0.00000000      20.02439000 </v>
    </varray>
    <i name="volume">    314.41211804 </i>
    <varray name="rec_basis" >
     <v>       0.29883779       0.00000000       0.00000000 </v>
     <v>       0.00000000       0.21312014       0.00000000 </v>
     <v>       0.00000000       0.00000056       0.04993910 </v>
    </varray>
   </crystal>
   <varray name="positions" >
    <v>       0.50000000       0.90792087       0.55216182 </v>
    <v>       0.50000000       0.09207913       0.44783818 </v>
    <v>       0.00000000       0.40791629       0.44783818 </v>
    <v>      -0.00000000       0.59208371       0.55216182 </v>
   </varray>
  </structure>
  <varray name="forces" >
   <v>      -0.00000000      -0.00090867       0.00025088 </v>
   <v>       0.00000000       0.00090867      -0.00025088 </v>
   <v>       0.00000005      -0.00092060      -0.00025121 </v>
   <v>      -0.00000005       0.00092060       0.00025121 </v>
  </varray>
  <varray name="stress" >
   <v>      -8.20922879      -0.00000006      -0.00000002 </v>
   <v>      -0.00000006      -2.83627363       0.00015522 </v>
   <v>      -0.00000002       0.00015522      -0.07448063 </v>
  </varray>
  <energy>
   <i name="e_fr_energy">    -21.44176728 </i>
   <i name="e_wo_entrp">    -21.44176728 </i>
   <i name="e_0_energy">     -0.00000000 </i>
  </energy>
  <time name="totalsc">    9.64    9.66</time>
  <eigenvalues>
   <array>
    <dimension dim="1">band</dimension>
    <dimension dim="2">kpoint</dimension>
    <dimension dim="3">spin</dimension>
    <field>eigene</field>
    <field>occ</field>
    <set>
     <set comment="spin 1">
      <set comment="kpoint 1">
       <r>  -17.1887    1.0000 </r>
       <r>  -14.7545    1.0000 </r>
       <r>  -11.6178    1.0000 </r>
       <r>   -7.9312    1.0000 </r>
       <r>   -7.1136    1.0000 </r>
       <r>   -6.7340    1.0000 </r>
       <r>   -5.8113    1.0000 </r>
       <r>   -4.2515    1.0000 </r>
       <r>   -3.8805    1.0000 </r>
       <r>   -2.3831    1.0000 </r>
       <r>   -1.3370    0.0000 </r>
       <r>   -0.9007    0.0000 </r>
       <r>    0.0403    0.0000 </r>
       <r>    0.7153    0.0000 </r>
       <r>    2.0787    0.0000 </r>
       <r>    2.2638    0.0000 </r>
      </set>
      <set comment="kpoint 2">
       <r>  -17.1627    1.0000 </r>
       <r>  -14.7271    1.0000 </r>
       <r>  -11.6283    1.0000 </r>
       <r>   -7.9119    1.0000 </r>
       <r>   -7.1371    1.0000 </r>
       <r>   -6.7112    1.0000 </r>
       <r>   -5.9732    1.0000 </r>
       <r>   -4.4210    1.0000 </r>
       <r>   -3.8726    1.0000 </r>
       <r>   -2.3862    1.0000 </r>
       <r>   -1.3131    0.0000 </r>
       <r>   -0.6691    0.0000 </r>
       <r>    0.2712    0.0000 </r>
       <r>    0.5636    0.0000 </r>
       <r>    2.1055    0.0000 </r>
       <r>    2.2929    0.0000 </r>
      </set>
      <set comment="kpoint 3">
       <r>  -17.0847    1.0000 </r>
       <r>  -14.6451    1.0000 </r>
       <r>  -11.6647    1.0000 </r>
       <r>   -7.8548    1.0000 </r>
       <r>   -7.2277    1.0000 </r>
       <r>   -6.6433    1.0000 </r>
       <r>   -6.3704    1.0000 </r>
       <r>   -4.8079    1.0000 </r>
       <r>   -3.8530    1.0000 </r>
       <r>   -2.4115    1.0000 </r>
       <r>   -1.2418    0.0000 </r>
       <r>   -0.0468    0.0000 </r>
       <r>    0.1866    0.0000 </r>
       <r>    0.8391    0.0000 </r>
       <r>    2.1799    0.0000 </r>
       <r>    2.3801    0.0000 </r>
      </set>
      <set comment="kpoint 4">
       <r>  -16.9551    1.0000 </r>
       <r>  -14.5087    1.0000 </r>
       <r>  -11.7420    1.0000 </r>
       <r>   -7.7625    1.0000 </r>
       <r>   -7.4431    1.0000 </r>
       <r>   -6.8459    1.0000 </r>
       <r>   -6.5318    1.0000 </r>
       <r>   -5.1933    1.0000 </r>
       <r>   -3.8349    1.0000 </r>
       <r>   -2.4768    1.0000 </r>
       <r>   -1.1249    0.0000 </r>
       <r>   -0.2756    0.0000 </r>
       <r>    0.8256    0.0000 </r>
       <r>    1.4563    0.0000 </r>
       <r>    2.2060    0.0000 </r>
       <r>    2.5316    0.0000 </r>
      </set>
      <set comment="kpoint 5">
       <r>  -16.7746    1.0000 </r>
       <r>  -14.3181    1.0000 </r>
       <r>  -11.8824    1.0000 </r>
       <r>   -7.8373    1.0000 </r>
       <r>   -7.6400    1.0000 </r>
       <r>   -7.2820    1.0000 </r>
       <r>   -6.3791    1.0000 </r>
       <r>   -5.4255    1.0000 </r>
       <r>   -3.8425    1.0000 </r>
       <r>   -2.5919    1.0000 </r>
       <r>   -0.9665    0.0000 </r>
       <r>   -0.7091    0.0000 </r>
       <r>    1.5631    0.0000 </r>
       <r>    1.7686    0.0000 </r>
       <r>    1.8092    0.0000 </r>
       <r>    2.6083    0.0000 </r>
      </set>
      <set comment="kpoint 6">
       <r>  -16.5441    1.0000 </r>
       <r>  -14.0737    1.0000 </r>
       <r>  -12.1078    1.0000 </r>
       <r>   -8.3869    1.0000 </r>
       <r>   -7.6077    1.0000 </r>
       <r>   -7.4961    1.0000 </r>
       <r>   -6.1896    1.0000 </r>
       <r>   -5.4834    1.0000 </r>
       <r>   -3.9078    1.0000 </r>
       <r>   -2.7644    1.0000 </r>
       <r>   -1.0279    0.0000 </r>
       <r>   -0.7772    0.0000 </r>
       <r>    1.0754    0.0000 </r>
       <r>    1.2174    0.0000 </r>
       <r>    2.3801    0.0000 </r>
       <r>    2.8580    0.0000 </r>
      </set>
      <set comment="kpoint 7">
       <r>  -16.2652    1.0000 </r>
       <r>  -13.7762    1.0000 </r>
       <r>  -12.4269    1.0000 </r>
       <r>   -9.0183    1.0000 </r>
       <r>   -7.7904    1.0000 </r>
       <r>   -7.3455    1.0000 </r>
       <r>   -5.9702    1.0000 </r>
       <r>   -5.4242    1.0000 </r>
       <r>   -4.0484    1.0000 </r>
       <r>   -2.9960    1.0000 </r>
       <r>   -1.1753    0.0000 </r>
       <r>   -0.5894    0.0000 </r>
       <r>    0.4737    0.0000 </r>
       <r>    0.7244    0.0000 </r>
       <r>    2.0263    0.0000 </r>
       <r>    3.1810    0.0000 </r>
      </set>
      <set comment="kpoint 8">
       <r>  -15.9397    1.0000 </r>
       <r>  -13.4262    1.0000 </r>
       <r>  -12.8275    1.0000 </r>
       <r>   -9.6739    1.0000 </r>
       <r>   -7.8326    1.0000 </r>
       <r>   -7.2129    1.0000 </r>
       <r>   -5.7319    1.0000 </r>
       <r>   -5.3063    1.0000 </r>
       <r>   -4.2358    1.0000 </r>
       <r>   -3.2779    1.0000 </r>
       <r>   -1.1429    0.0000 </r>
       <r>   -0.5189    0.0000 </r>
       <r>   -0.0945    0.0000 </r>
       <r>    0.4390    0.0000 </r>
       <r>    1.5549    0.0000 </r>
       <r>    2.9104    0.0000 </r>
      </set>
      <set comment="kpoint 9">
       <r>  -15.5705    1.0000 </r>
       <r>  -13.2830    1.0000 </r>
       <r>  -13.0249    1.0000 </r>
       <r>  -10.3214    1.0000 </r>
       <r>   -7.7603    1.0000 </r>
       <r>   -7.1337    1.0000 </r>
       <r>   -5.4921    1.0000 </r>
       <r>   -5.1762    1.0000 </r>
       <r>   -4.3975    1.0000 </r>
       <r>   -3.5899    1.0000 </r>
       <r>   -0.9614    0.0000 </r>
       <r>   -0.7002    0.0000 </r>
       <r>   -0.5755    0.0000 </r>
       <r>    0.5226    0.0000 </r>
       <r>    1.0718    0.0000 </r>
       <r>    2.5250    0.0000 </r>
      </set>
      <set comment="kpoint 10">
       <r>  -15.1614    1.0000 </r>
       <r>  -13.7645    1.0000 </r>
       <r>  -12.5737    1.0000 </r>
       <r>  -10.9433    1.0000 </r>
       <r>   -7.6104    1.0000 </r>
       <r>   -7.1441    1.0000 </r>
       <r>   -5.2768    1.0000 </r>
       <r>   -5.0775    1.0000 </r>
       <r>   -4.4574    1.0000 </r>
       <r>   -3.9028    1.0000 </r>
       <r>   -0.9552    0.0000 </r>
       <r>   -0.9275    0.0000 </r>
       <r>   -0.6699    0.0000 </r>
       <r>    0.5907    0.0000 </r>
       <r>    0.8265    0.0000 </r>
       <r>    2.0902    0.0000 </r>
      </set>
      <set comment="kpoint 11">
       <r>  -14.7181    1.0000 </r>
       <r>  -14.2485    1.0000 </r>
       <r>  -12.0744    1.0000 </r>
       <r>  -11.5296    1.0000 </r>
       <r>   -7.4248    1.0000 </r>
       <r>   -7.2522    1.0000 </r>
       <r>   -5.1195    1.0000 </r>
       <r>   -5.0507    1.0000 </r>
       <r>   -4.3794    1.0000 </r>
       <r>   -4.1803    1.0000 </r>
       <r>   -1.1161    0.0000 </r>
       <r>   -1.1136    0.0000 </r>
       <r>   -0.2992    0.0000 </r>
       <r>    0.1275    0.0000 </r>
       <r>    1.2154    0.0000 </r>
       <r>    1.6449    0.0000 </r>
      </set>
      <set comment="kpoint 12">
       <r>  -17.1682    1.0000 </r>
       <r>  -14.7876    1.0000 </r>
       <r>  -11.6141    1.0000 </r>
       <r>   -8.1061    1.0000 </r>
       <r>   -6.9863    1.0000 </r>
       <r>   -6.6526    1.0000 </r>
       <r>   -5.7954    1.0000 </r>
       <r>   -4.2677    1.0000 </r>
       <r>   -3.8021    1.0000 </r>
       <r>   -2.5621    1.0000 </r>
       <r>   -1.1695    0.0000 </r>
       <r>   -0.8835    0.0000 </r>
       <r>   -0.0074    0.0000 </r>
       <r>    0.7078    0.0000 </r>
       <r>    2.1323    0.0000 </r>
       <r>    2.2927    0.0000 </r>
      </set>
      <set comment="kpoint 13">
       <r>  -17.1421    1.0000 </r>
       <r>  -14.7605    1.0000 </r>
       <r>  -11.6234    1.0000 </r>
       <r>   -8.0922    1.0000 </r>
       <r>   -7.0027    1.0000 </r>
       <r>   -6.6403    1.0000 </r>
       <r>   -5.9473    1.0000 </r>
       <r>   -4.4421    1.0000 </r>
       <r>   -3.7951    1.0000 </r>
       <r>   -2.5615    1.0000 </r>
       <r>   -1.1489    0.0000 </r>
       <r>   -0.6530    0.0000 </r>
       <r>    0.2181    0.0000 </r>
       <r>    0.5670    0.0000 </r>
       <r>    2.1580    0.0000 </r>
       <r>    2.3217    0.0000 </r>
      </set>
      <set comment="kpoint 14">
       <r>  -17.0642    1.0000 </r>
       <r>  -14.6792    1.0000 </r>
       <r>  -11.6563    1.0000 </r>
       <r>   -8.0559    1.0000 </r>
       <r>   -7.0676    1.0000 </r>
       <r>   -6.6465    1.0000 </r>
       <r>   -6.2727    1.0000 </r>
       <r>   -4.8379    1.0000 </r>
       <r>   -3.7823    1.0000 </r>
       <r>   -2.5730    1.0000 </r>
       <r>   -1.0916    0.0000 </r>
       <r>   -0.0319    0.0000 </r>
       <r>    0.1781    0.0000 </r>
       <r>    0.8149    0.0000 </r>
       <r>    2.2285    0.0000 </r>
       <r>    2.4088    0.0000 </r>
      </set>
      <set comment="kpoint 15">
       <r>  -16.9347    1.0000 </r>
       <r>  -14.5439    1.0000 </r>
       <r>  -11.7276    1.0000 </r>
       <r>   -8.0244    1.0000 </r>
       <r>   -7.2173    1.0000 </r>
       <r>   -6.9300    1.0000 </r>
       <r>   -6.3585    1.0000 </r>
       <r>   -5.2307    1.0000 </r>
       <r>   -3.7789    1.0000 </r>
       <r>   -2.6148    1.0000 </r>
       <r>   -0.9973    0.0000 </r>
       <r>   -0.2603    0.0000 </r>
       <r>    0.8350    0.0000 </r>
       <r>    1.4472    0.0000 </r>
       <r>    2.1749    0.0000 </r>
       <r>    2.4507    0.0000 </r>
      </set>
      <set comment="kpoint 16">
       <r>  -16.7544    1.0000 </r>
       <r>  -14.3555    1.0000 </r>
       <r>  -11.8597    1.0000 </r>
       <r>   -8.1101    1.0000 </r>
       <r>   -7.4036    1.0000 </r>
       <r>   -7.3390    1.0000 </r>
       <r>   -6.2417    1.0000 </r>
       <r>   -5.4642    1.0000 </r>
       <r>   -3.8091    1.0000 </r>
       <r>   -2.7014    1.0000 </r>
       <r>   -0.8656    0.0000 </r>
       <r>   -0.6656    0.0000 </r>
       <r>    1.5494    0.0000 </r>
       <r>    1.6148    0.0000 </r>
       <r>    1.9210    0.0000 </r>
       <r>    2.5775    0.0000 </r>
      </set>
      <set comment="kpoint 17">
       <r>  -16.5242    1.0000 </r>
       <r>  -14.1151    1.0000 </r>
       <r>  -12.0750    1.0000 </r>
       <r>   -8.4941    1.0000 </r>
       <r>   -7.6590    1.0000 </r>
       <r>   -7.4286    1.0000 </r>
       <r>   -6.0693    1.0000 </r>
       <r>   -5.5212    1.0000 </r>
       <r>   -3.9005    1.0000 </r>
       <r>   -2.8448    1.0000 </r>
       <r>   -0.9512    0.0000 </r>
       <r>   -0.7030    0.0000 </r>
       <r>    1.0458    0.0000 </r>
       <r>    1.1592    0.0000 </r>
       <r>    2.4735    0.0000 </r>
       <r>    2.9026    0.0000 </r>
      </set>
      <set comment="kpoint 18">
       <r>  -16.2456    1.0000 </r>
       <r>  -13.8261    1.0000 </r>
       <r>  -12.3806    1.0000 </r>
       <r>   -9.0735    1.0000 </r>
       <r>   -7.8395    1.0000 </r>
       <r>   -7.3304    1.0000 </r>
       <r>   -5.8664    1.0000 </r>
       <r>   -5.4692    1.0000 </r>
       <r>   -4.0578    1.0000 </r>
       <r>   -3.0489    1.0000 </r>
       <r>   -1.0693    0.0000 </r>
       <r>   -0.5416    0.0000 </r>
       <r>    0.5589    0.0000 </r>
       <r>    0.5645    0.0000 </r>
       <r>    2.1945    0.0000 </r>
       <r>    3.1170    0.0000 </r>
      </set>
      <set comment="kpoint 19">
       <r>  -15.9208    1.0000 </r>
       <r>  -13.5043    1.0000 </r>
       <r>  -12.7500    1.0000 </r>
       <r>   -9.7098    1.0000 </r>
       <r>   -7.8786    1.0000 </r>
       <r>   -7.2125    1.0000 </r>
       <r>   -5.6505    1.0000 </r>
       <r>   -5.3766    1.0000 </r>
       <r>   -4.2347    1.0000 </r>
       <r>   -3.3040    1.0000 </r>
       <r>   -1.0227    0.0000 </r>
       <r>   -0.5154    0.0000 </r>
       <r>   -0.0025    0.0000 </r>
       <r>    0.2984    0.0000 </r>
       <r>    1.7666    0.0000 </r>
       <r>    2.8592    0.0000 </r>
      </set>
      <set comment="kpoint 20">
       <r>  -15.5525    1.0000 </r>
       <r>  -13.3751    1.0000 </r>
       <r>  -12.9320    1.0000 </r>
       <r>  -10.3480    1.0000 </r>
       <r>   -7.8011    1.0000 </r>
       <r>   -7.1359    1.0000 </r>
       <r>   -5.4452    1.0000 </r>
       <r>   -5.2960    1.0000 </r>
       <r>   -4.3482    1.0000 </r>
       <r>   -3.5859    1.0000 </r>
       <r>   -0.8686    0.0000 </r>
       <r>   -0.7439    0.0000 </r>
       <r>   -0.4602    0.0000 </r>
       <r>    0.3974    0.0000 </r>
       <r>    1.3274    0.0000 </r>
       <r>    2.4817    0.0000 </r>
      </set>
      <set comment="kpoint 21">
       <r>  -15.1450    1.0000 </r>
       <r>  -13.7713    1.0000 </r>
       <r>  -12.5660    1.0000 </r>
       <r>  -10.9639    1.0000 </r>
       <r>   -7.6436    1.0000 </r>
       <r>   -7.1487    1.0000 </r>
       <r>   -5.2843    1.0000 </r>
       <r>   -5.2436    1.0000 </r>
       <r>   -4.3461    1.0000 </r>
       <r>   -3.8592    1.0000 </r>
       <r>   -1.0058    0.0000 </r>
       <r>   -0.9429    0.0000 </r>
       <r>   -0.4673    0.0000 </r>
       <r>    0.5417    0.0000 </r>
       <r>    1.0233    0.0000 </r>
       <r>    2.0564    0.0000 </r>
      </set>
      <set comment="kpoint 22">
       <r>  -14.7044    1.0000 </r>
       <r>  -14.2405    1.0000 </r>
       <r>  -12.0824    1.0000 </r>
       <r>  -11.5448    1.0000 </r>
       <r>   -7.4481    1.0000 </r>
       <r>   -7.2647    1.0000 </r>
       <r>   -5.2041    1.0000 </r>
       <r>   -5.2030    1.0000 </r>
       <r>   -4.2502    1.0000 </r>
       <r>   -4.0869    1.0000 </r>
       <r>   -1.1532    0.0000 </r>
       <r>   -1.1305    0.0000 </r>
       <r>   -0.1303    0.0000 </r>
       <r>    0.2616    0.0000 </r>
       <r>    1.2309    0.0000 </r>
       <r>    1.6259    0.0000 </r>
      </set>
      <set comment="kpoint 23">
       <r>  -14.7044    1.0000 </r>
       <r>  -14.2405    1.0000 </r>
       <r>  -12.0824    1.0000 </r>
       <r>  -11.5448    1.0000 </r>
       <r>   -7.4481    1.0000 </r>
       <r>   -7.2647    1.0000 </r>
       <r>   -5.2041    1.0000 </r>
       <r>   -5.2030    1.0000 </r>
       <r>   -4.2502    1.0000 </r>
       <r>   -4.0869    1.0000 </r>
       <r>   -1.1532    0.0000 </r>
       <r>   -1.1305    0.0000 </r>
       <r>   -0.1303    0.0000 </r>
       <r>    0.2616    0.0000 </r>
       <r>    1.2309    0.0000 </r>
       <r>    1.6259    0.0000 </r>
      </set>
      <set comment="kpoint 24">
       <r>  -15.1450    1.0000 </r>
       <r>  -13.7713    1.0000 </r>
       <r>  -12.5660    1.0000 </r>
       <r>  -10.9639    1.0000 </r>
       <r>   -7.6436    1.0000 </r>
       <r>   -7.1487    1.0000 </r>
       <r>   -5.2843    1.0000 </r>
       <r>   -5.2436    1.0000 </r>
       <r>   -4.3461    1.0000 </r>
       <r>   -3.8592    1.0000 </r>
       <r>   -1.0058    0.0000 </r>
       <r>   -0.9429    0.0000 </r>
       <r>   -0.4673    0.0000 </r>
       <r>    0.5417    0.0000 </r>
       <r>    1.0233    0.0000 </r>
       <r>    2.0564    0.0000 </r>
      </set>
      <set comment="kpoint 25">
       <r>  -15.5525    1.0000 </r>
       <r>  -13.3751    1.0000 </r>
       <r>  -12.9320    1.0000 </r>
       <r>  -10.3480    1.0000 </r>
       <r>   -7.8011    1.0000 </r>
       <r>   -7.1359    1.0000 </r>
       <r>   -5.4452    1.0000 </r>
       <r>   -5.2960    1.0000 </r>
       <r>   -4.3482    1.0000 </r>
       <r>   -3.5859    1.0000 </r>
       <r>   -0.8686    0.0000 </r>
       <r>   -0.7439    0.0000 </r>
       <r>   -0.4602    0.0000 </r>
       <r>    0.3974    0.0000 </r>
       <r>    1.3274    0.0000 </r>
       <r>    2.4817    0.0000 </r>
      </set>
      <set comment="kpoint 26">
       <r>  -15.9208    1.0000 </r>
       <r>  -13.5043    1.0000 </r>
       <r>  -12.7500    1.0000 </r>
       <r>   -9.7098    1.0000 </r>
       <r>   -7.8786    1.0000 </r>
       <r>   -7.2125    1.0000 </r>
       <r>   -5.6505    1.0000 </r>
       <r>   -5.3766    1.0000 </r>
       <r>   -4.2347    1.0000 </r>
       <r>   -3.3040    1.0000 </r>
       <r>   -1.0227    0.0000 </r>
       <r>   -0.5154    0.0000 </r>
       <r>   -0.0025    0.0000 </r>
       <r>    0.2984    0.0000 </r>
       <r>    1.7666    0.0000 </r>
       <r>    2.8592    0.0000 </r>
      </set>
      <set comment="kpoint 27">
       <r>  -16.2456    1.0000 </r>
       <r>  -13.8261    1.0000 </r>
       <r>  -12.3806    1.0000 </r>
       <r>   -9.0735    1.0000 </r>
       <r>   -7.8395    1.0000 </r>
       <r>   -7.3304    1.0000 </r>
       <r>   -5.8664    1.0000 </r>
       <r>   -5.4692    1.0000 </r>
       <r>   -4.0578    1.0000 </r>
       <r>   -3.0489    1.0000 </r>
       <r>   -1.0693    0.0000 </r>
       <r>   -0.5416    0.0000 </r>
       <r>    0.5589    0.0000 </r>
       <r>    0.5645    0.0000 </r>
       <r>    2.1945    0.0000 </r>
       <r>    3.1170    0.0000 </r>
      </set>
      <set comment="kpoint 28">
       <r>  -16.5242    1.0000 </r>
       <r>  -14.1151    1.0000 </r>
       <r>  -12.0750    1.0000 </r>
       <r>   -8.4941    1.0000 </r>
       <r>   -7.6590    1.0000 </r>
       <r>   -7.4286    1.0000 </r>
       <r>   -6.0693    1.0000 </r>
       <r>   -5.5212    1.0000 </r>
       <r>   -3.9005    1.0000 </r>
       <r>   -2.8448    1.0000 </r>
       <r>   -0.9512    0.0000 </r>
       <r>   -0.7030    0.0000 </r>
       <r>    1.0458    0.0000 </r>
       <r>    1.1592    0.0000 </r>
       <r>    2.4735    0.0000 </r>
       <r>    2.9026    0.0000 </r>
      </set>
      <set comment="kpoint 29">
       <r>  -16.7544    1.0000 </r>
       <r>  -14.3555    1.0000 </r>
       <r>  -11.8597    1.0000 </r>
       <r>   -8.1101    1.0000 </r>
       <r>   -7.4036    1.0000 </r>
       <r>   -7.3390    1.0000 </r>
       <r>   -6.2417    1.0000 </r>
       <r>   -5.4642    1.0000 </r>
       <r>   -3.8091    1.0000 </r>
       <r>   -2.7014    1.0000 </r>
       <r>   -0.8656    0.0000 </r>
       <r>   -0.6656    0.0000 </r>
       <r>    1.5494    0.0000 </r>
       <r>    1.6148    0.0000 </r>
       <r>    1.9210    0.0000 </r>
       <r>    2.5775    0.0000 </r>
      </set>
      <set comment="kpoint 30">
       <r>  -16.9347    1.0000 </r>
       <r>  -14.5439    1.0000 </r>
       <r>  -11.7276    1.0000 </r>
       <r>   -8.0244    1.0000 </r>
       <r>   -7.2173    1.0000 </r>
       <r>   -6.9300    1.0000 </r>
       <r>   -6.3585    1.0000 </r>
       <r>   -5.2307    1.0000 </r>
       <r>   -3.7789    1.0000 </r>
       <r>   -2.6148    1.0000 </r>
       <r>   -0.9973    0.0000 </r>
       <r>   -0.2603    0.0000 </r>
       <r>    0.8350    0.0000 </r>
       <r>    1.4472    0.0000 </r>
       <r>    2.1749    0.0000 </r>
       <r>    2.4507    0.0000 </r>
      </set>
      <set comment="kpoint 31">
       <r>  -17.0642    1.0000 </r>
       <r>  -14.6792    1.0000 </r>
       <r>  -11.6563    1.0000 </r>
       <r>   -8.0559    1.0000 </r>
       <r>   -7.0676    1.0000 </r>
       <r>   -6.6465    1.0000 </r>
       <r>   -6.2727    1.0000 </r>
       <r>   -4.8379    1.0000 </r>
       <r>   -3.7823    1.0000 </r>
       <r>   -2.5730    1.0000 </r>
       <r>   -1.0916    0.0000 </r>
       <r>   -0.0319    0.0000 </r>
       <r>    0.1781    0.0000 </r>
       <r>    0.8149    0.0000 </r>
       <r>    2.2285    0.0000 </r>
       <r>    2.4088    0.0000 </r>
      </set>
      <set comment="kpoint 32">
       <r>  -17.1421    1.0000 </r>
       <r>  -14.7605    1.0000 </r>
       <r>  -11.6234    1.0000 </r>
       <r>   -8.0922    1.0000 </r>
       <r>   -7.0027    1.0000 </r>
       <r>   -6.6403    1.0000 </r>
       <r>   -5.9473    1.0000 </r>
       <r>   -4.4421    1.0000 </r>
       <r>   -3.7951    1.0000 </r>
       <r>   -2.5615    1.0000 </r>
       <r>   -1.1489    0.0000 </r>
       <r>   -0.6530    0.0000 </r>
       <r>    0.2181    0.0000 </r>
       <r>    0.5670    0.0000 </r>
       <r>    2.1580    0.0000 </r>
       <r>    2.3217    0.0000 </r>
      </set>
      <set comment="kpoint 33">
       <r>  -17.1068    1.0000 </r>
       <r>  -14.8856    1.0000 </r>
       <r>  -11.5956    1.0000 </r>
       <r>   -8.4727    1.0000 </r>
       <r>   -6.7482    1.0000 </r>
       <r>   -6.4189    1.0000 </r>
       <r>   -5.7483    1.0000 </r>
       <r>   -4.3163    1.0000 </r>
       <r>   -3.5902    1.0000 </r>
       <r>   -2.9350    1.0000 </r>
       <r>   -0.8366    0.0000 </r>
       <r>   -0.8235    0.0000 </r>
       <r>   -0.1439    0.0000 </r>
       <r>    0.6920    0.0000 </r>
       <r>    2.2876    0.0000 </r>
       <r>    2.3787    0.0000 </r>
      </set>
      <set comment="kpoint 34">
       <r>  -17.0808    1.0000 </r>
       <r>  -14.8590    1.0000 </r>
       <r>  -11.6019    1.0000 </r>
       <r>   -8.4626    1.0000 </r>
       <r>   -6.7562    1.0000 </r>
       <r>   -6.4457    1.0000 </r>
       <r>   -5.8620    1.0000 </r>
       <r>   -4.5003    1.0000 </r>
       <r>   -3.5903    1.0000 </r>
       <r>   -2.9302    1.0000 </r>
       <r>   -0.8117    0.0000 </r>
       <r>   -0.6037    0.0000 </r>
       <r>    0.0788    0.0000 </r>
       <r>    0.5720    0.0000 </r>
       <r>    2.3100    0.0000 </r>
       <r>    2.4077    0.0000 </r>
      </set>
      <set comment="kpoint 35">
       <r>  -17.0031    1.0000 </r>
       <r>  -14.7793    1.0000 </r>
       <r>  -11.6254    1.0000 </r>
       <r>   -8.4385    1.0000 </r>
       <r>   -6.7967    1.0000 </r>
       <r>   -6.6240    1.0000 </r>
       <r>   -6.0215    1.0000 </r>
       <r>   -4.9174    1.0000 </r>
       <r>   -3.6010    1.0000 </r>
       <r>   -2.9245    1.0000 </r>
       <r>   -0.7726    0.0000 </r>
       <r>    0.0133    0.0000 </r>
       <r>    0.1704    0.0000 </r>
       <r>    0.7402    0.0000 </r>
       <r>    2.3657    0.0000 </r>
       <r>    2.4765    0.0000 </r>
      </set>
      <set comment="kpoint 36">
       <r>  -16.8740    1.0000 </r>
       <r>  -14.6471    1.0000 </r>
       <r>  -11.6810    1.0000 </r>
       <r>   -8.4250    1.0000 </r>
       <r>   -7.0159    1.0000 </r>
       <r>   -6.9174    1.0000 </r>
[...]
       <r>    3.1909    0.0000 </r>
       <r>    3.3180    0.0000 </r>
      </set>
      <set comment="kpoint 153">
       <r>  -15.3789    1.0000 </r>
       <r>  -15.1392    1.0000 </r>
       <r>  -11.0188    1.0000 </r>
       <r>  -10.7027    1.0000 </r>
       <r>   -7.9507    1.0000 </r>
       <r>   -7.7995    1.0000 </r>
       <r>   -5.3399    1.0000 </r>
       <r>   -5.1305    1.0000 </r>
       <r>   -3.9025    1.0000 </r>
       <r>   -3.8254    1.0000 </r>
       <r>    0.1092    0.0000 </r>
       <r>    0.4698    0.0000 </r>
       <r>    1.0029    0.0000 </r>
       <r>    1.2830    0.0000 </r>
       <r>    3.1194    0.0000 </r>
       <r>    3.2530    0.0000 </r>
      </set>
      <set comment="kpoint 154">
       <r>  -15.6383    1.0000 </r>
       <r>  -15.3934    1.0000 </r>
       <r>  -10.8405    1.0000 </r>
       <r>  -10.5132    1.0000 </r>
       <r>   -7.6689    1.0000 </r>
       <r>   -7.5165    1.0000 </r>
       <r>   -5.1908    1.0000 </r>
       <r>   -4.9296    1.0000 </r>
       <r>   -3.8543    1.0000 </r>
       <r>   -3.8201    1.0000 </r>
       <r>    0.1229    0.0000 </r>
       <r>    0.3963    0.0000 </r>
       <r>    1.1211    0.0000 </r>
       <r>    1.4424    0.0000 </r>
       <r>    2.7499    0.0000 </r>
       <r>    3.0247    0.0000 </r>
      </set>
      <set comment="kpoint 155">
       <r>  -15.8564    1.0000 </r>
       <r>  -15.6087    1.0000 </r>
       <r>  -10.7720    1.0000 </r>
       <r>  -10.4449    1.0000 </r>
       <r>   -7.1987    1.0000 </r>
       <r>   -7.0368    1.0000 </r>
       <r>   -5.1791    1.0000 </r>
       <r>   -4.8738    1.0000 </r>
       <r>   -3.8086    1.0000 </r>
       <r>   -3.6479    1.0000 </r>
       <r>    0.2152    0.0000 </r>
       <r>    0.3771    0.0000 </r>
       <r>    1.1472    0.0000 </r>
       <r>    1.4990    0.0000 </r>
       <r>    2.1053    0.0000 </r>
       <r>    2.3321    0.0000 </r>
      </set>
      <set comment="kpoint 156">
       <r>  -16.0292    1.0000 </r>
       <r>  -15.7799    1.0000 </r>
       <r>  -10.7699    1.0000 </r>
       <r>  -10.4473    1.0000 </r>
       <r>   -6.6058    1.0000 </r>
       <r>   -6.4329    1.0000 </r>
       <r>   -5.2279    1.0000 </r>
       <r>   -4.9017    1.0000 </r>
       <r>   -3.7648    1.0000 </r>
       <r>   -3.4905    1.0000 </r>
       <r>    0.3145    0.0000 </r>
       <r>    0.3599    0.0000 </r>
       <r>    1.0695    0.0000 </r>
       <r>    1.3060    0.0000 </r>
       <r>    1.6017    0.0000 </r>
       <r>    1.6438    0.0000 </r>
      </set>
      <set comment="kpoint 157">
       <r>  -16.1540    1.0000 </r>
       <r>  -15.9039    1.0000 </r>
       <r>  -10.7930    1.0000 </r>
       <r>  -10.4746    1.0000 </r>
       <r>   -5.9700    1.0000 </r>
       <r>   -5.7938    1.0000 </r>
       <r>   -5.2818    1.0000 </r>
       <r>   -4.9504    1.0000 </r>
       <r>   -3.7937    1.0000 </r>
       <r>   -3.4246    1.0000 </r>
       <r>    0.0939    0.0000 </r>
       <r>    0.1178    0.0000 </r>
       <r>    1.0120    0.0000 </r>
       <r>    1.0150    0.0000 </r>
       <r>    1.3461    0.0000 </r>
       <r>    1.5263    0.0000 </r>
      </set>
      <set comment="kpoint 158">
       <r>  -16.2294    1.0000 </r>
       <r>  -15.9788    1.0000 </r>
       <r>  -10.8153    1.0000 </r>
       <r>  -10.4997    1.0000 </r>
       <r>   -5.4007    1.0000 </r>
       <r>   -5.3584    1.0000 </r>
       <r>   -5.1966    1.0000 </r>
       <r>   -4.9885    1.0000 </r>
       <r>   -3.9170    1.0000 </r>
       <r>   -3.4729    1.0000 </r>
       <r>   -0.3311    0.0000 </r>
       <r>   -0.2856    0.0000 </r>
       <r>    1.0385    0.0000 </r>
       <r>    1.1142    0.0000 </r>
       <r>    1.2963    0.0000 </r>
       <r>    1.4870    0.0000 </r>
      </set>
     </set>
    </set>
   </array>
  </eigenvalues>
  <separator name="orbital magnetization" >
   <v name="MAGDIPOLOUT">      0.00000000      0.00000000      0.00000000</v>
  </separator>
  <dos>
   <i name="efermi">     -2.29760726 </i>
   <total>
    <array>
     <dimension dim="1">gridpoints</dimension>
     <dimension dim="2">spin</dimension>
     <field>energy</field>
     <field>total</field>
     <field>integrated</field>
     <set>
      <set comment="spin 1">
       <r>   -18.2222     0.0000     0.0000 </r>
       <r>   -18.1464     0.0000     0.0000 </r>
       <r>   -18.0706     0.0000     0.0000 </r>
       <r>   -17.9948     0.0000     0.0000 </r>
       <r>   -17.9190     0.0000     0.0000 </r>
       <r>   -17.8432     0.0000     0.0000 </r>
       <r>   -17.7674     0.0000     0.0000 </r>
       <r>   -17.6917     0.0000     0.0000 </r>
       <r>   -17.6159     0.0000     0.0000 </r>
       <r>   -17.5401     0.0000     0.0000 </r>
       <r>   -17.4643     0.0000     0.0000 </r>
       <r>   -17.3885     0.0000     0.0000 </r>
       <r>   -17.3127     0.0000     0.0000 </r>
       <r>   -17.2369     0.0000     0.0000 </r>
       <r>   -17.1612     0.3181     0.0241 </r>
       <r>   -17.0854     0.8210     0.0863 </r>
       <r>   -17.0096     0.7999     0.1469 </r>
       <r>   -16.9338     0.9950     0.2224 </r>
       <r>   -16.8580     0.9517     0.2945 </r>
       <r>   -16.7822     0.5691     0.3376 </r>
       <r>   -16.7064     1.0822     0.4196 </r>
       <r>   -16.6307     0.9640     0.4927 </r>
       <r>   -16.5549     0.8273     0.5554 </r>
       <r>   -16.4791     0.7332     0.6109 </r>
       <r>   -16.4033     1.2726     0.7074 </r>
       <r>   -16.3275     0.6353     0.7555 </r>
       <r>   -16.2517     0.9631     0.8285 </r>
       <r>   -16.1759     1.3330     0.9296 </r>
       <r>   -16.1002     0.5231     0.9692 </r>
       <r>   -16.0244     1.0909     1.0519 </r>
       <r>   -15.9486     0.9236     1.1219 </r>
       <r>   -15.8728     1.0790     1.2036 </r>
       <r>   -15.7970     0.9823     1.2781 </r>
       <r>   -15.7212     1.1179     1.3628 </r>
       <r>   -15.6454     0.6128     1.4093 </r>
       <r>   -15.5696     1.3786     1.5137 </r>
       <r>   -15.4939     1.0690     1.5948 </r>
       <r>   -15.4181     0.9462     1.6665 </r>
       <r>   -15.3423     1.4556     1.7768 </r>
       <r>   -15.2665     0.8980     1.8448 </r>
       <r>   -15.1907     0.7068     1.8984 </r>
       <r>   -15.1149     1.8451     2.0382 </r>
       <r>   -15.0391     1.1737     2.1272 </r>
       <r>   -14.9634     1.2209     2.2197 </r>
       <r>   -14.8876     1.1118     2.3040 </r>
       <r>   -14.8118     1.6853     2.4317 </r>
       <r>   -14.7360     1.8017     2.5682 </r>
       <r>   -14.6602     1.2523     2.6631 </r>
       <r>   -14.5844     2.5377     2.8555 </r>
       <r>   -14.5086     1.0191     2.9327 </r>
       <r>   -14.4329     0.9351     3.0036 </r>
       <r>   -14.3571     1.4289     3.1118 </r>
       <r>   -14.2813     1.3224     3.2121 </r>
       <r>   -14.2055     1.4690     3.3234 </r>
       <r>   -14.1297     2.5028     3.5131 </r>
       <r>   -14.0539     1.0533     3.5929 </r>
       <r>   -13.9781     0.3843     3.6220 </r>
       <r>   -13.9024     0.9698     3.6955 </r>
       <r>   -13.8266     0.7779     3.7545 </r>
       <r>   -13.7508     1.1819     3.8440 </r>
       <r>   -13.6750     0.5885     3.8886 </r>
       <r>   -13.5992     0.1289     3.8984 </r>
       <r>   -13.5234     0.3242     3.9230 </r>
       <r>   -13.4476     0.3570     3.9500 </r>
       <r>   -13.3719     0.3550     3.9769 </r>
       <r>   -13.2961     0.1664     3.9895 </r>
       <r>   -13.2203     0.1379     4.0000 </r>
       <r>   -13.1445     0.0000     4.0000 </r>
       <r>   -13.0687     0.0002     4.0000 </r>
       <r>   -12.9929     0.1654     4.0125 </r>
       <r>   -12.9171     0.2879     4.0344 </r>
       <r>   -12.8413     0.0767     4.0402 </r>
       <r>   -12.7656     0.3460     4.0664 </r>
       <r>   -12.6898     0.4643     4.1016 </r>
       <r>   -12.6140     0.0028     4.1018 </r>
       <r>   -12.5382     1.3502     4.2041 </r>
       <r>   -12.4624     0.4854     4.2409 </r>
       <r>   -12.3866     0.6626     4.2911 </r>
       <r>   -12.3108     0.9475     4.3629 </r>
       <r>   -12.2351     0.5515     4.4047 </r>
       <r>   -12.1593     1.5007     4.5185 </r>
       <r>   -12.0835     2.2956     4.6924 </r>
       <r>   -12.0077     1.0128     4.7692 </r>
       <r>   -11.9319     0.9394     4.8404 </r>
       <r>   -11.8561     1.3745     4.9446 </r>
       <r>   -11.7803     1.3960     5.0504 </r>
       <r>   -11.7046     0.8949     5.1182 </r>
       <r>   -11.6288     2.5443     5.3110 </r>
       <r>   -11.5530     3.3985     5.5686 </r>
       <r>   -11.4772     1.2360     5.6622 </r>
       <r>   -11.4014     1.9515     5.8101 </r>
       <r>   -11.3256     0.3827     5.8391 </r>
       <r>   -11.2498     2.2312     6.0082 </r>
       <r>   -11.1741     0.1986     6.0233 </r>
       <r>   -11.0983     0.9411     6.0946 </r>
       <r>   -11.0225     1.9138     6.2396 </r>
       <r>   -10.9467     0.9765     6.3136 </r>
       <r>   -10.8709     0.3909     6.3433 </r>
       <r>   -10.7951     0.9796     6.4175 </r>
       <r>   -10.7193     1.4276     6.5257 </r>
       <r>   -10.6436     0.4358     6.5587 </r>
       <r>   -10.5678     0.0675     6.5638 </r>
       <r>   -10.4920     1.0047     6.6400 </r>
       <r>   -10.4162     1.6903     6.7681 </r>
       <r>   -10.3404     0.6707     6.8189 </r>
       <r>   -10.2646     0.2531     6.8381 </r>
       <r>   -10.1888     0.2748     6.8589 </r>
       <r>   -10.1130     1.0867     6.9413 </r>
       <r>   -10.0373     1.1038     7.0249 </r>
       <r>    -9.9615     0.3588     7.0521 </r>
       <r>    -9.8857     0.0244     7.0540 </r>
       <r>    -9.8099     0.2973     7.0765 </r>
       <r>    -9.7341     1.0809     7.1584 </r>
       <r>    -9.6583     1.6126     7.2806 </r>
       <r>    -9.5825     0.0251     7.2825 </r>
       <r>    -9.5068     0.0001     7.2825 </r>
       <r>    -9.4310     0.5099     7.3212 </r>
       <r>    -9.3552     0.1720     7.3342 </r>
       <r>    -9.2794     1.2591     7.4296 </r>
       <r>    -9.2036     0.5588     7.4720 </r>
       <r>    -9.1278     0.0135     7.4730 </r>
       <r>    -9.0520     0.6335     7.5210 </r>
       <r>    -8.9763     0.2040     7.5365 </r>
       <r>    -8.9005     0.2167     7.5529 </r>
       <r>    -8.8247     1.2789     7.6498 </r>
       <r>    -8.7489     0.1894     7.6642 </r>
       <r>    -8.6731     0.1583     7.6762 </r>
       <r>    -8.5973     0.0000     7.6762 </r>
       <r>    -8.5215     0.0127     7.6772 </r>
       <r>    -8.4458     1.2416     7.7713 </r>
       <r>    -8.3700     0.7369     7.8271 </r>
       <r>    -8.2942     0.0195     7.8286 </r>
       <r>    -8.2184     0.0013     7.8287 </r>
       <r>    -8.1426     0.7463     7.8852 </r>
       <r>    -8.0668     2.8085     8.0981 </r>
       <r>    -7.9910     2.3332     8.2749 </r>
       <r>    -7.9153     1.3177     8.3748 </r>
       <r>    -7.8395     3.2617     8.6219 </r>
       <r>    -7.7637     2.6780     8.8249 </r>
       <r>    -7.6879     1.2112     8.9167 </r>
       <r>    -7.6121     2.1070     9.0764 </r>
       <r>    -7.5363     1.5324     9.1925 </r>
       <r>    -7.4605     2.8420     9.4079 </r>
       <r>    -7.3847     2.2053     9.5750 </r>
       <r>    -7.3090     3.7948     9.8626 </r>
       <r>    -7.2332     3.5307    10.1302 </r>
       <r>    -7.1574     4.0853    10.4398 </r>
       <r>    -7.0816     2.2931    10.6136 </r>
       <r>    -7.0058     1.4367    10.7225 </r>
       <r>    -6.9300     0.9546    10.7948 </r>
       <r>    -6.8542     1.4442    10.9043 </r>
       <r>    -6.7785     1.1095    10.9884 </r>
       <r>    -6.7027     1.6792    11.1156 </r>
       <r>    -6.6269     1.7762    11.2502 </r>
       <r>    -6.5511     1.0171    11.3273 </r>
       <r>    -6.4753     1.6948    11.4557 </r>
       <r>    -6.3995     2.3102    11.6308 </r>
       <r>    -6.3237     0.9300    11.7013 </r>
       <r>    -6.2480     2.0365    11.8557 </r>
       <r>    -6.1722     2.3223    12.0316 </r>
       <r>    -6.0964     1.0081    12.1080 </r>
       <r>    -6.0206     1.6778    12.2352 </r>
       <r>    -5.9448     2.3486    12.4132 </r>
       <r>    -5.8690     1.9838    12.5635 </r>
       <r>    -5.7932     2.4759    12.7512 </r>
       <r>    -5.7175     2.4490    12.9368 </r>
       <r>    -5.6417     4.4888    13.2770 </r>
       <r>    -5.5659     4.0872    13.5867 </r>
       <r>    -5.4901     2.6963    13.7911 </r>
       <r>    -5.4143     4.5573    14.1364 </r>
       <r>    -5.3385     3.0603    14.3684 </r>
       <r>    -5.2627     3.6119    14.6421 </r>
       <r>    -5.1870     3.1001    14.8770 </r>
       <r>    -5.1112     2.4567    15.0632 </r>
       <r>    -5.0354     1.1061    15.1471 </r>
       <r>    -4.9596     2.0701    15.3039 </r>
       <r>    -4.8838     2.1627    15.4678 </r>
       <r>    -4.8080     1.1853    15.5577 </r>
       <r>    -4.7322     0.5674    15.6007 </r>
       <r>    -4.6564     1.1377    15.6869 </r>
       <r>    -4.5807     1.8702    15.8286 </r>
       <r>    -4.5049     1.0542    15.9085 </r>
       <r>    -4.4291     0.8238    15.9710 </r>
       <r>    -4.3533     1.1871    16.0609 </r>
       <r>    -4.2775     0.7147    16.1151 </r>
       <r>    -4.2017     2.6667    16.3172 </r>
       <r>    -4.1259     1.9610    16.4658 </r>
       <r>    -4.0502     3.0073    16.6937 </r>
       <r>    -3.9744     2.5152    16.8843 </r>
       <r>    -3.8986     1.9178    17.0297 </r>
       <r>    -3.8228     5.3692    17.4366 </r>
       <r>    -3.7470     4.4411    17.7732 </r>
       <r>    -3.6712     3.1673    18.0132 </r>
       <r>    -3.5954     2.8934    18.2325 </r>
       <r>    -3.5197     4.3177    18.5597 </r>
       <r>    -3.4439     3.4660    18.8224 </r>
       <r>    -3.3681     3.5715    19.0930 </r>
       <r>    -3.2923     3.6692    19.3711 </r>
       <r>    -3.2165     0.3678    19.3990 </r>
       <r>    -3.1407     1.3691    19.5027 </r>
       <r>    -3.0649     0.9980    19.5784 </r>
       <r>    -2.9892     1.1910    19.6686 </r>
       <r>    -2.9134     1.4582    19.7791 </r>
       <r>    -2.8376     0.3823    19.8081 </r>
       <r>    -2.7618     0.1982    19.8231 </r>
       <r>    -2.6860     0.3607    19.8505 </r>
       <r>    -2.6102     0.2742    19.8712 </r>
       <r>    -2.5344     1.0979    19.9544 </r>
       <r>    -2.4587     0.1654    19.9670 </r>
       <r>    -2.3829     0.3226    19.9914 </r>
       <r>    -2.3071     0.1130    20.0000 </r>
       <r>    -2.2313     0.0000    20.0000 </r>
       <r>    -2.1555     0.0000    20.0000 </r>
       <r>    -2.0797     0.0000    20.0000 </r>
       <r>    -2.0039     0.0000    20.0000 </r>
       <r>    -1.9281     0.0000    20.0000 </r>
       <r>    -1.8524     0.0000    20.0000 </r>
       <r>    -1.7766     0.0000    20.0000 </r>
       <r>    -1.7008     0.0000    20.0000 </r>
       <r>    -1.6250     0.0000    20.0000 </r>
       <r>    -1.5492     0.0000    20.0000 </r>
       <r>    -1.4734     0.0000    20.0000 </r>
       <r>    -1.3976     0.0000    20.0000 </r>
       <r>    -1.3219     0.1166    20.0088 </r>
       <r>    -1.2461     0.1984    20.0239 </r>
       <r>    -1.1703     0.5356    20.0645 </r>
       <r>    -1.0945     2.1406    20.2267 </r>
       <r>    -1.0187     2.1930    20.3929 </r>
       <r>    -0.9429     1.6433    20.5174 </r>
       <r>    -0.8671     1.7835    20.6526 </r>
       <r>    -0.7914     2.4069    20.8350 </r>
       <r>    -0.7156     2.0335    20.9891 </r>
       <r>    -0.6398     2.4878    21.1776 </r>
       <r>    -0.5640     2.9521    21.4014 </r>
       <r>    -0.4882     3.6375    21.6770 </r>
       <r>    -0.4124     2.3225    21.8531 </r>
       <r>    -0.3366     2.9000    22.0728 </r>
       <r>    -0.2609     3.0893    22.3070 </r>
       <r>    -0.1851     2.8346    22.5218 </r>
       <r>    -0.1093     2.2082    22.6891 </r>
       <r>    -0.0335     2.4859    22.8775 </r>
       <r>     0.0423     3.5525    23.1468 </r>
       <r>     0.1181     4.7065    23.5034 </r>
       <r>     0.1939     3.7582    23.7883 </r>
       <r>     0.2696     5.2749    24.1880 </r>
       <r>     0.3454     3.3362    24.4409 </r>
       <r>     0.4212     3.9951    24.7436 </r>
       <r>     0.4970     3.8258    25.0336 </r>
       <r>     0.5728     4.0701    25.3420 </r>
       <r>     0.6486     5.1049    25.7289 </r>
       <r>     0.7244     2.7788    25.9395 </r>
       <r>     0.8001     3.4746    26.2028 </r>
       <r>     0.8759     5.0777    26.5877 </r>
       <r>     0.9517     0.6687    26.6383 </r>
       <r>     1.0275     1.9741    26.7880 </r>
       <r>     1.1033     3.3086    27.0387 </r>
       <r>     1.1791     2.8985    27.2584 </r>
       <r>     1.2549     2.6585    27.4598 </r>
       <r>     1.3307     2.3549    27.6383 </r>
       <r>     1.4064     1.4365    27.7472 </r>
       <r>     1.4822     2.3189    27.9229 </r>
       <r>     1.5580     2.5933    28.1195 </r>
       <r>     1.6338     2.7799    28.3301 </r>
       <r>     1.7096     2.1580    28.4937 </r>
       <r>     1.7854     2.5221    28.6848 </r>
       <r>     1.8612     2.2471    28.8551 </r>
       <r>     1.9369     1.8895    28.9983 </r>
       <r>     2.0127     1.1191    29.0831 </r>
       <r>     2.0885     1.9237    29.2289 </r>
       <r>     2.1643     2.7815    29.4397 </r>
       <r>     2.2401     3.3461    29.6933 </r>
       <r>     2.3159     1.4599    29.8039 </r>
       <r>     2.3917     3.6520    30.0807 </r>
       <r>     2.4674     2.5318    30.2726 </r>
       <r>     2.5432     3.9035    30.5684 </r>
       <r>     2.6190     3.3973    30.8259 </r>
       <r>     2.6948     1.2898    30.9236 </r>
       <r>     2.7706     2.1133    31.0838 </r>
       <r>     2.8464     1.9534    31.2318 </r>
       <r>     2.9222     2.2026    31.3988 </r>
       <r>     2.9979     1.1793    31.4881 </r>
       <r>     3.0737     1.6543    31.6135 </r>
       <r>     3.1495     1.4438    31.7229 </r>
       <r>     3.2253     1.6541    31.8483 </r>
       <r>     3.3011     0.7000    31.9013 </r>
       <r>     3.3769     0.7585    31.9588 </r>
       <r>     3.4527     0.2167    31.9753 </r>
       <r>     3.5284     0.3264    32.0000 </r>
       <r>     3.6042     0.0001    32.0000 </r>
       <r>     3.6800     0.0000    32.0000 </r>
       <r>     3.7558     0.0000    32.0000 </r>
       <r>     3.8316     0.0000    32.0000 </r>
       <r>     3.9074     0.0000    32.0000 </r>
       <r>     3.9832     0.0000    32.0000 </r>
       <r>     4.0590     0.0000    32.0000 </r>
       <r>     4.1347     0.0000    32.0000 </r>
       <r>     4.2105     0.0000    32.0000 </r>
       <r>     4.2863     0.0000    32.0000 </r>
       <r>     4.3621     0.0000    32.0000 </r>
       <r>     4.4379     0.0000    32.0000 </r>
       <r>     4.5137     0.0000    32.0000 </r>
      </set>
     </set>
    </array>
   </total>
  </dos>
 </calculation>
 <structure name="finalpos" >
  <crystal>
   <varray name="basis" >
    <v>       3.34629700       0.00000000       0.00000000 </v>
    <v>       0.00000000       4.69218900      -0.00005300 </v>
    <v>       0.00000000       0.00000000      20.02439000 </v>
   </varray>
   <i name="volume">    314.41211804 </i>
   <varray name="rec_basis" >
    <v>       0.29883779       0.00000000       0.00000000 </v>
    <v>       0.00000000       0.21312014       0.00000000 </v>
    <v>       0.00000000       0.00000056       0.04993910 </v>
   </varray>
  </crystal>
  <varray name="positions" >
   <v>       0.50000000       0.90792087       0.55216182 </v>
   <v>       0.50000000       0.09207913       0.44783818 </v>
   <v>       0.00000000       0.40791629       0.44783818 </v>
   <v>      -0.00000000       0.59208371       0.55216182 </v>
  </varray>
 </structure>
</modeling>
