<?xml version="1.0" encoding="ISO-8859-1"?>
<modeling>
 <generator>
  <i name="program" type="string">vasp </i>
  <i name="version" type="string">5.4.1  </i>
  <i name="subversion" type="string">24Jun15 (build Nov 20 2020 10:29:34) complex                          parallel </i>
  <i name="platform" type="string">IFC91_ompi </i>
  <i name="date" type="string">2021 09 09 </i>
  <i name="time" type="string">13:43:14 </i>
 </generator>
 <incar>
  <i type="string" name="PREC">a</i>
  <i type="string" name="ALGO"> Normal</i>
  <i type="int" name="ISPIN">     1</i>
  <i type="int" name="ICHARG">     2</i>
  <i type="int" name="NELM">   250</i>
  <i type="int" name="NELMDL">    -5</i>
  <i type="int" name="NELMIN">     6</i>
  <i type="int" name="IBRION">     2</i>
  <i name="EDIFF">      0.00001000</i>
  <i name="EDIFFG">     -0.01000000</i>
  <i type="int" name="NSW">   200</i>
  <i type="int" name="ISIF">     2</i>
  <i name="ENCUT">    520.00000000</i>
  <i name="POTIM">      0.30000000</i>
  <i type="logical" name="LREAL"> F  </i>
  <i type="int" name="ISMEAR">     0</i>
  <i name="SIGMA">      0.02000000</i>
  <i type="logical" name="LWAVE"> F  </i>
  <i type="logical" name="LCHARG"> F  </i>
  <i type="logical" name="LAECHG"> F  </i>
  <v type="int" name="KPOINT_BSE">    -1     0     0     0</v>
  <i type="int" name="NELM">   250</i>
 </incar>
 <kpoints>
  <generation param="Gamma">
   <v type="int" name="divisions">      22       15        1 </v>
   <v name="usershift">      0.00000000       0.00000000       0.00000000 </v>
   <v name="genvec1">      0.04545455      -0.00000000       0.00000000 </v>
   <v name="genvec2">      0.00000000       0.06666667       0.00000000 </v>
   <v name="genvec3">     -0.00000000       0.00000000       1.00000000 </v>
   <v name="shift">      0.00000000       0.00000000       0.00000000 </v>
  </generation>
  <varray name="kpointlist" >
   <v>       0.00000000       0.00000000       0.00000000 </v>
   <v>       0.04545455       0.00000000       0.00000000 </v>
   <v>       0.09090909       0.00000000       0.00000000 </v>
   <v>       0.13636364       0.00000000       0.00000000 </v>
   <v>       0.18181818       0.00000000       0.00000000 </v>
   <v>       0.22727273       0.00000000       0.00000000 </v>
   <v>       0.27272727       0.00000000       0.00000000 </v>
   <v>       0.31818182       0.00000000       0.00000000 </v>
   <v>       0.36363636       0.00000000       0.00000000 </v>
   <v>       0.40909091       0.00000000       0.00000000 </v>
   <v>       0.45454545       0.00000000       0.00000000 </v>
   <v>       0.50000000       0.00000000       0.00000000 </v>
   <v>       0.00000000       0.06666667       0.00000000 </v>
   <v>       0.04545455       0.06666667       0.00000000 </v>
   <v>       0.09090909       0.06666667       0.00000000 </v>
   <v>       0.13636364       0.06666667       0.00000000 </v>
   <v>       0.18181818       0.06666667       0.00000000 </v>
   <v>       0.22727273       0.06666667       0.00000000 </v>
   <v>       0.27272727       0.06666667       0.00000000 </v>
   <v>       0.31818182       0.06666667       0.00000000 </v>
   <v>       0.36363636       0.06666667       0.00000000 </v>
   <v>       0.40909091       0.06666667       0.00000000 </v>
   <v>       0.45454545       0.06666667       0.00000000 </v>
   <v>       0.50000000       0.06666667       0.00000000 </v>
   <v>      -0.45454545       0.06666667       0.00000000 </v>
   <v>      -0.40909091       0.06666667       0.00000000 </v>
   <v>      -0.36363636       0.06666667       0.00000000 </v>
   <v>      -0.31818182       0.06666667       0.00000000 </v>
   <v>      -0.27272727       0.06666667       0.00000000 </v>
   <v>      -0.22727273       0.06666667       0.00000000 </v>
   <v>      -0.18181818       0.06666667       0.00000000 </v>
   <v>      -0.13636364       0.06666667       0.00000000 </v>
   <v>      -0.09090909       0.06666667       0.00000000 </v>
   <v>      -0.04545455       0.06666667       0.00000000 </v>
   <v>       0.00000000       0.13333333       0.00000000 </v>
   <v>       0.04545455       0.13333333       0.00000000 </v>
   <v>       0.09090909       0.13333333       0.00000000 </v>
   <v>       0.13636364       0.13333333       0.00000000 </v>
   <v>       0.18181818       0.13333333       0.00000000 </v>
   <v>       0.22727273       0.13333333       0.00000000 </v>
   <v>       0.27272727       0.13333333       0.00000000 </v>
   <v>       0.31818182       0.13333333       0.00000000 </v>
   <v>       0.36363636       0.13333333       0.00000000 </v>
   <v>       0.40909091       0.13333333       0.00000000 </v>
   <v>       0.45454545       0.13333333       0.00000000 </v>
   <v>       0.50000000       0.13333333       0.00000000 </v>
   <v>      -0.45454545       0.13333333       0.00000000 </v>
   <v>      -0.40909091       0.13333333       0.00000000 </v>
   <v>      -0.36363636       0.13333333       0.00000000 </v>
   <v>      -0.31818182       0.13333333       0.00000000 </v>
   <v>      -0.27272727       0.13333333       0.00000000 </v>
   <v>      -0.22727273       0.13333333       0.00000000 </v>
   <v>      -0.18181818       0.13333333       0.00000000 </v>
   <v>      -0.13636364       0.13333333       0.00000000 </v>
   <v>      -0.09090909       0.13333333       0.00000000 </v>
   <v>      -0.04545455       0.13333333       0.00000000 </v>
   <v>       0.00000000       0.20000000       0.00000000 </v>
   <v>       0.04545455       0.20000000       0.00000000 </v>
   <v>       0.09090909       0.20000000       0.00000000 </v>
   <v>       0.13636364       0.20000000       0.00000000 </v>
   <v>       0.18181818       0.20000000       0.00000000 </v>
   <v>       0.22727273       0.20000000       0.00000000 </v>
   <v>       0.27272727       0.20000000       0.00000000 </v>
   <v>       0.31818182       0.20000000       0.00000000 </v>
   <v>       0.36363636       0.20000000       0.00000000 </v>
   <v>       0.40909091       0.20000000       0.00000000 </v>
   <v>       0.45454545       0.20000000       0.00000000 </v>
   <v>       0.50000000       0.20000000       0.00000000 </v>
   <v>      -0.45454545       0.20000000       0.00000000 </v>
   <v>      -0.40909091       0.20000000       0.00000000 </v>
   <v>      -0.36363636       0.20000000       0.00000000 </v>
   <v>      -0.31818182       0.20000000       0.00000000 </v>
   <v>      -0.27272727       0.20000000       0.00000000 </v>
   <v>      -0.22727273       0.20000000       0.00000000 </v>
   <v>      -0.18181818       0.20000000       0.00000000 </v>
   <v>      -0.13636364       0.20000000       0.00000000 </v>
   <v>      -0.09090909       0.20000000       0.00000000 </v>
   <v>      -0.04545455       0.20000000       0.00000000 </v>
   <v>       0.00000000       0.26666667       0.00000000 </v>
   <v>       0.04545455       0.26666667       0.00000000 </v>
   <v>       0.09090909       0.26666667       0.00000000 </v>
   <v>       0.13636364       0.26666667       0.00000000 </v>
   <v>       0.18181818       0.26666667       0.00000000 </v>
   <v>       0.22727273       0.26666667       0.00000000 </v>
   <v>       0.27272727       0.26666667       0.00000000 </v>
   <v>       0.31818182       0.26666667       0.00000000 </v>
   <v>       0.36363636       0.26666667       0.00000000 </v>
   <v>       0.40909091       0.26666667       0.00000000 </v>
   <v>       0.45454545       0.26666667       0.00000000 </v>
   <v>       0.50000000       0.26666667       0.00000000 </v>
   <v>      -0.45454545       0.26666667       0.00000000 </v>
   <v>      -0.40909091       0.26666667       0.00000000 </v>
   <v>      -0.36363636       0.26666667       0.00000000 </v>
   <v>      -0.31818182       0.26666667       0.00000000 </v>
   <v>      -0.27272727       0.26666667       0.00000000 </v>
   <v>      -0.22727273       0.26666667       0.00000000 </v>
   <v>      -0.18181818       0.26666667       0.00000000 </v>
   <v>      -0.13636364       0.26666667       0.00000000 </v>
   <v>      -0.09090909       0.26666667       0.00000000 </v>
   <v>      -0.04545455       0.26666667       0.00000000 </v>
   <v>       0.00000000       0.33333333       0.00000000 </v>
   <v>       0.04545455       0.33333333       0.00000000 </v>
   <v>       0.09090909       0.33333333       0.00000000 </v>
   <v>       0.13636364       0.33333333       0.00000000 </v>
   <v>       0.18181818       0.33333333       0.00000000 </v>
   <v>       0.22727273       0.33333333       0.00000000 </v>
   <v>       0.27272727       0.33333333       0.00000000 </v>
   <v>       0.31818182       0.33333333       0.00000000 </v>
   <v>       0.36363636       0.33333333       0.00000000 </v>
   <v>       0.40909091       0.33333333       0.00000000 </v>
   <v>       0.45454545       0.33333333       0.00000000 </v>
   <v>       0.50000000       0.33333333       0.00000000 </v>
   <v>      -0.45454545       0.33333333       0.00000000 </v>
   <v>      -0.40909091       0.33333333       0.00000000 </v>
   <v>      -0.36363636       0.33333333       0.00000000 </v>
   <v>      -0.31818182       0.33333333       0.00000000 </v>
   <v>      -0.27272727       0.33333333       0.00000000 </v>
   <v>      -0.22727273       0.33333333       0.00000000 </v>
   <v>      -0.18181818       0.33333333       0.00000000 </v>
   <v>      -0.13636364       0.33333333       0.00000000 </v>
   <v>      -0.09090909       0.33333333       0.00000000 </v>
   <v>      -0.04545455       0.33333333       0.00000000 </v>
   <v>       0.00000000       0.40000000       0.00000000 </v>
   <v>       0.04545455       0.40000000       0.00000000 </v>
   <v>       0.09090909       0.40000000       0.00000000 </v>
   <v>       0.13636364       0.40000000       0.00000000 </v>
   <v>       0.18181818       0.40000000       0.00000000 </v>
   <v>       0.22727273       0.40000000       0.00000000 </v>
   <v>       0.27272727       0.40000000       0.00000000 </v>
   <v>       0.31818182       0.40000000       0.00000000 </v>
   <v>       0.36363636       0.40000000       0.00000000 </v>
   <v>       0.40909091       0.40000000       0.00000000 </v>
   <v>       0.45454545       0.40000000       0.00000000 </v>
   <v>       0.50000000       0.40000000       0.00000000 </v>
   <v>      -0.45454545       0.40000000       0.00000000 </v>
   <v>      -0.40909091       0.40000000       0.00000000 </v>
   <v>      -0.36363636       0.40000000       0.00000000 </v>
   <v>      -0.31818182       0.40000000       0.00000000 </v>
   <v>      -0.27272727       0.40000000       0.00000000 </v>
   <v>      -0.22727273       0.40000000       0.00000000 </v>
   <v>      -0.18181818       0.40000000       0.00000000 </v>
   <v>      -0.13636364       0.40000000       0.00000000 </v>
   <v>      -0.09090909       0.40000000       0.00000000 </v>
   <v>      -0.04545455       0.40000000       0.00000000 </v>
   <v>      -0.00000000       0.46666667       0.00000000 </v>
   <v>       0.04545455       0.46666667       0.00000000 </v>
   <v>       0.09090909       0.46666667       0.00000000 </v>
   <v>       0.13636364       0.46666667       0.00000000 </v>
   <v>       0.18181818       0.46666667       0.00000000 </v>
   <v>       0.22727273       0.46666667       0.00000000 </v>
   <v>       0.27272727       0.46666667       0.00000000 </v>
   <v>       0.31818182       0.46666667       0.00000000 </v>
   <v>       0.36363636       0.46666667       0.00000000 </v>
   <v>       0.40909091       0.46666667       0.00000000 </v>
   <v>       0.45454545       0.46666667       0.00000000 </v>
   <v>       0.50000000       0.46666667       0.00000000 </v>
   <v>      -0.45454545       0.46666667       0.00000000 </v>
   <v>      -0.40909091       0.46666667       0.00000000 </v>
   <v>      -0.36363636       0.46666667       0.00000000 </v>
   <v>      -0.31818182       0.46666667       0.00000000 </v>
   <v>      -0.27272727       0.46666667       0.00000000 </v>
   <v>      -0.22727273       0.46666667       0.00000000 </v>
   <v>      -0.18181818       0.46666667       0.00000000 </v>
   <v>      -0.13636364       0.46666667       0.00000000 </v>
   <v>      -0.09090909       0.46666667       0.00000000 </v>
   <v>      -0.04545455       0.46666667       0.00000000 </v>
  </varray>
  <varray name="weights" >
   <v>       0.00303030 </v>
   <v>       0.00606061 </v>
   <v>       0.00606061 </v>
   <v>       0.00606061 </v>
   <v>       0.00606061 </v>
   <v>       0.00606061 </v>
   <v>       0.00606061 </v>
   <v>       0.00606061 </v>
   <v>       0.00606061 </v>
   <v>       0.00606061 </v>
   <v>       0.00606061 </v>
   <v>       0.00303030 </v>
   <v>       0.00606061 </v>
   <v>       0.00606061 </v>
   <v>       0.00606061 </v>
   <v>       0.00606061 </v>
   <v>       0.00606061 </v>
   <v>       0.00606061 </v>
   <v>       0.00606061 </v>
   <v>       0.00606061 </v>
   <v>       0.00606061 </v>
   <v>       0.00606061 </v>
   <v>       0.00606061 </v>
   <v>       0.00606061 </v>
   <v>       0.00606061 </v>
   <v>       0.00606061 </v>
   <v>       0.00606061 </v>
   <v>       0.00606061 </v>
   <v>       0.00606061 </v>
   <v>       0.00606061 </v>
   <v>       0.00606061 </v>
   <v>       0.00606061 </v>
   <v>       0.00606061 </v>
   <v>       0.00606061 </v>
   <v>       0.00606061 </v>
   <v>       0.00606061 </v>
   <v>       0.00606061 </v>
   <v>       0.00606061 </v>
   <v>       0.00606061 </v>
   <v>       0.00606061 </v>
   <v>       0.00606061 </v>
   <v>       0.00606061 </v>
   <v>       0.00606061 </v>
   <v>       0.00606061 </v>
   <v>       0.00606061 </v>
   <v>       0.00606061 </v>
   <v>       0.00606061 </v>
   <v>       0.00606061 </v>
   <v>       0.00606061 </v>
   <v>       0.00606061 </v>
   <v>       0.00606061 </v>
   <v>       0.00606061 </v>
   <v>       0.00606061 </v>
   <v>       0.00606061 </v>
   <v>       0.00606061 </v>
   <v>       0.00606061 </v>
   <v>       0.00606061 </v>
   <v>       0.00606061 </v>
   <v>       0.00606061 </v>
   <v>       0.00606061 </v>
   <v>       0.00606061 </v>
   <v>       0.00606061 </v>
   <v>       0.00606061 </v>
   <v>       0.00606061 </v>
   <v>       0.00606061 </v>
   <v>       0.00606061 </v>
   <v>       0.00606061 </v>
   <v>       0.00606061 </v>
   <v>       0.00606061 </v>
   <v>       0.00606061 </v>
   <v>       0.00606061 </v>
   <v>       0.00606061 </v>
   <v>       0.00606061 </v>
   <v>       0.00606061 </v>
   <v>       0.00606061 </v>
   <v>       0.00606061 </v>
   <v>       0.00606061 </v>
   <v>       0.00606061 </v>
   <v>       0.00606061 </v>
   <v>       0.00606061 </v>
   <v>       0.00606061 </v>
   <v>       0.00606061 </v>
   <v>       0.00606061 </v>
   <v>       0.00606061 </v>
   <v>       0.00606061 </v>
   <v>       0.00606061 </v>
   <v>       0.00606061 </v>
   <v>       0.00606061 </v>
   <v>       0.00606061 </v>
   <v>       0.00606061 </v>
   <v>       0.00606061 </v>
   <v>       0.00606061 </v>
   <v>       0.00606061 </v>
   <v>       0.00606061 </v>
   <v>       0.00606061 </v>
   <v>       0.00606061 </v>
   <v>       0.00606061 </v>
   <v>       0.00606061 </v>
   <v>       0.00606061 </v>
   <v>       0.00606061 </v>
   <v>       0.00606061 </v>
   <v>       0.00606061 </v>
   <v>       0.00606061 </v>
   <v>       0.00606061 </v>
   <v>       0.00606061 </v>
   <v>       0.00606061 </v>
   <v>       0.00606061 </v>
   <v>       0.00606061 </v>
   <v>       0.00606061 </v>
   <v>       0.00606061 </v>
   <v>       0.00606061 </v>
   <v>       0.00606061 </v>
   <v>       0.00606061 </v>
   <v>       0.00606061 </v>
   <v>       0.00606061 </v>
   <v>       0.00606061 </v>
   <v>       0.00606061 </v>
   <v>       0.00606061 </v>
   <v>       0.00606061 </v>
   <v>       0.00606061 </v>
   <v>       0.00606061 </v>
   <v>       0.00606061 </v>
   <v>       0.00606061 </v>
   <v>       0.00606061 </v>
   <v>       0.00606061 </v>
   <v>       0.00606061 </v>
   <v>       0.00606061 </v>
   <v>       0.00606061 </v>
   <v>       0.00606061 </v>
   <v>       0.00606061 </v>
   <v>       0.00606061 </v>
   <v>       0.00606061 </v>
   <v>       0.00606061 </v>
   <v>       0.00606061 </v>
   <v>       0.00606061 </v>
   <v>       0.00606061 </v>
   <v>       0.00606061 </v>
   <v>       0.00606061 </v>
   <v>       0.00606061 </v>
   <v>       0.00606061 </v>
   <v>       0.00606061 </v>
   <v>       0.00606061 </v>
   <v>       0.00606061 </v>
   <v>       0.00606061 </v>
   <v>       0.00606061 </v>
   <v>       0.00606061 </v>
   <v>       0.00606061 </v>
   <v>       0.00606061 </v>
   <v>       0.00606061 </v>
   <v>       0.00606061 </v>
   <v>       0.00606061 </v>
   <v>       0.00606061 </v>
   <v>       0.00606061 </v>
   <v>       0.00606061 </v>
   <v>       0.00606061 </v>
   <v>       0.00606061 </v>
   <v>       0.00606061 </v>
   <v>       0.00606061 </v>
   <v>       0.00606061 </v>
   <v>       0.00606061 </v>
   <v>       0.00606061 </v>
   <v>       0.00606061 </v>
   <v>       0.00606061 </v>
   <v>       0.00606061 </v>
   <v>       0.00606061 </v>
   <v>       0.00606061 </v>
  </varray>
 </kpoints>
 <parameters>
  <separator name="general" >
   <i type="string" name="SYSTEM">unknown system</i>
   <i type="logical" name="LCOMPAT"> F  </i>
  </separator>
  <separator name="electronic" >
   <i type="string" name="PREC">a</i>
   <i name="ENMAX">    520.00000000</i>
   <i name="ENAUG">    342.92400000</i>
   <i name="EDIFF">      0.00001000</i>
   <i type="int" name="IALGO">    38</i>
   <i type="int" name="IWAVPR">    11</i>
   <i type="int" name="NBANDS">    16</i>
   <i name="NELECT">     20.00000000</i>
   <i type="int" name="TURBO">     0</i>
   <i type="int" name="IRESTART">     0</i>
   <i type="int" name="NREBOOT">     0</i>
   <i type="int" name="NMIN">     0</i>
   <i name="EREF">      0.00000000</i>
   <separator name="electronic smearing" >
    <i type="int" name="ISMEAR">     0</i>
    <i name="SIGMA">      0.02000000</i>
    <i name="KSPACING">      0.50000000</i>
    <i type="logical" name="KGAMMA"> T  </i>
   </separator>
   <separator name="electronic projectors" >
    <i type="logical" name="LREAL"> F  </i>
    <v name="ROPT">      0.00000000</v>
    <i type="int" name="LMAXPAW">  -100</i>
    <i type="int" name="LMAXMIX">     2</i>
    <i type="logical" name="NLSPLINE"> F  </i>
   </separator>
   <separator name="electronic startup" >
    <i type="int" name="ISTART">     0</i>
    <i type="int" name="ICHARG">     2</i>
    <i type="int" name="INIWAV">     1</i>
   </separator>
   <separator name="electronic spin" >
    <i type="int" name="ISPIN">     1</i>
    <i type="logical" name="LNONCOLLINEAR"> F  </i>
    <v name="MAGMOM">      1.00000000      1.00000000      1.00000000      1.00000000</v>
    <i name="NUPDOWN">     -1.00000000</i>
    <i type="logical" name="LSORBIT"> F  </i>
    <v name="SAXIS">      0.00000000      0.00000000      1.00000000</v>
    <i type="logical" name="LSPIRAL"> F  </i>
    <v name="QSPIRAL">      0.00000000      0.00000000      0.00000000</v>
    <i type="logical" name="LZEROZ"> F  </i>
   </separator>
   <separator name="electronic exchange-correlation" >
    <i type="logical" name="LASPH"> F  </i>
    <i type="logical" name="LMETAGGA"> F  </i>
   </separator>
   <separator name="electronic convergence" >
    <i type="int" name="NELM">   250</i>
    <i type="int" name="NELMDL">    -5</i>
    <i type="int" name="NELMIN">     6</i>
    <i name="ENINI">    520.00000000</i>
    <separator name="electronic convergence detail" >
     <i type="logical" name="LDIAG"> T  </i>
     <i type="logical" name="LSUBROT"> F  </i>
     <i name="WEIMIN">      0.00100000</i>
     <i name="EBREAK">      0.00000016</i>
     <i name="DEPER">      0.30000000</i>
     <i type="int" name="NRMM">     4</i>
     <i name="TIME">      0.40000000</i>
    </separator>
   </separator>
   <separator name="electronic mixer" >
    <i name="AMIX">      0.40000000</i>
    <i name="BMIX">      1.00000000</i>
    <i name="AMIN">      0.10000000</i>
    <i name="AMIX_MAG">      1.60000000</i>
    <i name="BMIX_MAG">      1.00000000</i>
    <separator name="electronic mixer details" >
     <i type="int" name="IMIX">     4</i>
     <i type="logical" name="MIXFIRST"> F  </i>
     <i type="int" name="MAXMIX">   -45</i>
     <i name="WC">    100.00000000</i>
     <i type="int" name="INIMIX">     1</i>
     <i type="int" name="MIXPRE">     1</i>
     <i type="int" name="MREMOVE">     5</i>
    </separator>
   </separator>
   <separator name="electronic dipolcorrection" >
    <i type="logical" name="LDIPOL"> F  </i>
    <i type="logical" name="LMONO"> F  </i>
    <i type="int" name="IDIPOL">     0</i>
    <i name="EPSILON">      1.00000000</i>
    <v name="DIPOL">   -100.00000000   -100.00000000   -100.00000000</v>
    <i name="EFIELD">      0.00000000</i>
   </separator>
  </separator>
  <separator name="grids" >
   <i type="int" name="NGX">    24</i>
   <i type="int" name="NGY">    36</i>
   <i type="int" name="NGZ">   150</i>
   <i type="int" name="NGXF">    48</i>
   <i type="int" name="NGYF">    72</i>
   <i type="int" name="NGZF">   300</i>
   <i type="logical" name="ADDGRID"> F  </i>
  </separator>
  <separator name="ionic" >
   <i type="int" name="NSW">   200</i>
   <i type="int" name="IBRION">     2</i>
   <i type="int" name="ISIF">     2</i>
   <i name="PSTRESS">      0.00000000</i>
   <i name="EDIFFG">     -0.01000000</i>
   <i type="int" name="NFREE">     1</i>
   <i name="POTIM">      0.30000000</i>
   <i name="SMASS">     -3.00000000</i>
   <i name="SCALEE">      1.00000000</i>
  </separator>
  <separator name="ionic md" >
   <i name="TEBEG">      0.00010000</i>
   <i name="TEEND">      0.00010000</i>
   <i type="int" name="NBLOCK">     1</i>
   <i type="int" name="KBLOCK">   200</i>
   <i type="int" name="NPACO">   256</i>
   <i name="APACO">     16.00000000</i>
  </separator>
  <separator name="symmetry" >
   <i type="int" name="ISYM">     2</i>
   <i name="SYMPREC">      0.00001000</i>
  </separator>
  <separator name="dos" >
   <i type="logical" name="LORBIT"> F  </i>
   <v name="RWIGS">     -1.00000000</v>
   <i type="int" name="NEDOS">   301</i>
   <i name="EMIN">     10.00000000</i>
   <i name="EMAX">    -10.00000000</i>
   <i name="EFERMI">      0.00000000</i>
  </separator>
  <separator name="writing" >
   <i type="int" name="NWRITE">     2</i>
   <i type="logical" name="LWAVE"> F  </i>
   <i type="logical" name="LCHARG"> F  </i>
   <i type="logical" name="LPARD"> F  </i>
   <i type="logical" name="LVTOT"> F  </i>
   <i type="logical" name="LVHAR"> F  </i>
   <i type="logical" name="LELF"> F  </i>
   <i type="logical" name="LOPTICS"> F  </i>
   <v name="STM">      0.00000000      0.00000000      0.00000000      0.00000000      0.00000000      0.00000000      0.00000000</v>
  </separator>
  <separator name="performance" >
   <i type="int" name="NPAR">     4</i>
   <i type="int" name="NSIM">     4</i>
   <i type="int" name="NBLK">    -1</i>
   <i type="logical" name="LPLANE"> T  </i>
   <i type="logical" name="LSCALAPACK"> T  </i>
   <i type="logical" name="LSCAAWARE"> F  </i>
   <i type="logical" name="LSCALU"> F  </i>
   <i type="logical" name="LASYNC"> F  </i>
   <i type="logical" name="LORBITALREAL"> F  </i>
  </separator>
  <separator name="miscellaneous" >
   <i type="int" name="IDIOT">     3</i>
   <i type="logical" name="LMUSIC"> F  </i>
   <v name="POMASS">     30.97400000</v>
   <v name="DARWINR">      0.00000000</v>
   <v name="DARWINV">      1.00000000</v>
   <i type="logical" name="LCORR"> T  </i>
  </separator>
  <i type="logical" name="GGA_COMPAT"> T  </i>
  <i type="logical" name="LBERRY"> F  </i>
  <i type="int" name="ICORELEVEL">     0</i>
  <i type="logical" name="LDAU"> F  </i>
  <i type="int" name="I_CONSTRAINED_M">     0</i>
  <separator name="electronic exchange-correlation" >
   <i type="string" name="GGA">--</i>
   <i type="int" name="VOSKOWN">     0</i>
   <i type="logical" name="LHFCALC"> F  </i>
   <i type="string" name="PRECFOCK"></i>
   <i type="logical" name="LSYMGRAD"> F  </i>
   <i type="logical" name="LHFONE"> F  </i>
   <i type="logical" name="LRHFCALC"> F  </i>
   <i type="logical" name="LTHOMAS"> F  </i>
   <i type="logical" name="LMODELHF"> F  </i>
   <i name="ENCUT4O">     -1.00000000</i>
   <i type="int" name="EXXOEP">     0</i>
   <i type="int" name="FOURORBIT">     0</i>
   <i name="AEXX">      0.00000000</i>
   <i name="HFALPHA">      0.00000000</i>
   <i name="MCALPHA">      0.00000000</i>
   <i name="ALDAX">      1.00000000</i>
   <i name="AGGAX">      1.00000000</i>
   <i name="ALDAC">      1.00000000</i>
   <i name="AGGAC">      1.00000000</i>
   <i type="int" name="NKREDX">     1</i>
   <i type="int" name="NKREDY">     1</i>
   <i type="int" name="NKREDZ">     1</i>
   <i type="logical" name="SHIFTRED"> F  </i>
   <i type="logical" name="ODDONLY"> F  </i>
   <i type="logical" name="EVENONLY"> F  </i>
   <i type="int" name="LMAXFOCK">     0</i>
   <i type="int" name="NMAXFOCKAE">     0</i>
   <i type="logical" name="LFOCKAEDFT"> F  </i>
   <i name="HFSCREEN">      0.00000000</i>
   <i name="HFSCREENC">      0.00000000</i>
   <i type="int" name="NBANDSGWLOW">     0</i>
  </separator>
  <separator name="vdW DFT" >
   <i type="logical" name="LUSE_VDW"> F  </i>
   <i name="Zab_VDW">     -0.84910000</i>
   <i name="PARAM1">      0.12340000</i>
   <i name="PARAM2">      1.00000000</i>
   <i name="PARAM3">      0.00000000</i>
  </separator>
  <separator name="model GW" >
   <i type="int" name="MODEL_GW">     0</i>
   <i name="MODEL_EPS0">     45.61484182</i>
   <i name="MODEL_ALPHA">      1.00000000</i>
  </separator>
  <separator name="linear response parameters" >
   <i type="logical" name="LEPSILON"> F  </i>
   <i type="logical" name="LRPA"> F  </i>
   <i type="logical" name="LNABLA"> F  </i>
   <i type="logical" name="LVEL"> F  </i>
   <i type="int" name="KINTER">     0</i>
   <i name="CSHIFT">      0.10000000</i>
   <i name="OMEGAMAX">     -1.00000000</i>
   <i name="DEG_THRESHOLD">      0.00200000</i>
  </separator>
  <separator name="orbital magnetization" >
   <i type="logical" name="NUCIND"> F  </i>
   <v name="MAGPOS">      0.00000000      0.00000000      0.00000000</v>
   <i type="logical" name="LNICSALL"> T  </i>
   <i type="logical" name="ORBITALMAG"> F  </i>
   <i type="logical" name="LMAGBLOCH"> F  </i>
   <i type="logical" name="LCHIMAG"> F  </i>
   <i type="logical" name="LGAUGE"> T  </i>
   <i type="int" name="MAGATOM">     0</i>
   <v name="MAGDIPOL">      0.00000000      0.00000000      0.00000000</v>
   <v name="AVECCONST">      0.00000000      0.00000000      0.00000000</v>
  </separator>
  <separator name="response functions" >
   <i type="logical" name="LADDER"> F  </i>
   <i type="logical" name="LFXC"> F  </i>
   <i type="logical" name="LHARTREE"> T  </i>
   <i type="int" name="IBSE">     0</i>
   <v type="int" name="KPOINT">    -1     0     0     0</v>
   <i type="logical" name="LTCTE"> F  </i>
   <i type="logical" name="LTETE"> F  </i>
   <i type="logical" name="LTRIPLET"> F  </i>
   <i type="logical" name="LFXCEPS"> F  </i>
   <i type="logical" name="LFXHEG"> F  </i>
   <i type="int" name="NATURALO">     0</i>
   <i type="logical" name="L2ORDER"> F  </i>
   <i type="logical" name="LUSEW"> F  </i>
   <i name="ENCUTGW">     -2.00000000</i>
   <i name="ENCUTGWSOFT">     -2.00000000</i>
   <i name="ENCUTLF">     -1.00000000</i>
   <i type="int" name="LMAXMP2">    -1</i>
   <i name="SCISSOR">      0.00000000</i>
   <i type="int" name="NOMEGA">     0</i>
   <i type="int" name="NOMEGAR">     0</i>
   <i type="int" name="NBANDSGW">    -1</i>
   <i type="int" name="NBANDSO">    -1</i>
   <i type="int" name="NBANDSV">    -1</i>
   <i type="int" name="NELM">   250</i>
   <i type="int" name="NELMHF">     1</i>
   <i type="int" name="DIM">     3</i>
   <i type="int" name="ANTIRES">     0</i>
   <i name="OMEGAMAX">    -30.00000000</i>
   <i name="OMEGAMIN">    -30.00000000</i>
   <i name="OMEGATL">   -200.00000000</i>
   <i type="int" name="OMEGAGRID">     0</i>
   <i name="CSHIFT">     -0.10000000</i>
   <i type="logical" name="SELFENERGY"> F  </i>
   <i type="logical" name="LSPECTRAL"> F  </i>
   <i type="logical" name="LSPECTRALGW"> F  </i>
   <i type="logical" name="LSINGLES"> F  </i>
   <i type="logical" name="LFERMIGW"> F  </i>
   <i type="logical" name="ODDONLYGW"> F  </i>
   <i type="logical" name="EVENONLYGW"> F  </i>
   <i type="int" name="NKREDLFX">     1</i>
   <i type="int" name="NKREDLFY">     1</i>
   <i type="int" name="NKREDLFZ">     1</i>
   <i type="int" name="MAXMEM">  1800</i>
   <i type="int" name="TELESCOPE">     0</i>
   <i type="int" name="TAUPAR">     1</i>
   <i type="int" name="OMEGAPAR">    -1</i>
   <i name="LAMBDA">      1.00000000</i>
  </separator>
  <separator name="External order field" >
   <i name="OFIELD_KAPPA">      0.00000000</i>
   <v name="OFIELD_K">      0.00000000      0.00000000      0.00000000</v>
   <i name="OFIELD_Q6_NEAR">      0.00000000</i>
   <i name="OFIELD_Q6_FAR">      0.00000000</i>
   <i name="OFIELD_A">      0.00000000</i>
  </separator>
 </parameters>
 <atominfo>
  <atoms>       4 </atoms>
  <types>       1 </types>
  <array name="atoms" >
   <dimension dim="1">ion</dimension>
   <field type="string">element</field>
   <field type="int">atomtype</field>
   <set>
    <rc><c>P </c><c>   1</c></rc>
    <rc><c>P </c><c>   1</c></rc>
    <rc><c>P </c><c>   1</c></rc>
    <rc><c>P </c><c>   1</c></rc>
   </set>
  </array>
  <array name="atomtypes" >
   <dimension dim="1">type</dimension>
   <field type="int">atomspertype</field>
   <field type="string">element</field>
   <field>mass</field>
   <field>valence</field>
   <field type="string">pseudopotential</field>
   <set>
    <rc><c>   4</c><c>P </c><c>     30.97400000</c><c>      5.00000000</c><c>  PAW_PBE P 06Sep2000                   </c></rc>
   </set>
  </array>
 </atominfo>
 <structure name="initialpos" >
  <crystal>
   <varray name="basis" >
    <v>       3.28479300      -0.01238800       0.00000000 </v>
    <v>      -0.01737000       4.62331800      -0.00005300 </v>
    <v>       0.00000000       0.00000000      20.02439000 </v>
   </varray>
   <i name="volume">    304.09894544 </i>
   <varray name="rec_basis" >
    <v>       0.30443750       0.00114378       0.00000000 </v>
    <v>       0.00081573       0.21629794       0.00000000 </v>
    <v>       0.00000000       0.00000057       0.04993910 </v>
   </varray>
  </crystal>
  <varray name="positions" >
   <v>       0.50000000       0.91077300       0.55252100 </v>
   <v>       0.50000000       0.08922700       0.44747900 </v>
   <v>       0.00000000       0.41076900       0.44747900 </v>
   <v>       0.00000000       0.58923100       0.55252100 </v>
  </varray>
 </structure>
 <calculation>
  <scstep>
   <time name="dav">    1.31    1.31</time>
   <time name="total">    1.33    1.33</time>
   <energy>
    <i name="alphaZ">      5.27512859 </i>
    <i name="ewald">   1872.18703788 </i>
    <i name="hartreedc">  -2465.84324752 </i>
    <i name="XCdc">     13.06677956 </i>
    <i name="pawpsdc">    559.04011960 </i>
    <i name="pawaedc">   -526.39432044 </i>
    <i name="eentropy">     -0.00045832 </i>
    <i name="bandstr">    -27.19136901 </i>
    <i name="atom">    704.16778566 </i>
    <i name="e_fr_energy">    134.30745601 </i>
    <i name="e_wo_entrp">    134.30791433 </i>
    <i name="e_0_energy">    134.30768517 </i>
   </energy>
  </scstep>
  <scstep>
   <time name="dav">    1.74    1.74</time>
   <time name="total">    1.74    1.75</time>
   <energy>
    <i name="e_fr_energy">     -6.09616885 </i>
    <i name="e_wo_entrp">     -6.09616885 </i>
    <i name="e_0_energy">     -6.09616885 </i>
   </energy>
  </scstep>
  <scstep>
   <time name="dav">    1.59    1.59</time>
   <time name="total">    1.59    1.60</time>
   <energy>
    <i name="e_fr_energy">    -21.34419907 </i>
    <i name="e_wo_entrp">    -21.34419907 </i>
    <i name="e_0_energy">    -21.34419907 </i>
   </energy>
  </scstep>
  <scstep>
   <time name="dav">    1.63    1.63</time>
   <time name="total">    1.63    1.64</time>
   <energy>
    <i name="e_fr_energy">    -21.66193581 </i>
    <i name="e_wo_entrp">    -21.66193581 </i>
    <i name="e_0_energy">    -21.66193581 </i>
   </energy>
  </scstep>
  <scstep>
   <time name="dav">    1.74    1.74</time>
   <time name="total">    1.81    1.82</time>
   <energy>
    <i name="e_fr_energy">    -21.67207006 </i>
    <i name="e_wo_entrp">    -21.67207006 </i>
    <i name="e_0_energy">    -21.67207006 </i>
   </energy>
  </scstep>
  <scstep>
   <time name="dav">    1.56    1.56</time>
   <time name="total">    1.65    1.65</time>
   <energy>
    <i name="e_fr_energy">    -21.52439637 </i>
    <i name="e_wo_entrp">    -21.52439637 </i>
    <i name="e_0_energy">    -21.52439637 </i>
   </energy>
  </scstep>
  <scstep>
   <time name="dav">    1.53    1.53</time>
   <time name="total">    1.62    1.62</time>
   <energy>
    <i name="e_fr_energy">    -21.45534289 </i>
    <i name="e_wo_entrp">    -21.45534289 </i>
    <i name="e_0_energy">    -21.45534289 </i>
   </energy>
  </scstep>
  <scstep>
   <time name="dav">    1.58    1.58</time>
   <time name="total">    1.67    1.67</time>
   <energy>
    <i name="e_fr_energy">    -21.45459624 </i>
    <i name="e_wo_entrp">    -21.45459624 </i>
    <i name="e_0_energy">    -21.45459624 </i>
   </energy>
  </scstep>
  <scstep>
   <time name="dav">    1.84    1.84</time>
   <time name="total">    1.92    1.92</time>
   <energy>
    <i name="e_fr_energy">    -21.45444470 </i>
    <i name="e_wo_entrp">    -21.45444470 </i>
    <i name="e_0_energy">    -21.45444470 </i>
   </energy>
  </scstep>
  <scstep>
   <time name="dav">    1.55    1.55</time>
   <time name="total">    1.64    1.64</time>
   <energy>
    <i name="e_fr_energy">    -21.45425030 </i>
    <i name="e_wo_entrp">    -21.45425030 </i>
    <i name="e_0_energy">    -21.45425030 </i>
   </energy>
  </scstep>
  <scstep>
   <time name="dav">    1.60    1.60</time>
   <time name="total">    1.68    1.68</time>
   <energy>
    <i name="e_fr_energy">    -21.45414805 </i>
    <i name="e_wo_entrp">    -21.45414805 </i>
    <i name="e_0_energy">    -21.45414805 </i>
   </energy>
  </scstep>
  <scstep>
   <time name="dav">    1.41    1.42</time>
   <time name="total">    1.50    1.50</time>
   <energy>
    <i name="e_fr_energy">    -21.45453758 </i>
    <i name="e_wo_entrp">    -21.45453758 </i>
    <i name="e_0_energy">    -21.45453758 </i>
   </energy>
  </scstep>
  <scstep>
   <time name="dav">    1.41    1.41</time>
   <time name="total">    1.50    1.50</time>
   <energy>
    <i name="e_fr_energy">    -21.45463015 </i>
    <i name="e_wo_entrp">    -21.45463015 </i>
    <i name="e_0_energy">    -21.45463015 </i>
   </energy>
  </scstep>
  <scstep>
   <time name="dav">    1.30    1.30</time>
   <time name="total">    1.38    1.39</time>
   <energy>
    <i name="e_fr_energy">    -21.45477303 </i>
    <i name="e_wo_entrp">    -21.45477303 </i>
    <i name="e_0_energy">    -21.45477303 </i>
   </energy>
  </scstep>
  <scstep>
   <time name="dav">    1.34    1.34</time>
   <time name="total">    1.43    1.43</time>
   <energy>
    <i name="e_fr_energy">    -21.45481211 </i>
    <i name="e_wo_entrp">    -21.45481211 </i>
    <i name="e_0_energy">    -21.45481211 </i>
   </energy>
  </scstep>
  <scstep>
   <time name="dav">    1.27    1.27</time>
   <time name="total">    1.35    1.35</time>
   <energy>
    <i name="e_fr_energy">    -21.45484533 </i>
    <i name="e_wo_entrp">    -21.45484533 </i>
    <i name="e_0_energy">    -21.45484533 </i>
   </energy>
  </scstep>
  <scstep>
   <time name="dav">    1.29    1.29</time>
   <time name="total">    1.31    1.31</time>
   <energy>
    <i name="alphaZ">      5.27512859 </i>
    <i name="ewald">   1872.18703788 </i>
    <i name="hartreedc">  -2481.42290487 </i>
    <i name="XCdc">     14.14055125 </i>
    <i name="pawpsdc">   2120.15341847 </i>
    <i name="pawaedc">  -2087.85261976 </i>
    <i name="eentropy">     -0.00000000 </i>
    <i name="bandstr">   -168.10324472 </i>
    <i name="atom">    704.16778566 </i>
    <i name="e_fr_energy">    -21.45484751 </i>
    <i name="e_wo_entrp">    -21.45484751 </i>
    <i name="e_0_energy">    -21.45484751 </i>
   </energy>
  </scstep>
  <structure>
   <crystal>
    <varray name="basis" >
     <v>       3.28479300      -0.01238800       0.00000000 </v>
     <v>      -0.01737000       4.62331800      -0.00005300 </v>
     <v>       0.00000000       0.00000000      20.02439000 </v>
    </varray>
    <i name="volume">    304.09894544 </i>
    <varray name="rec_basis" >
     <v>       0.30443750       0.00114378       0.00000000 </v>
     <v>       0.00081573       0.21629794       0.00000000 </v>
     <v>       0.00000000       0.00000057       0.04993910 </v>
    </varray>
   </crystal>
   <varray name="positions" >
    <v>       0.50000000       0.91077300       0.55252100 </v>
    <v>       0.50000000       0.08922700       0.44747900 </v>
    <v>       0.00000000       0.41076900       0.44747900 </v>
    <v>       0.00000000       0.58923100       0.55252100 </v>
   </varray>
  </structure>
  <varray name="forces" >
   <v>       0.09985402       0.02429691       0.00175430 </v>
   <v>      -0.09985402      -0.02429691      -0.00175430 </v>
   <v>       0.09985288       0.02426434      -0.00175216 </v>
   <v>      -0.09985288      -0.02426434       0.00175216 </v>
  </varray>
  <varray name="stress" >
   <v>       2.26472095       2.18260891      -0.00001601 </v>
   <v>       2.18260887       0.70723658       0.00034900 </v>
   <v>      -0.00001599       0.00034902      -0.02500518 </v>
  </varray>
  <energy>
   <i name="e_fr_energy">    -21.45484751 </i>
   <i name="e_wo_entrp">    -21.45484751 </i>
   <i name="e_0_energy">     -0.00000000 </i>
  </energy>
  <time name="totalsc">   27.53   27.57</time>
 </calculation>
 <calculation>
  <scstep>
   <time name="dav">    1.34    1.34</time>
   <time name="total">    1.42    1.43</time>
   <energy>
    <i name="alphaZ">      5.27512859 </i>
    <i name="ewald">   1872.02500826 </i>
    <i name="hartreedc">  -2481.31645750 </i>
    <i name="XCdc">     14.13678099 </i>
    <i name="pawpsdc">   2119.76748219 </i>
    <i name="pawaedc">  -2087.46673198 </i>
    <i name="eentropy">     -0.00000000 </i>
    <i name="bandstr">   -168.04459685 </i>
    <i name="atom">    704.16778566 </i>
    <i name="e_fr_energy">    -21.45560066 </i>
    <i name="e_wo_entrp">    -21.45560066 </i>
    <i name="e_0_energy">    -21.45560066 </i>
   </energy>
  </scstep>
  <scstep>
   <time name="dav">    1.61    1.61</time>
   <time name="total">    1.70    1.70</time>
   <energy>
    <i name="e_fr_energy">    -21.45571454 </i>
    <i name="e_wo_entrp">    -21.45571454 </i>
    <i name="e_0_energy">    -21.45571454 </i>
   </energy>
  </scstep>
  <scstep>
   <time name="dav">    1.62    1.62</time>
   <time name="total">    1.70    1.70</time>
   <energy>
    <i name="e_fr_energy">    -21.45570936 </i>
    <i name="e_wo_entrp">    -21.45570936 </i>
    <i name="e_0_energy">    -21.45570936 </i>
   </energy>
  </scstep>
  <scstep>
   <time name="dav">    1.19    1.19</time>
   <time name="total">    1.27    1.28</time>
   <energy>
    <i name="e_fr_energy">    -21.45570953 </i>
    <i name="e_wo_entrp">    -21.45570953 </i>
    <i name="e_0_energy">    -21.45570953 </i>
   </energy>
  </scstep>
  <scstep>
   <time name="dav">    1.14    1.14</time>
   <time name="total">    1.22    1.22</time>
   <energy>
    <i name="e_fr_energy">    -21.45571092 </i>
    <i name="e_wo_entrp">    -21.45571092 </i>
    <i name="e_0_energy">    -21.45571092 </i>
   </energy>
  </scstep>
  <scstep>
   <time name="dav">    1.10    1.10</time>
   <time name="total">    1.11    1.11</time>
   <energy>
    <i name="alphaZ">      5.27512859 </i>
    <i name="ewald">   1872.02500826 </i>
    <i name="hartreedc">  -2481.31946880 </i>
    <i name="XCdc">     14.13617176 </i>
    <i name="pawpsdc">   2116.94722503 </i>
    <i name="pawaedc">  -2084.64538461 </i>
    <i name="eentropy">     -0.00000000 </i>
    <i name="bandstr">   -168.04217759 </i>
    <i name="atom">    704.16778566 </i>
    <i name="e_fr_energy">    -21.45571171 </i>
    <i name="e_wo_entrp">    -21.45571171 </i>
    <i name="e_0_energy">    -21.45571171 </i>
   </energy>
  </scstep>
  <structure>
   <crystal>
    <varray name="basis" >
     <v>       3.28479300      -0.01238800       0.00000000 </v>
     <v>      -0.01737000       4.62331800      -0.00005300 </v>
     <v>       0.00000000       0.00000000      20.02439000 </v>
    </varray>
    <i name="volume">    304.09894544 </i>
    <varray name="rec_basis" >
     <v>       0.30443750       0.00114378       0.00000000 </v>
     <v>       0.00081573       0.21629794       0.00000000 </v>
     <v>       0.00000000       0.00000057       0.04993910 </v>
    </varray>
   </crystal>
   <varray name="positions" >
    <v>       0.50088073       0.91092748       0.55252354 </v>
    <v>       0.49911927       0.08907252       0.44747646 </v>
    <v>       0.00088072       0.41092327       0.44747647 </v>
    <v>      -0.00088072       0.58907673       0.55252353 </v>
   </varray>
  </structure>
  <varray name="forces" >
   <v>       0.03923064       0.00723970       0.00315274 </v>
   <v>      -0.03923064      -0.00723970      -0.00315274 </v>
   <v>       0.03923003       0.00721281      -0.00315254 </v>
   <v>      -0.03923003      -0.00721281       0.00315254 </v>
  </varray>
  <varray name="stress" >
   <v>       2.16953424       1.36788280      -0.00000829 </v>
   <v>       1.36788283       0.46716558       0.00029152 </v>
   <v>      -0.00000826       0.00029149       0.00123858 </v>
  </varray>
  <energy>
   <i name="e_fr_energy">    -21.45571171 </i>
   <i name="e_wo_entrp">    -21.45571171 </i>
   <i name="e_0_energy">     -0.00000000 </i>
  </energy>
  <time name="totalsc">    9.20    9.22</time>
 </calculation>
 <calculation>
  <scstep>
   <time name="dav">    1.34    1.34</time>
   <time name="total">    1.43    1.43</time>
   <energy>
    <i name="alphaZ">      5.27512859 </i>
    <i name="ewald">   1871.92396914 </i>
    <i name="hartreedc">  -2481.24595796 </i>
    <i name="XCdc">     14.13379891 </i>
    <i name="pawpsdc">   2116.92867375 </i>
    <i name="pawaedc">  -2084.62683743 </i>
    <i name="eentropy">     -0.00000000 </i>
    <i name="bandstr">   -168.01238108 </i>
    <i name="atom">    704.16778566 </i>
    <i name="e_fr_energy">    -21.45582042 </i>
    <i name="e_wo_entrp">    -21.45582042 </i>
    <i name="e_0_energy">    -21.45582042 </i>
   </energy>
  </scstep>
  <scstep>
   <time name="dav">    1.58    1.58</time>
   <time name="total">    1.66    1.67</time>
   <energy>
    <i name="e_fr_energy">    -21.45586594 </i>
    <i name="e_wo_entrp">    -21.45586594 </i>
    <i name="e_0_energy">    -21.45586594 </i>
   </energy>
  </scstep>
  <scstep>
   <time name="dav">    1.35    1.35</time>
   <time name="total">    1.44    1.44</time>
   <energy>
    <i name="e_fr_energy">    -21.45586337 </i>
    <i name="e_wo_entrp">    -21.45586337 </i>
    <i name="e_0_energy">    -21.45586337 </i>
   </energy>
  </scstep>
  <scstep>
   <time name="dav">    1.07    1.07</time>
   <time name="total">    1.15    1.16</time>
   <energy>
    <i name="e_fr_energy">    -21.45586297 </i>
    <i name="e_wo_entrp">    -21.45586297 </i>
    <i name="e_0_energy">    -21.45586297 </i>
   </energy>
  </scstep>
  <scstep>
   <time name="dav">    1.02    1.02</time>
   <time name="total">    1.11    1.11</time>
   <energy>
    <i name="e_fr_energy">    -21.45586322 </i>
    <i name="e_wo_entrp">    -21.45586322 </i>
    <i name="e_0_energy">    -21.45586322 </i>
   </energy>
  </scstep>
  <scstep>
   <time name="dav">    0.99    0.99</time>
   <time name="total">    1.00    1.00</time>
   <energy>
    <i name="alphaZ">      5.27512859 </i>
    <i name="ewald">   1871.92396914 </i>
    <i name="hartreedc">  -2481.24755191 </i>
    <i name="XCdc">     14.13347507 </i>
    <i name="pawpsdc">   2115.24346344 </i>
    <i name="pawaedc">  -2082.94098951 </i>
    <i name="eentropy">     -0.00000000 </i>
    <i name="bandstr">   -168.01114380 </i>
    <i name="atom">    704.16778566 </i>
    <i name="e_fr_energy">    -21.45586332 </i>
    <i name="e_wo_entrp">    -21.45586332 </i>
    <i name="e_0_energy">    -21.45586332 </i>
   </energy>
  </scstep>
  <structure>
   <crystal>
    <varray name="basis" >
     <v>       3.28479300      -0.01238800       0.00000000 </v>
     <v>      -0.01737000       4.62331800      -0.00005300 </v>
     <v>       0.00000000       0.00000000      20.02439000 </v>
    </varray>
    <i name="volume">    304.09894544 </i>
    <varray name="rec_basis" >
     <v>       0.30443750       0.00114378       0.00000000 </v>
     <v>       0.00081573       0.21629794       0.00000000 </v>
     <v>       0.00000000       0.00000057       0.04993910 </v>
    </varray>
   </crystal>
   <varray name="positions" >
    <v>       0.50143903       0.91102540       0.55252514 </v>
    <v>       0.49856097       0.08897460       0.44747486 </v>
    <v>       0.00143902       0.41102107       0.44747486 </v>
    <v>      -0.00143902       0.58897893       0.55252514 </v>
   </varray>
  </structure>
  <varray name="forces" >
   <v>       0.00099772      -0.00307641       0.00396011 </v>
   <v>      -0.00099772       0.00307641      -0.00396011 </v>
   <v>       0.00099725      -0.00309985      -0.00396119 </v>
   <v>      -0.00099725       0.00309985       0.00396119 </v>
  </varray>
  <varray name="stress" >
   <v>       2.11513086       0.85968761      -0.00000428 </v>
   <v>       0.85968759       0.32466184       0.00025516 </v>
   <v>      -0.00000429       0.00025518       0.01822652 </v>
  </varray>
  <energy>
   <i name="e_fr_energy">    -21.45586332 </i>
   <i name="e_wo_entrp">    -21.45586332 </i>
   <i name="e_0_energy">     -0.00000000 </i>
  </energy>
  <time name="totalsc">    8.50    8.51</time>
  <eigenvalues>
   <array>
    <dimension dim="1">band</dimension>
    <dimension dim="2">kpoint</dimension>
    <dimension dim="3">spin</dimension>
    <field>eigene</field>
    <field>occ</field>
    <set>
     <set comment="spin 1">
      <set comment="kpoint 1">
       <r>  -17.2459    1.0000 </r>
       <r>  -14.7905    1.0000 </r>
       <r>  -11.4391    1.0000 </r>
       <r>   -7.9475    1.0000 </r>
       <r>   -6.9768    1.0000 </r>
       <r>   -6.7833    1.0000 </r>
       <r>   -5.5319    1.0000 </r>
       <r>   -3.9591    1.0000 </r>
       <r>   -3.9436    1.0000 </r>
       <r>   -2.2728    1.0000 </r>
       <r>   -1.3848    0.0000 </r>
       <r>   -0.5606    0.0000 </r>
       <r>    0.4856    0.0000 </r>
       <r>    1.0953    0.0000 </r>
       <r>    2.1345    0.0000 </r>
       <r>    2.2991    0.0000 </r>
      </set>
      <set comment="kpoint 2">
       <r>  -17.2211    1.0000 </r>
       <r>  -14.7646    1.0000 </r>
       <r>  -11.4464    1.0000 </r>
       <r>   -7.9285    1.0000 </r>
       <r>   -6.9912    1.0000 </r>
       <r>   -6.7614    1.0000 </r>
       <r>   -5.6968    1.0000 </r>
       <r>   -4.1321    1.0000 </r>
       <r>   -3.9332    1.0000 </r>
       <r>   -2.2715    1.0000 </r>
       <r>   -1.3615    0.0000 </r>
       <r>   -0.3343    0.0000 </r>
       <r>    0.7056    0.0000 </r>
       <r>    0.9436    0.0000 </r>
       <r>    2.1604    0.0000 </r>
       <r>    2.3269    0.0000 </r>
      </set>
      <set comment="kpoint 3">
       <r>  -17.1466    1.0000 </r>
       <r>  -14.6868    1.0000 </r>
       <r>  -11.4730    1.0000 </r>
       <r>   -7.8722    1.0000 </r>
       <r>   -7.0504    1.0000 </r>
       <r>   -6.6958    1.0000 </r>
       <r>   -6.1048    1.0000 </r>
       <r>   -4.5412    1.0000 </r>
       <r>   -3.9041    1.0000 </r>
       <r>   -2.2853    1.0000 </r>
       <r>   -1.2918    0.0000 </r>
       <r>    0.2757    0.0000 </r>
       <r>    0.5436    0.0000 </r>
       <r>    1.2713    0.0000 </r>
       <r>    2.2348    0.0000 </r>
       <r>    2.4099    0.0000 </r>
      </set>
      <set comment="kpoint 4">
       <r>  -17.0228    1.0000 </r>
       <r>  -14.5574    1.0000 </r>
       <r>  -11.5326    1.0000 </r>
       <r>   -7.7805    1.0000 </r>
       <r>   -7.2061    1.0000 </r>
       <r>   -6.6063    1.0000 </r>
       <r>   -6.5834    1.0000 </r>
       <r>   -4.9802    1.0000 </r>
       <r>   -3.8660    1.0000 </r>
       <r>   -2.3341    1.0000 </r>
       <r>   -1.1767    0.0000 </r>
       <r>    0.0528    0.0000 </r>
       <r>    1.1352    0.0000 </r>
       <r>    1.8884    0.0000 </r>
       <r>    2.3258    0.0000 </r>
       <r>    2.5478    0.0000 </r>
      </set>
      <set comment="kpoint 5">
       <r>  -16.8503    1.0000 </r>
       <r>  -14.3766    1.0000 </r>
       <r>  -11.6472    1.0000 </r>
       <r>   -7.6574    1.0000 </r>
       <r>   -7.5281    1.0000 </r>
       <r>   -7.0720    1.0000 </r>
       <r>   -6.4387    1.0000 </r>
       <r>   -5.2831    1.0000 </r>
       <r>   -3.8374    1.0000 </r>
       <r>   -2.4285    1.0000 </r>
       <r>   -1.0185    0.0000 </r>
       <r>   -0.4345    0.0000 </r>
       <r>    1.9891    0.0000 </r>
       <r>    2.0803    0.0000 </r>
       <r>    2.1177    0.0000 </r>
       <r>    2.6653    0.0000 </r>
      </set>
      <set comment="kpoint 6">
       <r>  -16.6297    1.0000 </r>
       <r>  -14.1447    1.0000 </r>
       <r>  -11.8415    1.0000 </r>
       <r>   -8.0261    1.0000 </r>
       <r>   -7.5093    1.0000 </r>
       <r>   -7.4405    1.0000 </r>
       <r>   -6.2529    1.0000 </r>
       <r>   -5.3945    1.0000 </r>
       <r>   -3.8472    1.0000 </r>
       <r>   -2.5771    1.0000 </r>
       <r>   -0.8371    0.0000 </r>
       <r>   -0.8222    0.0000 </r>
       <r>    1.4644    0.0000 </r>
       <r>    1.5326    0.0000 </r>
       <r>    2.6928    0.0000 </r>
       <r>    2.8810    0.0000 </r>
      </set>
      <set comment="kpoint 7">
       <r>  -16.3623    1.0000 </r>
       <r>  -13.8622    1.0000 </r>
       <r>  -12.1304    1.0000 </r>
       <r>   -8.6326    1.0000 </r>
       <r>   -7.6686    1.0000 </r>
       <r>   -7.3476    1.0000 </r>
       <r>   -6.0352    1.0000 </r>
       <r>   -5.3638    1.0000 </r>
       <r>   -3.9255    1.0000 </r>
       <r>   -2.7849    1.0000 </r>
       <r>   -1.0896    0.0000 </r>
       <r>   -0.6019    0.0000 </r>
       <r>    0.8323    0.0000 </r>
       <r>    0.9890    0.0000 </r>
       <r>    2.2886    0.0000 </r>
       <r>    3.1798    0.0000 </r>
      </set>
      <set comment="kpoint 8">
       <r>  -16.0497    1.0000 </r>
       <r>  -13.5298    1.0000 </r>
       <r>  -12.5085    1.0000 </r>
       <r>   -9.2804    1.0000 </r>
       <r>   -7.7511    1.0000 </r>
       <r>   -7.1908    1.0000 </r>
       <r>   -5.7940    1.0000 </r>
       <r>   -5.2562    1.0000 </r>
       <r>   -4.0746    1.0000 </r>
       <r>   -3.0477    1.0000 </r>
       <r>   -1.1582    0.0000 </r>
       <r>   -0.4124    0.0000 </r>
       <r>    0.2309    0.0000 </r>
       <r>    0.5511    0.0000 </r>
       <r>    1.8000    0.0000 </r>
       <r>    3.1766    0.0000 </r>
      </set>
      <set comment="kpoint 9">
       <r>  -15.6940    1.0000 </r>
       <r>  -13.1485    1.0000 </r>
       <r>  -12.9518    1.0000 </r>
       <r>   -9.9298    1.0000 </r>
       <r>   -7.7096    1.0000 </r>
       <r>   -7.0687    1.0000 </r>
       <r>   -5.5427    1.0000 </r>
       <r>   -5.1217    1.0000 </r>
       <r>   -4.2452    1.0000 </r>
       <r>   -3.3502    1.0000 </r>
       <r>   -1.0562    0.0000 </r>
       <r>   -0.4457    0.0000 </r>
       <r>   -0.2931    0.0000 </r>
       <r>    0.4362    0.0000 </r>
       <r>    1.3104    0.0000 </r>
       <r>    2.8011    0.0000 </r>
      </set>
      <set comment="kpoint 10">
       <r>  -15.2981    1.0000 </r>
       <r>  -13.4321    1.0000 </r>
       <r>  -12.7185    1.0000 </r>
       <r>  -10.5600    1.0000 </r>
       <r>   -7.5787    1.0000 </r>
       <r>   -7.0196    1.0000 </r>
       <r>   -5.3018    1.0000 </r>
       <r>   -5.0032    1.0000 </r>
       <r>   -4.3579    1.0000 </r>
       <r>   -3.6673    1.0000 </r>
       <r>   -0.8250    0.0000 </r>
       <r>   -0.7076    0.0000 </r>
       <r>   -0.6999    0.0000 </r>
       <r>    0.6743    0.0000 </r>
       <r>    0.8253    0.0000 </r>
       <r>    2.3679    0.0000 </r>
      </set>
      <set comment="kpoint 11">
       <r>  -14.8664    1.0000 </r>
       <r>  -13.9225    1.0000 </r>
       <r>  -12.2425    1.0000 </r>
       <r>  -11.1596    1.0000 </r>
       <r>   -7.3979    1.0000 </r>
       <r>   -7.0708    1.0000 </r>
       <r>   -5.1007    1.0000 </r>
       <r>   -4.9429    1.0000 </r>
       <r>   -4.3496    1.0000 </r>
       <r>   -3.9664    1.0000 </r>
       <r>   -0.9630    0.0000 </r>
       <r>   -0.9423    0.0000 </r>
       <r>   -0.4911    0.0000 </r>
       <r>    0.3493    0.0000 </r>
       <r>    1.0462    0.0000 </r>
       <r>    1.9148    0.0000 </r>
      </set>
      <set comment="kpoint 12">
       <r>  -14.4049    1.0000 </r>
       <r>  -14.4049    1.0000 </r>
       <r>  -11.7219    1.0000 </r>
       <r>  -11.7219    1.0000 </r>
       <r>   -7.2117    1.0000 </r>
       <r>   -7.2117    1.0000 </r>
       <r>   -4.9734    1.0000 </r>
       <r>   -4.9734    1.0000 </r>
       <r>   -4.2085    1.0000 </r>
       <r>   -4.2085    1.0000 </r>
       <r>   -1.0414    0.0000 </r>
       <r>   -1.0414    0.0000 </r>
       <r>   -0.0945    0.0000 </r>
       <r>   -0.0945    0.0000 </r>
       <r>    1.4674    0.0000 </r>
       <r>    1.4674    0.0000 </r>
      </set>
      <set comment="kpoint 13">
       <r>  -17.2245    1.0000 </r>
       <r>  -14.8205    1.0000 </r>
       <r>  -11.4479    1.0000 </r>
       <r>   -8.1031    1.0000 </r>
       <r>   -6.8820    1.0000 </r>
       <r>   -6.6898    1.0000 </r>
       <r>   -5.5155    1.0000 </r>
       <r>   -3.9741    1.0000 </r>
       <r>   -3.8476    1.0000 </r>
       <r>   -2.4770    1.0000 </r>
       <r>   -1.1953    0.0000 </r>
       <r>   -0.5442    0.0000 </r>
       <r>    0.4404    0.0000 </r>
       <r>    1.0815    0.0000 </r>
       <r>    2.1934    0.0000 </r>
       <r>    2.3294    0.0000 </r>
      </set>
      <set comment="kpoint 14">
       <r>  -17.1993    1.0000 </r>
       <r>  -14.7951    1.0000 </r>
       <r>  -11.4550    1.0000 </r>
       <r>   -8.0887    1.0000 </r>
       <r>   -6.8913    1.0000 </r>
       <r>   -6.6711    1.0000 </r>
       <r>   -5.6770    1.0000 </r>
       <r>   -4.1522    1.0000 </r>
       <r>   -3.8326    1.0000 </r>
       <r>   -2.4741    1.0000 </r>
       <r>   -1.1744    0.0000 </r>
       <r>   -0.3161    0.0000 </r>
       <r>    0.6648    0.0000 </r>
       <r>    0.9274    0.0000 </r>
       <r>    2.2189    0.0000 </r>
       <r>    2.3576    0.0000 </r>
      </set>
      <set comment="kpoint 15">
       <r>  -17.1245    1.0000 </r>
       <r>  -14.7182    1.0000 </r>
       <r>  -11.4788    1.0000 </r>
       <r>   -8.0459    1.0000 </r>
       <r>   -6.9324    1.0000 </r>
       <r>   -6.6389    1.0000 </r>
       <r>   -6.0530    1.0000 </r>
       <r>   -4.5695    1.0000 </r>
       <r>   -3.8068    1.0000 </r>
       <r>   -2.4749    1.0000 </r>
       <r>   -1.1186    0.0000 </r>
       <r>    0.2948    0.0000 </r>
       <r>    0.5389    0.0000 </r>
       <r>    1.2297    0.0000 </r>
       <r>    2.2906    0.0000 </r>
       <r>    2.4410    0.0000 </r>
      </set>
      <set comment="kpoint 16">
       <r>  -17.0005    1.0000 </r>
       <r>  -14.5901    1.0000 </r>
       <r>  -11.5328    1.0000 </r>
       <r>   -7.9882    1.0000 </r>
       <r>   -7.0468    1.0000 </r>
       <r>   -6.7578    1.0000 </r>
       <r>   -6.3271    1.0000 </r>
       <r>   -5.0181    1.0000 </r>
       <r>   -3.7801    1.0000 </r>
       <r>   -2.4991    1.0000 </r>
       <r>   -1.0278    0.0000 </r>
       <r>    0.0626    0.0000 </r>
       <r>    1.1507    0.0000 </r>
       <r>    1.8615    0.0000 </r>
       <r>    2.3683    0.0000 </r>
       <r>    2.5790    0.0000 </r>
      </set>
      <set comment="kpoint 17">
       <r>  -16.8277    1.0000 </r>
       <r>  -14.4113    1.0000 </r>
       <r>  -11.6392    1.0000 </r>
       <r>   -7.9713    1.0000 </r>
       <r>   -7.2581    1.0000 </r>
       <r>   -7.1513    1.0000 </r>
       <r>   -6.2619    1.0000 </r>
       <r>   -5.3268    1.0000 </r>
       <r>   -3.7721    1.0000 </r>
       <r>   -2.5618    1.0000 </r>
       <r>   -0.8996    0.0000 </r>
       <r>   -0.4005    0.0000 </r>
       <r>    1.8976    0.0000 </r>
       <r>    2.0210    0.0000 </r>
       <r>    2.2294    0.0000 </r>
       <r>    2.6312    0.0000 </r>
      </set>
      <set comment="kpoint 18">
       <r>  -16.6070    1.0000 </r>
       <r>  -14.1826    1.0000 </r>
       <r>  -11.8229    1.0000 </r>
       <r>   -8.1897    1.0000 </r>
       <r>   -7.5078    1.0000 </r>
       <r>   -7.3911    1.0000 </r>
       <r>   -6.0986    1.0000 </r>
       <r>   -5.4381    1.0000 </r>
       <r>   -3.8112    1.0000 </r>
       <r>   -2.6771    1.0000 </r>
       <r>   -0.7690    0.0000 </r>
       <r>   -0.7343    0.0000 </r>
       <r>    1.3814    0.0000 </r>
       <r>    1.5321    0.0000 </r>
       <r>    2.6743    0.0000 </r>
       <r>    3.0286    0.0000 </r>
      </set>
      <set comment="kpoint 19">
       <r>  -16.3396    1.0000 </r>
       <r>  -13.9060    1.0000 </r>
       <r>  -12.0992    1.0000 </r>
       <r>   -8.7016    1.0000 </r>
       <r>   -7.7335    1.0000 </r>
       <r>   -7.3254    1.0000 </r>
       <r>   -5.8965    1.0000 </r>
       <r>   -5.4096    1.0000 </r>
       <r>   -3.9197    1.0000 </r>
       <r>   -2.8534    1.0000 </r>
       <r>   -0.9832    0.0000 </r>
       <r>   -0.5421    0.0000 </r>
       <r>    0.8344    0.0000 </r>
       <r>    0.9105    0.0000 </r>
       <r>    2.4083    0.0000 </r>
       <r>    3.2531    0.0000 </r>
      </set>
      <set comment="kpoint 20">
       <r>  -16.0271    1.0000 </r>
       <r>  -13.5880    1.0000 </r>
       <r>  -12.4581    1.0000 </r>
       <r>   -9.3196    1.0000 </r>
       <r>   -7.8141    1.0000 </r>
       <r>   -7.1953    1.0000 </r>
       <r>   -5.6740    1.0000 </r>
       <r>   -5.3172    1.0000 </r>
       <r>   -4.0816    1.0000 </r>
       <r>   -3.0873    1.0000 </r>
       <r>   -1.0227    0.0000 </r>
       <r>   -0.3799    0.0000 </r>
       <r>    0.3126    0.0000 </r>
       <r>    0.3975    0.0000 </r>
       <r>    1.9786    0.0000 </r>
       <r>    3.1256    0.0000 </r>
      </set>
      <set comment="kpoint 21">
       <r>  -15.6716    1.0000 </r>
       <r>  -13.2826    1.0000 </r>
       <r>  -12.8228    1.0000 </r>
       <r>   -9.9567    1.0000 </r>
       <r>   -7.7687    1.0000 </r>
       <r>   -7.0781    1.0000 </r>
       <r>   -5.4510    1.0000 </r>
       <r>   -5.2228    1.0000 </r>
       <r>   -4.2272    1.0000 </r>
       <r>   -3.3606    1.0000 </r>
       <r>   -0.9182    0.0000 </r>
       <r>   -0.4691    0.0000 </r>
       <r>   -0.2019    0.0000 </r>
       <r>    0.3102    0.0000 </r>
       <r>    1.5313    0.0000 </r>
       <r>    2.7596    0.0000 </r>
      </set>
      <set comment="kpoint 22">
       <r>  -15.2765    1.0000 </r>
       <r>  -13.4648    1.0000 </r>
       <r>  -12.6897    1.0000 </r>
       <r>  -10.5803    1.0000 </r>
       <r>   -7.6308    1.0000 </r>
       <r>   -7.0278    1.0000 </r>
       <r>   -5.2562    1.0000 </r>
       <r>   -5.1660    1.0000 </r>
       <r>   -4.2757    1.0000 </r>
       <r>   -3.6425    1.0000 </r>
       <r>   -0.8263    0.0000 </r>
       <r>   -0.7571    0.0000 </r>
       <r>   -0.4778    0.0000 </r>
       <r>    0.5026    0.0000 </r>
       <r>    1.1291    0.0000 </r>
       <r>    2.3342    0.0000 </r>
      </set>
      <set comment="kpoint 23">
       <r>  -14.8463    1.0000 </r>
       <r>  -13.9240    1.0000 </r>
       <r>  -12.2449    1.0000 </r>
       <r>  -11.1752    1.0000 </r>
       <r>   -7.4397    1.0000 </r>
       <r>   -7.0819    1.0000 </r>
       <r>   -5.1352    1.0000 </r>
       <r>   -5.1271    1.0000 </r>
       <r>   -4.2156    1.0000 </r>
       <r>   -3.8947    1.0000 </r>
       <r>   -1.0067    0.0000 </r>
       <r>   -0.9832    0.0000 </r>
       <r>   -0.2516    0.0000 </r>
       <r>    0.4288    0.0000 </r>
       <r>    1.1060    0.0000 </r>
       <r>    1.8904    0.0000 </r>
      </set>
      <set comment="kpoint 24">
       <r>  -14.3971    1.0000 </r>
       <r>  -14.3877    1.0000 </r>
       <r>  -11.7344    1.0000 </r>
       <r>  -11.7325    1.0000 </r>
       <r>   -7.2400    1.0000 </r>
       <r>   -7.2321    1.0000 </r>
       <r>   -5.1209    1.0000 </r>
       <r>   -5.0887    1.0000 </r>
       <r>   -4.0873    1.0000 </r>
       <r>   -4.0837    1.0000 </r>
       <r>   -1.1011    0.0000 </r>
       <r>   -1.0586    0.0000 </r>
       <r>    0.0551    0.0000 </r>
       <r>    0.1221    0.0000 </r>
       <r>    1.4583    0.0000 </r>
       <r>    1.4588    0.0000 </r>
      </set>
      <set comment="kpoint 25">
       <r>  -14.8542    1.0000 </r>
       <r>  -13.9124    1.0000 </r>
       <r>  -12.2449    1.0000 </r>
       <r>  -11.1781    1.0000 </r>
       <r>   -7.4298    1.0000 </r>
       <r>   -7.0852    1.0000 </r>
       <r>   -5.1654    1.0000 </r>
       <r>   -5.1152    1.0000 </r>
       <r>   -4.2168    1.0000 </r>
       <r>   -3.8898    1.0000 </r>
       <r>   -1.0230    0.0000 </r>
       <r>   -0.9577    0.0000 </r>
       <r>   -0.3113    0.0000 </r>
       <r>    0.5114    0.0000 </r>
       <r>    1.0920    0.0000 </r>
       <r>    1.8829    0.0000 </r>
      </set>
      <set comment="kpoint 26">
       <r>  -15.2834    1.0000 </r>
       <r>  -13.4479    1.0000 </r>
       <r>  -12.6947    1.0000 </r>
       <r>  -10.5839    1.0000 </r>
       <r>   -7.6210    1.0000 </r>
       <r>   -7.0245    1.0000 </r>
       <r>   -5.2942    1.0000 </r>
       <r>   -5.1588    1.0000 </r>
       <r>   -4.2771    1.0000 </r>
       <r>   -3.6381    1.0000 </r>
       <r>   -0.7962    0.0000 </r>
       <r>   -0.7902    0.0000 </r>
       <r>   -0.5117    0.0000 </r>
       <r>    0.5507    0.0000 </r>
       <r>    1.1491    0.0000 </r>
       <r>    2.3233    0.0000 </r>
      </set>
      <set comment="kpoint 27">
       <r>  -15.6776    1.0000 </r>
       <r>  -13.2629    1.0000 </r>
       <r>  -12.8304    1.0000 </r>
       <r>   -9.9606    1.0000 </r>
       <r>   -7.7600    1.0000 </r>
       <r>   -7.0695    1.0000 </r>
       <r>   -5.4854    1.0000 </r>
       <r>   -5.2229    1.0000 </r>
       <r>   -4.2338    1.0000 </r>
       <r>   -3.3566    1.0000 </r>
       <r>   -0.9330    0.0000 </r>
       <r>   -0.5030    0.0000 </r>
       <r>   -0.1727    0.0000 </r>
       <r>    0.3212    0.0000 </r>
       <r>    1.5800    0.0000 </r>
       <r>    2.7472    0.0000 </r>
      </set>
      <set comment="kpoint 28">
       <r>  -16.0322    1.0000 </r>
       <r>  -13.5792    1.0000 </r>
       <r>  -12.4547    1.0000 </r>
       <r>   -9.3233    1.0000 </r>
       <r>   -7.8075    1.0000 </r>
       <r>   -7.1843    1.0000 </r>
       <r>   -5.7035    1.0000 </r>
       <r>   -5.3197    1.0000 </r>
       <r>   -4.0955    1.0000 </r>
       <r>   -3.0826    1.0000 </r>
       <r>   -1.0400    0.0000 </r>
       <r>   -0.3881    0.0000 </r>
       <r>    0.3558    0.0000 </r>
       <r>    0.3672    0.0000 </r>
       <r>    2.0366    0.0000 </r>
       <r>    3.1121    0.0000 </r>
      </set>
      <set comment="kpoint 29">
       <r>  -16.3439    1.0000 </r>
       <r>  -13.9002    1.0000 </r>
       <r>  -12.0931    1.0000 </r>
       <r>   -8.7043    1.0000 </r>
       <r>   -7.7293    1.0000 </r>
       <r>   -7.3147    1.0000 </r>
       <r>   -5.9201    1.0000 </r>
       <r>   -5.4131    1.0000 </r>
       <r>   -3.9389    1.0000 </r>
       <r>   -2.8473    1.0000 </r>
       <r>   -0.9979    0.0000 </r>
       <r>   -0.5422    0.0000 </r>
       <r>    0.7840    0.0000 </r>
       <r>    0.9609    0.0000 </r>
       <r>    2.4665    0.0000 </r>
       <r>    3.2479    0.0000 </r>
      </set>
      <set comment="kpoint 30">
       <r>  -16.6106    1.0000 </r>
       <r>  -14.1783    1.0000 </r>
       <r>  -11.8161    1.0000 </r>
       <r>   -8.1890    1.0000 </r>
       <r>   -7.5068    1.0000 </r>
       <r>   -7.3837    1.0000 </r>
       <r>   -6.1154    1.0000 </r>
       <r>   -5.4428    1.0000 </r>
       <r>   -3.8319    1.0000 </r>
       <r>   -2.6695    1.0000 </r>
       <r>   -0.7818    0.0000 </r>
       <r>   -0.7357    0.0000 </r>
       <r>    1.3247    0.0000 </r>
       <r>    1.5877    0.0000 </r>
       <r>    2.7019    0.0000 </r>
       <r>    3.0075    0.0000 </r>
      </set>
      <set comment="kpoint 31">
       <r>  -16.8306    1.0000 </r>
       <r>  -14.4081    1.0000 </r>
       <r>  -11.6327    1.0000 </r>
       <r>   -7.9653    1.0000 </r>
       <r>   -7.2562    1.0000 </r>
       <r>   -7.1556    1.0000 </r>
       <r>   -6.2694    1.0000 </r>
       <r>   -5.3333    1.0000 </r>
       <r>   -3.7910    1.0000 </r>
       <r>   -2.5533    1.0000 </r>
       <r>   -0.9028    0.0000 </r>
       <r>   -0.4136    0.0000 </r>
       <r>    1.8613    0.0000 </r>
       <r>    2.0763    0.0000 </r>
       <r>    2.1955    0.0000 </r>
       <r>    2.6234    0.0000 </r>
      </set>
      <set comment="kpoint 32">
       <r>  -17.0026    1.0000 </r>
       <r>  -14.5878    1.0000 </r>
       <r>  -11.5275    1.0000 </r>
       <r>   -7.9818    1.0000 </r>
       <r>   -7.0460    1.0000 </r>
       <r>   -6.7761    1.0000 </r>
       <r>   -6.3162    1.0000 </r>
       <r>   -5.0260    1.0000 </r>
       <r>   -3.7951    1.0000 </r>
       <r>   -2.4908    1.0000 </r>
       <r>   -1.0320    0.0000 </r>
       <r>    0.0470    0.0000 </r>
       <r>    1.1424    0.0000 </r>
       <r>    1.8973    0.0000 </r>
       <r>    2.3545    0.0000 </r>
       <r>    2.5759    0.0000 </r>
      </set>
      <set comment="kpoint 33">
       <r>  -17.1259    1.0000 </r>
       <r>  -14.7167    1.0000 </r>
       <r>  -11.4750    1.0000 </r>
       <r>   -8.0412    1.0000 </r>
       <r>   -6.9317    1.0000 </r>
       <r>   -6.6571    1.0000 </r>
       <r>   -6.0384    1.0000 </r>
       <r>   -4.5771    1.0000 </r>
       <r>   -3.8168    1.0000 </r>
       <r>   -2.4682    1.0000 </r>
       <r>   -1.1226    0.0000 </r>
       <r>    0.2873    0.0000 </r>
       <r>    0.5142    0.0000 </r>
       <r>    1.2636    0.0000 </r>
       <r>    2.2879    0.0000 </r>
       <r>    2.4388    0.0000 </r>
      </set>
      <set comment="kpoint 34">
       <r>  -17.2000    1.0000 </r>
       <r>  -14.7944    1.0000 </r>
       <r>  -11.4530    1.0000 </r>
       <r>   -8.0863    1.0000 </r>
       <r>   -6.8909    1.0000 </r>
       <r>   -6.6792    1.0000 </r>
       <r>   -5.6701    1.0000 </r>
       <r>   -4.1575    1.0000 </r>
       <r>   -3.8371    1.0000 </r>
       <r>   -2.4703    1.0000 </r>
       <r>   -1.1771    0.0000 </r>
       <r>   -0.3204    0.0000 </r>
       <r>    0.6432    0.0000 </r>
       <r>    0.9529    0.0000 </r>
       <r>    2.2175    0.0000 </r>
       <r>    2.3565    0.0000 </r>
      </set>
      <set comment="kpoint 35">
       <r>  -17.1605    1.0000 </r>
       <r>  -14.9104    1.0000 </r>
       <r>  -11.4619    1.0000 </r>
       <r>   -8.4558    1.0000 </r>
       <r>   -6.6897    1.0000 </r>
       <r>   -6.4232    1.0000 </r>
       <r>   -5.4667    1.0000 </r>
       <r>   -4.0201    1.0000 </r>
       <r>   -3.5894    1.0000 </r>
       <r>   -2.8778    1.0000 </r>
       <r>   -0.8343    0.0000 </r>
       <r>   -0.4944    0.0000 </r>
       <r>    0.3084    0.0000 </r>
       <r>    1.0489    0.0000 </r>
       <r>    2.3623    0.0000 </r>
       <r>    2.4197    0.0000 </r>
      </set>
      <set comment="kpoint 36">
       <r>  -17.1350    1.0000 </r>
       <r>  -14.8858    1.0000 </r>
       <r>  -11.4664    1.0000 </r>
       <r>   -8.4450    1.0000 </r>
       <r>   -6.6916    1.0000 </r>
       <r>   -6.4272    1.0000 </r>
       <r>   -5.6063    1.0000 </r>
       <r>   -4.2049    1.0000 </r>
       <r>   -3.5789    1.0000 </r>
       <r>   -2.8719    1.0000 </r>
       <r>   -0.8187    0.0000 </r>
       <r>   -0.2640    0.0000 </r>
       <r>    0.5264    0.0000 </r>
       <r>    0.9116    0.0000 </r>
       <r>    2.3852    0.0000 </r>
       <r>    2.4482    0.0000 </r>
      </set>
      <set comment="kpoint 37">
       <r>  -17.0601    1.0000 </r>
       <r>  -14.8106    1.0000 </r>
       <r>  -11.4812    1.0000 </r>
       <r>   -8.4129    1.0000 </r>
       <r>   -6.7089    1.0000 </r>
       <r>   -6.5179    1.0000 </r>
       <r>   -5.8650    1.0000 </r>
       <r>   -4.6441    1.0000 </r>
       <r>   -3.5714    1.0000 </r>
       <r>   -2.8584    1.0000 </r>
       <r>   -0.7787    0.0000 </r>
       <r>    0.3458    0.0000 </r>
       <r>    0.5159    0.0000 </r>
       <r>    1.1391    0.0000 </r>
       <r>    2.4479    0.0000 </r>
       <r>    2.5314    0.0000 </r>
      </set>
      <set comment="kpoint 38">
       <r>  -16.9360    1.0000 </r>
       <r>  -14.6853    1.0000 </r>
       <r>  -11.5194    1.0000 </r>
       <r>   -8.3744    1.0000 </r>
       <r>   -6.8381    1.0000 </r>
       <r>   -6.7848    1.0000 </r>
       <r>   -5.9520    1.0000 </r>
       <r>   -5.1181    1.0000 </r>
       <r>   -3.5836    1.0000 </r>
       <r>   -2.8524    1.0000 </r>
       <r>   -0.7148    0.0000 </r>
       <r>    0.0974    0.0000 </r>
       <r>    1.1853    0.0000 </r>
       <r>    1.8040    0.0000 </r>
       <r>    2.2725    0.0000 </r>
       <r>    2.5546    0.0000 </r>
      </set>
      <set comment="kpoint 39">
       <r>  -16.7633    1.0000 </r>
       <r>  -14.5109    1.0000 </r>
       <r>  -11.6032    1.0000 </r>
       <r>   -8.3726    1.0000 </r>
       <r>   -7.2652    1.0000 </r>
       <r>   -6.9735    1.0000 </r>
       <r>   -5.8780    1.0000 </r>
       <r>   -5.4379    1.0000 </r>
       <r>   -3.6370    1.0000 </r>
       <r>   -2.8686    1.0000 </r>
       <r>   -0.6267    0.0000 </r>
       <r>   -0.2913    0.0000 </r>
       <r>    1.5607    0.0000 </r>
       <r>    2.1297    0.0000 </r>
       <r>    2.3081    0.0000 </r>
       <r>    2.6645    0.0000 </r>
      </set>
      <set comment="kpoint 40">
       <r>  -16.5430    1.0000 </r>
       <r>  -14.2893    1.0000 </r>
       <r>  -11.7589    1.0000 </r>
       <r>   -8.5115    1.0000 </r>
       <r>   -7.6315    1.0000 </r>
       <r>   -7.1971    1.0000 </r>
       <r>   -5.7397    1.0000 </r>
       <r>   -5.5423    1.0000 </r>
       <r>   -3.7531    1.0000 </r>
       <r>   -2.9237    1.0000 </r>
       <r>   -0.5680    0.0000 </r>
       <r>   -0.5132    0.0000 </r>
       <r>    1.0196    0.0000 </r>
       <r>    1.7619    0.0000 </r>
       <r>    2.7252    0.0000 </r>
       <r>    3.0865    0.0000 </r>
      </set>
      <set comment="kpoint 41">
       <r>  -16.2762    1.0000 </r>
       <r>  -14.0252    1.0000 </r>
       <r>  -12.0036    1.0000 </r>
       <r>   -8.8909    1.0000 </r>
       <r>   -7.8654    1.0000 </r>
       <r>   -7.2715    1.0000 </r>
       <r>   -5.5740    1.0000 </r>
       <r>   -5.5180    1.0000 </r>
       <r>   -3.9282    1.0000 </r>
       <r>   -3.0306    1.0000 </r>
       <r>   -0.6915    0.0000 </r>
       <r>   -0.3793    0.0000 </r>
       <r>    0.4864    0.0000 </r>
       <r>    1.1740    0.0000 </r>
       <r>    2.6297    0.0000 </r>
       <r>    3.1904    0.0000 </r>
      </set>
      <set comment="kpoint 42">
       <r>  -15.9647    1.0000 </r>
       <r>  -13.7329    1.0000 </r>
       <r>  -12.3233    1.0000 </r>
       <r>   -9.4377    1.0000 </r>
       <r>   -7.9483    1.0000 </r>
       <r>   -7.2054    1.0000 </r>
       <r>   -5.4668    1.0000 </r>
       <r>   -5.4070    1.0000 </r>
       <r>   -4.1067    1.0000 </r>
       <r>   -3.1887    1.0000 </r>
       <r>   -0.6675    0.0000 </r>
       <r>   -0.3084    0.0000 </r>
       <r>    0.1056    0.0000 </r>
       <r>    0.5836    0.0000 </r>
       <r>    2.3659    0.0000 </r>
       <r>    2.9762    0.0000 </r>
      </set>
      <set comment="kpoint 43">
       <r>  -15.6111    1.0000 </r>
       <r>  -13.4795    1.0000 </r>
       <r>  -12.6289    1.0000 </r>
       <r>  -10.0408    1.0000 </r>
       <r>   -7.8971    1.0000 </r>
       <r>   -7.1013    1.0000 </r>
       <r>   -5.4618    1.0000 </r>
       <r>   -5.2717    1.0000 </r>
       <r>   -4.1956    1.0000 </r>
       <r>   -3.3762    1.0000 </r>
       <r>   -0.5704    0.0000 </r>
       <r>   -0.5575    0.0000 </r>
       <r>    0.0844    0.0000 </r>
       <r>    0.1712    0.0000 </r>
       <r>    2.0120    0.0000 </r>
       <r>    2.6319    0.0000 </r>
      </set>
      <set comment="kpoint 44">
       <r>  -15.2191    1.0000 </r>
       <r>  -13.5405    1.0000 </r>
       <r>  -12.6144    1.0000 </r>
       <r>  -10.6450    1.0000 </r>
       <r>   -7.7452    1.0000 </r>
       <r>   -7.0480    1.0000 </r>
       <r>   -5.4969    1.0000 </r>
       <r>   -5.2088    1.0000 </r>
       <r>   -4.1491    1.0000 </r>
       <r>   -3.5583    1.0000 </r>
       <r>   -0.8708    0.0000 </r>
       <r>   -0.6307    0.0000 </r>
       <r>   -0.0519    0.0000 </r>
       <r>    0.4003    0.0000 </r>
       <r>    1.6327    0.0000 </r>
       <r>    2.2304    0.0000 </r>
      </set>
      <set comment="kpoint 45">
       <r>  -14.7944    1.0000 </r>
       <r>  -13.9193    1.0000 </r>
       <r>  -12.2505    1.0000 </r>
       <r>  -11.2251    1.0000 </r>
       <r>   -7.5316    1.0000 </r>
       <r>   -7.1125    1.0000 </r>
       <r>   -5.4854    1.0000 </r>
       <r>   -5.2433    1.0000 </r>
       <r>   -4.0148    1.0000 </r>
       <r>   -3.7154    1.0000 </r>
       <r>   -1.0415    0.0000 </r>
       <r>   -0.9136    0.0000 </r>
       <r>    0.2042    0.0000 </r>
       <r>    0.5638    0.0000 </r>
       <r>    1.3676    0.0000 </r>
       <r>    1.8216    0.0000 </r>
      </set>
      <set comment="kpoint 46">
       <r>  -14.3654    1.0000 </r>
       <r>  -14.3468    1.0000 </r>
       <r>  -11.7699    1.0000 </r>
       <r>  -11.7660    1.0000 </r>
       <r>   -7.3019    1.0000 </r>
       <r>   -7.2904    1.0000 </r>
       <r>   -5.4003    1.0000 </r>
       <r>   -5.3483    1.0000 </r>
       <r>   -3.8645    1.0000 </r>
       <r>   -3.8586    1.0000 </r>
       <r>   -1.0927    0.0000 </r>
       <r>   -1.0330    0.0000 </r>
       <r>    0.4222    0.0000 </r>
       <r>    0.5246    0.0000 </r>
       <r>    1.4681    0.0000 </r>
       <r>    1.4693    0.0000 </r>
      </set>
      <set comment="kpoint 47">
       <r>  -14.8103    1.0000 </r>
       <r>  -13.8964    1.0000 </r>
       <r>  -12.2504    1.0000 </r>
       <r>  -11.2311    1.0000 </r>
       <r>   -7.5179    1.0000 </r>
       <r>   -7.1163    1.0000 </r>
       <r>   -5.4499    1.0000 </r>
       <r>   -5.3052    1.0000 </r>
       <r>   -4.0214    1.0000 </r>
       <r>   -3.7088    1.0000 </r>
       <r>   -1.0951    0.0000 </r>
       <r>   -0.8466    0.0000 </r>
       <r>    0.1205    0.0000 </r>
       <r>    0.6579    0.0000 </r>
       <r>    1.3768    0.0000 </r>
       <r>    1.8099    0.0000 </r>
      </set>
      <set comment="kpoint 48">
       <r>  -15.2328    1.0000 </r>
       <r>  -13.5105    1.0000 </r>
       <r>  -12.6210    1.0000 </r>
       <r>  -10.6523    1.0000 </r>
       <r>   -7.7323    1.0000 </r>
       <r>   -7.0396    1.0000 </r>
       <r>   -5.4813    1.0000 </r>
       <r>   -5.2733    1.0000 </r>
       <r>   -4.1587    1.0000 </r>
       <r>   -3.5505    1.0000 </r>
       <r>   -0.9223    0.0000 </r>
       <r>   -0.5753    0.0000 </r>
       <r>   -0.1005    0.0000 </r>
       <r>    0.4544    0.0000 </r>
       <r>    1.6808    0.0000 </r>
       <r>    2.2115    0.0000 </r>
      </set>
      <set comment="kpoint 49">
       <r>  -15.6229    1.0000 </r>
       <r>  -13.4529    1.0000 </r>
       <r>  -12.6318    1.0000 </r>
       <r>  -10.0486    1.0000 </r>
       <r>   -7.8865    1.0000 </r>
       <r>   -7.0833    1.0000 </r>
       <r>   -5.4609    1.0000 </r>
       <r>   -5.3321    1.0000 </r>
       <r>   -4.2111    1.0000 </r>
       <r>   -3.3678    1.0000 </r>
       <r>   -0.6221    0.0000 </r>
       <r>   -0.5788    0.0000 </r>
       <r>    0.1337    0.0000 </r>
       <r>    0.2015    0.0000 </r>
       <r>    2.0760    0.0000 </r>
       <r>    2.6104    0.0000 </r>
      </set>
      <set comment="kpoint 50">
       <r>  -15.9749    1.0000 </r>
       <r>  -13.7164    1.0000 </r>
       <r>  -12.3164    1.0000 </r>
       <r>   -9.4448    1.0000 </r>
       <r>   -7.9409    1.0000 </r>
       <r>   -7.1844    1.0000 </r>
       <r>   -5.4723    1.0000 </r>
       <r>   -5.4591    1.0000 </r>
       <r>   -4.1302    1.0000 </r>
       <r>   -3.1792    1.0000 </r>
       <r>   -0.6985    0.0000 </r>
       <r>   -0.3351    0.0000 </r>
       <r>    0.0915    0.0000 </r>
       <r>    0.6621    0.0000 </r>
       <r>    2.4306    0.0000 </r>
       <r>    2.9552    0.0000 </r>
      </set>
      <set comment="kpoint 51">
       <r>  -16.2847    1.0000 </r>
       <r>  -14.0136    1.0000 </r>
       <r>  -11.9927    1.0000 </r>
       <r>   -8.8948    1.0000 </r>
       <r>   -7.8614    1.0000 </r>
       <r>   -7.2532    1.0000 </r>
       <r>   -5.6159    1.0000 </r>
       <r>   -5.5262    1.0000 </r>
       <r>   -3.9585    1.0000 </r>
       <r>   -3.0193    1.0000 </r>
       <r>   -0.7174    0.0000 </r>
       <r>   -0.3785    0.0000 </r>
       <r>    0.4279    0.0000 </r>
       <r>    1.2647    0.0000 </r>
       <r>    2.6785    0.0000 </r>
       <r>    3.1676    0.0000 </r>
      </set>
      <set comment="kpoint 52">
       <r>  -16.5500    1.0000 </r>
       <r>  -14.2805    1.0000 </r>
       <r>  -11.7470    1.0000 </r>
       <r>   -8.5083    1.0000 </r>
       <r>   -7.6313    1.0000 </r>
       <r>   -7.1863    1.0000 </r>
       <r>   -5.7701    1.0000 </r>
       <r>   -5.5532    1.0000 </r>
       <r>   -3.7862    1.0000 </r>
       <r>   -2.9108    1.0000 </r>
       <r>   -0.5887    0.0000 </r>
       <r>   -0.5138    0.0000 </r>
       <r>    0.9502    0.0000 </r>
       <r>    1.8609    0.0000 </r>
       <r>    2.7436    0.0000 </r>
       <r>    3.0701    0.0000 </r>
      </set>
      <set comment="kpoint 53">
       <r>  -16.7689    1.0000 </r>
       <r>  -14.5043    1.0000 </r>
       <r>  -11.5922    1.0000 </r>
       <r>   -8.3636    1.0000 </r>
       <r>   -7.2703    1.0000 </r>
       <r>   -6.9688    1.0000 </r>
       <r>   -5.8948    1.0000 </r>
       <r>   -5.4520    1.0000 </r>
       <r>   -3.6681    1.0000 </r>
       <r>   -2.8555    1.0000 </r>
       <r>   -0.6296    0.0000 </r>
       <r>   -0.3102    0.0000 </r>
       <r>    1.4975    0.0000 </r>
       <r>    2.2225    0.0000 </r>
       <r>    2.2653    0.0000 </r>
       <r>    2.6646    0.0000 </r>
      </set>
      <set comment="kpoint 54">
       <r>  -16.9402    1.0000 </r>
       <r>  -14.6805    1.0000 </r>
       <r>  -11.5106    1.0000 </r>
       <r>   -8.3650    1.0000 </r>
       <r>   -6.8527    1.0000 </r>
       <r>   -6.7818    1.0000 </r>
       <r>   -5.9510    1.0000 </r>
       <r>   -5.1342    1.0000 </r>
       <r>   -3.6091    1.0000 </r>
       <r>   -2.8406    1.0000 </r>
       <r>   -0.7188    0.0000 </r>
       <r>    0.0756    0.0000 </r>
       <r>    1.1684    0.0000 </r>
       <r>    1.8645    0.0000 </r>
       <r>    2.1887    0.0000 </r>
       <r>    2.5488    0.0000 </r>
[...]
       <r>    3.3693    0.0000 </r>
       <r>    3.4228    0.0000 </r>
      </set>
      <set comment="kpoint 161">
       <r>  -15.4442    1.0000 </r>
       <r>  -15.1691    1.0000 </r>
       <r>  -10.8365    1.0000 </r>
       <r>  -10.5213    1.0000 </r>
       <r>   -7.8679    1.0000 </r>
       <r>   -7.7090    1.0000 </r>
       <r>   -5.1923    1.0000 </r>
       <r>   -4.9798    1.0000 </r>
       <r>   -3.8220    1.0000 </r>
       <r>   -3.7608    1.0000 </r>
       <r>    0.2676    0.0000 </r>
       <r>    0.6860    0.0000 </r>
       <r>    1.1778    0.0000 </r>
       <r>    1.4584    0.0000 </r>
       <r>    3.3433    0.0000 </r>
       <r>    3.3732    0.0000 </r>
      </set>
      <set comment="kpoint 162">
       <r>  -15.6935    1.0000 </r>
       <r>  -15.4192    1.0000 </r>
       <r>  -10.7312    1.0000 </r>
       <r>  -10.4060    1.0000 </r>
       <r>   -7.4890    1.0000 </r>
       <r>   -7.3363    1.0000 </r>
       <r>   -5.1328    1.0000 </r>
       <r>   -4.8479    1.0000 </r>
       <r>   -3.7308    1.0000 </r>
       <r>   -3.6494    1.0000 </r>
       <r>    0.3109    0.0000 </r>
       <r>    0.6295    0.0000 </r>
       <r>    1.2430    0.0000 </r>
       <r>    1.5735    0.0000 </r>
       <r>    3.0105    0.0000 </r>
       <r>    3.2658    0.0000 </r>
      </set>
      <set comment="kpoint 163">
       <r>  -15.9017    1.0000 </r>
       <r>  -15.6297    1.0000 </r>
       <r>  -10.7186    1.0000 </r>
       <r>  -10.3933    1.0000 </r>
       <r>   -6.9472    1.0000 </r>
       <r>   -6.7920    1.0000 </r>
       <r>   -5.1748    1.0000 </r>
       <r>   -4.8463    1.0000 </r>
       <r>   -3.6415    1.0000 </r>
       <r>   -3.4281    1.0000 </r>
       <r>    0.4428    0.0000 </r>
       <r>    0.6445    0.0000 </r>
       <r>    1.2221    0.0000 </r>
       <r>    1.5885    0.0000 </r>
       <r>    2.4027    0.0000 </r>
       <r>    2.6236    0.0000 </r>
      </set>
      <set comment="kpoint 164">
       <r>  -16.0655    1.0000 </r>
       <r>  -15.7966    1.0000 </r>
       <r>  -10.7501    1.0000 </r>
       <r>  -10.4286    1.0000 </r>
       <r>   -6.3128    1.0000 </r>
       <r>   -6.1521    1.0000 </r>
       <r>   -5.2461    1.0000 </r>
       <r>   -4.9002    1.0000 </r>
       <r>   -3.5787    1.0000 </r>
       <r>   -3.2553    1.0000 </r>
       <r>    0.5969    0.0000 </r>
       <r>    0.6877    0.0000 </r>
       <r>    1.1304    0.0000 </r>
       <r>    1.4640    0.0000 </r>
       <r>    1.7999    0.0000 </r>
       <r>    1.9151    0.0000 </r>
      </set>
      <set comment="kpoint 165">
       <r>  -16.1832    1.0000 </r>
       <r>  -15.9176    1.0000 </r>
       <r>  -10.7908    1.0000 </r>
       <r>  -10.4737    1.0000 </r>
       <r>   -5.6590    1.0000 </r>
       <r>   -5.5022    1.0000 </r>
       <r>   -5.3029    1.0000 </r>
       <r>   -4.9597    1.0000 </r>
       <r>   -3.5975    1.0000 </r>
       <r>   -3.1854    1.0000 </r>
       <r>    0.4515    0.0000 </r>
       <r>    0.4904    0.0000 </r>
       <r>    1.1127    0.0000 </r>
       <r>    1.2341    0.0000 </r>
       <r>    1.5537    0.0000 </r>
       <r>    1.6136    0.0000 </r>
      </set>
      <set comment="kpoint 166">
       <r>  -16.2534    1.0000 </r>
       <r>  -15.9916    1.0000 </r>
       <r>  -10.8213    1.0000 </r>
       <r>  -10.5077    1.0000 </r>
       <r>   -5.3622    1.0000 </r>
       <r>   -5.0892    1.0000 </r>
       <r>   -5.0018    1.0000 </r>
       <r>   -4.9192    1.0000 </r>
       <r>   -3.7101    1.0000 </r>
       <r>   -3.2296    1.0000 </r>
       <r>    0.0655    0.0000 </r>
       <r>    0.0692    0.0000 </r>
       <r>    1.1813    0.0000 </r>
       <r>    1.2917    0.0000 </r>
       <r>    1.5373    0.0000 </r>
       <r>    1.5506    0.0000 </r>
      </set>
     </set>
    </set>
   </array>
  </eigenvalues>
  <separator name="orbital magnetization" >
   <v name="MAGDIPOLOUT">      0.00000000      0.00000000      0.00000000</v>
  </separator>
  <dos>
   <i name="efermi">     -2.17871389 </i>
   <total>
    <array>
     <dimension dim="1">gridpoints</dimension>
     <dimension dim="2">spin</dimension>
     <field>energy</field>
     <field>total</field>
     <field>integrated</field>
     <set>
      <set comment="spin 1">
       <r>   -18.2863     0.0000     0.0000 </r>
       <r>   -18.2100     0.0000     0.0000 </r>
       <r>   -18.1337     0.0000     0.0000 </r>
       <r>   -18.0574     0.0000     0.0000 </r>
       <r>   -17.9811     0.0000     0.0000 </r>
       <r>   -17.9048     0.0000     0.0000 </r>
       <r>   -17.8285     0.0000     0.0000 </r>
       <r>   -17.7523     0.0000     0.0000 </r>
       <r>   -17.6760     0.0000     0.0000 </r>
       <r>   -17.5997     0.0000     0.0000 </r>
       <r>   -17.5234     0.0000     0.0000 </r>
       <r>   -17.4471     0.0000     0.0000 </r>
       <r>   -17.3708     0.0000     0.0000 </r>
       <r>   -17.2945     0.0000     0.0000 </r>
       <r>   -17.2182     0.3067     0.0234 </r>
       <r>   -17.1419     0.7957     0.0841 </r>
       <r>   -17.0656     0.7271     0.1396 </r>
       <r>   -16.9893     1.0494     0.2196 </r>
       <r>   -16.9130     0.7586     0.2775 </r>
       <r>   -16.8367     0.7851     0.3374 </r>
       <r>   -16.7604     0.9506     0.4100 </r>
       <r>   -16.6841     0.7891     0.4702 </r>
       <r>   -16.6078     1.0487     0.5502 </r>
       <r>   -16.5315     0.5591     0.5928 </r>
       <r>   -16.4553     1.1189     0.6782 </r>
       <r>   -16.3790     0.5857     0.7229 </r>
       <r>   -16.3027     1.0744     0.8048 </r>
       <r>   -16.2264     1.1161     0.8900 </r>
       <r>   -16.1501     0.6889     0.9425 </r>
       <r>   -16.0738     0.6646     0.9932 </r>
       <r>   -15.9975     1.3184     1.0938 </r>
       <r>   -15.9212     0.8298     1.1571 </r>
       <r>   -15.8449     1.2288     1.2509 </r>
       <r>   -15.7686     0.3911     1.2807 </r>
       <r>   -15.6923     1.0037     1.3573 </r>
       <r>   -15.6160     1.6497     1.4832 </r>
       <r>   -15.5397     0.6693     1.5342 </r>
       <r>   -15.4634     0.8537     1.5994 </r>
       <r>   -15.3871     1.2800     1.6970 </r>
       <r>   -15.3108     0.7536     1.7545 </r>
       <r>   -15.2345     1.2792     1.8521 </r>
       <r>   -15.1583     1.3815     1.9575 </r>
       <r>   -15.0820     1.1205     2.0430 </r>
       <r>   -15.0057     1.3069     2.1427 </r>
       <r>   -14.9294     0.6226     2.1902 </r>
       <r>   -14.8531     2.1189     2.3519 </r>
       <r>   -14.7768     2.0234     2.5063 </r>
       <r>   -14.7005     0.9900     2.5818 </r>
       <r>   -14.6242     2.0772     2.7403 </r>
       <r>   -14.5479     0.9249     2.8108 </r>
       <r>   -14.4716     0.9340     2.8821 </r>
       <r>   -14.3953     1.4065     2.9894 </r>
       <r>   -14.3190     1.6847     3.1179 </r>
       <r>   -14.2427     0.9821     3.1929 </r>
       <r>   -14.1664     1.2155     3.2856 </r>
       <r>   -14.0901     1.6329     3.4102 </r>
       <r>   -14.0138     0.9077     3.4794 </r>
       <r>   -13.9375     0.8003     3.5405 </r>
       <r>   -13.8613     2.5733     3.7368 </r>
       <r>   -13.7850     0.2295     3.7543 </r>
       <r>   -13.7087     0.4836     3.7912 </r>
       <r>   -13.6324     0.5088     3.8300 </r>
       <r>   -13.5561     0.4968     3.8679 </r>
       <r>   -13.4798     0.5653     3.9111 </r>
       <r>   -13.4035     0.6856     3.9634 </r>
       <r>   -13.3272     0.0037     3.9636 </r>
       <r>   -13.2509     0.2842     3.9853 </r>
       <r>   -13.1746     0.0386     3.9883 </r>
       <r>   -13.0983     0.1537     4.0000 </r>
       <r>   -13.0220     0.0000     4.0000 </r>
       <r>   -12.9457     0.1060     4.0081 </r>
       <r>   -12.8694     0.0534     4.0122 </r>
       <r>   -12.7931     0.3137     4.0361 </r>
       <r>   -12.7168     0.1040     4.0440 </r>
       <r>   -12.6405     0.4695     4.0799 </r>
       <r>   -12.5643     0.5421     4.1212 </r>
       <r>   -12.4880     0.4227     4.1535 </r>
       <r>   -12.4117     0.5680     4.1968 </r>
       <r>   -12.3354     0.4578     4.2317 </r>
       <r>   -12.2591     0.6093     4.2782 </r>
       <r>   -12.1828     1.7286     4.4101 </r>
       <r>   -12.1065     1.1988     4.5015 </r>
       <r>   -12.0302     0.9722     4.5757 </r>
       <r>   -11.9539     1.2041     4.6676 </r>
       <r>   -11.8776     1.1377     4.7544 </r>
       <r>   -11.8013     1.1848     4.8448 </r>
       <r>   -11.7250     1.4939     4.9588 </r>
       <r>   -11.6487     1.1568     5.0470 </r>
       <r>   -11.5724     1.3772     5.1521 </r>
       <r>   -11.4961     1.6720     5.2797 </r>
       <r>   -11.4198     3.7723     5.5675 </r>
       <r>   -11.3435     2.2485     5.7390 </r>
       <r>   -11.2673     1.1477     5.8266 </r>
       <r>   -11.1910     1.6035     5.9489 </r>
       <r>   -11.1147     1.0670     6.0303 </r>
       <r>   -11.0384     1.4336     6.1397 </r>
       <r>   -10.9621     0.9472     6.2120 </r>
       <r>   -10.8858     0.3269     6.2369 </r>
       <r>   -10.8095     1.0527     6.3172 </r>
       <r>   -10.7332     1.4788     6.4300 </r>
       <r>   -10.6569     0.5712     6.4736 </r>
       <r>   -10.5806     0.7037     6.5273 </r>
       <r>   -10.5043     0.9167     6.5972 </r>
       <r>   -10.4280     1.0231     6.6753 </r>
       <r>   -10.3517     1.0553     6.7558 </r>
       <r>   -10.2754     0.0231     6.7576 </r>
       <r>   -10.1991     0.0757     6.7634 </r>
       <r>   -10.1228     1.4069     6.8707 </r>
       <r>   -10.0465     0.9019     6.9395 </r>
       <r>    -9.9703     0.7005     6.9929 </r>
       <r>    -9.8940     0.4372     7.0263 </r>
       <r>    -9.8177     0.5147     7.0656 </r>
       <r>    -9.7414     0.4162     7.0973 </r>
       <r>    -9.6651     0.8074     7.1589 </r>
       <r>    -9.5888     0.9344     7.2302 </r>
       <r>    -9.5125     0.0067     7.2307 </r>
       <r>    -9.4362     0.5141     7.2700 </r>
       <r>    -9.3599     0.1181     7.2790 </r>
       <r>    -9.2836     1.0446     7.3587 </r>
       <r>    -9.2073     1.0928     7.4420 </r>
       <r>    -9.1310     0.3987     7.4724 </r>
       <r>    -9.0547     0.0037     7.4727 </r>
       <r>    -8.9784     0.0000     7.4727 </r>
       <r>    -8.9021     0.1190     7.4818 </r>
       <r>    -8.8258     1.2626     7.5781 </r>
       <r>    -8.7495     0.6828     7.6302 </r>
       <r>    -8.6733     0.3132     7.6541 </r>
       <r>    -8.5970     0.1635     7.6666 </r>
       <r>    -8.5207     0.0720     7.6721 </r>
       <r>    -8.4444     0.5229     7.7120 </r>
       <r>    -8.3681     0.8493     7.7768 </r>
       <r>    -8.2918     0.3044     7.8000 </r>
       <r>    -8.2155     0.0184     7.8014 </r>
       <r>    -8.1392     1.3398     7.9036 </r>
       <r>    -8.0629     1.7507     8.0372 </r>
       <r>    -7.9866     2.3352     8.2153 </r>
       <r>    -7.9103     2.3384     8.3938 </r>
       <r>    -7.8340     1.9027     8.5389 </r>
       <r>    -7.7577     1.4970     8.6531 </r>
       <r>    -7.6814     2.7320     8.8616 </r>
       <r>    -7.6051     2.5501     9.0561 </r>
       <r>    -7.5288     0.9657     9.1298 </r>
       <r>    -7.4525     1.7750     9.2652 </r>
       <r>    -7.3763     2.1004     9.4255 </r>
       <r>    -7.3000     3.0224     9.6561 </r>
       <r>    -7.2237     3.2008     9.9003 </r>
       <r>    -7.1474     3.6351    10.1776 </r>
       <r>    -7.0711     2.7915    10.3906 </r>
       <r>    -6.9948     2.6027    10.5891 </r>
       <r>    -6.9185     1.3654    10.6933 </r>
       <r>    -6.8422     0.9146    10.7631 </r>
       <r>    -6.7659     1.5766    10.8834 </r>
       <r>    -6.6896     1.7215    11.0147 </r>
       <r>    -6.6133     2.0258    11.1693 </r>
       <r>    -6.5370     1.2111    11.2617 </r>
       <r>    -6.4607     2.1739    11.4275 </r>
       <r>    -6.3844     1.1559    11.5157 </r>
       <r>    -6.3081     1.3444    11.6183 </r>
       <r>    -6.2318     1.9937    11.7704 </r>
       <r>    -6.1555     1.4091    11.8779 </r>
       <r>    -6.0793     1.2849    11.9759 </r>
       <r>    -6.0030     1.9479    12.1246 </r>
       <r>    -5.9267     2.3348    12.3027 </r>
       <r>    -5.8504     1.7873    12.4391 </r>
       <r>    -5.7741     1.2682    12.5358 </r>
       <r>    -5.6978     2.2144    12.7048 </r>
       <r>    -5.6215     4.2832    13.0315 </r>
       <r>    -5.5452     2.8609    13.2498 </r>
       <r>    -5.4689     3.8575    13.5441 </r>
       <r>    -5.3926     4.6858    13.9016 </r>
       <r>    -5.3163     2.4657    14.0897 </r>
       <r>    -5.2400     3.6052    14.3648 </r>
       <r>    -5.1637     3.0301    14.5960 </r>
       <r>    -5.0874     3.1040    14.8328 </r>
       <r>    -5.0111     1.5187    14.9486 </r>
       <r>    -4.9348     2.4993    15.1393 </r>
       <r>    -4.8585     1.9732    15.2899 </r>
       <r>    -4.7823     1.0936    15.3733 </r>
       <r>    -4.7060     1.2324    15.4673 </r>
       <r>    -4.6297     0.8299    15.5306 </r>
       <r>    -4.5534     1.9188    15.6770 </r>
       <r>    -4.4771     1.6864    15.8057 </r>
       <r>    -4.4008     0.4704    15.8416 </r>
       <r>    -4.3245     0.6985    15.8949 </r>
       <r>    -4.2482     0.7861    15.9548 </r>
       <r>    -4.1719     2.6939    16.1604 </r>
       <r>    -4.0956     2.7243    16.3682 </r>
       <r>    -4.0193     2.3154    16.5449 </r>
       <r>    -3.9430     2.9204    16.7677 </r>
       <r>    -3.8667     3.0431    16.9999 </r>
       <r>    -3.7904     3.7583    17.2866 </r>
       <r>    -3.7141     3.6053    17.5617 </r>
       <r>    -3.6378     4.1722    17.8800 </r>
       <r>    -3.5615     3.6217    18.1563 </r>
       <r>    -3.4853     2.4925    18.3464 </r>
       <r>    -3.4090     2.5527    18.5412 </r>
       <r>    -3.3327     4.3961    18.8766 </r>
       <r>    -3.2564     3.6497    19.1550 </r>
       <r>    -3.1801     2.1675    19.3204 </r>
       <r>    -3.1038     0.6797    19.3723 </r>
       <r>    -3.0275     1.0810    19.4547 </r>
       <r>    -2.9512     0.7999    19.5158 </r>
       <r>    -2.8749     1.6599    19.6424 </r>
       <r>    -2.7986     1.8428    19.7830 </r>
       <r>    -2.7223     0.2228    19.8000 </r>
       <r>    -2.6460     0.3077    19.8235 </r>
       <r>    -2.5697     0.1863    19.8377 </r>
       <r>    -2.4934     0.5341    19.8784 </r>
       <r>    -2.4171     1.0035    19.9550 </r>
       <r>    -2.3408     0.0839    19.9614 </r>
       <r>    -2.2645     0.4229    19.9937 </r>
       <r>    -2.1883     0.0829    20.0000 </r>
       <r>    -2.1120     0.0000    20.0000 </r>
       <r>    -2.0357     0.0000    20.0000 </r>
       <r>    -1.9594     0.0000    20.0000 </r>
       <r>    -1.8831     0.0000    20.0000 </r>
       <r>    -1.8068     0.0000    20.0000 </r>
       <r>    -1.7305     0.0000    20.0000 </r>
       <r>    -1.6542     0.0000    20.0000 </r>
       <r>    -1.5779     0.0000    20.0000 </r>
       <r>    -1.5016     0.0000    20.0000 </r>
       <r>    -1.4253     0.0002    20.0000 </r>
       <r>    -1.3490     0.2076    20.0159 </r>
       <r>    -1.2727     0.1752    20.0292 </r>
       <r>    -1.1964     0.1251    20.0388 </r>
       <r>    -1.1201     0.8730    20.1054 </r>
       <r>    -1.0438     1.3512    20.2085 </r>
       <r>    -0.9675     2.0852    20.3675 </r>
       <r>    -0.8913     1.7789    20.5033 </r>
       <r>    -0.8150     1.5419    20.6209 </r>
       <r>    -0.7387     1.9225    20.7676 </r>
       <r>    -0.6624     2.0349    20.9228 </r>
       <r>    -0.5861     1.3663    21.0271 </r>
       <r>    -0.5098     2.0168    21.1809 </r>
       <r>    -0.4335     2.3969    21.3638 </r>
       <r>    -0.3572     2.6195    21.5637 </r>
       <r>    -0.2809     2.5779    21.7603 </r>
       <r>    -0.2046     2.1384    21.9235 </r>
       <r>    -0.1283     2.5314    22.1166 </r>
       <r>    -0.0520     3.2357    22.3635 </r>
       <r>     0.0243     2.3126    22.5399 </r>
       <r>     0.1006     3.5220    22.8086 </r>
       <r>     0.1769     3.6154    23.0845 </r>
       <r>     0.2532     2.9961    23.3130 </r>
       <r>     0.3295     3.4979    23.5799 </r>
       <r>     0.4057     3.6183    23.8560 </r>
       <r>     0.4820     5.5267    24.2776 </r>
       <r>     0.5583     4.1424    24.5937 </r>
       <r>     0.6346     3.8535    24.8877 </r>
       <r>     0.7109     4.5772    25.2369 </r>
       <r>     0.7872     2.1042    25.3974 </r>
       <r>     0.8635     3.8709    25.6927 </r>
       <r>     0.9398     3.3967    25.9519 </r>
       <r>     1.0161     3.3093    26.2044 </r>
       <r>     1.0924     2.6744    26.4084 </r>
       <r>     1.1687     3.6856    26.6896 </r>
       <r>     1.2450     3.0799    26.9246 </r>
       <r>     1.3213     2.1290    27.0870 </r>
       <r>     1.3976     1.8138    27.2254 </r>
       <r>     1.4739     2.5396    27.4191 </r>
       <r>     1.5502     2.7760    27.6309 </r>
       <r>     1.6265     2.8588    27.8491 </r>
       <r>     1.7028     1.3545    27.9524 </r>
       <r>     1.7790     1.7054    28.0825 </r>
       <r>     1.8553     2.2969    28.2577 </r>
       <r>     1.9316     3.7962    28.5474 </r>
       <r>     2.0079     1.4579    28.6586 </r>
       <r>     2.0842     1.9840    28.8100 </r>
       <r>     2.1605     2.1914    28.9772 </r>
       <r>     2.2368     2.9361    29.2012 </r>
       <r>     2.3131     2.5167    29.3932 </r>
       <r>     2.3894     3.4425    29.6558 </r>
       <r>     2.4657     3.3699    29.9129 </r>
       <r>     2.5420     1.5625    30.0321 </r>
       <r>     2.6183     3.0103    30.2618 </r>
       <r>     2.6946     3.7984    30.5516 </r>
       <r>     2.7709     3.0805    30.7866 </r>
       <r>     2.8472     2.1993    30.9544 </r>
       <r>     2.9235     1.3522    31.0576 </r>
       <r>     2.9998     1.6718    31.1851 </r>
       <r>     3.0760     2.4316    31.3706 </r>
       <r>     3.1523     1.9007    31.5157 </r>
       <r>     3.2286     1.2668    31.6123 </r>
       <r>     3.3049     1.8967    31.7570 </r>
       <r>     3.3812     1.3065    31.8567 </r>
       <r>     3.4575     0.7806    31.9162 </r>
       <r>     3.5338     0.7859    31.9762 </r>
       <r>     3.6101     0.3119    32.0000 </r>
       <r>     3.6864     0.0001    32.0000 </r>
       <r>     3.7627     0.0000    32.0000 </r>
       <r>     3.8390     0.0000    32.0000 </r>
       <r>     3.9153     0.0000    32.0000 </r>
       <r>     3.9916     0.0000    32.0000 </r>
       <r>     4.0679     0.0000    32.0000 </r>
       <r>     4.1442     0.0000    32.0000 </r>
       <r>     4.2205     0.0000    32.0000 </r>
       <r>     4.2968     0.0000    32.0000 </r>
       <r>     4.3730     0.0000    32.0000 </r>
       <r>     4.4493     0.0000    32.0000 </r>
       <r>     4.5256     0.0000    32.0000 </r>
       <r>     4.6019     0.0000    32.0000 </r>
      </set>
     </set>
    </array>
   </total>
  </dos>
 </calculation>
 <structure name="finalpos" >
  <crystal>
   <varray name="basis" >
    <v>       3.28479300      -0.01238800       0.00000000 </v>
    <v>      -0.01737000       4.62331800      -0.00005300 </v>
    <v>       0.00000000       0.00000000      20.02439000 </v>
   </varray>
   <i name="volume">    304.09894544 </i>
   <varray name="rec_basis" >
    <v>       0.30443750       0.00114378       0.00000000 </v>
    <v>       0.00081573       0.21629794       0.00000000 </v>
    <v>       0.00000000       0.00000057       0.04993910 </v>
   </varray>
  </crystal>
  <varray name="positions" >
   <v>       0.50143903       0.91102540       0.55252514 </v>
   <v>       0.49856097       0.08897460       0.44747486 </v>
   <v>       0.00143902       0.41102107       0.44747486 </v>
   <v>      -0.00143902       0.58897893       0.55252514 </v>
  </varray>
 </structure>
</modeling>
