<?xml version="1.0" encoding="ISO-8859-1"?>
<modeling>
 <generator>
  <i name="program" type="string">vasp </i>
  <i name="version" type="string">5.4.1  </i>
  <i name="subversion" type="string">24Jun15 (build Nov 20 2020 10:29:34) complex                          parallel </i>
  <i name="platform" type="string">IFC91_ompi </i>
  <i name="date" type="string">2021 09 09 </i>
  <i name="time" type="string">14:50:06 </i>
 </generator>
 <incar>
  <i type="string" name="PREC">a</i>
  <i type="string" name="ALGO"> Normal</i>
  <i type="int" name="ISPIN">     1</i>
  <i type="int" name="ICHARG">     2</i>
  <i type="int" name="NELM">   250</i>
  <i type="int" name="NELMDL">    -5</i>
  <i type="int" name="NELMIN">     6</i>
  <i type="int" name="IBRION">     2</i>
  <i name="EDIFF">      0.00001000</i>
  <i name="EDIFFG">     -0.01000000</i>
  <i type="int" name="NSW">   200</i>
  <i type="int" name="ISIF">     2</i>
  <i name="ENCUT">    520.00000000</i>
  <i name="POTIM">      0.30000000</i>
  <i type="logical" name="LREAL"> F  </i>
  <i type="int" name="ISMEAR">     0</i>
  <i name="SIGMA">      0.02000000</i>
  <i type="logical" name="LWAVE"> F  </i>
  <i type="logical" name="LCHARG"> F  </i>
  <i type="logical" name="LAECHG"> F  </i>
  <v type="int" name="KPOINT_BSE">    -1     0     0     0</v>
  <i type="int" name="NELM">   250</i>
 </incar>
 <kpoints>
  <generation param="Gamma">
   <v type="int" name="divisions">      22       15        1 </v>
   <v name="usershift">      0.00000000       0.00000000       0.00000000 </v>
   <v name="genvec1">      0.04545455       0.00000000       0.00000000 </v>
   <v name="genvec2">      0.00000000       0.06666667       0.00000000 </v>
   <v name="genvec3">      0.00000000       0.00000000       1.00000000 </v>
   <v name="shift">      0.00000000       0.00000000       0.00000000 </v>
  </generation>
  <varray name="kpointlist" >
   <v>       0.00000000       0.00000000       0.00000000 </v>
   <v>       0.04545455       0.00000000       0.00000000 </v>
   <v>       0.09090909       0.00000000       0.00000000 </v>
   <v>       0.13636364       0.00000000       0.00000000 </v>
   <v>       0.18181818       0.00000000       0.00000000 </v>
   <v>       0.22727273       0.00000000       0.00000000 </v>
   <v>       0.27272727       0.00000000       0.00000000 </v>
   <v>       0.31818182       0.00000000       0.00000000 </v>
   <v>       0.36363636       0.00000000       0.00000000 </v>
   <v>       0.40909091       0.00000000       0.00000000 </v>
   <v>       0.45454545       0.00000000       0.00000000 </v>
   <v>       0.50000000       0.00000000       0.00000000 </v>
   <v>       0.00000000       0.06666667       0.00000000 </v>
   <v>       0.04545455       0.06666667       0.00000000 </v>
   <v>       0.09090909       0.06666667       0.00000000 </v>
   <v>       0.13636364       0.06666667       0.00000000 </v>
   <v>       0.18181818       0.06666667       0.00000000 </v>
   <v>       0.22727273       0.06666667       0.00000000 </v>
   <v>       0.27272727       0.06666667       0.00000000 </v>
   <v>       0.31818182       0.06666667       0.00000000 </v>
   <v>       0.36363636       0.06666667       0.00000000 </v>
   <v>       0.40909091       0.06666667       0.00000000 </v>
   <v>       0.45454545       0.06666667       0.00000000 </v>
   <v>       0.50000000       0.06666667       0.00000000 </v>
   <v>      -0.45454545       0.06666667       0.00000000 </v>
   <v>      -0.40909091       0.06666667       0.00000000 </v>
   <v>      -0.36363636       0.06666667       0.00000000 </v>
   <v>      -0.31818182       0.06666667       0.00000000 </v>
   <v>      -0.27272727       0.06666667       0.00000000 </v>
   <v>      -0.22727273       0.06666667       0.00000000 </v>
   <v>      -0.18181818       0.06666667       0.00000000 </v>
   <v>      -0.13636364       0.06666667       0.00000000 </v>
   <v>      -0.09090909       0.06666667       0.00000000 </v>
   <v>      -0.04545455       0.06666667       0.00000000 </v>
   <v>       0.00000000       0.13333333       0.00000000 </v>
   <v>       0.04545455       0.13333333       0.00000000 </v>
   <v>       0.09090909       0.13333333       0.00000000 </v>
   <v>       0.13636364       0.13333333       0.00000000 </v>
   <v>       0.18181818       0.13333333       0.00000000 </v>
   <v>       0.22727273       0.13333333       0.00000000 </v>
   <v>       0.27272727       0.13333333       0.00000000 </v>
   <v>       0.31818182       0.13333333       0.00000000 </v>
   <v>       0.36363636       0.13333333       0.00000000 </v>
   <v>       0.40909091       0.13333333       0.00000000 </v>
   <v>       0.45454545       0.13333333       0.00000000 </v>
   <v>       0.50000000       0.13333333       0.00000000 </v>
   <v>      -0.45454545       0.13333333       0.00000000 </v>
   <v>      -0.40909091       0.13333333       0.00000000 </v>
   <v>      -0.36363636       0.13333333       0.00000000 </v>
   <v>      -0.31818182       0.13333333       0.00000000 </v>
   <v>      -0.27272727       0.13333333       0.00000000 </v>
   <v>      -0.22727273       0.13333333       0.00000000 </v>
   <v>      -0.18181818       0.13333333       0.00000000 </v>
   <v>      -0.13636364       0.13333333       0.00000000 </v>
   <v>      -0.09090909       0.13333333       0.00000000 </v>
   <v>      -0.04545455       0.13333333       0.00000000 </v>
   <v>       0.00000000       0.20000000       0.00000000 </v>
   <v>       0.04545455       0.20000000       0.00000000 </v>
   <v>       0.09090909       0.20000000       0.00000000 </v>
   <v>       0.13636364       0.20000000       0.00000000 </v>
   <v>       0.18181818       0.20000000       0.00000000 </v>
   <v>       0.22727273       0.20000000       0.00000000 </v>
   <v>       0.27272727       0.20000000       0.00000000 </v>
   <v>       0.31818182       0.20000000       0.00000000 </v>
   <v>       0.36363636       0.20000000       0.00000000 </v>
   <v>       0.40909091       0.20000000       0.00000000 </v>
   <v>       0.45454545       0.20000000       0.00000000 </v>
   <v>       0.50000000       0.20000000       0.00000000 </v>
   <v>      -0.45454545       0.20000000       0.00000000 </v>
   <v>      -0.40909091       0.20000000       0.00000000 </v>
   <v>      -0.36363636       0.20000000       0.00000000 </v>
   <v>      -0.31818182       0.20000000       0.00000000 </v>
   <v>      -0.27272727       0.20000000       0.00000000 </v>
   <v>      -0.22727273       0.20000000       0.00000000 </v>
   <v>      -0.18181818       0.20000000       0.00000000 </v>
   <v>      -0.13636364       0.20000000       0.00000000 </v>
   <v>      -0.09090909       0.20000000       0.00000000 </v>
   <v>      -0.04545455       0.20000000       0.00000000 </v>
   <v>       0.00000000       0.26666667       0.00000000 </v>
   <v>       0.04545455       0.26666667       0.00000000 </v>
   <v>       0.09090909       0.26666667       0.00000000 </v>
   <v>       0.13636364       0.26666667       0.00000000 </v>
   <v>       0.18181818       0.26666667       0.00000000 </v>
   <v>       0.22727273       0.26666667       0.00000000 </v>
   <v>       0.27272727       0.26666667       0.00000000 </v>
   <v>       0.31818182       0.26666667       0.00000000 </v>
   <v>       0.36363636       0.26666667       0.00000000 </v>
   <v>       0.40909091       0.26666667       0.00000000 </v>
   <v>       0.45454545       0.26666667       0.00000000 </v>
   <v>       0.50000000       0.26666667       0.00000000 </v>
   <v>      -0.45454545       0.26666667       0.00000000 </v>
   <v>      -0.40909091       0.26666667       0.00000000 </v>
   <v>      -0.36363636       0.26666667       0.00000000 </v>
   <v>      -0.31818182       0.26666667       0.00000000 </v>
   <v>      -0.27272727       0.26666667       0.00000000 </v>
   <v>      -0.22727273       0.26666667       0.00000000 </v>
   <v>      -0.18181818       0.26666667       0.00000000 </v>
   <v>      -0.13636364       0.26666667       0.00000000 </v>
   <v>      -0.09090909       0.26666667       0.00000000 </v>
   <v>      -0.04545455       0.26666667       0.00000000 </v>
   <v>       0.00000000       0.33333333       0.00000000 </v>
   <v>       0.04545455       0.33333333       0.00000000 </v>
   <v>       0.09090909       0.33333333       0.00000000 </v>
   <v>       0.13636364       0.33333333       0.00000000 </v>
   <v>       0.18181818       0.33333333       0.00000000 </v>
   <v>       0.22727273       0.33333333       0.00000000 </v>
   <v>       0.27272727       0.33333333       0.00000000 </v>
   <v>       0.31818182       0.33333333       0.00000000 </v>
   <v>       0.36363636       0.33333333       0.00000000 </v>
   <v>       0.40909091       0.33333333       0.00000000 </v>
   <v>       0.45454545       0.33333333       0.00000000 </v>
   <v>       0.50000000       0.33333333       0.00000000 </v>
   <v>      -0.45454545       0.33333333       0.00000000 </v>
   <v>      -0.40909091       0.33333333       0.00000000 </v>
   <v>      -0.36363636       0.33333333       0.00000000 </v>
   <v>      -0.31818182       0.33333333       0.00000000 </v>
   <v>      -0.27272727       0.33333333       0.00000000 </v>
   <v>      -0.22727273       0.33333333       0.00000000 </v>
   <v>      -0.18181818       0.33333333       0.00000000 </v>
   <v>      -0.13636364       0.33333333       0.00000000 </v>
   <v>      -0.09090909       0.33333333       0.00000000 </v>
   <v>      -0.04545455       0.33333333       0.00000000 </v>
   <v>       0.00000000       0.40000000       0.00000000 </v>
   <v>       0.04545455       0.40000000       0.00000000 </v>
   <v>       0.09090909       0.40000000       0.00000000 </v>
   <v>       0.13636364       0.40000000       0.00000000 </v>
   <v>       0.18181818       0.40000000       0.00000000 </v>
   <v>       0.22727273       0.40000000       0.00000000 </v>
   <v>       0.27272727       0.40000000       0.00000000 </v>
   <v>       0.31818182       0.40000000       0.00000000 </v>
   <v>       0.36363636       0.40000000       0.00000000 </v>
   <v>       0.40909091       0.40000000       0.00000000 </v>
   <v>       0.45454545       0.40000000       0.00000000 </v>
   <v>       0.50000000       0.40000000       0.00000000 </v>
   <v>      -0.45454545       0.40000000       0.00000000 </v>
   <v>      -0.40909091       0.40000000       0.00000000 </v>
   <v>      -0.36363636       0.40000000       0.00000000 </v>
   <v>      -0.31818182       0.40000000       0.00000000 </v>
   <v>      -0.27272727       0.40000000       0.00000000 </v>
   <v>      -0.22727273       0.40000000       0.00000000 </v>
   <v>      -0.18181818       0.40000000       0.00000000 </v>
   <v>      -0.13636364       0.40000000       0.00000000 </v>
   <v>      -0.09090909       0.40000000       0.00000000 </v>
   <v>      -0.04545455       0.40000000       0.00000000 </v>
   <v>       0.00000000       0.46666667       0.00000000 </v>
   <v>       0.04545455       0.46666667       0.00000000 </v>
   <v>       0.09090909       0.46666667       0.00000000 </v>
   <v>       0.13636364       0.46666667       0.00000000 </v>
   <v>       0.18181818       0.46666667       0.00000000 </v>
   <v>       0.22727273       0.46666667       0.00000000 </v>
   <v>       0.27272727       0.46666667       0.00000000 </v>
   <v>       0.31818182       0.46666667       0.00000000 </v>
   <v>       0.36363636       0.46666667       0.00000000 </v>
   <v>       0.40909091       0.46666667       0.00000000 </v>
   <v>       0.45454545       0.46666667       0.00000000 </v>
   <v>       0.50000000       0.46666667       0.00000000 </v>
   <v>      -0.45454545       0.46666667       0.00000000 </v>
   <v>      -0.40909091       0.46666667       0.00000000 </v>
   <v>      -0.36363636       0.46666667       0.00000000 </v>
   <v>      -0.31818182       0.46666667       0.00000000 </v>
   <v>      -0.27272727       0.46666667       0.00000000 </v>
   <v>      -0.22727273       0.46666667       0.00000000 </v>
   <v>      -0.18181818       0.46666667       0.00000000 </v>
   <v>      -0.13636364       0.46666667       0.00000000 </v>
   <v>      -0.09090909       0.46666667       0.00000000 </v>
   <v>      -0.04545455       0.46666667       0.00000000 </v>
  </varray>
  <varray name="weights" >
   <v>       0.00303030 </v>
   <v>       0.00606061 </v>
   <v>       0.00606061 </v>
   <v>       0.00606061 </v>
   <v>       0.00606061 </v>
   <v>       0.00606061 </v>
   <v>       0.00606061 </v>
   <v>       0.00606061 </v>
   <v>       0.00606061 </v>
   <v>       0.00606061 </v>
   <v>       0.00606061 </v>
   <v>       0.00303030 </v>
   <v>       0.00606061 </v>
   <v>       0.00606061 </v>
   <v>       0.00606061 </v>
   <v>       0.00606061 </v>
   <v>       0.00606061 </v>
   <v>       0.00606061 </v>
   <v>       0.00606061 </v>
   <v>       0.00606061 </v>
   <v>       0.00606061 </v>
   <v>       0.00606061 </v>
   <v>       0.00606061 </v>
   <v>       0.00606061 </v>
   <v>       0.00606061 </v>
   <v>       0.00606061 </v>
   <v>       0.00606061 </v>
   <v>       0.00606061 </v>
   <v>       0.00606061 </v>
   <v>       0.00606061 </v>
   <v>       0.00606061 </v>
   <v>       0.00606061 </v>
   <v>       0.00606061 </v>
   <v>       0.00606061 </v>
   <v>       0.00606061 </v>
   <v>       0.00606061 </v>
   <v>       0.00606061 </v>
   <v>       0.00606061 </v>
   <v>       0.00606061 </v>
   <v>       0.00606061 </v>
   <v>       0.00606061 </v>
   <v>       0.00606061 </v>
   <v>       0.00606061 </v>
   <v>       0.00606061 </v>
   <v>       0.00606061 </v>
   <v>       0.00606061 </v>
   <v>       0.00606061 </v>
   <v>       0.00606061 </v>
   <v>       0.00606061 </v>
   <v>       0.00606061 </v>
   <v>       0.00606061 </v>
   <v>       0.00606061 </v>
   <v>       0.00606061 </v>
   <v>       0.00606061 </v>
   <v>       0.00606061 </v>
   <v>       0.00606061 </v>
   <v>       0.00606061 </v>
   <v>       0.00606061 </v>
   <v>       0.00606061 </v>
   <v>       0.00606061 </v>
   <v>       0.00606061 </v>
   <v>       0.00606061 </v>
   <v>       0.00606061 </v>
   <v>       0.00606061 </v>
   <v>       0.00606061 </v>
   <v>       0.00606061 </v>
   <v>       0.00606061 </v>
   <v>       0.00606061 </v>
   <v>       0.00606061 </v>
   <v>       0.00606061 </v>
   <v>       0.00606061 </v>
   <v>       0.00606061 </v>
   <v>       0.00606061 </v>
   <v>       0.00606061 </v>
   <v>       0.00606061 </v>
   <v>       0.00606061 </v>
   <v>       0.00606061 </v>
   <v>       0.00606061 </v>
   <v>       0.00606061 </v>
   <v>       0.00606061 </v>
   <v>       0.00606061 </v>
   <v>       0.00606061 </v>
   <v>       0.00606061 </v>
   <v>       0.00606061 </v>
   <v>       0.00606061 </v>
   <v>       0.00606061 </v>
   <v>       0.00606061 </v>
   <v>       0.00606061 </v>
   <v>       0.00606061 </v>
   <v>       0.00606061 </v>
   <v>       0.00606061 </v>
   <v>       0.00606061 </v>
   <v>       0.00606061 </v>
   <v>       0.00606061 </v>
   <v>       0.00606061 </v>
   <v>       0.00606061 </v>
   <v>       0.00606061 </v>
   <v>       0.00606061 </v>
   <v>       0.00606061 </v>
   <v>       0.00606061 </v>
   <v>       0.00606061 </v>
   <v>       0.00606061 </v>
   <v>       0.00606061 </v>
   <v>       0.00606061 </v>
   <v>       0.00606061 </v>
   <v>       0.00606061 </v>
   <v>       0.00606061 </v>
   <v>       0.00606061 </v>
   <v>       0.00606061 </v>
   <v>       0.00606061 </v>
   <v>       0.00606061 </v>
   <v>       0.00606061 </v>
   <v>       0.00606061 </v>
   <v>       0.00606061 </v>
   <v>       0.00606061 </v>
   <v>       0.00606061 </v>
   <v>       0.00606061 </v>
   <v>       0.00606061 </v>
   <v>       0.00606061 </v>
   <v>       0.00606061 </v>
   <v>       0.00606061 </v>
   <v>       0.00606061 </v>
   <v>       0.00606061 </v>
   <v>       0.00606061 </v>
   <v>       0.00606061 </v>
   <v>       0.00606061 </v>
   <v>       0.00606061 </v>
   <v>       0.00606061 </v>
   <v>       0.00606061 </v>
   <v>       0.00606061 </v>
   <v>       0.00606061 </v>
   <v>       0.00606061 </v>
   <v>       0.00606061 </v>
   <v>       0.00606061 </v>
   <v>       0.00606061 </v>
   <v>       0.00606061 </v>
   <v>       0.00606061 </v>
   <v>       0.00606061 </v>
   <v>       0.00606061 </v>
   <v>       0.00606061 </v>
   <v>       0.00606061 </v>
   <v>       0.00606061 </v>
   <v>       0.00606061 </v>
   <v>       0.00606061 </v>
   <v>       0.00606061 </v>
   <v>       0.00606061 </v>
   <v>       0.00606061 </v>
   <v>       0.00606061 </v>
   <v>       0.00606061 </v>
   <v>       0.00606061 </v>
   <v>       0.00606061 </v>
   <v>       0.00606061 </v>
   <v>       0.00606061 </v>
   <v>       0.00606061 </v>
   <v>       0.00606061 </v>
   <v>       0.00606061 </v>
   <v>       0.00606061 </v>
   <v>       0.00606061 </v>
   <v>       0.00606061 </v>
   <v>       0.00606061 </v>
   <v>       0.00606061 </v>
   <v>       0.00606061 </v>
   <v>       0.00606061 </v>
   <v>       0.00606061 </v>
   <v>       0.00606061 </v>
   <v>       0.00606061 </v>
  </varray>
 </kpoints>
 <parameters>
  <separator name="general" >
   <i type="string" name="SYSTEM">unknown system</i>
   <i type="logical" name="LCOMPAT"> F  </i>
  </separator>
  <separator name="electronic" >
   <i type="string" name="PREC">a</i>
   <i name="ENMAX">    520.00000000</i>
   <i name="ENAUG">    342.92400000</i>
   <i name="EDIFF">      0.00001000</i>
   <i type="int" name="IALGO">    38</i>
   <i type="int" name="IWAVPR">    11</i>
   <i type="int" name="NBANDS">    16</i>
   <i name="NELECT">     20.00000000</i>
   <i type="int" name="TURBO">     0</i>
   <i type="int" name="IRESTART">     0</i>
   <i type="int" name="NREBOOT">     0</i>
   <i type="int" name="NMIN">     0</i>
   <i name="EREF">      0.00000000</i>
   <separator name="electronic smearing" >
    <i type="int" name="ISMEAR">     0</i>
    <i name="SIGMA">      0.02000000</i>
    <i name="KSPACING">      0.50000000</i>
    <i type="logical" name="KGAMMA"> T  </i>
   </separator>
   <separator name="electronic projectors" >
    <i type="logical" name="LREAL"> F  </i>
    <v name="ROPT">      0.00000000</v>
    <i type="int" name="LMAXPAW">  -100</i>
    <i type="int" name="LMAXMIX">     2</i>
    <i type="logical" name="NLSPLINE"> F  </i>
   </separator>
   <separator name="electronic startup" >
    <i type="int" name="ISTART">     0</i>
    <i type="int" name="ICHARG">     2</i>
    <i type="int" name="INIWAV">     1</i>
   </separator>
   <separator name="electronic spin" >
    <i type="int" name="ISPIN">     1</i>
    <i type="logical" name="LNONCOLLINEAR"> F  </i>
    <v name="MAGMOM">      1.00000000      1.00000000      1.00000000      1.00000000</v>
    <i name="NUPDOWN">     -1.00000000</i>
    <i type="logical" name="LSORBIT"> F  </i>
    <v name="SAXIS">      0.00000000      0.00000000      1.00000000</v>
    <i type="logical" name="LSPIRAL"> F  </i>
    <v name="QSPIRAL">      0.00000000      0.00000000      0.00000000</v>
    <i type="logical" name="LZEROZ"> F  </i>
   </separator>
   <separator name="electronic exchange-correlation" >
    <i type="logical" name="LASPH"> F  </i>
    <i type="logical" name="LMETAGGA"> F  </i>
   </separator>
   <separator name="electronic convergence" >
    <i type="int" name="NELM">   250</i>
    <i type="int" name="NELMDL">    -5</i>
    <i type="int" name="NELMIN">     6</i>
    <i name="ENINI">    520.00000000</i>
    <separator name="electronic convergence detail" >
     <i type="logical" name="LDIAG"> T  </i>
     <i type="logical" name="LSUBROT"> F  </i>
     <i name="WEIMIN">      0.00100000</i>
     <i name="EBREAK">      0.00000016</i>
     <i name="DEPER">      0.30000000</i>
     <i type="int" name="NRMM">     4</i>
     <i name="TIME">      0.40000000</i>
    </separator>
   </separator>
   <separator name="electronic mixer" >
    <i name="AMIX">      0.40000000</i>
    <i name="BMIX">      1.00000000</i>
    <i name="AMIN">      0.10000000</i>
    <i name="AMIX_MAG">      1.60000000</i>
    <i name="BMIX_MAG">      1.00000000</i>
    <separator name="electronic mixer details" >
     <i type="int" name="IMIX">     4</i>
     <i type="logical" name="MIXFIRST"> F  </i>
     <i type="int" name="MAXMIX">   -45</i>
     <i name="WC">    100.00000000</i>
     <i type="int" name="INIMIX">     1</i>
     <i type="int" name="MIXPRE">     1</i>
     <i type="int" name="MREMOVE">     5</i>
    </separator>
   </separator>
   <separator name="electronic dipolcorrection" >
    <i type="logical" name="LDIPOL"> F  </i>
    <i type="logical" name="LMONO"> F  </i>
    <i type="int" name="IDIPOL">     0</i>
    <i name="EPSILON">      1.00000000</i>
    <v name="DIPOL">   -100.00000000   -100.00000000   -100.00000000</v>
    <i name="EFIELD">      0.00000000</i>
   </separator>
  </separator>
  <separator name="grids" >
   <i type="int" name="NGX">    24</i>
   <i type="int" name="NGY">    36</i>
   <i type="int" name="NGZ">   150</i>
   <i type="int" name="NGXF">    48</i>
   <i type="int" name="NGYF">    72</i>
   <i type="int" name="NGZF">   300</i>
   <i type="logical" name="ADDGRID"> F  </i>
  </separator>
  <separator name="ionic" >
   <i type="int" name="NSW">   200</i>
   <i type="int" name="IBRION">     2</i>
   <i type="int" name="ISIF">     2</i>
   <i name="PSTRESS">      0.00000000</i>
   <i name="EDIFFG">     -0.01000000</i>
   <i type="int" name="NFREE">     1</i>
   <i name="POTIM">      0.30000000</i>
   <i name="SMASS">     -3.00000000</i>
   <i name="SCALEE">      1.00000000</i>
  </separator>
  <separator name="ionic md" >
   <i name="TEBEG">      0.00010000</i>
   <i name="TEEND">      0.00010000</i>
   <i type="int" name="NBLOCK">     1</i>
   <i type="int" name="KBLOCK">   200</i>
   <i type="int" name="NPACO">   256</i>
   <i name="APACO">     16.00000000</i>
  </separator>
  <separator name="symmetry" >
   <i type="int" name="ISYM">     2</i>
   <i name="SYMPREC">      0.00001000</i>
  </separator>
  <separator name="dos" >
   <i type="logical" name="LORBIT"> F  </i>
   <v name="RWIGS">     -1.00000000</v>
   <i type="int" name="NEDOS">   301</i>
   <i name="EMIN">     10.00000000</i>
   <i name="EMAX">    -10.00000000</i>
   <i name="EFERMI">      0.00000000</i>
  </separator>
  <separator name="writing" >
   <i type="int" name="NWRITE">     2</i>
   <i type="logical" name="LWAVE"> F  </i>
   <i type="logical" name="LCHARG"> F  </i>
   <i type="logical" name="LPARD"> F  </i>
   <i type="logical" name="LVTOT"> F  </i>
   <i type="logical" name="LVHAR"> F  </i>
   <i type="logical" name="LELF"> F  </i>
   <i type="logical" name="LOPTICS"> F  </i>
   <v name="STM">      0.00000000      0.00000000      0.00000000      0.00000000      0.00000000      0.00000000      0.00000000</v>
  </separator>
  <separator name="performance" >
   <i type="int" name="NPAR">     4</i>
   <i type="int" name="NSIM">     4</i>
   <i type="int" name="NBLK">    -1</i>
   <i type="logical" name="LPLANE"> T  </i>
   <i type="logical" name="LSCALAPACK"> T  </i>
   <i type="logical" name="LSCAAWARE"> F  </i>
   <i type="logical" name="LSCALU"> F  </i>
   <i type="logical" name="LASYNC"> F  </i>
   <i type="logical" name="LORBITALREAL"> F  </i>
  </separator>
  <separator name="miscellaneous" >
   <i type="int" name="IDIOT">     3</i>
   <i type="logical" name="LMUSIC"> F  </i>
   <v name="POMASS">     30.97400000</v>
   <v name="DARWINR">      0.00000000</v>
   <v name="DARWINV">      1.00000000</v>
   <i type="logical" name="LCORR"> T  </i>
  </separator>
  <i type="logical" name="GGA_COMPAT"> T  </i>
  <i type="logical" name="LBERRY"> F  </i>
  <i type="int" name="ICORELEVEL">     0</i>
  <i type="logical" name="LDAU"> F  </i>
  <i type="int" name="I_CONSTRAINED_M">     0</i>
  <separator name="electronic exchange-correlation" >
   <i type="string" name="GGA">--</i>
   <i type="int" name="VOSKOWN">     0</i>
   <i type="logical" name="LHFCALC"> F  </i>
   <i type="string" name="PRECFOCK"></i>
   <i type="logical" name="LSYMGRAD"> F  </i>
   <i type="logical" name="LHFONE"> F  </i>
   <i type="logical" name="LRHFCALC"> F  </i>
   <i type="logical" name="LTHOMAS"> F  </i>
   <i type="logical" name="LMODELHF"> F  </i>
   <i name="ENCUT4O">     -1.00000000</i>
   <i type="int" name="EXXOEP">     0</i>
   <i type="int" name="FOURORBIT">     0</i>
   <i name="AEXX">      0.00000000</i>
   <i name="HFALPHA">      0.00000000</i>
   <i name="MCALPHA">      0.00000000</i>
   <i name="ALDAX">      1.00000000</i>
   <i name="AGGAX">      1.00000000</i>
   <i name="ALDAC">      1.00000000</i>
   <i name="AGGAC">      1.00000000</i>
   <i type="int" name="NKREDX">     1</i>
   <i type="int" name="NKREDY">     1</i>
   <i type="int" name="NKREDZ">     1</i>
   <i type="logical" name="SHIFTRED"> F  </i>
   <i type="logical" name="ODDONLY"> F  </i>
   <i type="logical" name="EVENONLY"> F  </i>
   <i type="int" name="LMAXFOCK">     0</i>
   <i type="int" name="NMAXFOCKAE">     0</i>
   <i type="logical" name="LFOCKAEDFT"> F  </i>
   <i name="HFSCREEN">      0.00000000</i>
   <i name="HFSCREENC">      0.00000000</i>
   <i type="int" name="NBANDSGWLOW">     0</i>
  </separator>
  <separator name="vdW DFT" >
   <i type="logical" name="LUSE_VDW"> F  </i>
   <i name="Zab_VDW">     -0.84910000</i>
   <i name="PARAM1">      0.12340000</i>
   <i name="PARAM2">      1.00000000</i>
   <i name="PARAM3">      0.00000000</i>
  </separator>
  <separator name="model GW" >
   <i type="int" name="MODEL_GW">     0</i>
   <i name="MODEL_EPS0">     44.87239586</i>
   <i name="MODEL_ALPHA">      1.00000000</i>
  </separator>
  <separator name="linear response parameters" >
   <i type="logical" name="LEPSILON"> F  </i>
   <i type="logical" name="LRPA"> F  </i>
   <i type="logical" name="LNABLA"> F  </i>
   <i type="logical" name="LVEL"> F  </i>
   <i type="int" name="KINTER">     0</i>
   <i name="CSHIFT">      0.10000000</i>
   <i name="OMEGAMAX">     -1.00000000</i>
   <i name="DEG_THRESHOLD">      0.00200000</i>
  </separator>
  <separator name="orbital magnetization" >
   <i type="logical" name="NUCIND"> F  </i>
   <v name="MAGPOS">      0.00000000      0.00000000      0.00000000</v>
   <i type="logical" name="LNICSALL"> T  </i>
   <i type="logical" name="ORBITALMAG"> F  </i>
   <i type="logical" name="LMAGBLOCH"> F  </i>
   <i type="logical" name="LCHIMAG"> F  </i>
   <i type="logical" name="LGAUGE"> T  </i>
   <i type="int" name="MAGATOM">     0</i>
   <v name="MAGDIPOL">      0.00000000      0.00000000      0.00000000</v>
   <v name="AVECCONST">      0.00000000      0.00000000      0.00000000</v>
  </separator>
  <separator name="response functions" >
   <i type="logical" name="LADDER"> F  </i>
   <i type="logical" name="LFXC"> F  </i>
   <i type="logical" name="LHARTREE"> T  </i>
   <i type="int" name="IBSE">     0</i>
   <v type="int" name="KPOINT">    -1     0     0     0</v>
   <i type="logical" name="LTCTE"> F  </i>
   <i type="logical" name="LTETE"> F  </i>
   <i type="logical" name="LTRIPLET"> F  </i>
   <i type="logical" name="LFXCEPS"> F  </i>
   <i type="logical" name="LFXHEG"> F  </i>
   <i type="int" name="NATURALO">     0</i>
   <i type="logical" name="L2ORDER"> F  </i>
   <i type="logical" name="LUSEW"> F  </i>
   <i name="ENCUTGW">     -2.00000000</i>
   <i name="ENCUTGWSOFT">     -2.00000000</i>
   <i name="ENCUTLF">     -1.00000000</i>
   <i type="int" name="LMAXMP2">    -1</i>
   <i name="SCISSOR">      0.00000000</i>
   <i type="int" name="NOMEGA">     0</i>
   <i type="int" name="NOMEGAR">     0</i>
   <i type="int" name="NBANDSGW">    -1</i>
   <i type="int" name="NBANDSO">    -1</i>
   <i type="int" name="NBANDSV">    -1</i>
   <i type="int" name="NELM">   250</i>
   <i type="int" name="NELMHF">     1</i>
   <i type="int" name="DIM">     3</i>
   <i type="int" name="ANTIRES">     0</i>
   <i name="OMEGAMAX">    -30.00000000</i>
   <i name="OMEGAMIN">    -30.00000000</i>
   <i name="OMEGATL">   -200.00000000</i>
   <i type="int" name="OMEGAGRID">     0</i>
   <i name="CSHIFT">     -0.10000000</i>
   <i type="logical" name="SELFENERGY"> F  </i>
   <i type="logical" name="LSPECTRAL"> F  </i>
   <i type="logical" name="LSPECTRALGW"> F  </i>
   <i type="logical" name="LSINGLES"> F  </i>
   <i type="logical" name="LFERMIGW"> F  </i>
   <i type="logical" name="ODDONLYGW"> F  </i>
   <i type="logical" name="EVENONLYGW"> F  </i>
   <i type="int" name="NKREDLFX">     1</i>
   <i type="int" name="NKREDLFY">     1</i>
   <i type="int" name="NKREDLFZ">     1</i>
   <i type="int" name="MAXMEM">  1800</i>
   <i type="int" name="TELESCOPE">     0</i>
   <i type="int" name="TAUPAR">     1</i>
   <i type="int" name="OMEGAPAR">    -1</i>
   <i name="LAMBDA">      1.00000000</i>
  </separator>
  <separator name="External order field" >
   <i name="OFIELD_KAPPA">      0.00000000</i>
   <v name="OFIELD_K">      0.00000000      0.00000000      0.00000000</v>
   <i name="OFIELD_Q6_NEAR">      0.00000000</i>
   <i name="OFIELD_Q6_FAR">      0.00000000</i>
   <i name="OFIELD_A">      0.00000000</i>
  </separator>
 </parameters>
 <atominfo>
  <atoms>       4 </atoms>
  <types>       1 </types>
  <array name="atoms" >
   <dimension dim="1">ion</dimension>
   <field type="string">element</field>
   <field type="int">atomtype</field>
   <set>
    <rc><c>P </c><c>   1</c></rc>
    <rc><c>P </c><c>   1</c></rc>
    <rc><c>P </c><c>   1</c></rc>
    <rc><c>P </c><c>   1</c></rc>
   </set>
  </array>
  <array name="atomtypes" >
   <dimension dim="1">type</dimension>
   <field type="int">atomspertype</field>
   <field type="string">element</field>
   <field>mass</field>
   <field>valence</field>
   <field type="string">pseudopotential</field>
   <set>
    <rc><c>   4</c><c>P </c><c>     30.97400000</c><c>      5.00000000</c><c>  PAW_PBE P 06Sep2000                   </c></rc>
   </set>
  </array>
 </atominfo>
 <structure name="initialpos" >
  <crystal>
   <varray name="basis" >
    <v>       3.26406500       0.00000000       0.00000000 </v>
    <v>       0.00000000       4.57688400      -0.00005300 </v>
    <v>       0.00000000       0.00000000      20.02439000 </v>
   </varray>
   <i name="volume">    299.14930570 </i>
   <varray name="rec_basis" >
    <v>       0.30636645       0.00000000       0.00000000 </v>
    <v>       0.00000000       0.21848926       0.00000000 </v>
    <v>       0.00000000       0.00000058       0.04993910 </v>
   </varray>
  </crystal>
  <varray name="positions" >
   <v>       0.50000000       0.91077300       0.55252100 </v>
   <v>       0.50000000       0.08922700       0.44747900 </v>
   <v>       0.00000000       0.41076900       0.44747900 </v>
   <v>       0.00000000       0.58923100       0.55252100 </v>
  </varray>
 </structure>
 <calculation>
  <scstep>
   <time name="dav">    1.30    1.31</time>
   <time name="total">    1.32    1.33</time>
   <energy>
    <i name="alphaZ">      5.36240937 </i>
    <i name="ewald">   1911.31958480 </i>
    <i name="hartreedc">  -2504.68226012 </i>
    <i name="XCdc">     13.21692481 </i>
    <i name="pawpsdc">    559.04011960 </i>
    <i name="pawaedc">   -526.39432044 </i>
    <i name="eentropy">     -0.00061234 </i>
    <i name="bandstr">    -27.10603489 </i>
    <i name="atom">    704.16778566 </i>
    <i name="e_fr_energy">    134.92359645 </i>
    <i name="e_wo_entrp">    134.92420879 </i>
    <i name="e_0_energy">    134.92390262 </i>
   </energy>
  </scstep>
  <scstep>
   <time name="dav">    1.73    1.73</time>
   <time name="total">    1.73    1.74</time>
   <energy>
    <i name="e_fr_energy">     -6.24566504 </i>
    <i name="e_wo_entrp">     -6.24566504 </i>
    <i name="e_0_energy">     -6.24566504 </i>
   </energy>
  </scstep>
  <scstep>
   <time name="dav">    1.59    1.59</time>
   <time name="total">    1.59    1.59</time>
   <energy>
    <i name="e_fr_energy">    -21.35818782 </i>
    <i name="e_wo_entrp">    -21.35818782 </i>
    <i name="e_0_energy">    -21.35818782 </i>
   </energy>
  </scstep>
  <scstep>
   <time name="dav">    1.63    1.63</time>
   <time name="total">    1.63    1.63</time>
   <energy>
    <i name="e_fr_energy">    -21.66663887 </i>
    <i name="e_wo_entrp">    -21.66663887 </i>
    <i name="e_0_energy">    -21.66663887 </i>
   </energy>
  </scstep>
  <scstep>
   <time name="dav">    1.71    1.71</time>
   <time name="total">    1.79    1.79</time>
   <energy>
    <i name="e_fr_energy">    -21.67648189 </i>
    <i name="e_wo_entrp">    -21.67648189 </i>
    <i name="e_0_energy">    -21.67648189 </i>
   </energy>
  </scstep>
  <scstep>
   <time name="dav">    1.52    1.52</time>
   <time name="total">    1.61    1.61</time>
   <energy>
    <i name="e_fr_energy">    -21.51795218 </i>
    <i name="e_wo_entrp">    -21.51795218 </i>
    <i name="e_0_energy">    -21.51795218 </i>
   </energy>
  </scstep>
  <scstep>
   <time name="dav">    1.53    1.53</time>
   <time name="total">    1.61    1.61</time>
   <energy>
    <i name="e_fr_energy">    -21.44535338 </i>
    <i name="e_wo_entrp">    -21.44535338 </i>
    <i name="e_0_energy">    -21.44535338 </i>
   </energy>
  </scstep>
  <scstep>
   <time name="dav">    1.56    1.56</time>
   <time name="total">    1.64    1.65</time>
   <energy>
    <i name="e_fr_energy">    -21.44434050 </i>
    <i name="e_wo_entrp">    -21.44434050 </i>
    <i name="e_0_energy">    -21.44434050 </i>
   </energy>
  </scstep>
  <scstep>
   <time name="dav">    1.83    1.83</time>
   <time name="total">    1.91    1.91</time>
   <energy>
    <i name="e_fr_energy">    -21.44417817 </i>
    <i name="e_wo_entrp">    -21.44417817 </i>
    <i name="e_0_energy">    -21.44417817 </i>
   </energy>
  </scstep>
  <scstep>
   <time name="dav">    1.55    1.55</time>
   <time name="total">    1.64    1.64</time>
   <energy>
    <i name="e_fr_energy">    -21.44394282 </i>
    <i name="e_wo_entrp">    -21.44394282 </i>
    <i name="e_0_energy">    -21.44394282 </i>
   </energy>
  </scstep>
  <scstep>
   <time name="dav">    1.58    1.58</time>
   <time name="total">    1.66    1.66</time>
   <energy>
    <i name="e_fr_energy">    -21.44382005 </i>
    <i name="e_wo_entrp">    -21.44382005 </i>
    <i name="e_0_energy">    -21.44382005 </i>
   </energy>
  </scstep>
  <scstep>
   <time name="dav">    1.40    1.40</time>
   <time name="total">    1.48    1.48</time>
   <energy>
    <i name="e_fr_energy">    -21.44423417 </i>
    <i name="e_wo_entrp">    -21.44423417 </i>
    <i name="e_0_energy">    -21.44423417 </i>
   </energy>
  </scstep>
  <scstep>
   <time name="dav">    1.40    1.40</time>
   <time name="total">    1.49    1.49</time>
   <energy>
    <i name="e_fr_energy">    -21.44432633 </i>
    <i name="e_wo_entrp">    -21.44432633 </i>
    <i name="e_0_energy">    -21.44432633 </i>
   </energy>
  </scstep>
  <scstep>
   <time name="dav">    1.29    1.29</time>
   <time name="total">    1.38    1.38</time>
   <energy>
    <i name="e_fr_energy">    -21.44447084 </i>
    <i name="e_wo_entrp">    -21.44447084 </i>
    <i name="e_0_energy">    -21.44447084 </i>
   </energy>
  </scstep>
  <scstep>
   <time name="dav">    1.33    1.33</time>
   <time name="total">    1.41    1.42</time>
   <energy>
    <i name="e_fr_energy">    -21.44452161 </i>
    <i name="e_wo_entrp">    -21.44452161 </i>
    <i name="e_0_energy">    -21.44452161 </i>
   </energy>
  </scstep>
  <scstep>
   <time name="dav">    1.28    1.28</time>
   <time name="total">    1.36    1.36</time>
   <energy>
    <i name="e_fr_energy">    -21.44455644 </i>
    <i name="e_wo_entrp">    -21.44455644 </i>
    <i name="e_0_energy">    -21.44455644 </i>
   </energy>
  </scstep>
  <scstep>
   <time name="dav">    1.29    1.29</time>
   <time name="total">    1.30    1.30</time>
   <energy>
    <i name="alphaZ">      5.36240937 </i>
    <i name="ewald">   1911.31958480 </i>
    <i name="hartreedc">  -2520.97052973 </i>
    <i name="XCdc">     14.31548667 </i>
    <i name="pawpsdc">   2193.56063251 </i>
    <i name="pawaedc">  -2161.28557290 </i>
    <i name="eentropy">     -0.00000000 </i>
    <i name="bandstr">   -167.91435491 </i>
    <i name="atom">    704.16778566 </i>
    <i name="e_fr_energy">    -21.44455853 </i>
    <i name="e_wo_entrp">    -21.44455853 </i>
    <i name="e_0_energy">    -21.44455853 </i>
   </energy>
  </scstep>
  <structure>
   <crystal>
    <varray name="basis" >
     <v>       3.26406500       0.00000000       0.00000000 </v>
     <v>       0.00000000       4.57688400      -0.00005300 </v>
     <v>       0.00000000       0.00000000      20.02439000 </v>
    </varray>
    <i name="volume">    299.14930570 </i>
    <varray name="rec_basis" >
     <v>       0.30636645       0.00000000       0.00000000 </v>
     <v>       0.00000000       0.21848926       0.00000000 </v>
     <v>       0.00000000       0.00000058       0.04993910 </v>
    </varray>
   </crystal>
   <varray name="positions" >
    <v>       0.50000000       0.91077300       0.55252100 </v>
    <v>       0.50000000       0.08922700       0.44747900 </v>
    <v>       0.00000000       0.41076900       0.44747900 </v>
    <v>       0.00000000       0.58923100       0.55252100 </v>
   </varray>
  </structure>
  <varray name="forces" >
   <v>       0.00000006       0.20608339       0.03612587 </v>
   <v>      -0.00000006      -0.20608339      -0.03612587 </v>
   <v>      -0.00000006       0.20604761      -0.03612734 </v>
   <v>       0.00000006      -0.20604761       0.03612734 </v>
  </varray>
  <varray name="stress" >
   <v>       7.67850050       0.00000287       0.00000111 </v>
   <v>       0.00000286       5.49622022       0.00033062 </v>
   <v>       0.00000109       0.00033071       0.74794393 </v>
  </varray>
  <energy>
   <i name="e_fr_energy">    -21.44455853 </i>
   <i name="e_wo_entrp">    -21.44455853 </i>
   <i name="e_0_energy">     -0.00000000 </i>
  </energy>
  <time name="totalsc">   27.33   27.37</time>
 </calculation>
 <calculation>
  <scstep>
   <time name="dav">    1.38    1.38</time>
   <time name="total">    1.46    1.46</time>
   <energy>
    <i name="alphaZ">      5.36240937 </i>
    <i name="ewald">   1909.40832845 </i>
    <i name="hartreedc">  -2519.44564516 </i>
    <i name="XCdc">     14.28073034 </i>
    <i name="pawpsdc">   2193.16319810 </i>
    <i name="pawaedc">  -2160.88819434 </i>
    <i name="eentropy">     -0.00000000 </i>
    <i name="bandstr">   -167.49615663 </i>
    <i name="atom">    704.16778566 </i>
    <i name="e_fr_energy">    -21.44754421 </i>
    <i name="e_wo_entrp">    -21.44754421 </i>
    <i name="e_0_energy">    -21.44754421 </i>
   </energy>
  </scstep>
  <scstep>
   <time name="dav">    1.65    1.65</time>
   <time name="total">    1.74    1.74</time>
   <energy>
    <i name="e_fr_energy">    -21.44802886 </i>
    <i name="e_wo_entrp">    -21.44802886 </i>
    <i name="e_0_energy">    -21.44802886 </i>
   </energy>
  </scstep>
  <scstep>
   <time name="dav">    1.72    1.72</time>
   <time name="total">    1.80    1.80</time>
   <energy>
    <i name="e_fr_energy">    -21.44801975 </i>
    <i name="e_wo_entrp">    -21.44801975 </i>
    <i name="e_0_energy">    -21.44801975 </i>
   </energy>
  </scstep>
  <scstep>
   <time name="dav">    1.42    1.42</time>
   <time name="total">    1.51    1.51</time>
   <energy>
    <i name="e_fr_energy">    -21.44801792 </i>
    <i name="e_wo_entrp">    -21.44801792 </i>
    <i name="e_0_energy">    -21.44801792 </i>
   </energy>
  </scstep>
  <scstep>
   <time name="dav">    1.21    1.21</time>
   <time name="total">    1.29    1.30</time>
   <energy>
    <i name="e_fr_energy">    -21.44801797 </i>
    <i name="e_wo_entrp">    -21.44801797 </i>
    <i name="e_0_energy">    -21.44801797 </i>
   </energy>
  </scstep>
  <scstep>
   <time name="dav">    1.15    1.15</time>
   <time name="total">    1.16    1.16</time>
   <energy>
    <i name="alphaZ">      5.36240937 </i>
    <i name="ewald">   1909.40832845 </i>
    <i name="hartreedc">  -2519.43441201 </i>
    <i name="XCdc">     14.27620034 </i>
    <i name="pawpsdc">   2168.74850060 </i>
    <i name="pawaedc">  -2136.46443659 </i>
    <i name="eentropy">     -0.00000000 </i>
    <i name="bandstr">   -167.51239414 </i>
    <i name="atom">    704.16778566 </i>
    <i name="e_fr_energy">    -21.44801831 </i>
    <i name="e_wo_entrp">    -21.44801831 </i>
    <i name="e_0_energy">    -21.44801831 </i>
   </energy>
  </scstep>
  <structure>
   <crystal>
    <varray name="basis" >
     <v>       3.26406500       0.00000000       0.00000000 </v>
     <v>       0.00000000       4.57688400      -0.00005300 </v>
     <v>       0.00000000       0.00000000      20.02439000 </v>
    </varray>
    <i name="volume">    299.14930570 </i>
    <varray name="rec_basis" >
     <v>       0.30636645       0.00000000       0.00000000 </v>
     <v>       0.00000000       0.21848926       0.00000000 </v>
     <v>       0.00000000       0.00000058       0.04993910 </v>
    </varray>
   </crystal>
   <varray name="positions" >
    <v>       0.50000000       0.91207633       0.55257322 </v>
    <v>       0.50000000       0.08792367       0.44742678 </v>
    <v>      -0.00000000       0.41207211       0.44742678 </v>
    <v>       0.00000000       0.58792789       0.55257322 </v>
   </varray>
  </structure>
  <varray name="forces" >
   <v>       0.00000006       0.07006951       0.03939484 </v>
   <v>      -0.00000006      -0.07006951      -0.03939484 </v>
   <v>       0.00000011       0.07003953      -0.03939576 </v>
   <v>      -0.00000011      -0.07003953       0.03939576 </v>
  </varray>
  <varray name="stress" >
   <v>       6.95224240       0.00000026       0.00000005 </v>
   <v>       0.00000024       3.52310889       0.00028753 </v>
   <v>       0.00000001       0.00028758       0.84384033 </v>
  </varray>
  <energy>
   <i name="e_fr_energy">    -21.44801831 </i>
   <i name="e_wo_entrp">    -21.44801831 </i>
   <i name="e_0_energy">     -0.00000000 </i>
  </energy>
  <time name="totalsc">    9.72    9.74</time>
 </calculation>
 <calculation>
  <scstep>
   <time name="dav">    1.35    1.35</time>
   <time name="total">    1.44    1.44</time>
   <energy>
    <i name="alphaZ">      5.36240937 </i>
    <i name="ewald">   1908.32733678 </i>
    <i name="hartreedc">  -2518.56786991 </i>
    <i name="XCdc">     14.25655130 </i>
    <i name="pawpsdc">   2168.54532738 </i>
    <i name="pawaedc">  -2136.26128948 </i>
    <i name="eentropy">     -0.00000000 </i>
    <i name="bandstr">   -167.27865130 </i>
    <i name="atom">    704.16778566 </i>
    <i name="e_fr_energy">    -21.44840021 </i>
    <i name="e_wo_entrp">    -21.44840021 </i>
    <i name="e_0_energy">    -21.44840021 </i>
   </energy>
  </scstep>
  <scstep>
   <time name="dav">    1.65    1.65</time>
   <time name="total">    1.74    1.74</time>
   <energy>
    <i name="e_fr_energy">    -21.44855628 </i>
    <i name="e_wo_entrp">    -21.44855628 </i>
    <i name="e_0_energy">    -21.44855628 </i>
   </energy>
  </scstep>
  <scstep>
   <time name="dav">    1.59    1.59</time>
   <time name="total">    1.68    1.68</time>
   <energy>
    <i name="e_fr_energy">    -21.44855229 </i>
    <i name="e_wo_entrp">    -21.44855229 </i>
    <i name="e_0_energy">    -21.44855229 </i>
   </energy>
  </scstep>
  <scstep>
   <time name="dav">    1.15    1.15</time>
   <time name="total">    1.24    1.24</time>
   <energy>
    <i name="e_fr_energy">    -21.44855014 </i>
    <i name="e_wo_entrp">    -21.44855014 </i>
    <i name="e_0_energy">    -21.44855014 </i>
   </energy>
  </scstep>
  <scstep>
   <time name="dav">    1.04    1.04</time>
   <time name="total">    1.13    1.13</time>
   <energy>
    <i name="e_fr_energy">    -21.44855026 </i>
    <i name="e_wo_entrp">    -21.44855026 </i>
    <i name="e_0_energy">    -21.44855026 </i>
   </energy>
  </scstep>
  <scstep>
   <time name="dav">    1.00    1.00</time>
   <time name="total">    1.02    1.02</time>
   <energy>
    <i name="alphaZ">      5.36240937 </i>
    <i name="ewald">   1908.32733678 </i>
    <i name="hartreedc">  -2518.57195347 </i>
    <i name="XCdc">     14.25415249 </i>
    <i name="pawpsdc">   2154.83868065 </i>
    <i name="pawaedc">  -2122.54963487 </i>
    <i name="eentropy">     -0.00000000 </i>
    <i name="bandstr">   -167.27732685 </i>
    <i name="atom">    704.16778566 </i>
    <i name="e_fr_energy">    -21.44855024 </i>
    <i name="e_wo_entrp">    -21.44855024 </i>
    <i name="e_0_energy">    -21.44855024 </i>
   </energy>
  </scstep>
  <structure>
   <crystal>
    <varray name="basis" >
     <v>       3.26406500       0.00000000       0.00000000 </v>
     <v>       0.00000000       4.57688400      -0.00005300 </v>
     <v>       0.00000000       0.00000000      20.02439000 </v>
    </varray>
    <i name="volume">    299.14930570 </i>
    <varray name="rec_basis" >
     <v>       0.30636645       0.00000000       0.00000000 </v>
     <v>       0.00000000       0.21848926       0.00000000 </v>
     <v>       0.00000000       0.00000058       0.04993910 </v>
    </varray>
   </crystal>
   <varray name="positions" >
    <v>       0.50000000       0.91281694       0.55260290 </v>
    <v>       0.50000000       0.08718306       0.44739710 </v>
    <v>      -0.00000000       0.41281258       0.44739711 </v>
    <v>       0.00000000       0.58718742       0.55260289 </v>
   </varray>
  </structure>
  <varray name="forces" >
   <v>       0.00000001      -0.00526762       0.04093851 </v>
   <v>      -0.00000001       0.00526762      -0.04093851 </v>
   <v>       0.00000003      -0.00529411      -0.04093894 </v>
   <v>      -0.00000003       0.00529411       0.04093894 </v>
  </varray>
  <varray name="stress" >
   <v>       6.57588420       0.00000056      -0.00000022 </v>
   <v>       0.00000055       2.40496360       0.00026336 </v>
   <v>      -0.00000016       0.00026332       0.87047887 </v>
  </varray>
  <energy>
   <i name="e_fr_energy">    -21.44855024 </i>
   <i name="e_wo_entrp">    -21.44855024 </i>
   <i name="e_0_energy">     -0.00000000 </i>
  </energy>
  <time name="totalsc">    9.00    9.02</time>
 </calculation>
 <calculation>
  <scstep>
   <time name="dav">    1.14    1.14</time>
   <time name="total">    1.22    1.22</time>
   <energy>
    <i name="alphaZ">      5.36240937 </i>
    <i name="ewald">   1908.30007539 </i>
    <i name="hartreedc">  -2518.55517065 </i>
    <i name="XCdc">     14.25370043 </i>
    <i name="pawpsdc">   2154.69886435 </i>
    <i name="pawaedc">  -2122.40983919 </i>
    <i name="eentropy">     -0.00000000 </i>
    <i name="bandstr">   -167.26637584 </i>
    <i name="atom">    704.16778566 </i>
    <i name="e_fr_energy">    -21.44855047 </i>
    <i name="e_wo_entrp">    -21.44855047 </i>
    <i name="e_0_energy">    -21.44855047 </i>
   </energy>
  </scstep>
  <scstep>
   <time name="dav">    0.99    0.99</time>
   <time name="total">    1.07    1.07</time>
   <energy>
    <i name="e_fr_energy">    -21.44855064 </i>
    <i name="e_wo_entrp">    -21.44855064 </i>
    <i name="e_0_energy">    -21.44855064 </i>
   </energy>
  </scstep>
  <scstep>
   <time name="dav">    0.99    0.99</time>
   <time name="total">    1.08    1.08</time>
   <energy>
    <i name="e_fr_energy">    -21.44855071 </i>
    <i name="e_wo_entrp">    -21.44855071 </i>
    <i name="e_0_energy">    -21.44855071 </i>
   </energy>
  </scstep>
  <scstep>
   <time name="dav">    1.05    1.05</time>
   <time name="total">    1.13    1.14</time>
   <energy>
    <i name="e_fr_energy">    -21.44855082 </i>
    <i name="e_wo_entrp">    -21.44855082 </i>
    <i name="e_0_energy">    -21.44855082 </i>
   </energy>
  </scstep>
  <scstep>
   <time name="dav">    1.01    1.01</time>
   <time name="total">    1.10    1.10</time>
   <energy>
    <i name="e_fr_energy">    -21.44855088 </i>
    <i name="e_wo_entrp">    -21.44855088 </i>
    <i name="e_0_energy">    -21.44855088 </i>
   </energy>
  </scstep>
  <scstep>
   <time name="dav">    1.05    1.05</time>
   <time name="total">    1.06    1.06</time>
   <energy>
    <i name="alphaZ">      5.36240937 </i>
    <i name="ewald">   1908.30007539 </i>
    <i name="hartreedc">  -2518.56673979 </i>
    <i name="XCdc">     14.25372779 </i>
    <i name="pawpsdc">   2154.24115737 </i>
    <i name="pawaedc">  -2121.95200961 </i>
    <i name="eentropy">     -0.00000000 </i>
    <i name="bandstr">   -167.25495719 </i>
    <i name="atom">    704.16778566 </i>
    <i name="e_fr_energy">    -21.44855101 </i>
    <i name="e_wo_entrp">    -21.44855101 </i>
    <i name="e_0_energy">    -21.44855101 </i>
   </energy>
  </scstep>
  <structure>
   <crystal>
    <varray name="basis" >
     <v>       3.26406500       0.00000000       0.00000000 </v>
     <v>       0.00000000       4.57688400      -0.00005300 </v>
     <v>       0.00000000       0.00000000      20.02439000 </v>
    </varray>
    <i name="volume">    299.14930570 </i>
    <varray name="rec_basis" >
     <v>       0.30636645       0.00000000       0.00000000 </v>
     <v>       0.00000000       0.21848926       0.00000000 </v>
     <v>       0.00000000       0.00000058       0.04993910 </v>
    </varray>
   </crystal>
   <varray name="positions" >
    <v>       0.50000000       0.91283565       0.55260365 </v>
    <v>       0.50000000       0.08716435       0.44739635 </v>
    <v>      -0.00000000       0.41283129       0.44739636 </v>
    <v>       0.00000000       0.58716871       0.55260364 </v>
   </varray>
  </structure>
  <varray name="forces" >
   <v>      -0.00000001      -0.00710538       0.04097658 </v>
   <v>       0.00000001       0.00710538      -0.04097658 </v>
   <v>       0.00000002      -0.00713182      -0.04097704 </v>
   <v>      -0.00000002       0.00713182       0.04097704 </v>
  </varray>
  <varray name="stress" >
   <v>       6.57006293       0.00000008      -0.00000032 </v>
   <v>       0.00000003       2.37314064       0.00026256 </v>
   <v>      -0.00000032       0.00026255       0.85263862 </v>
  </varray>
  <energy>
   <i name="e_fr_energy">    -21.44855101 </i>
   <i name="e_wo_entrp">    -21.44855101 </i>
   <i name="e_0_energy">     -0.00000000 </i>
  </energy>
  <time name="totalsc">    7.43    7.44</time>
 </calculation>
 <calculation>
  <scstep>
   <time name="dav">    1.26    1.26</time>
   <time name="total">    1.34    1.35</time>
   <energy>
    <i name="alphaZ">      5.36240937 </i>
    <i name="ewald">   1907.00409421 </i>
    <i name="hartreedc">  -2517.34398765 </i>
    <i name="XCdc">     14.24504271 </i>
    <i name="pawpsdc">   2154.23375214 </i>
    <i name="pawaedc">  -2121.94460536 </i>
    <i name="eentropy">     -0.00000000 </i>
    <i name="bandstr">   -167.17317818 </i>
    <i name="atom">    704.16778566 </i>
    <i name="e_fr_energy">    -21.44868710 </i>
    <i name="e_wo_entrp">    -21.44868710 </i>
    <i name="e_0_energy">    -21.44868710 </i>
   </energy>
  </scstep>
  <scstep>
   <time name="dav">    1.57    1.57</time>
   <time name="total">    1.66    1.66</time>
   <energy>
    <i name="e_fr_energy">    -21.44871901 </i>
    <i name="e_wo_entrp">    -21.44871901 </i>
    <i name="e_0_energy">    -21.44871901 </i>
   </energy>
  </scstep>
  <scstep>
   <time name="dav">    1.10    1.10</time>
   <time name="total">    1.18    1.18</time>
   <energy>
    <i name="e_fr_energy">    -21.44871741 </i>
    <i name="e_wo_entrp">    -21.44871741 </i>
    <i name="e_0_energy">    -21.44871741 </i>
   </energy>
  </scstep>
  <scstep>
   <time name="dav">    1.01    1.01</time>
   <time name="total">    1.10    1.10</time>
   <energy>
    <i name="e_fr_energy">    -21.44871714 </i>
    <i name="e_wo_entrp">    -21.44871714 </i>
    <i name="e_0_energy">    -21.44871714 </i>
   </energy>
  </scstep>
  <scstep>
   <time name="dav">    0.99    0.99</time>
   <time name="total">    1.07    1.08</time>
   <energy>
    <i name="e_fr_energy">    -21.44871717 </i>
    <i name="e_wo_entrp">    -21.44871717 </i>
    <i name="e_0_energy">    -21.44871717 </i>
   </energy>
  </scstep>
  <scstep>
   <time name="dav">    1.01    1.01</time>
   <time name="total">    1.03    1.03</time>
   <energy>
    <i name="alphaZ">      5.36240937 </i>
    <i name="ewald">   1907.00409421 </i>
    <i name="hartreedc">  -2517.34264013 </i>
    <i name="XCdc">     14.24444770 </i>
    <i name="pawpsdc">   2149.93282473 </i>
    <i name="pawaedc">  -2117.64219443 </i>
    <i name="eentropy">     -0.00000000 </i>
    <i name="bandstr">   -167.17544428 </i>
    <i name="atom">    704.16778566 </i>
    <i name="e_fr_energy">    -21.44871717 </i>
    <i name="e_wo_entrp">    -21.44871717 </i>
    <i name="e_0_energy">    -21.44871717 </i>
   </energy>
  </scstep>
  <structure>
   <crystal>
    <varray name="basis" >
     <v>       3.26406500       0.00000000       0.00000000 </v>
     <v>       0.00000000       4.57688400      -0.00005300 </v>
     <v>       0.00000000       0.00000000      20.02439000 </v>
    </varray>
    <i name="volume">    299.14930570 </i>
    <varray name="rec_basis" >
     <v>       0.30636645       0.00000000       0.00000000 </v>
     <v>       0.00000000       0.21848926       0.00000000 </v>
     <v>       0.00000000       0.00000058       0.04993910 </v>
    </varray>
   </crystal>
   <varray name="positions" >
    <v>       0.50000000       0.91284254       0.55267207 </v>
    <v>       0.50000000       0.08715746       0.44732793 </v>
    <v>      -0.00000000       0.41283799       0.44732794 </v>
    <v>       0.00000000       0.58716201       0.55267206 </v>
   </varray>
  </structure>
  <varray name="forces" >
   <v>      -0.00000002      -0.00364727       0.02039984 </v>
   <v>       0.00000002       0.00364727      -0.02039984 </v>
   <v>       0.00000001      -0.00366796      -0.02040021 </v>
   <v>      -0.00000001       0.00366796       0.02040021 </v>
  </varray>
  <varray name="stress" >
   <v>       6.53152501      -0.00000026      -0.00000038 </v>
   <v>      -0.00000023       2.28952853       0.00020079 </v>
   <v>      -0.00000032       0.00020084       0.39553096 </v>
  </varray>
  <energy>
   <i name="e_fr_energy">    -21.44871717 </i>
   <i name="e_wo_entrp">    -21.44871717 </i>
   <i name="e_0_energy">     -0.00000000 </i>
  </energy>
  <time name="totalsc">    8.14    8.16</time>
 </calculation>
 <calculation>
  <scstep>
   <time name="dav">    1.25    1.25</time>
   <time name="total">    1.33    1.33</time>
   <energy>
    <i name="alphaZ">      5.36240937 </i>
    <i name="ewald">   1905.72000240 </i>
    <i name="hartreedc">  -2516.13207117 </i>
    <i name="XCdc">     14.23590725 </i>
    <i name="pawpsdc">   2149.82751174 </i>
    <i name="pawaedc">  -2117.53690698 </i>
    <i name="eentropy">     -0.00000000 </i>
    <i name="bandstr">   -167.09338099 </i>
    <i name="atom">    704.16778566 </i>
    <i name="e_fr_energy">    -21.44874271 </i>
    <i name="e_wo_entrp">    -21.44874271 </i>
    <i name="e_0_energy">    -21.44874271 </i>
   </energy>
  </scstep>
  <scstep>
   <time name="dav">    1.58    1.58</time>
   <time name="total">    1.67    1.67</time>
   <energy>
    <i name="e_fr_energy">    -21.44877437 </i>
    <i name="e_wo_entrp">    -21.44877437 </i>
    <i name="e_0_energy">    -21.44877437 </i>
   </energy>
  </scstep>
  <scstep>
   <time name="dav">    1.13    1.13</time>
   <time name="total">    1.22    1.22</time>
   <energy>
    <i name="e_fr_energy">    -21.44877285 </i>
    <i name="e_wo_entrp">    -21.44877285 </i>
    <i name="e_0_energy">    -21.44877285 </i>
   </energy>
  </scstep>
  <scstep>
   <time name="dav">    1.02    1.02</time>
   <time name="total">    1.10    1.11</time>
   <energy>
    <i name="e_fr_energy">    -21.44877255 </i>
    <i name="e_wo_entrp">    -21.44877255 </i>
    <i name="e_0_energy">    -21.44877255 </i>
   </energy>
  </scstep>
  <scstep>
   <time name="dav">    1.01    1.01</time>
   <time name="total">    1.10    1.10</time>
   <energy>
    <i name="e_fr_energy">    -21.44877258 </i>
    <i name="e_wo_entrp">    -21.44877258 </i>
    <i name="e_0_energy">    -21.44877258 </i>
   </energy>
  </scstep>
  <scstep>
   <time name="dav">    0.96    0.96</time>
   <time name="total">    0.97    0.97</time>
   <energy>
    <i name="alphaZ">      5.36240937 </i>
    <i name="ewald">   1905.72000240 </i>
    <i name="hartreedc">  -2516.13218143 </i>
    <i name="XCdc">     14.23532810 </i>
    <i name="pawpsdc">   2145.61059825 </i>
    <i name="pawaedc">  -2113.31853452 </i>
    <i name="eentropy">     -0.00000000 </i>
    <i name="bandstr">   -167.09418041 </i>
    <i name="atom">    704.16778566 </i>
    <i name="e_fr_energy">    -21.44877258 </i>
    <i name="e_wo_entrp">    -21.44877258 </i>
    <i name="e_0_energy">    -21.44877258 </i>
   </energy>
  </scstep>
  <structure>
   <crystal>
    <varray name="basis" >
     <v>       3.26406500       0.00000000       0.00000000 </v>
     <v>       0.00000000       4.57688400      -0.00005300 </v>
     <v>       0.00000000       0.00000000      20.02439000 </v>
    </varray>
    <i name="volume">    299.14930570 </i>
    <varray name="rec_basis" >
     <v>       0.30636645       0.00000000       0.00000000 </v>
     <v>       0.00000000       0.21848926       0.00000000 </v>
     <v>       0.00000000       0.00000058       0.04993910 </v>
    </varray>
   </crystal>
   <varray name="positions" >
    <v>       0.50000000       0.91284937       0.55273989 </v>
    <v>       0.50000000       0.08715063       0.44726011 </v>
    <v>      -0.00000000       0.41284462       0.44726012 </v>
    <v>       0.00000000       0.58715538       0.55273988 </v>
   </varray>
  </structure>
  <varray name="forces" >
   <v>      -0.00000001      -0.00035111       0.00042508 </v>
   <v>       0.00000001       0.00035111      -0.00042508 </v>
   <v>       0.00000001      -0.00036628      -0.00042542 </v>
   <v>      -0.00000001       0.00036628       0.00042542 </v>
  </varray>
  <varray name="stress" >
   <v>       6.49011250      -0.00000011      -0.00000022 </v>
   <v>      -0.00000017       2.20554998       0.00013986 </v>
   <v>      -0.00000027       0.00013988      -0.05566502 </v>
  </varray>
  <energy>
   <i name="e_fr_energy">    -21.44877258 </i>
   <i name="e_wo_entrp">    -21.44877258 </i>
   <i name="e_0_energy">     -0.00000000 </i>
  </energy>
  <time name="totalsc">    8.08    8.10</time>
  <eigenvalues>
   <array>
    <dimension dim="1">band</dimension>
    <dimension dim="2">kpoint</dimension>
    <dimension dim="3">spin</dimension>
    <field>eigene</field>
    <field>occ</field>
    <set>
     <set comment="spin 1">
      <set comment="kpoint 1">
       <r>  -17.2602    1.0000 </r>
       <r>  -14.7841    1.0000 </r>
       <r>  -11.3259    1.0000 </r>
       <r>   -7.9407    1.0000 </r>
       <r>   -6.8864    1.0000 </r>
       <r>   -6.7956    1.0000 </r>
       <r>   -5.4236    1.0000 </r>
       <r>   -3.9686    1.0000 </r>
       <r>   -3.8348    1.0000 </r>
       <r>   -2.2057    1.0000 </r>
       <r>   -1.4003    0.0000 </r>
       <r>   -0.4280    0.0000 </r>
       <r>    0.6729    0.0000 </r>
       <r>    1.2747    0.0000 </r>
       <r>    2.1738    0.0000 </r>
       <r>    2.3257    0.0000 </r>
      </set>
      <set comment="kpoint 2">
       <r>  -17.2350    1.0000 </r>
       <r>  -14.7578    1.0000 </r>
       <r>  -11.3330    1.0000 </r>
       <r>   -7.9212    1.0000 </r>
       <r>   -6.8991    1.0000 </r>
       <r>   -6.7731    1.0000 </r>
       <r>   -5.5936    1.0000 </r>
       <r>   -4.0132    1.0000 </r>
       <r>   -3.9565    1.0000 </r>
       <r>   -2.2029    1.0000 </r>
       <r>   -1.3763    0.0000 </r>
       <r>   -0.1971    0.0000 </r>
       <r>    0.9010    0.0000 </r>
       <r>    1.1123    0.0000 </r>
       <r>    2.2003    0.0000 </r>
       <r>    2.3541    0.0000 </r>
      </set>
      <set comment="kpoint 3">
       <r>  -17.1593    1.0000 </r>
       <r>  -14.6790    1.0000 </r>
       <r>  -11.3591    1.0000 </r>
       <r>   -7.8630    1.0000 </r>
       <r>   -6.9533    1.0000 </r>
       <r>   -6.7061    1.0000 </r>
       <r>   -6.0132    1.0000 </r>
       <r>   -4.4352    1.0000 </r>
       <r>   -3.9228    1.0000 </r>
       <r>   -2.2141    1.0000 </r>
       <r>   -1.3047    0.0000 </r>
       <r>    0.4247    0.0000 </r>
       <r>    0.7054    0.0000 </r>
       <r>    1.4665    0.0000 </r>
       <r>    2.2769    0.0000 </r>
       <r>    2.4386    0.0000 </r>
      </set>
      <set comment="kpoint 4">
       <r>  -17.0334    1.0000 </r>
       <r>  -14.5478    1.0000 </r>
       <r>  -11.4185    1.0000 </r>
       <r>   -7.7683    1.0000 </r>
       <r>   -7.1019    1.0000 </r>
       <r>   -6.5955    1.0000 </r>
       <r>   -6.5226    1.0000 </r>
       <r>   -4.8908    1.0000 </r>
       <r>   -3.8764    1.0000 </r>
       <r>   -2.2610    1.0000 </r>
       <r>   -1.1864    0.0000 </r>
       <r>    0.1925    0.0000 </r>
       <r>    1.2999    0.0000 </r>
       <r>    2.0866    0.0000 </r>
       <r>    2.3794    0.0000 </r>
       <r>    2.5785    0.0000 </r>
      </set>
      <set comment="kpoint 5">
       <r>  -16.8580    1.0000 </r>
       <r>  -14.3644    1.0000 </r>
       <r>  -11.5346    1.0000 </r>
       <r>   -7.6406    1.0000 </r>
       <r>   -7.4197    1.0000 </r>
       <r>   -7.0020    1.0000 </r>
       <r>   -6.4434    1.0000 </r>
       <r>   -5.2072    1.0000 </r>
       <r>   -3.8344    1.0000 </r>
       <r>   -2.3547    1.0000 </r>
       <r>   -1.0231    0.0000 </r>
       <r>   -0.3210    0.0000 </r>
       <r>    2.1348    0.0000 </r>
       <r>    2.1956    0.0000 </r>
       <r>    2.2978    0.0000 </r>
       <r>    2.7219    0.0000 </r>
      </set>
      <set comment="kpoint 6">
       <r>  -16.6337    1.0000 </r>
       <r>  -14.1293    1.0000 </r>
       <r>  -11.7336    1.0000 </r>
       <r>   -7.9211    1.0000 </r>
       <r>   -7.4862    1.0000 </r>
       <r>   -7.3757    1.0000 </r>
       <r>   -6.2530    1.0000 </r>
       <r>   -5.3238    1.0000 </r>
       <r>   -3.8253    1.0000 </r>
       <r>   -2.5043    1.0000 </r>
       <r>   -0.8187    0.0000 </r>
       <r>   -0.7550    0.0000 </r>
       <r>    1.5662    0.0000 </r>
       <r>    1.6433    0.0000 </r>
       <r>    2.7968    0.0000 </r>
       <r>    2.9309    0.0000 </r>
      </set>
      <set comment="kpoint 7">
       <r>  -16.3616    1.0000 </r>
       <r>  -13.8429    1.0000 </r>
       <r>  -12.0314    1.0000 </r>
       <r>   -8.5363    1.0000 </r>
       <r>   -7.6035    1.0000 </r>
       <r>   -7.3160    1.0000 </r>
       <r>   -6.0294    1.0000 </r>
       <r>   -5.2925    1.0000 </r>
       <r>   -3.8824    1.0000 </r>
       <r>   -2.7150    1.0000 </r>
       <r>   -1.0414    0.0000 </r>
       <r>   -0.5838    0.0000 </r>
       <r>    0.9123    0.0000 </r>
       <r>    1.0803    0.0000 </r>
       <r>    2.3436    0.0000 </r>
       <r>    3.2324    0.0000 </r>
      </set>
      <set comment="kpoint 8">
       <r>  -16.0435    1.0000 </r>
       <r>  -13.5058    1.0000 </r>
       <r>  -12.4215    1.0000 </r>
       <r>   -9.1942    1.0000 </r>
       <r>   -7.6815    1.0000 </r>
       <r>   -7.1481    1.0000 </r>
       <r>   -5.7808    1.0000 </r>
       <r>   -5.1827    1.0000 </r>
       <r>   -4.0160    1.0000 </r>
       <r>   -2.9825    1.0000 </r>
       <r>   -1.1388    0.0000 </r>
       <r>   -0.3605    0.0000 </r>
       <r>    0.2966    0.0000 </r>
       <r>    0.6025    0.0000 </r>
       <r>    1.8376    0.0000 </r>
       <r>    3.2413    0.0000 </r>
      </set>
      <set comment="kpoint 9">
       <r>  -15.6813    1.0000 </r>
       <r>  -13.1189    1.0000 </r>
       <r>  -12.8783    1.0000 </r>
       <r>   -9.8536    1.0000 </r>
       <r>   -7.6334    1.0000 </r>
       <r>   -7.0119    1.0000 </r>
       <r>   -5.5203    1.0000 </r>
       <r>   -5.0467    1.0000 </r>
       <r>   -4.1829    1.0000 </r>
       <r>   -3.2911    1.0000 </r>
       <r>   -1.0543    0.0000 </r>
       <r>   -0.3434    0.0000 </r>
       <r>   -0.2367    0.0000 </r>
       <r>    0.4309    0.0000 </r>
       <r>    1.3342    0.0000 </r>
       <r>    2.8510    0.0000 </r>
      </set>
      <set comment="kpoint 10">
       <r>  -15.2780    1.0000 </r>
       <r>  -13.3710    1.0000 </r>
       <r>  -12.6833    1.0000 </r>
       <r>  -10.4934    1.0000 </r>
       <r>   -7.4957    1.0000 </r>
       <r>   -6.9475    1.0000 </r>
       <r>   -5.2683    1.0000 </r>
       <r>   -4.9292    1.0000 </r>
       <r>   -4.3015    1.0000 </r>
       <r>   -3.6146    1.0000 </r>
       <r>   -0.8276    0.0000 </r>
       <r>   -0.6504    0.0000 </r>
       <r>   -0.6094    0.0000 </r>
       <r>    0.6685    0.0000 </r>
       <r>    0.8357    0.0000 </r>
       <r>    2.4049    0.0000 </r>
      </set>
      <set comment="kpoint 11">
       <r>  -14.8378    1.0000 </r>
       <r>  -13.8734    1.0000 </r>
       <r>  -12.2004    1.0000 </r>
       <r>  -11.1019    1.0000 </r>
       <r>   -7.3098    1.0000 </r>
       <r>   -6.9867    1.0000 </r>
       <r>   -5.0545    1.0000 </r>
       <r>   -4.8742    1.0000 </r>
       <r>   -4.3007    1.0000 </r>
       <r>   -3.9189    1.0000 </r>
       <r>   -0.9058    0.0000 </r>
       <r>   -0.8610    0.0000 </r>
       <r>   -0.4989    0.0000 </r>
       <r>    0.3529    0.0000 </r>
       <r>    1.0486    0.0000 </r>
       <r>    1.9399    0.0000 </r>
      </set>
      <set comment="kpoint 12">
       <r>  -14.3667    1.0000 </r>
       <r>  -14.3667    1.0000 </r>
       <r>  -11.6723    1.0000 </r>
       <r>  -11.6723    1.0000 </r>
       <r>   -7.1224    1.0000 </r>
       <r>   -7.1224    1.0000 </r>
       <r>   -4.9146    1.0000 </r>
       <r>   -4.9146    1.0000 </r>
       <r>   -4.1629    1.0000 </r>
       <r>   -4.1629    1.0000 </r>
       <r>   -0.9748    0.0000 </r>
       <r>   -0.9748    0.0000 </r>
       <r>   -0.0981    0.0000 </r>
       <r>   -0.0981    0.0000 </r>
       <r>    1.4812    0.0000 </r>
       <r>    1.4812    0.0000 </r>
      </set>
      <set comment="kpoint 13">
       <r>  -17.2382    1.0000 </r>
       <r>  -14.8123    1.0000 </r>
       <r>  -11.3429    1.0000 </r>
       <r>   -8.0869    1.0000 </r>
       <r>   -6.8104    1.0000 </r>
       <r>   -6.6945    1.0000 </r>
       <r>   -5.4067    1.0000 </r>
       <r>   -3.8604    1.0000 </r>
       <r>   -3.8494    1.0000 </r>
       <r>   -2.4240    1.0000 </r>
       <r>   -1.1990    0.0000 </r>
       <r>   -0.4116    0.0000 </r>
       <r>    0.6285    0.0000 </r>
       <r>    1.2562    0.0000 </r>
       <r>    2.2358    0.0000 </r>
       <r>    2.3569    0.0000 </r>
      </set>
      <set comment="kpoint 14">
       <r>  -17.2129    1.0000 </r>
       <r>  -14.7861    1.0000 </r>
       <r>  -11.3486    1.0000 </r>
       <r>   -8.0702    1.0000 </r>
       <r>   -6.8181    1.0000 </r>
       <r>   -6.6793    1.0000 </r>
       <r>   -5.5701    1.0000 </r>
       <r>   -4.0404    1.0000 </r>
       <r>   -3.8413    1.0000 </r>
       <r>   -2.4175    1.0000 </r>
       <r>   -1.1793    0.0000 </r>
       <r>   -0.1809    0.0000 </r>
       <r>    0.8470    0.0000 </r>
       <r>    1.1069    0.0000 </r>
       <r>    2.2610    0.0000 </r>
       <r>    2.3851    0.0000 </r>
      </set>
      <set comment="kpoint 15">
       <r>  -17.1373    1.0000 </r>
       <r>  -14.7078    1.0000 </r>
       <r>  -11.3705    1.0000 </r>
       <r>   -8.0226    1.0000 </r>
       <r>   -6.8550    1.0000 </r>
       <r>   -6.6483    1.0000 </r>
       <r>   -5.9566    1.0000 </r>
       <r>   -4.4707    1.0000 </r>
       <r>   -3.8158    1.0000 </r>
       <r>   -2.4130    1.0000 </r>
       <r>   -1.1236    0.0000 </r>
       <r>    0.4404    0.0000 </r>
       <r>    0.6816    0.0000 </r>
       <r>    1.4437    0.0000 </r>
       <r>    2.3339    0.0000 </r>
       <r>    2.4694    0.0000 </r>
      </set>
      <set comment="kpoint 16">
       <r>  -17.0115    1.0000 </r>
       <r>  -14.5774    1.0000 </r>
       <r>  -11.4228    1.0000 </r>
       <r>   -7.9557    1.0000 </r>
       <r>   -6.9652    1.0000 </r>
       <r>   -6.7330    1.0000 </r>
       <r>   -6.2773    1.0000 </r>
       <r>   -4.9373    1.0000 </r>
       <r>   -3.7844    1.0000 </r>
       <r>   -2.4319    1.0000 </r>
       <r>   -1.0318    0.0000 </r>
       <r>    0.1871    0.0000 </r>
       <r>    1.3117    0.0000 </r>
       <r>    2.0816    0.0000 </r>
       <r>    2.4241    0.0000 </r>
       <r>    2.6087    0.0000 </r>
      </set>
      <set comment="kpoint 17">
       <r>  -16.8362    1.0000 </r>
       <r>  -14.3955    1.0000 </r>
       <r>  -11.5291    1.0000 </r>
       <r>   -7.9169    1.0000 </r>
       <r>   -7.1864    1.0000 </r>
       <r>   -7.0997    1.0000 </r>
       <r>   -6.2485    1.0000 </r>
       <r>   -5.2608    1.0000 </r>
       <r>   -3.7665    1.0000 </r>
       <r>   -2.4908    1.0000 </r>
       <r>   -0.9006    0.0000 </r>
       <r>   -0.3006    0.0000 </r>
       <r>    2.0060    0.0000 </r>
       <r>    2.2064    0.0000 </r>
       <r>    2.3790    0.0000 </r>
       <r>    2.6749    0.0000 </r>
      </set>
      <set comment="kpoint 18">
       <r>  -16.6122    1.0000 </r>
       <r>  -14.1628    1.0000 </r>
       <r>  -11.7163    1.0000 </r>
       <r>   -8.1004    1.0000 </r>
       <r>   -7.4539    1.0000 </r>
       <r>   -7.3496    1.0000 </r>
       <r>   -6.0915    1.0000 </r>
       <r>   -5.3771    1.0000 </r>
       <r>   -3.7909    1.0000 </r>
       <r>   -2.6045    1.0000 </r>
       <r>   -0.7286    0.0000 </r>
       <r>   -0.6982    0.0000 </r>
       <r>    1.4527    0.0000 </r>
       <r>    1.6722    0.0000 </r>
       <r>    2.7549    0.0000 </r>
       <r>    3.0485    0.0000 </r>
      </set>
      <set comment="kpoint 19">
       <r>  -16.3405    1.0000 </r>
       <r>  -13.8810    1.0000 </r>
       <r>  -12.0010    1.0000 </r>
       <r>   -8.6085    1.0000 </r>
       <r>   -7.6768    1.0000 </r>
       <r>   -7.2873    1.0000 </r>
       <r>   -5.8895    1.0000 </r>
       <r>   -5.3464    1.0000 </r>
       <r>   -3.8833    1.0000 </r>
       <r>   -2.7822    1.0000 </r>
       <r>   -0.9426    0.0000 </r>
       <r>   -0.5227    0.0000 </r>
       <r>    0.8874    0.0000 </r>
       <r>    1.0252    0.0000 </r>
       <r>    2.4982    0.0000 </r>
       <r>    3.3091    0.0000 </r>
      </set>
      <set comment="kpoint 20">
       <r>  -16.0228    1.0000 </r>
       <r>  -13.5555    1.0000 </r>
       <r>  -12.3736    1.0000 </r>
       <r>   -9.2350    1.0000 </r>
       <r>   -7.7512    1.0000 </r>
       <r>   -7.1482    1.0000 </r>
       <r>   -5.6644    1.0000 </r>
       <r>   -5.2495    1.0000 </r>
       <r>   -4.0341    1.0000 </r>
       <r>   -3.0200    1.0000 </r>
       <r>   -1.0061    0.0000 </r>
       <r>   -0.3291    0.0000 </r>
       <r>    0.4084    0.0000 </r>
       <r>    0.4187    0.0000 </r>
       <r>    2.0560    0.0000 </r>
       <r>    3.1826    0.0000 </r>
      </set>
      <set comment="kpoint 21">
       <r>  -15.6613    1.0000 </r>
       <r>  -13.2298    1.0000 </r>
       <r>  -12.7659    1.0000 </r>
       <r>   -9.8817    1.0000 </r>
       <r>   -7.6975    1.0000 </r>
       <r>   -7.0189    1.0000 </r>
       <r>   -5.4367    1.0000 </r>
       <r>   -5.1513    1.0000 </r>
       <r>   -4.1762    1.0000 </r>
       <r>   -3.2986    1.0000 </r>
       <r>   -0.9128    0.0000 </r>
       <r>   -0.3906    0.0000 </r>
       <r>   -0.1246    0.0000 </r>
       <r>    0.3071    0.0000 </r>
       <r>    1.5906    0.0000 </r>
       <r>    2.8033    0.0000 </r>
      </set>
      <set comment="kpoint 22">
       <r>  -15.2592    1.0000 </r>
       <r>  -13.3951    1.0000 </r>
       <r>  -12.6562    1.0000 </r>
       <r>  -10.5147    1.0000 </r>
       <r>   -7.5512    1.0000 </r>
       <r>   -6.9564    1.0000 </r>
       <r>   -5.2358    1.0000 </r>
       <r>   -5.0950    1.0000 </r>
       <r>   -4.2242    1.0000 </r>
       <r>   -3.5856    1.0000 </r>
       <r>   -0.7851    0.0000 </r>
       <r>   -0.6942    0.0000 </r>
       <r>   -0.4541    0.0000 </r>
       <r>    0.5332    0.0000 </r>
       <r>    1.1558    0.0000 </r>
       <r>    2.3660    0.0000 </r>
      </set>
      <set comment="kpoint 23">
       <r>  -14.8210    1.0000 </r>
       <r>  -13.8683    1.0000 </r>
       <r>  -12.2025    1.0000 </r>
       <r>  -11.1182    1.0000 </r>
       <r>   -7.3536    1.0000 </r>
       <r>   -7.0027    1.0000 </r>
       <r>   -5.0994    1.0000 </r>
       <r>   -5.0663    1.0000 </r>
       <r>   -4.1644    1.0000 </r>
       <r>   -3.8411    1.0000 </r>
       <r>   -0.9362    0.0000 </r>
       <r>   -0.9357    0.0000 </r>
       <r>   -0.2647    0.0000 </r>
       <r>    0.4954    0.0000 </r>
       <r>    1.1001    0.0000 </r>
       <r>    1.9117    0.0000 </r>
      </set>
      <set comment="kpoint 24">
       <r>  -14.3535    1.0000 </r>
       <r>  -14.3535    1.0000 </r>
       <r>  -11.6833    1.0000 </r>
       <r>  -11.6833    1.0000 </r>
       <r>   -7.1518    1.0000 </r>
       <r>   -7.1518    1.0000 </r>
       <r>   -5.0522    1.0000 </r>
       <r>   -5.0522    1.0000 </r>
       <r>   -4.0347    1.0000 </r>
       <r>   -4.0347    1.0000 </r>
       <r>   -1.0250    0.0000 </r>
       <r>   -1.0250    0.0000 </r>
       <r>    0.1071    0.0000 </r>
       <r>    0.1072    0.0000 </r>
       <r>    1.4716    0.0000 </r>
       <r>    1.4716    0.0000 </r>
      </set>
      <set comment="kpoint 25">
       <r>  -14.8210    1.0000 </r>
       <r>  -13.8683    1.0000 </r>
       <r>  -12.2025    1.0000 </r>
       <r>  -11.1182    1.0000 </r>
       <r>   -7.3536    1.0000 </r>
       <r>   -7.0027    1.0000 </r>
       <r>   -5.0994    1.0000 </r>
       <r>   -5.0663    1.0000 </r>
       <r>   -4.1644    1.0000 </r>
       <r>   -3.8411    1.0000 </r>
       <r>   -0.9362    0.0000 </r>
       <r>   -0.9357    0.0000 </r>
       <r>   -0.2647    0.0000 </r>
       <r>    0.4954    0.0000 </r>
       <r>    1.1001    0.0000 </r>
       <r>    1.9117    0.0000 </r>
      </set>
      <set comment="kpoint 26">
       <r>  -15.2592    1.0000 </r>
       <r>  -13.3951    1.0000 </r>
       <r>  -12.6562    1.0000 </r>
       <r>  -10.5147    1.0000 </r>
       <r>   -7.5512    1.0000 </r>
       <r>   -6.9564    1.0000 </r>
       <r>   -5.2358    1.0000 </r>
       <r>   -5.0950    1.0000 </r>
       <r>   -4.2242    1.0000 </r>
       <r>   -3.5856    1.0000 </r>
       <r>   -0.7851    0.0000 </r>
       <r>   -0.6942    0.0000 </r>
       <r>   -0.4541    0.0000 </r>
       <r>    0.5332    0.0000 </r>
       <r>    1.1558    0.0000 </r>
       <r>    2.3660    0.0000 </r>
      </set>
      <set comment="kpoint 27">
       <r>  -15.6613    1.0000 </r>
       <r>  -13.2298    1.0000 </r>
       <r>  -12.7659    1.0000 </r>
       <r>   -9.8817    1.0000 </r>
       <r>   -7.6975    1.0000 </r>
       <r>   -7.0189    1.0000 </r>
       <r>   -5.4367    1.0000 </r>
       <r>   -5.1513    1.0000 </r>
       <r>   -4.1762    1.0000 </r>
       <r>   -3.2986    1.0000 </r>
       <r>   -0.9128    0.0000 </r>
       <r>   -0.3906    0.0000 </r>
       <r>   -0.1246    0.0000 </r>
       <r>    0.3071    0.0000 </r>
       <r>    1.5906    0.0000 </r>
       <r>    2.8033    0.0000 </r>
      </set>
      <set comment="kpoint 28">
       <r>  -16.0228    1.0000 </r>
       <r>  -13.5555    1.0000 </r>
       <r>  -12.3736    1.0000 </r>
       <r>   -9.2350    1.0000 </r>
       <r>   -7.7512    1.0000 </r>
       <r>   -7.1482    1.0000 </r>
       <r>   -5.6644    1.0000 </r>
       <r>   -5.2495    1.0000 </r>
       <r>   -4.0341    1.0000 </r>
       <r>   -3.0200    1.0000 </r>
       <r>   -1.0061    0.0000 </r>
       <r>   -0.3291    0.0000 </r>
       <r>    0.4084    0.0000 </r>
       <r>    0.4187    0.0000 </r>
       <r>    2.0560    0.0000 </r>
       <r>    3.1826    0.0000 </r>
      </set>
      <set comment="kpoint 29">
       <r>  -16.3405    1.0000 </r>
       <r>  -13.8810    1.0000 </r>
       <r>  -12.0010    1.0000 </r>
       <r>   -8.6085    1.0000 </r>
       <r>   -7.6768    1.0000 </r>
       <r>   -7.2873    1.0000 </r>
       <r>   -5.8895    1.0000 </r>
       <r>   -5.3464    1.0000 </r>
       <r>   -3.8833    1.0000 </r>
       <r>   -2.7822    1.0000 </r>
       <r>   -0.9426    0.0000 </r>
       <r>   -0.5227    0.0000 </r>
       <r>    0.8874    0.0000 </r>
       <r>    1.0252    0.0000 </r>
       <r>    2.4982    0.0000 </r>
       <r>    3.3089    0.0000 </r>
      </set>
      <set comment="kpoint 30">
       <r>  -16.6122    1.0000 </r>
       <r>  -14.1628    1.0000 </r>
       <r>  -11.7163    1.0000 </r>
       <r>   -8.1004    1.0000 </r>
       <r>   -7.4539    1.0000 </r>
       <r>   -7.3496    1.0000 </r>
       <r>   -6.0915    1.0000 </r>
       <r>   -5.3771    1.0000 </r>
       <r>   -3.7909    1.0000 </r>
       <r>   -2.6045    1.0000 </r>
       <r>   -0.7286    0.0000 </r>
       <r>   -0.6982    0.0000 </r>
       <r>    1.4527    0.0000 </r>
       <r>    1.6722    0.0000 </r>
       <r>    2.7549    0.0000 </r>
       <r>    3.0485    0.0000 </r>
      </set>
      <set comment="kpoint 31">
       <r>  -16.8362    1.0000 </r>
       <r>  -14.3955    1.0000 </r>
       <r>  -11.5291    1.0000 </r>
       <r>   -7.9169    1.0000 </r>
       <r>   -7.1864    1.0000 </r>
       <r>   -7.0997    1.0000 </r>
       <r>   -6.2485    1.0000 </r>
       <r>   -5.2608    1.0000 </r>
       <r>   -3.7665    1.0000 </r>
       <r>   -2.4908    1.0000 </r>
       <r>   -0.9006    0.0000 </r>
       <r>   -0.3006    0.0000 </r>
       <r>    2.0060    0.0000 </r>
       <r>    2.2064    0.0000 </r>
       <r>    2.3790    0.0000 </r>
       <r>    2.6749    0.0000 </r>
      </set>
      <set comment="kpoint 32">
       <r>  -17.0115    1.0000 </r>
       <r>  -14.5774    1.0000 </r>
       <r>  -11.4228    1.0000 </r>
       <r>   -7.9557    1.0000 </r>
       <r>   -6.9652    1.0000 </r>
       <r>   -6.7330    1.0000 </r>
       <r>   -6.2773    1.0000 </r>
       <r>   -4.9373    1.0000 </r>
       <r>   -3.7844    1.0000 </r>
       <r>   -2.4319    1.0000 </r>
       <r>   -1.0318    0.0000 </r>
       <r>    0.1871    0.0000 </r>
       <r>    1.3117    0.0000 </r>
       <r>    2.0816    0.0000 </r>
       <r>    2.4241    0.0000 </r>
       <r>    2.6087    0.0000 </r>
      </set>
      <set comment="kpoint 33">
       <r>  -17.1373    1.0000 </r>
       <r>  -14.7078    1.0000 </r>
       <r>  -11.3705    1.0000 </r>
       <r>   -8.0226    1.0000 </r>
       <r>   -6.8550    1.0000 </r>
       <r>   -6.6483    1.0000 </r>
       <r>   -5.9566    1.0000 </r>
       <r>   -4.4707    1.0000 </r>
       <r>   -3.8158    1.0000 </r>
       <r>   -2.4130    1.0000 </r>
       <r>   -1.1236    0.0000 </r>
       <r>    0.4404    0.0000 </r>
       <r>    0.6816    0.0000 </r>
       <r>    1.4437    0.0000 </r>
       <r>    2.3339    0.0000 </r>
       <r>    2.4694    0.0000 </r>
      </set>
      <set comment="kpoint 34">
       <r>  -17.2129    1.0000 </r>
       <r>  -14.7861    1.0000 </r>
       <r>  -11.3486    1.0000 </r>
       <r>   -8.0702    1.0000 </r>
       <r>   -6.8181    1.0000 </r>
       <r>   -6.6793    1.0000 </r>
       <r>   -5.5701    1.0000 </r>
       <r>   -4.0404    1.0000 </r>
       <r>   -3.8413    1.0000 </r>
       <r>   -2.4175    1.0000 </r>
       <r>   -1.1793    0.0000 </r>
       <r>   -0.1809    0.0000 </r>
       <r>    0.8470    0.0000 </r>
       <r>    1.1069    0.0000 </r>
       <r>    2.2610    0.0000 </r>
       <r>    2.3851    0.0000 </r>
      </set>
      <set comment="kpoint 35">
       <r>  -17.1724    1.0000 </r>
       <r>  -14.8975    1.0000 </r>
[...]
       <r>    3.4260    0.0000 </r>
       <r>    3.4795    0.0000 </r>
      </set>
      <set comment="kpoint 161">
       <r>  -15.4054    1.0000 </r>
       <r>  -15.1504    1.0000 </r>
       <r>  -10.7877    1.0000 </r>
       <r>  -10.4601    1.0000 </r>
       <r>   -7.8499    1.0000 </r>
       <r>   -7.6854    1.0000 </r>
       <r>   -5.1671    1.0000 </r>
       <r>   -4.9192    1.0000 </r>
       <r>   -3.7756    1.0000 </r>
       <r>   -3.7080    1.0000 </r>
       <r>    0.3985    0.0000 </r>
       <r>    0.7945    0.0000 </r>
       <r>    1.2293    0.0000 </r>
       <r>    1.5539    0.0000 </r>
       <r>    3.4412    0.0000 </r>
       <r>    3.4418    0.0000 </r>
      </set>
      <set comment="kpoint 162">
       <r>  -15.6616    1.0000 </r>
       <r>  -15.4028    1.0000 </r>
       <r>  -10.6953    1.0000 </r>
       <r>  -10.3660    1.0000 </r>
       <r>   -7.4538    1.0000 </r>
       <r>   -7.2809    1.0000 </r>
       <r>   -5.1149    1.0000 </r>
       <r>   -4.8146    1.0000 </r>
       <r>   -3.6344    1.0000 </r>
       <r>   -3.5822    1.0000 </r>
       <r>    0.4318    0.0000 </r>
       <r>    0.7334    0.0000 </r>
       <r>    1.2871    0.0000 </r>
       <r>    1.6460    0.0000 </r>
       <r>    3.1674    0.0000 </r>
       <r>    3.4107    0.0000 </r>
      </set>
      <set comment="kpoint 163">
       <r>  -15.8757    1.0000 </r>
       <r>  -15.6147    1.0000 </r>
       <r>  -10.6953    1.0000 </r>
       <r>  -10.3712    1.0000 </r>
       <r>   -6.8931    1.0000 </r>
       <r>   -6.7072    1.0000 </r>
       <r>   -5.1649    1.0000 </r>
       <r>   -4.8338    1.0000 </r>
       <r>   -3.5118    1.0000 </r>
       <r>   -3.3382    1.0000 </r>
       <r>    0.5612    0.0000 </r>
       <r>    0.7445    0.0000 </r>
       <r>    1.2582    0.0000 </r>
       <r>    1.6378    0.0000 </r>
       <r>    2.5809    0.0000 </r>
       <r>    2.8230    0.0000 </r>
      </set>
      <set comment="kpoint 164">
       <r>  -16.0445    1.0000 </r>
       <r>  -15.7823    1.0000 </r>
       <r>  -10.7366    1.0000 </r>
       <r>  -10.4182    1.0000 </r>
       <r>   -6.2404    1.0000 </r>
       <r>   -6.0435    1.0000 </r>
       <r>   -5.2424    1.0000 </r>
       <r>   -4.8978    1.0000 </r>
       <r>   -3.4322    1.0000 </r>
       <r>   -3.1450    1.0000 </r>
       <r>    0.7319    0.0000 </r>
       <r>    0.7935    0.0000 </r>
       <r>    1.1636    0.0000 </r>
       <r>    1.5095    0.0000 </r>
       <r>    1.9563    0.0000 </r>
       <r>    2.0852    0.0000 </r>
      </set>
      <set comment="kpoint 165">
       <r>  -16.1662    1.0000 </r>
       <r>  -15.9033    1.0000 </r>
       <r>  -10.7841    1.0000 </r>
       <r>  -10.4700    1.0000 </r>
       <r>   -5.5691    1.0000 </r>
       <r>   -5.3864    1.0000 </r>
       <r>   -5.2931    1.0000 </r>
       <r>   -4.9614    1.0000 </r>
       <r>   -3.4456    1.0000 </r>
       <r>   -3.0596    1.0000 </r>
       <r>    0.6132    0.0000 </r>
       <r>    0.6254    0.0000 </r>
       <r>    1.1623    0.0000 </r>
       <r>    1.3096    0.0000 </r>
       <r>    1.6608    0.0000 </r>
       <r>    1.6951    0.0000 </r>
      </set>
      <set comment="kpoint 166">
       <r>  -16.2396    1.0000 </r>
       <r>  -15.9764    1.0000 </r>
       <r>  -10.8187    1.0000 </r>
       <r>  -10.5070    1.0000 </r>
       <r>   -5.3641    1.0000 </r>
       <r>   -5.0060    1.0000 </r>
       <r>   -4.9796    1.0000 </r>
       <r>   -4.7848    1.0000 </r>
       <r>   -3.5613    1.0000 </r>
       <r>   -3.0935    1.0000 </r>
       <r>    0.2123    0.0000 </r>
       <r>    0.2289    0.0000 </r>
       <r>    1.2289    0.0000 </r>
       <r>    1.3751    0.0000 </r>
       <r>    1.6069    0.0000 </r>
       <r>    1.6290    0.0000 </r>
      </set>
     </set>
    </set>
   </array>
  </eigenvalues>
  <separator name="orbital magnetization" >
   <v name="MAGDIPOLOUT">      0.00000000      0.00000000      0.00000000</v>
  </separator>
  <dos>
   <i name="efermi">     -2.11700239 </i>
   <total>
    <array>
     <dimension dim="1">gridpoints</dimension>
     <dimension dim="2">spin</dimension>
     <field>energy</field>
     <field>total</field>
     <field>integrated</field>
     <set>
      <set comment="spin 1">
       <r>   -18.3052     0.0000     0.0000 </r>
       <r>   -18.2286     0.0000     0.0000 </r>
       <r>   -18.1519     0.0000     0.0000 </r>
       <r>   -18.0753     0.0000     0.0000 </r>
       <r>   -17.9987     0.0000     0.0000 </r>
       <r>   -17.9221     0.0000     0.0000 </r>
       <r>   -17.8454     0.0000     0.0000 </r>
       <r>   -17.7688     0.0000     0.0000 </r>
       <r>   -17.6922     0.0000     0.0000 </r>
       <r>   -17.6155     0.0000     0.0000 </r>
       <r>   -17.5389     0.0000     0.0000 </r>
       <r>   -17.4623     0.0000     0.0000 </r>
       <r>   -17.3856     0.0000     0.0000 </r>
       <r>   -17.3090     0.0000     0.0000 </r>
       <r>   -17.2324     0.2989     0.0229 </r>
       <r>   -17.1557     0.7634     0.0814 </r>
       <r>   -17.0791     0.7170     0.1363 </r>
       <r>   -17.0025     1.0615     0.2177 </r>
       <r>   -16.9259     0.7308     0.2737 </r>
       <r>   -16.8492     0.7089     0.3280 </r>
       <r>   -16.7726     1.0077     0.4052 </r>
       <r>   -16.6960     0.6710     0.4567 </r>
       <r>   -16.6193     1.0778     0.5392 </r>
       <r>   -16.5427     0.5386     0.5805 </r>
       <r>   -16.4661     1.1888     0.6716 </r>
       <r>   -16.3894     0.6314     0.7200 </r>
       <r>   -16.3128     0.8372     0.7842 </r>
       <r>   -16.2362     1.2609     0.8808 </r>
       <r>   -16.1596     0.6129     0.9278 </r>
       <r>   -16.0829     0.7809     0.9876 </r>
       <r>   -16.0063     1.1184     1.0733 </r>
       <r>   -15.9297     0.7969     1.1344 </r>
       <r>   -15.8530     1.2827     1.2327 </r>
       <r>   -15.7764     0.4953     1.2706 </r>
       <r>   -15.6998     0.7937     1.3314 </r>
       <r>   -15.6231     1.5337     1.4490 </r>
       <r>   -15.5465     0.7882     1.5094 </r>
       <r>   -15.4699     0.8804     1.5768 </r>
       <r>   -15.3932     0.9139     1.6469 </r>
       <r>   -15.3166     1.3489     1.7502 </r>
       <r>   -15.2400     0.7762     1.8097 </r>
       <r>   -15.1634     1.2099     1.9024 </r>
       <r>   -15.0867     1.6179     2.0264 </r>
       <r>   -15.0101     0.9159     2.0966 </r>
       <r>   -14.9335     0.9233     2.1673 </r>
       <r>   -14.8568     1.4328     2.2771 </r>
       <r>   -14.7802     2.5491     2.4725 </r>
       <r>   -14.7036     0.8959     2.5411 </r>
       <r>   -14.6269     1.7510     2.6753 </r>
       <r>   -14.5503     1.6007     2.7980 </r>
       <r>   -14.4737     0.5674     2.8415 </r>
       <r>   -14.3970     1.0415     2.9213 </r>
       <r>   -14.3204     1.7713     3.0570 </r>
       <r>   -14.2438     1.4282     3.1665 </r>
       <r>   -14.1672     0.8239     3.2296 </r>
       <r>   -14.0905     1.3101     3.3300 </r>
       <r>   -14.0139     1.3701     3.4350 </r>
       <r>   -13.9373     0.7594     3.4932 </r>
       <r>   -13.8606     1.8464     3.6347 </r>
       <r>   -13.7840     1.4458     3.7455 </r>
       <r>   -13.7074     0.2097     3.7615 </r>
       <r>   -13.6307     0.5099     3.8006 </r>
       <r>   -13.5541     0.6771     3.8525 </r>
       <r>   -13.4775     0.3923     3.8825 </r>
       <r>   -13.4009     0.6500     3.9324 </r>
       <r>   -13.3242     0.4082     3.9636 </r>
       <r>   -13.2476     0.0330     3.9662 </r>
       <r>   -13.1710     0.2835     3.9879 </r>
       <r>   -13.0943     0.1516     3.9995 </r>
       <r>   -13.0177     0.0065     4.0000 </r>
       <r>   -12.9411     0.0000     4.0000 </r>
       <r>   -12.8644     0.1322     4.0101 </r>
       <r>   -12.7878     0.0450     4.0136 </r>
       <r>   -12.7112     0.3011     4.0367 </r>
       <r>   -12.6345     0.4509     4.0712 </r>
       <r>   -12.5579     0.5984     4.1171 </r>
       <r>   -12.4813     0.0816     4.1233 </r>
       <r>   -12.4047     0.4333     4.1565 </r>
       <r>   -12.3280     0.6761     4.2083 </r>
       <r>   -12.2514     0.3929     4.2384 </r>
       <r>   -12.1748     1.6541     4.3652 </r>
       <r>   -12.0981     0.9941     4.4414 </r>
       <r>   -12.0215     0.9580     4.5148 </r>
       <r>   -11.9449     1.0660     4.5965 </r>
       <r>   -11.8682     1.2018     4.6886 </r>
       <r>   -11.7916     1.0250     4.7671 </r>
       <r>   -11.7150     1.1280     4.8535 </r>
       <r>   -11.6383     1.6787     4.9822 </r>
       <r>   -11.5617     1.1103     5.0673 </r>
       <r>   -11.4851     1.2741     5.1649 </r>
       <r>   -11.4085     1.7930     5.3023 </r>
       <r>   -11.3318     4.8010     5.6702 </r>
       <r>   -11.2552     1.2708     5.7676 </r>
       <r>   -11.1786     1.9617     5.9179 </r>
       <r>   -11.1019     0.7775     5.9775 </r>
       <r>   -11.0253     1.6479     6.1038 </r>
       <r>   -10.9487     1.3883     6.2102 </r>
       <r>   -10.8720     0.0290     6.2124 </r>
       <r>   -10.7954     1.0087     6.2897 </r>
       <r>   -10.7188     1.0725     6.3719 </r>
       <r>   -10.6422     1.2369     6.4666 </r>
       <r>   -10.5655     0.2650     6.4870 </r>
       <r>   -10.4889     1.2469     6.5825 </r>
       <r>   -10.4123     0.9192     6.6529 </r>
       <r>   -10.3356     1.0428     6.7328 </r>
       <r>   -10.2590     0.3210     6.7574 </r>
       <r>   -10.1824     0.0068     6.7580 </r>
       <r>   -10.1057     0.9863     6.8335 </r>
       <r>   -10.0291     1.0677     6.9154 </r>
       <r>    -9.9525     0.8929     6.9838 </r>
       <r>    -9.8758     0.2720     7.0046 </r>
       <r>    -9.7992     0.3335     7.0302 </r>
       <r>    -9.7226     0.9582     7.1036 </r>
       <r>    -9.6460     0.5385     7.1449 </r>
       <r>    -9.5693     0.8062     7.2067 </r>
       <r>    -9.4927     0.3086     7.2303 </r>
       <r>    -9.4161     0.0761     7.2361 </r>
       <r>    -9.3394     0.5131     7.2754 </r>
       <r>    -9.2628     0.6447     7.3248 </r>
       <r>    -9.1862     1.3124     7.4254 </r>
       <r>    -9.1095     0.3068     7.4489 </r>
       <r>    -9.0329     0.3104     7.4727 </r>
       <r>    -8.9563     0.0001     7.4727 </r>
       <r>    -8.8796     0.0143     7.4738 </r>
       <r>    -8.8030     1.0890     7.5573 </r>
       <r>    -8.7264     0.9111     7.6271 </r>
       <r>    -8.6498     0.0424     7.6303 </r>
       <r>    -8.5731     0.3146     7.6545 </r>
       <r>    -8.4965     0.1590     7.6666 </r>
       <r>    -8.4199     0.5329     7.7075 </r>
       <r>    -8.3432     0.6513     7.7574 </r>
       <r>    -8.2666     0.5560     7.8000 </r>
       <r>    -8.1900     0.1173     7.8090 </r>
       <r>    -8.1133     1.3948     7.9159 </r>
       <r>    -8.0367     1.9125     8.0624 </r>
       <r>    -7.9601     2.2061     8.2315 </r>
       <r>    -7.8835     2.2053     8.4005 </r>
       <r>    -7.8068     2.0150     8.5549 </r>
       <r>    -7.7302     0.9721     8.6294 </r>
       <r>    -7.6536     3.0195     8.8608 </r>
       <r>    -7.5769     2.3221     9.0387 </r>
       <r>    -7.5003     0.9719     9.1132 </r>
       <r>    -7.4237     1.8290     9.2533 </r>
       <r>    -7.3470     1.8532     9.3954 </r>
       <r>    -7.2704     3.1281     9.6351 </r>
       <r>    -7.1938     2.7470     9.8456 </r>
       <r>    -7.1171     3.2620    10.0955 </r>
       <r>    -7.0405     2.7575    10.3069 </r>
       <r>    -6.9639     2.7325    10.5162 </r>
       <r>    -6.8873     1.8359    10.6569 </r>
       <r>    -6.8106     1.0639    10.7385 </r>
       <r>    -6.7340     1.4138    10.8468 </r>
       <r>    -6.6574     2.4476    11.0344 </r>
       <r>    -6.5807     1.7996    11.1723 </r>
       <r>    -6.5041     0.9261    11.2432 </r>
       <r>    -6.4275     2.6071    11.4430 </r>
       <r>    -6.3508     0.8150    11.5055 </r>
       <r>    -6.2742     1.4059    11.6132 </r>
       <r>    -6.1976     2.3646    11.7944 </r>
       <r>    -6.1209     1.0795    11.8771 </r>
       <r>    -6.0443     0.8855    11.9450 </r>
       <r>    -5.9677     2.1838    12.1123 </r>
       <r>    -5.8911     2.3610    12.2932 </r>
       <r>    -5.8144     1.2290    12.3874 </r>
       <r>    -5.7378     1.9048    12.5334 </r>
       <r>    -5.6612     2.6403    12.7357 </r>
       <r>    -5.5845     3.0159    12.9668 </r>
       <r>    -5.5079     3.4434    13.2307 </r>
       <r>    -5.4313     2.6050    13.4303 </r>
       <r>    -5.3546     5.6721    13.8650 </r>
       <r>    -5.2780     2.2498    14.0374 </r>
       <r>    -5.2014     3.1278    14.2771 </r>
       <r>    -5.1248     3.3167    14.5312 </r>
       <r>    -5.0481     2.9802    14.7596 </r>
       <r>    -4.9715     2.0221    14.9146 </r>
       <r>    -4.8949     2.1822    15.0818 </r>
       <r>    -4.8182     2.0045    15.2354 </r>
       <r>    -4.7416     1.5157    15.3515 </r>
       <r>    -4.6650     0.5749    15.3956 </r>
       <r>    -4.5883     1.5896    15.5174 </r>
       <r>    -4.5117     1.3632    15.6219 </r>
       <r>    -4.4351     1.5563    15.7411 </r>
       <r>    -4.3584     1.0091    15.8184 </r>
       <r>    -4.2818     0.5580    15.8612 </r>
       <r>    -4.2052     0.7641    15.9198 </r>
       <r>    -4.1286     2.7071    16.1272 </r>
       <r>    -4.0519     2.9016    16.3496 </r>
       <r>    -3.9753     2.2525    16.5222 </r>
       <r>    -3.8987     3.1143    16.7608 </r>
       <r>    -3.8220     3.9534    17.0638 </r>
       <r>    -3.7454     3.3599    17.3212 </r>
       <r>    -3.6688     2.7709    17.5336 </r>
       <r>    -3.5921     3.9156    17.8336 </r>
       <r>    -3.5155     3.9084    18.1331 </r>
       <r>    -3.4389     2.4898    18.3239 </r>
       <r>    -3.3622     2.3289    18.5024 </r>
       <r>    -3.2856     4.5184    18.8487 </r>
       <r>    -3.2090     3.4363    19.1120 </r>
       <r>    -3.1324     1.7040    19.2426 </r>
       <r>    -3.0557     1.1401    19.3299 </r>
       <r>    -2.9791     1.1771    19.4201 </r>
       <r>    -2.9025     0.6920    19.4732 </r>
       <r>    -2.8258     1.3889    19.5796 </r>
       <r>    -2.7492     2.2340    19.7508 </r>
       <r>    -2.6726     0.5592    19.7936 </r>
       <r>    -2.5959     0.3135    19.8177 </r>
       <r>    -2.5193     0.1157    19.8265 </r>
       <r>    -2.4427     0.5477    19.8685 </r>
       <r>    -2.3661     1.0376    19.9480 </r>
       <r>    -2.2894     0.1284    19.9578 </r>
       <r>    -2.2128     0.3022    19.9810 </r>
       <r>    -2.1362     0.2478    20.0000 </r>
       <r>    -2.0595     0.0000    20.0000 </r>
       <r>    -1.9829     0.0000    20.0000 </r>
       <r>    -1.9063     0.0000    20.0000 </r>
       <r>    -1.8296     0.0000    20.0000 </r>
       <r>    -1.7530     0.0000    20.0000 </r>
       <r>    -1.6764     0.0000    20.0000 </r>
       <r>    -1.5997     0.0000    20.0000 </r>
       <r>    -1.5231     0.0000    20.0000 </r>
       <r>    -1.4465     0.0000    20.0000 </r>
       <r>    -1.3699     0.1847    20.0142 </r>
       <r>    -1.2932     0.1778    20.0278 </r>
       <r>    -1.2166     0.0537    20.0319 </r>
       <r>    -1.1400     0.7236    20.0874 </r>
       <r>    -1.0633     0.4193    20.1195 </r>
       <r>    -0.9867     1.9810    20.2713 </r>
       <r>    -0.9101     1.7182    20.4030 </r>
       <r>    -0.8334     1.4346    20.5129 </r>
       <r>    -0.7568     1.9719    20.6640 </r>
       <r>    -0.6802     1.6217    20.7883 </r>
       <r>    -0.6035     2.1723    20.9547 </r>
       <r>    -0.5269     1.0398    21.0344 </r>
       <r>    -0.4503     1.9625    21.1848 </r>
       <r>    -0.3737     2.3852    21.3676 </r>
       <r>    -0.2970     2.2982    21.5437 </r>
       <r>    -0.2204     2.2385    21.7152 </r>
       <r>    -0.1438     1.7975    21.8530 </r>
       <r>    -0.0671     2.5186    22.0460 </r>
       <r>     0.0095     3.0678    22.2811 </r>
       <r>     0.0861     3.1311    22.5210 </r>
       <r>     0.1628     1.6982    22.6511 </r>
       <r>     0.2394     5.7208    23.0895 </r>
       <r>     0.3160     2.3929    23.2729 </r>
       <r>     0.3926     2.4379    23.4597 </r>
       <r>     0.4693     5.1493    23.8543 </r>
       <r>     0.5459     4.8855    24.2287 </r>
       <r>     0.6225     2.2268    24.3993 </r>
       <r>     0.6992     4.1997    24.7211 </r>
       <r>     0.7758     4.4097    25.0591 </r>
       <r>     0.8524     3.4670    25.3247 </r>
       <r>     0.9291     4.1230    25.6407 </r>
       <r>     1.0057     1.7598    25.7755 </r>
       <r>     1.0823     3.3993    26.0360 </r>
       <r>     1.1590     3.4028    26.2968 </r>
       <r>     1.2356     3.4365    26.5601 </r>
       <r>     1.3122     2.9236    26.7842 </r>
       <r>     1.3888     2.9154    27.0076 </r>
       <r>     1.4655     1.9006    27.1532 </r>
       <r>     1.5421     1.8525    27.2952 </r>
       <r>     1.6187     2.9941    27.5246 </r>
       <r>     1.6954     3.4141    27.7862 </r>
       <r>     1.7720     1.6087    27.9095 </r>
       <r>     1.8486     1.7960    28.0471 </r>
       <r>     1.9253     1.9135    28.1938 </r>
       <r>     2.0019     3.0431    28.4270 </r>
       <r>     2.0785     2.1142    28.5890 </r>
       <r>     2.1552     2.0947    28.7495 </r>
       <r>     2.2318     2.3050    28.9261 </r>
       <r>     2.3084     2.2388    29.0977 </r>
       <r>     2.3850     3.5198    29.3674 </r>
       <r>     2.4617     3.1611    29.6097 </r>
       <r>     2.5383     3.5325    29.8804 </r>
       <r>     2.6149     2.6597    30.0842 </r>
       <r>     2.6916     2.4214    30.2697 </r>
       <r>     2.7682     2.7621    30.4814 </r>
       <r>     2.8448     3.3569    30.7386 </r>
       <r>     2.9215     2.9743    30.9666 </r>
       <r>     2.9981     1.3359    31.0689 </r>
       <r>     3.0747     1.7807    31.2054 </r>
       <r>     3.1513     1.3089    31.3057 </r>
       <r>     3.2280     2.8728    31.5258 </r>
       <r>     3.3046     1.5872    31.6475 </r>
       <r>     3.3812     1.0581    31.7285 </r>
       <r>     3.4579     1.6090    31.8518 </r>
       <r>     3.5345     1.0549    31.9327 </r>
       <r>     3.6111     0.4802    31.9695 </r>
       <r>     3.6878     0.3982    32.0000 </r>
       <r>     3.7644     0.0001    32.0000 </r>
       <r>     3.8410     0.0000    32.0000 </r>
       <r>     3.9177     0.0000    32.0000 </r>
       <r>     3.9943     0.0000    32.0000 </r>
       <r>     4.0709     0.0000    32.0000 </r>
       <r>     4.1475     0.0000    32.0000 </r>
       <r>     4.2242     0.0000    32.0000 </r>
       <r>     4.3008     0.0000    32.0000 </r>
       <r>     4.3774     0.0000    32.0000 </r>
       <r>     4.4541     0.0000    32.0000 </r>
       <r>     4.5307     0.0000    32.0000 </r>
       <r>     4.6073     0.0000    32.0000 </r>
       <r>     4.6840     0.0000    32.0000 </r>
      </set>
     </set>
    </array>
   </total>
  </dos>
 </calculation>
 <structure name="finalpos" >
  <crystal>
   <varray name="basis" >
    <v>       3.26406500       0.00000000       0.00000000 </v>
    <v>       0.00000000       4.57688400      -0.00005300 </v>
    <v>       0.00000000       0.00000000      20.02439000 </v>
   </varray>
   <i name="volume">    299.14930570 </i>
   <varray name="rec_basis" >
    <v>       0.30636645       0.00000000       0.00000000 </v>
    <v>       0.00000000       0.21848926       0.00000000 </v>
    <v>       0.00000000       0.00000058       0.04993910 </v>
   </varray>
  </crystal>
  <varray name="positions" >
   <v>       0.50000000       0.91284937       0.55273989 </v>
   <v>       0.50000000       0.08715063       0.44726011 </v>
   <v>      -0.00000000       0.41284462       0.44726012 </v>
   <v>       0.00000000       0.58715538       0.55273988 </v>
  </varray>
 </structure>
</modeling>
