<?xml version="1.0" encoding="ISO-8859-1"?>
<modeling>
 <generator>
  <i name="program" type="string">vasp </i>
  <i name="version" type="string">5.4.1  </i>
  <i name="subversion" type="string">24Jun15 (build Nov 20 2020 10:29:34) complex                          parallel </i>
  <i name="platform" type="string">IFC91_ompi </i>
  <i name="date" type="string">2021 09 09 </i>
  <i name="time" type="string">14:59:48 </i>
 </generator>
 <incar>
  <i type="string" name="PREC">a</i>
  <i type="string" name="ALGO"> Normal</i>
  <i type="int" name="ISPIN">     1</i>
  <i type="int" name="ICHARG">     2</i>
  <i type="int" name="NELM">   250</i>
  <i type="int" name="NELMDL">    -5</i>
  <i type="int" name="NELMIN">     6</i>
  <i type="int" name="IBRION">     2</i>
  <i name="EDIFF">      0.00001000</i>
  <i name="EDIFFG">     -0.01000000</i>
  <i type="int" name="NSW">   200</i>
  <i type="int" name="ISIF">     2</i>
  <i name="ENCUT">    520.00000000</i>
  <i name="POTIM">      0.30000000</i>
  <i type="logical" name="LREAL"> F  </i>
  <i type="int" name="ISMEAR">     0</i>
  <i name="SIGMA">      0.02000000</i>
  <i type="logical" name="LWAVE"> F  </i>
  <i type="logical" name="LCHARG"> F  </i>
  <i type="logical" name="LAECHG"> F  </i>
  <v type="int" name="KPOINT_BSE">    -1     0     0     0</v>
  <i type="int" name="NELM">   250</i>
 </incar>
 <kpoints>
  <generation param="Gamma">
   <v type="int" name="divisions">      15       13        1 </v>
   <v name="usershift">      0.00000000       0.00000000       0.00000000 </v>
   <v name="genvec1">      0.06666667       0.00000000       0.00000000 </v>
   <v name="genvec2">      0.00000000       0.07692308       0.00000000 </v>
   <v name="genvec3">      0.00000000       0.00000000       1.00000000 </v>
   <v name="shift">      0.00000000       0.00000000       0.00000000 </v>
  </generation>
  <varray name="kpointlist" >
   <v>       0.00000000       0.00000000       0.00000000 </v>
   <v>       0.06666667       0.00000000       0.00000000 </v>
   <v>       0.13333333       0.00000000       0.00000000 </v>
   <v>       0.20000000       0.00000000       0.00000000 </v>
   <v>       0.26666667       0.00000000       0.00000000 </v>
   <v>       0.33333333       0.00000000       0.00000000 </v>
   <v>       0.40000000       0.00000000       0.00000000 </v>
   <v>       0.46666667       0.00000000       0.00000000 </v>
   <v>       0.00000000       0.07692308       0.00000000 </v>
   <v>       0.06666667       0.07692308       0.00000000 </v>
   <v>       0.13333333       0.07692308       0.00000000 </v>
   <v>       0.20000000       0.07692308       0.00000000 </v>
   <v>       0.26666667       0.07692308       0.00000000 </v>
   <v>       0.33333333       0.07692308       0.00000000 </v>
   <v>       0.40000000       0.07692308       0.00000000 </v>
   <v>       0.46666667       0.07692308       0.00000000 </v>
   <v>       0.00000000       0.15384615       0.00000000 </v>
   <v>       0.06666667       0.15384615       0.00000000 </v>
   <v>       0.13333333       0.15384615       0.00000000 </v>
   <v>       0.20000000       0.15384615       0.00000000 </v>
   <v>       0.26666667       0.15384615       0.00000000 </v>
   <v>       0.33333333       0.15384615       0.00000000 </v>
   <v>       0.40000000       0.15384615       0.00000000 </v>
   <v>       0.46666667       0.15384615       0.00000000 </v>
   <v>       0.00000000       0.23076923       0.00000000 </v>
   <v>       0.06666667       0.23076923       0.00000000 </v>
   <v>       0.13333333       0.23076923       0.00000000 </v>
   <v>       0.20000000       0.23076923       0.00000000 </v>
   <v>       0.26666667       0.23076923       0.00000000 </v>
   <v>       0.33333333       0.23076923       0.00000000 </v>
   <v>       0.40000000       0.23076923       0.00000000 </v>
   <v>       0.46666667       0.23076923       0.00000000 </v>
   <v>       0.00000000       0.30769231       0.00000000 </v>
   <v>       0.06666667       0.30769231       0.00000000 </v>
   <v>       0.13333333       0.30769231       0.00000000 </v>
   <v>       0.20000000       0.30769231       0.00000000 </v>
   <v>       0.26666667       0.30769231       0.00000000 </v>
   <v>       0.33333333       0.30769231       0.00000000 </v>
   <v>       0.40000000       0.30769231       0.00000000 </v>
   <v>       0.46666667       0.30769231       0.00000000 </v>
   <v>       0.00000000       0.38461538       0.00000000 </v>
   <v>       0.06666667       0.38461538       0.00000000 </v>
   <v>       0.13333333       0.38461538       0.00000000 </v>
   <v>       0.20000000       0.38461538       0.00000000 </v>
   <v>       0.26666667       0.38461538       0.00000000 </v>
   <v>       0.33333333       0.38461538       0.00000000 </v>
   <v>       0.40000000       0.38461538       0.00000000 </v>
   <v>       0.46666667       0.38461538       0.00000000 </v>
   <v>       0.00000000       0.46153846       0.00000000 </v>
   <v>       0.06666667       0.46153846       0.00000000 </v>
   <v>       0.13333333       0.46153846       0.00000000 </v>
   <v>       0.20000000       0.46153846       0.00000000 </v>
   <v>       0.26666667       0.46153846       0.00000000 </v>
   <v>       0.33333333       0.46153846       0.00000000 </v>
   <v>       0.40000000       0.46153846       0.00000000 </v>
   <v>       0.46666667       0.46153846       0.00000000 </v>
  </varray>
  <varray name="weights" >
   <v>       0.00512821 </v>
   <v>       0.01025641 </v>
   <v>       0.01025641 </v>
   <v>       0.01025641 </v>
   <v>       0.01025641 </v>
   <v>       0.01025641 </v>
   <v>       0.01025641 </v>
   <v>       0.01025641 </v>
   <v>       0.01025641 </v>
   <v>       0.02051282 </v>
   <v>       0.02051282 </v>
   <v>       0.02051282 </v>
   <v>       0.02051282 </v>
   <v>       0.02051282 </v>
   <v>       0.02051282 </v>
   <v>       0.02051282 </v>
   <v>       0.01025641 </v>
   <v>       0.02051282 </v>
   <v>       0.02051282 </v>
   <v>       0.02051282 </v>
   <v>       0.02051282 </v>
   <v>       0.02051282 </v>
   <v>       0.02051282 </v>
   <v>       0.02051282 </v>
   <v>       0.01025641 </v>
   <v>       0.02051282 </v>
   <v>       0.02051282 </v>
   <v>       0.02051282 </v>
   <v>       0.02051282 </v>
   <v>       0.02051282 </v>
   <v>       0.02051282 </v>
   <v>       0.02051282 </v>
   <v>       0.01025641 </v>
   <v>       0.02051282 </v>
   <v>       0.02051282 </v>
   <v>       0.02051282 </v>
   <v>       0.02051282 </v>
   <v>       0.02051282 </v>
   <v>       0.02051282 </v>
   <v>       0.02051282 </v>
   <v>       0.01025641 </v>
   <v>       0.02051282 </v>
   <v>       0.02051282 </v>
   <v>       0.02051282 </v>
   <v>       0.02051282 </v>
   <v>       0.02051282 </v>
   <v>       0.02051282 </v>
   <v>       0.02051282 </v>
   <v>       0.01025641 </v>
   <v>       0.02051282 </v>
   <v>       0.02051282 </v>
   <v>       0.02051282 </v>
   <v>       0.02051282 </v>
   <v>       0.02051282 </v>
   <v>       0.02051282 </v>
   <v>       0.02051282 </v>
  </varray>
 </kpoints>
 <parameters>
  <separator name="general" >
   <i type="string" name="SYSTEM">unknown system</i>
   <i type="logical" name="LCOMPAT"> F  </i>
  </separator>
  <separator name="electronic" >
   <i type="string" name="PREC">a</i>
   <i name="ENMAX">    520.00000000</i>
   <i name="ENAUG">    531.35600000</i>
   <i name="EDIFF">      0.00001000</i>
   <i type="int" name="IALGO">    38</i>
   <i type="int" name="IWAVPR">    11</i>
   <i type="int" name="NBANDS">    32</i>
   <i name="NELECT">     52.00000000</i>
   <i type="int" name="TURBO">     0</i>
   <i type="int" name="IRESTART">     0</i>
   <i type="int" name="NREBOOT">     0</i>
   <i type="int" name="NMIN">     0</i>
   <i name="EREF">      0.00000000</i>
   <separator name="electronic smearing" >
    <i type="int" name="ISMEAR">     0</i>
    <i name="SIGMA">      0.02000000</i>
    <i name="KSPACING">      0.50000000</i>
    <i type="logical" name="KGAMMA"> T  </i>
   </separator>
   <separator name="electronic projectors" >
    <i type="logical" name="LREAL"> F  </i>
    <v name="ROPT">      0.00000000      0.00000000</v>
    <i type="int" name="LMAXPAW">  -100</i>
    <i type="int" name="LMAXMIX">     2</i>
    <i type="logical" name="NLSPLINE"> F  </i>
   </separator>
   <separator name="electronic startup" >
    <i type="int" name="ISTART">     0</i>
    <i type="int" name="ICHARG">     2</i>
    <i type="int" name="INIWAV">     1</i>
   </separator>
   <separator name="electronic spin" >
    <i type="int" name="ISPIN">     1</i>
    <i type="logical" name="LNONCOLLINEAR"> F  </i>
    <v name="MAGMOM">      1.00000000      1.00000000      1.00000000      1.00000000      1.00000000      1.00000000</v>
    <i name="NUPDOWN">     -1.00000000</i>
    <i type="logical" name="LSORBIT"> F  </i>
    <v name="SAXIS">      0.00000000      0.00000000      1.00000000</v>
    <i type="logical" name="LSPIRAL"> F  </i>
    <v name="QSPIRAL">      0.00000000      0.00000000      0.00000000</v>
    <i type="logical" name="LZEROZ"> F  </i>
   </separator>
   <separator name="electronic exchange-correlation" >
    <i type="logical" name="LASPH"> F  </i>
    <i type="logical" name="LMETAGGA"> F  </i>
   </separator>
   <separator name="electronic convergence" >
    <i type="int" name="NELM">   250</i>
    <i type="int" name="NELMDL">    -5</i>
    <i type="int" name="NELMIN">     6</i>
    <i name="ENINI">    520.00000000</i>
    <separator name="electronic convergence detail" >
     <i type="logical" name="LDIAG"> T  </i>
     <i type="logical" name="LSUBROT"> F  </i>
     <i name="WEIMIN">      0.00100000</i>
     <i name="EBREAK">      0.00000008</i>
     <i name="DEPER">      0.30000000</i>
     <i type="int" name="NRMM">     4</i>
     <i name="TIME">      0.40000000</i>
    </separator>
   </separator>
   <separator name="electronic mixer" >
    <i name="AMIX">      0.40000000</i>
    <i name="BMIX">      1.00000000</i>
    <i name="AMIN">      0.10000000</i>
    <i name="AMIX_MAG">      1.60000000</i>
    <i name="BMIX_MAG">      1.00000000</i>
    <separator name="electronic mixer details" >
     <i type="int" name="IMIX">     4</i>
     <i type="logical" name="MIXFIRST"> F  </i>
     <i type="int" name="MAXMIX">   -45</i>
     <i name="WC">    100.00000000</i>
     <i type="int" name="INIMIX">     1</i>
     <i type="int" name="MIXPRE">     1</i>
     <i type="int" name="MREMOVE">     5</i>
    </separator>
   </separator>
   <separator name="electronic dipolcorrection" >
    <i type="logical" name="LDIPOL"> F  </i>
    <i type="logical" name="LMONO"> F  </i>
    <i type="int" name="IDIPOL">     0</i>
    <i name="EPSILON">      1.00000000</i>
    <v name="DIPOL">   -100.00000000   -100.00000000   -100.00000000</v>
    <i name="EFIELD">      0.00000000</i>
   </separator>
  </separator>
  <separator name="grids" >
   <i type="int" name="NGX">    36</i>
   <i type="int" name="NGY">    42</i>
   <i type="int" name="NGZ">   140</i>
   <i type="int" name="NGXF">    72</i>
   <i type="int" name="NGYF">    84</i>
   <i type="int" name="NGZF">   280</i>
   <i type="logical" name="ADDGRID"> F  </i>
  </separator>
  <separator name="ionic" >
   <i type="int" name="NSW">   200</i>
   <i type="int" name="IBRION">     2</i>
   <i type="int" name="ISIF">     2</i>
   <i name="PSTRESS">      0.00000000</i>
   <i name="EDIFFG">     -0.01000000</i>
   <i type="int" name="NFREE">     1</i>
   <i name="POTIM">      0.30000000</i>
   <i name="SMASS">     -3.00000000</i>
   <i name="SCALEE">      1.00000000</i>
  </separator>
  <separator name="ionic md" >
   <i name="TEBEG">      0.00010000</i>
   <i name="TEEND">      0.00010000</i>
   <i type="int" name="NBLOCK">     1</i>
   <i type="int" name="KBLOCK">   200</i>
   <i type="int" name="NPACO">   256</i>
   <i name="APACO">     16.00000000</i>
  </separator>
  <separator name="symmetry" >
   <i type="int" name="ISYM">     2</i>
   <i name="SYMPREC">      0.00001000</i>
  </separator>
  <separator name="dos" >
   <i type="logical" name="LORBIT"> F  </i>
   <v name="RWIGS">     -1.00000000     -1.00000000</v>
   <i type="int" name="NEDOS">   301</i>
   <i name="EMIN">     10.00000000</i>
   <i name="EMAX">    -10.00000000</i>
   <i name="EFERMI">      0.00000000</i>
  </separator>
  <separator name="writing" >
   <i type="int" name="NWRITE">     2</i>
   <i type="logical" name="LWAVE"> F  </i>
   <i type="logical" name="LCHARG"> F  </i>
   <i type="logical" name="LPARD"> F  </i>
   <i type="logical" name="LVTOT"> F  </i>
   <i type="logical" name="LVHAR"> F  </i>
   <i type="logical" name="LELF"> F  </i>
   <i type="logical" name="LOPTICS"> F  </i>
   <v name="STM">      0.00000000      0.00000000      0.00000000      0.00000000      0.00000000      0.00000000      0.00000000</v>
  </separator>
  <separator name="performance" >
   <i type="int" name="NPAR">     4</i>
   <i type="int" name="NSIM">     4</i>
   <i type="int" name="NBLK">    -1</i>
   <i type="logical" name="LPLANE"> T  </i>
   <i type="logical" name="LSCALAPACK"> T  </i>
   <i type="logical" name="LSCAAWARE"> F  </i>
   <i type="logical" name="LSCALU"> F  </i>
   <i type="logical" name="LASYNC"> F  </i>
   <i type="logical" name="LORBITALREAL"> F  </i>
  </separator>
  <separator name="miscellaneous" >
   <i type="int" name="IDIOT">     3</i>
   <i type="logical" name="LMUSIC"> F  </i>
   <v name="POMASS">     72.61000000     78.96000000</v>
   <v name="DARWINR">      0.00000000      0.00000000</v>
   <v name="DARWINV">      1.00000000      1.00000000</v>
   <i type="logical" name="LCORR"> T  </i>
  </separator>
  <i type="logical" name="GGA_COMPAT"> T  </i>
  <i type="logical" name="LBERRY"> F  </i>
  <i type="int" name="ICORELEVEL">     0</i>
  <i type="logical" name="LDAU"> F  </i>
  <i type="int" name="I_CONSTRAINED_M">     0</i>
  <separator name="electronic exchange-correlation" >
   <i type="string" name="GGA">--</i>
   <i type="int" name="VOSKOWN">     0</i>
   <i type="logical" name="LHFCALC"> F  </i>
   <i type="string" name="PRECFOCK"></i>
   <i type="logical" name="LSYMGRAD"> F  </i>
   <i type="logical" name="LHFONE"> F  </i>
   <i type="logical" name="LRHFCALC"> F  </i>
   <i type="logical" name="LTHOMAS"> F  </i>
   <i type="logical" name="LMODELHF"> F  </i>
   <i name="ENCUT4O">     -1.00000000</i>
   <i type="int" name="EXXOEP">     0</i>
   <i type="int" name="FOURORBIT">     0</i>
   <i name="AEXX">      0.00000000</i>
   <i name="HFALPHA">      0.00000000</i>
   <i name="MCALPHA">      0.00000000</i>
   <i name="ALDAX">      1.00000000</i>
   <i name="AGGAX">      1.00000000</i>
   <i name="ALDAC">      1.00000000</i>
   <i name="AGGAC">      1.00000000</i>
   <i type="int" name="NKREDX">     1</i>
   <i type="int" name="NKREDY">     1</i>
   <i type="int" name="NKREDZ">     1</i>
   <i type="logical" name="SHIFTRED"> F  </i>
   <i type="logical" name="ODDONLY"> F  </i>
   <i type="logical" name="EVENONLY"> F  </i>
   <i type="int" name="LMAXFOCK">     0</i>
   <i type="int" name="NMAXFOCKAE">     0</i>
   <i type="logical" name="LFOCKAEDFT"> F  </i>
   <i name="HFSCREEN">      0.00000000</i>
   <i name="HFSCREENC">      0.00000000</i>
   <i type="int" name="NBANDSGWLOW">     0</i>
  </separator>
  <separator name="vdW DFT" >
   <i type="logical" name="LUSE_VDW"> F  </i>
   <i name="Zab_VDW">     -0.84910000</i>
   <i name="PARAM1">      0.12340000</i>
   <i name="PARAM2">      1.00000000</i>
   <i name="PARAM3">      0.00000000</i>
  </separator>
  <separator name="model GW" >
   <i type="int" name="MODEL_GW">     0</i>
   <i name="MODEL_EPS0">     48.66878284</i>
   <i name="MODEL_ALPHA">      1.00000000</i>
  </separator>
  <separator name="linear response parameters" >
   <i type="logical" name="LEPSILON"> F  </i>
   <i type="logical" name="LRPA"> F  </i>
   <i type="logical" name="LNABLA"> F  </i>
   <i type="logical" name="LVEL"> F  </i>
   <i type="int" name="KINTER">     0</i>
   <i name="CSHIFT">      0.10000000</i>
   <i name="OMEGAMAX">     -1.00000000</i>
   <i name="DEG_THRESHOLD">      0.00200000</i>
  </separator>
  <separator name="orbital magnetization" >
   <i type="logical" name="NUCIND"> F  </i>
   <v name="MAGPOS">      0.00000000      0.00000000      0.00000000</v>
   <i type="logical" name="LNICSALL"> T  </i>
   <i type="logical" name="ORBITALMAG"> F  </i>
   <i type="logical" name="LMAGBLOCH"> F  </i>
   <i type="logical" name="LCHIMAG"> F  </i>
   <i type="logical" name="LGAUGE"> T  </i>
   <i type="int" name="MAGATOM">     0</i>
   <v name="MAGDIPOL">      0.00000000      0.00000000      0.00000000</v>
   <v name="AVECCONST">      0.00000000      0.00000000      0.00000000</v>
  </separator>
  <separator name="response functions" >
   <i type="logical" name="LADDER"> F  </i>
   <i type="logical" name="LFXC"> F  </i>
   <i type="logical" name="LHARTREE"> T  </i>
   <i type="int" name="IBSE">     0</i>
   <v type="int" name="KPOINT">    -1     0     0     0</v>
   <i type="logical" name="LTCTE"> F  </i>
   <i type="logical" name="LTETE"> F  </i>
   <i type="logical" name="LTRIPLET"> F  </i>
   <i type="logical" name="LFXCEPS"> F  </i>
   <i type="logical" name="LFXHEG"> F  </i>
   <i type="int" name="NATURALO">     0</i>
   <i type="logical" name="L2ORDER"> F  </i>
   <i type="logical" name="LUSEW"> F  </i>
   <i name="ENCUTGW">     -2.00000000</i>
   <i name="ENCUTGWSOFT">     -2.00000000</i>
   <i name="ENCUTLF">     -1.00000000</i>
   <i type="int" name="LMAXMP2">    -1</i>
   <i name="SCISSOR">      0.00000000</i>
   <i type="int" name="NOMEGA">     0</i>
   <i type="int" name="NOMEGAR">     0</i>
   <i type="int" name="NBANDSGW">    -1</i>
   <i type="int" name="NBANDSO">    -1</i>
   <i type="int" name="NBANDSV">    -1</i>
   <i type="int" name="NELM">   250</i>
   <i type="int" name="NELMHF">     1</i>
   <i type="int" name="DIM">     3</i>
   <i type="int" name="ANTIRES">     0</i>
   <i name="OMEGAMAX">    -30.00000000</i>
   <i name="OMEGAMIN">    -30.00000000</i>
   <i name="OMEGATL">   -200.00000000</i>
   <i type="int" name="OMEGAGRID">     0</i>
   <i name="CSHIFT">     -0.10000000</i>
   <i type="logical" name="SELFENERGY"> F  </i>
   <i type="logical" name="LSPECTRAL"> F  </i>
   <i type="logical" name="LSPECTRALGW"> F  </i>
   <i type="logical" name="LSINGLES"> F  </i>
   <i type="logical" name="LFERMIGW"> F  </i>
   <i type="logical" name="ODDONLYGW"> F  </i>
   <i type="logical" name="EVENONLYGW"> F  </i>
   <i type="int" name="NKREDLFX">     1</i>
   <i type="int" name="NKREDLFY">     1</i>
   <i type="int" name="NKREDLFZ">     1</i>
   <i type="int" name="MAXMEM">  1800</i>
   <i type="int" name="TELESCOPE">     0</i>
   <i type="int" name="TAUPAR">     1</i>
   <i type="int" name="OMEGAPAR">    -1</i>
   <i name="LAMBDA">      1.00000000</i>
  </separator>
  <separator name="External order field" >
   <i name="OFIELD_KAPPA">      0.00000000</i>
   <v name="OFIELD_K">      0.00000000      0.00000000      0.00000000</v>
   <i name="OFIELD_Q6_NEAR">      0.00000000</i>
   <i name="OFIELD_Q6_FAR">      0.00000000</i>
   <i name="OFIELD_A">      0.00000000</i>
  </separator>
 </parameters>
 <atominfo>
  <atoms>       6 </atoms>
  <types>       2 </types>
  <array name="atoms" >
   <dimension dim="1">ion</dimension>
   <field type="string">element</field>
   <field type="int">atomtype</field>
   <set>
    <rc><c>Ge</c><c>   1</c></rc>
    <rc><c>Ge</c><c>   1</c></rc>
    <rc><c>Se</c><c>   2</c></rc>
    <rc><c>Se</c><c>   2</c></rc>
    <rc><c>Se</c><c>   2</c></rc>
    <rc><c>Se</c><c>   2</c></rc>
   </set>
  </array>
  <array name="atomtypes" >
   <dimension dim="1">type</dimension>
   <field type="int">atomspertype</field>
   <field type="string">element</field>
   <field>mass</field>
   <field>valence</field>
   <field type="string">pseudopotential</field>
   <set>
    <rc><c>   2</c><c>Ge</c><c>     72.61000000</c><c>     14.00000000</c><c>  PAW_PBE Ge_d 03Jul2007                </c></rc>
    <rc><c>   4</c><c>Se</c><c>     78.96000000</c><c>      6.00000000</c><c>  PAW_PBE Se 06Sep2000                  </c></rc>
   </set>
  </array>
 </atominfo>
 <structure name="initialpos" >
  <crystal>
   <varray name="basis" >
    <v>       4.83192500       0.00000000       0.00000000 </v>
    <v>       0.00000000       5.57120200       0.00000000 </v>
    <v>       0.00000000       0.00000000      18.07929100 </v>
   </varray>
   <i name="volume">    486.68782843 </i>
   <varray name="rec_basis" >
    <v>       0.20695685       0.00000000       0.00000000 </v>
    <v>       0.00000000       0.17949448       0.00000000 </v>
    <v>       0.00000000       0.00000000       0.05531190 </v>
   </varray>
  </crystal>
  <varray name="positions" >
   <v>       0.50000000       0.50000000       0.50000000 </v>
   <v>       0.00000000       0.00000000       0.50000000 </v>
   <v>       0.25000000       0.25000000       0.41502600 </v>
   <v>       0.75000000       0.75000000       0.41502600 </v>
   <v>       0.75000000       0.25000000       0.58497400 </v>
   <v>       0.25000000       0.75000000       0.58497400 </v>
  </varray>
 </structure>
 <calculation>
  <scstep>
   <time name="dav">    1.61    1.62</time>
   <time name="total">    1.65    1.65</time>
   <energy>
    <i name="alphaZ">     47.19870952 </i>
    <i name="ewald">   5091.27801139 </i>
    <i name="hartreedc">  -9880.03373102 </i>
    <i name="XCdc">    142.60618907 </i>
    <i name="pawpsdc">   4514.43351212 </i>
    <i name="pawaedc">  -5329.26418529 </i>
    <i name="eentropy">     -0.00052414 </i>
    <i name="bandstr">   -366.59049293 </i>
    <i name="atom">   6220.98622430 </i>
    <i name="e_fr_energy">    440.61371302 </i>
    <i name="e_wo_entrp">    440.61423716 </i>
    <i name="e_0_energy">    440.61397509 </i>
   </energy>
  </scstep>
  <scstep>
   <time name="dav">    1.70    1.71</time>
   <time name="total">    1.71    1.71</time>
   <energy>
    <i name="e_fr_energy">     45.87147139 </i>
    <i name="e_wo_entrp">     45.87185794 </i>
    <i name="e_0_energy">     45.87166467 </i>
   </energy>
  </scstep>
  <scstep>
   <time name="dav">    1.84    1.84</time>
   <time name="total">    1.84    1.85</time>
   <energy>
    <i name="e_fr_energy">    -21.52277933 </i>
    <i name="e_wo_entrp">    -21.52277933 </i>
    <i name="e_0_energy">    -21.52277933 </i>
   </energy>
  </scstep>
  <scstep>
   <time name="dav">    1.64    1.64</time>
   <time name="total">    1.64    1.64</time>
   <energy>
    <i name="e_fr_energy">    -24.74099402 </i>
    <i name="e_wo_entrp">    -24.74099402 </i>
    <i name="e_0_energy">    -24.74099402 </i>
   </energy>
  </scstep>
  <scstep>
   <time name="dav">    1.95    1.95</time>
   <time name="total">    2.04    2.04</time>
   <energy>
    <i name="e_fr_energy">    -24.85145953 </i>
    <i name="e_wo_entrp">    -24.85145953 </i>
    <i name="e_0_energy">    -24.85145953 </i>
   </energy>
  </scstep>
  <scstep>
   <time name="dav">    1.90    1.90</time>
   <time name="total">    2.03    2.03</time>
   <energy>
    <i name="e_fr_energy">    -24.35992744 </i>
    <i name="e_wo_entrp">    -24.35992744 </i>
    <i name="e_0_energy">    -24.35992744 </i>
   </energy>
  </scstep>
  <scstep>
   <time name="dav">    1.73    1.73</time>
   <time name="total">    1.85    1.85</time>
   <energy>
    <i name="e_fr_energy">    -24.26341795 </i>
    <i name="e_wo_entrp">    -24.26341795 </i>
    <i name="e_0_energy">    -24.26341795 </i>
   </energy>
  </scstep>
  <scstep>
   <time name="dav">    1.81    1.81</time>
   <time name="total">    1.93    1.93</time>
   <energy>
    <i name="e_fr_energy">    -24.25759670 </i>
    <i name="e_wo_entrp">    -24.25759670 </i>
    <i name="e_0_energy">    -24.25759670 </i>
   </energy>
  </scstep>
  <scstep>
   <time name="dav">    1.85    1.85</time>
   <time name="total">    1.97    1.97</time>
   <energy>
    <i name="e_fr_energy">    -24.25696849 </i>
    <i name="e_wo_entrp">    -24.25696849 </i>
    <i name="e_0_energy">    -24.25696849 </i>
   </energy>
  </scstep>
  <scstep>
   <time name="dav">    1.92    1.92</time>
   <time name="total">    2.04    2.04</time>
   <energy>
    <i name="e_fr_energy">    -24.25672002 </i>
    <i name="e_wo_entrp">    -24.25672002 </i>
    <i name="e_0_energy">    -24.25672002 </i>
   </energy>
  </scstep>
  <scstep>
   <time name="dav">    1.58    1.58</time>
   <time name="total">    1.70    1.70</time>
   <energy>
    <i name="e_fr_energy">    -24.25649208 </i>
    <i name="e_wo_entrp">    -24.25649208 </i>
    <i name="e_0_energy">    -24.25649208 </i>
   </energy>
  </scstep>
  <scstep>
   <time name="dav">    1.53    1.53</time>
   <time name="total">    1.65    1.65</time>
   <energy>
    <i name="e_fr_energy">    -24.25662456 </i>
    <i name="e_wo_entrp">    -24.25662456 </i>
    <i name="e_0_energy">    -24.25662456 </i>
   </energy>
  </scstep>
  <scstep>
   <time name="dav">    1.51    1.51</time>
   <time name="total">    1.63    1.63</time>
   <energy>
    <i name="e_fr_energy">    -24.25689596 </i>
    <i name="e_wo_entrp">    -24.25689596 </i>
    <i name="e_0_energy">    -24.25689596 </i>
   </energy>
  </scstep>
  <scstep>
   <time name="dav">    1.42    1.42</time>
   <time name="total">    1.54    1.54</time>
   <energy>
    <i name="e_fr_energy">    -24.25699544 </i>
    <i name="e_wo_entrp">    -24.25699544 </i>
    <i name="e_0_energy">    -24.25699544 </i>
   </energy>
  </scstep>
  <scstep>
   <time name="dav">    1.40    1.40</time>
   <time name="total">    1.53    1.53</time>
   <energy>
    <i name="e_fr_energy">    -24.25705367 </i>
    <i name="e_wo_entrp">    -24.25705367 </i>
    <i name="e_0_energy">    -24.25705367 </i>
   </energy>
  </scstep>
  <scstep>
   <time name="dav">    1.34    1.34</time>
   <time name="total">    1.46    1.46</time>
   <energy>
    <i name="e_fr_energy">    -24.25712039 </i>
    <i name="e_wo_entrp">    -24.25712039 </i>
    <i name="e_0_energy">    -24.25712039 </i>
   </energy>
  </scstep>
  <scstep>
   <time name="dav">    1.26    1.26</time>
   <time name="total">    1.38    1.38</time>
   <energy>
    <i name="e_fr_energy">    -24.25716937 </i>
    <i name="e_wo_entrp">    -24.25716937 </i>
    <i name="e_0_energy">    -24.25716937 </i>
   </energy>
  </scstep>
  <scstep>
   <time name="dav">    1.31    1.31</time>
   <time name="total">    1.43    1.43</time>
   <energy>
    <i name="e_fr_energy">    -24.25719779 </i>
    <i name="e_wo_entrp">    -24.25719779 </i>
    <i name="e_0_energy">    -24.25719779 </i>
   </energy>
  </scstep>
  <scstep>
   <time name="dav">    1.32    1.32</time>
   <time name="total">    1.35    1.35</time>
   <energy>
    <i name="alphaZ">     47.19870952 </i>
    <i name="ewald">   5091.27801139 </i>
    <i name="hartreedc">  -9885.42221641 </i>
    <i name="XCdc">    143.14484770 </i>
    <i name="pawpsdc">   5799.09356183 </i>
    <i name="pawaedc">  -6619.46346320 </i>
    <i name="eentropy">     -0.00000000 </i>
    <i name="bandstr">   -821.07287798 </i>
    <i name="atom">   6220.98622430 </i>
    <i name="e_fr_energy">    -24.25720285 </i>
    <i name="e_wo_entrp">    -24.25720285 </i>
    <i name="e_0_energy">    -24.25720285 </i>
   </energy>
  </scstep>
  <structure>
   <crystal>
    <varray name="basis" >
     <v>       4.83192500       0.00000000       0.00000000 </v>
     <v>       0.00000000       5.57120200       0.00000000 </v>
     <v>       0.00000000       0.00000000      18.07929100 </v>
    </varray>
    <i name="volume">    486.68782843 </i>
    <varray name="rec_basis" >
     <v>       0.20695685       0.00000000       0.00000000 </v>
     <v>       0.00000000       0.17949448       0.00000000 </v>
     <v>       0.00000000       0.00000000       0.05531190 </v>
    </varray>
   </crystal>
   <varray name="positions" >
    <v>       0.50000000       0.50000000       0.50000000 </v>
    <v>       0.00000000       0.00000000       0.50000000 </v>
    <v>       0.25000000       0.25000000       0.41502600 </v>
    <v>       0.75000000       0.75000000       0.41502600 </v>
    <v>       0.75000000       0.25000000       0.58497400 </v>
    <v>       0.25000000       0.75000000       0.58497400 </v>
   </varray>
  </structure>
  <varray name="forces" >
   <v>       0.00000000       0.00000000       0.00000000 </v>
   <v>      -0.00000000       0.00000000       0.00000000 </v>
   <v>      -0.00000000       0.00000000      -0.07385816 </v>
   <v>      -0.00000000      -0.00000000      -0.07385816 </v>
   <v>      -0.00000000       0.00000000       0.07385816 </v>
   <v>      -0.00000000      -0.00000000       0.07385816 </v>
  </varray>
  <varray name="stress" >
   <v>       2.53772166       0.00000000       0.00000000 </v>
   <v>       0.00000000       2.95624077       0.00000000 </v>
   <v>       0.00000000       0.00000000       1.45293998 </v>
  </varray>
  <energy>
   <i name="e_fr_energy">    -24.25720285 </i>
   <i name="e_wo_entrp">    -24.25720285 </i>
   <i name="e_0_energy">     -0.00000000 </i>
  </energy>
  <time name="totalsc">   33.53   33.57</time>
 </calculation>
 <calculation>
  <scstep>
   <time name="dav">    1.46    1.46</time>
   <time name="total">    1.58    1.58</time>
   <energy>
    <i name="alphaZ">     47.19870952 </i>
    <i name="ewald">   5086.31907611 </i>
    <i name="hartreedc">  -9880.62461995 </i>
    <i name="XCdc">    143.12490377 </i>
    <i name="pawpsdc">   5799.07630453 </i>
    <i name="pawaedc">  -6619.44636686 </i>
    <i name="eentropy">     -0.00000000 </i>
    <i name="bandstr">   -820.89188036 </i>
    <i name="atom">   6220.98622430 </i>
    <i name="e_fr_energy">    -24.25764895 </i>
    <i name="e_wo_entrp">    -24.25764895 </i>
    <i name="e_0_energy">    -24.25764895 </i>
   </energy>
  </scstep>
  <scstep>
   <time name="dav">    1.56    1.56</time>
   <time name="total">    1.68    1.68</time>
   <energy>
    <i name="e_fr_energy">    -24.25772902 </i>
    <i name="e_wo_entrp">    -24.25772902 </i>
    <i name="e_0_energy">    -24.25772902 </i>
   </energy>
  </scstep>
  <scstep>
   <time name="dav">    1.41    1.41</time>
   <time name="total">    1.53    1.53</time>
   <energy>
    <i name="e_fr_energy">    -24.25772543 </i>
    <i name="e_wo_entrp">    -24.25772543 </i>
    <i name="e_0_energy">    -24.25772543 </i>
   </energy>
  </scstep>
  <scstep>
   <time name="dav">    1.24    1.24</time>
   <time name="total">    1.36    1.37</time>
   <energy>
    <i name="e_fr_energy">    -24.25772369 </i>
    <i name="e_wo_entrp">    -24.25772369 </i>
    <i name="e_0_energy">    -24.25772369 </i>
   </energy>
  </scstep>
  <scstep>
   <time name="dav">    1.16    1.16</time>
   <time name="total">    1.28    1.29</time>
   <energy>
    <i name="e_fr_energy">    -24.25772301 </i>
    <i name="e_wo_entrp">    -24.25772301 </i>
    <i name="e_0_energy">    -24.25772301 </i>
   </energy>
  </scstep>
  <scstep>
   <time name="dav">    1.10    1.10</time>
   <time name="total">    1.13    1.13</time>
   <energy>
    <i name="alphaZ">     47.19870952 </i>
    <i name="ewald">   5086.31907611 </i>
    <i name="hartreedc">  -9880.62338919 </i>
    <i name="XCdc">    143.12745296 </i>
    <i name="pawpsdc">   5793.82896150 </i>
    <i name="pawaedc">  -6614.16460836 </i>
    <i name="eentropy">     -0.00000000 </i>
    <i name="bandstr">   -820.93014974 </i>
    <i name="atom">   6220.98622430 </i>
    <i name="e_fr_energy">    -24.25772291 </i>
    <i name="e_wo_entrp">    -24.25772291 </i>
    <i name="e_0_energy">    -24.25772291 </i>
   </energy>
  </scstep>
  <structure>
   <crystal>
    <varray name="basis" >
     <v>       4.83192500       0.00000000       0.00000000 </v>
     <v>       0.00000000       5.57120200       0.00000000 </v>
     <v>       0.00000000       0.00000000      18.07929100 </v>
    </varray>
    <i name="volume">    486.68782843 </i>
    <varray name="rec_basis" >
     <v>       0.20695685       0.00000000       0.00000000 </v>
     <v>       0.00000000       0.17949448       0.00000000 </v>
     <v>       0.00000000       0.00000000       0.05531190 </v>
    </varray>
   </crystal>
   <varray name="positions" >
    <v>       0.50000000       0.50000000       0.50000000 </v>
    <v>      -0.00000000       0.00000000       0.50000000 </v>
    <v>       0.25000000       0.25000000       0.41490775 </v>
    <v>       0.75000000       0.75000000       0.41490775 </v>
    <v>       0.75000000       0.25000000       0.58509225 </v>
    <v>       0.25000000       0.75000000       0.58509225 </v>
   </varray>
  </structure>
  <varray name="forces" >
   <v>      -0.00000000       0.00000000      -0.00000000 </v>
   <v>       0.00000000       0.00000000      -0.00000000 </v>
   <v>      -0.00000000       0.00000000      -0.04869703 </v>
   <v>      -0.00000000      -0.00000000      -0.04869703 </v>
   <v>       0.00000000       0.00000000       0.04869703 </v>
   <v>       0.00000000      -0.00000000       0.04869703 </v>
  </varray>
  <varray name="stress" >
   <v>       2.39863572       0.00000000       0.00000000 </v>
   <v>       0.00000000       2.79343482       0.00000000 </v>
   <v>       0.00000000       0.00000000       0.94938793 </v>
  </varray>
  <energy>
   <i name="e_fr_energy">    -24.25772291 </i>
   <i name="e_wo_entrp">    -24.25772291 </i>
   <i name="e_0_energy">     -0.00000000 </i>
  </energy>
  <time name="totalsc">    9.73    9.74</time>
 </calculation>
 <calculation>
  <scstep>
   <time name="dav">    1.46    1.46</time>
   <time name="total">    1.58    1.58</time>
   <energy>
    <i name="alphaZ">     47.19870952 </i>
    <i name="ewald">   5076.72201703 </i>
    <i name="hartreedc">  -9871.34516122 </i>
    <i name="XCdc">    143.08895231 </i>
    <i name="pawpsdc">   5793.78688107 </i>
    <i name="pawaedc">  -6614.12248751 </i>
    <i name="eentropy">     -0.00000000 </i>
    <i name="bandstr">   -820.57296285 </i>
    <i name="atom">   6220.98622430 </i>
    <i name="e_fr_energy">    -24.25782736 </i>
    <i name="e_wo_entrp">    -24.25782736 </i>
    <i name="e_0_energy">    -24.25782736 </i>
   </energy>
  </scstep>
  <scstep>
   <time name="dav">    1.67    1.67</time>
   <time name="total">    1.79    1.79</time>
   <energy>
    <i name="e_fr_energy">    -24.25813025 </i>
    <i name="e_wo_entrp">    -24.25813025 </i>
    <i name="e_0_energy">    -24.25813025 </i>
   </energy>
  </scstep>
  <scstep>
   <time name="dav">    1.49    1.49</time>
   <time name="total">    1.61    1.61</time>
   <energy>
    <i name="e_fr_energy">    -24.25811887 </i>
    <i name="e_wo_entrp">    -24.25811887 </i>
    <i name="e_0_energy">    -24.25811887 </i>
   </energy>
  </scstep>
  <scstep>
   <time name="dav">    1.32    1.32</time>
   <time name="total">    1.44    1.45</time>
   <energy>
    <i name="e_fr_energy">    -24.25811447 </i>
    <i name="e_wo_entrp">    -24.25811447 </i>
    <i name="e_0_energy">    -24.25811447 </i>
   </energy>
  </scstep>
  <scstep>
   <time name="dav">    1.19    1.19</time>
   <time name="total">    1.31    1.31</time>
   <energy>
    <i name="e_fr_energy">    -24.25811278 </i>
    <i name="e_wo_entrp">    -24.25811278 </i>
    <i name="e_0_energy">    -24.25811278 </i>
   </energy>
  </scstep>
  <scstep>
   <time name="dav">    1.10    1.10</time>
   <time name="total">    1.13    1.13</time>
   <energy>
    <i name="alphaZ">     47.19870952 </i>
    <i name="ewald">   5076.72201703 </i>
    <i name="hartreedc">  -9871.35460194 </i>
    <i name="XCdc">    143.09396959 </i>
    <i name="pawpsdc">   5783.66531928 </i>
    <i name="pawaedc">  -6603.93405255 </i>
    <i name="eentropy">     -0.00000000 </i>
    <i name="bandstr">   -820.63569794 </i>
    <i name="atom">   6220.98622430 </i>
    <i name="e_fr_energy">    -24.25811271 </i>
    <i name="e_wo_entrp">    -24.25811271 </i>
    <i name="e_0_energy">    -24.25811271 </i>
   </energy>
  </scstep>
  <structure>
   <crystal>
    <varray name="basis" >
     <v>       4.83192500       0.00000000       0.00000000 </v>
     <v>       0.00000000       5.57120200       0.00000000 </v>
     <v>       0.00000000       0.00000000      18.07929100 </v>
    </varray>
    <i name="volume">    486.68782843 </i>
    <varray name="rec_basis" >
     <v>       0.20695685       0.00000000       0.00000000 </v>
     <v>       0.00000000       0.17949448       0.00000000 </v>
     <v>       0.00000000       0.00000000       0.05531190 </v>
    </varray>
   </crystal>
   <varray name="positions" >
    <v>       0.50000000       0.50000000       0.50000000 </v>
    <v>      -0.00000000       0.00000000       0.50000000 </v>
    <v>       0.25000000       0.25000000       0.41467889 </v>
    <v>       0.75000000       0.75000000       0.41467889 </v>
    <v>       0.75000000       0.25000000       0.58532111 </v>
    <v>       0.25000000       0.75000000       0.58532111 </v>
   </varray>
  </structure>
  <varray name="forces" >
   <v>       0.00000000       0.00000000       0.00000000 </v>
   <v>       0.00000000       0.00000000       0.00000000 </v>
   <v>       0.00000000      -0.00000000       0.00004950 </v>
   <v>       0.00000000       0.00000000       0.00004950 </v>
   <v>      -0.00000000      -0.00000000      -0.00004950 </v>
   <v>      -0.00000000       0.00000000      -0.00004950 </v>
  </varray>
  <varray name="stress" >
   <v>       2.14347960       0.00000000       0.00000000 </v>
   <v>       0.00000000       2.49641014       0.00000000 </v>
   <v>       0.00000000       0.00000000      -0.01676919 </v>
  </varray>
  <energy>
   <i name="e_fr_energy">    -24.25811271 </i>
   <i name="e_wo_entrp">    -24.25811271 </i>
   <i name="e_0_energy">     -0.00000000 </i>
  </energy>
  <time name="totalsc">    9.95    9.96</time>
  <eigenvalues>
   <array>
    <dimension dim="1">band</dimension>
    <dimension dim="2">kpoint</dimension>
    <dimension dim="3">spin</dimension>
    <field>eigene</field>
    <field>occ</field>
    <set>
     <set comment="spin 1">
      <set comment="kpoint 1">
       <r>  -27.7368    1.0000 </r>
       <r>  -27.7326    1.0000 </r>
       <r>  -27.7319    1.0000 </r>
       <r>  -27.7236    1.0000 </r>
       <r>  -27.7223    1.0000 </r>
       <r>  -27.7088    1.0000 </r>
       <r>  -27.7043    1.0000 </r>
       <r>  -27.7043    1.0000 </r>
       <r>  -27.6915    1.0000 </r>
       <r>  -27.6863    1.0000 </r>
       <r>  -16.9110    1.0000 </r>
       <r>  -15.3865    1.0000 </r>
       <r>  -14.9378    1.0000 </r>
       <r>  -14.7009    1.0000 </r>
       <r>  -11.7447    1.0000 </r>
       <r>   -9.1983    1.0000 </r>
       <r>   -7.4507    1.0000 </r>
       <r>   -5.8935    1.0000 </r>
       <r>   -5.4423    1.0000 </r>
       <r>   -5.3539    1.0000 </r>
       <r>   -5.1078    1.0000 </r>
       <r>   -5.1035    1.0000 </r>
       <r>   -4.6478    1.0000 </r>
       <r>   -4.1353    1.0000 </r>
       <r>   -2.7697    1.0000 </r>
       <r>   -2.7105    1.0000 </r>
       <r>   -1.7195    0.0000 </r>
       <r>   -1.3576    0.0000 </r>
       <r>   -0.7848    0.0000 </r>
       <r>    0.1322    0.0000 </r>
       <r>    0.7289    0.0000 </r>
       <r>    1.9890    0.0000 </r>
      </set>
      <set comment="kpoint 2">
       <r>  -27.7367    1.0000 </r>
       <r>  -27.7325    1.0000 </r>
       <r>  -27.7318    1.0000 </r>
       <r>  -27.7237    1.0000 </r>
       <r>  -27.7223    1.0000 </r>
       <r>  -27.7088    1.0000 </r>
       <r>  -27.7045    1.0000 </r>
       <r>  -27.7043    1.0000 </r>
       <r>  -27.6914    1.0000 </r>
       <r>  -27.6864    1.0000 </r>
       <r>  -16.8938    1.0000 </r>
       <r>  -15.3797    1.0000 </r>
       <r>  -14.9402    1.0000 </r>
       <r>  -14.7410    1.0000 </r>
       <r>  -11.7017    1.0000 </r>
       <r>   -9.2123    1.0000 </r>
       <r>   -7.4490    1.0000 </r>
       <r>   -5.8878    1.0000 </r>
       <r>   -5.5488    1.0000 </r>
       <r>   -5.4372    1.0000 </r>
       <r>   -5.1697    1.0000 </r>
       <r>   -4.9940    1.0000 </r>
       <r>   -4.6428    1.0000 </r>
       <r>   -4.1218    1.0000 </r>
       <r>   -2.8333    1.0000 </r>
       <r>   -2.7433    1.0000 </r>
       <r>   -1.6167    0.0000 </r>
       <r>   -1.3539    0.0000 </r>
       <r>   -0.6695    0.0000 </r>
       <r>    0.1846    0.0000 </r>
       <r>    0.7804    0.0000 </r>
       <r>    2.0198    0.0000 </r>
      </set>
      <set comment="kpoint 3">
       <r>  -27.7363    1.0000 </r>
       <r>  -27.7319    1.0000 </r>
       <r>  -27.7317    1.0000 </r>
       <r>  -27.7242    1.0000 </r>
       <r>  -27.7223    1.0000 </r>
       <r>  -27.7086    1.0000 </r>
       <r>  -27.7054    1.0000 </r>
       <r>  -27.7044    1.0000 </r>
       <r>  -27.6913    1.0000 </r>
       <r>  -27.6865    1.0000 </r>
       <r>  -16.8423    1.0000 </r>
       <r>  -15.3598    1.0000 </r>
       <r>  -14.9478    1.0000 </r>
       <r>  -14.8540    1.0000 </r>
       <r>  -11.5793    1.0000 </r>
       <r>   -9.2562    1.0000 </r>
       <r>   -7.4431    1.0000 </r>
       <r>   -5.8676    1.0000 </r>
       <r>   -5.7194    1.0000 </r>
       <r>   -5.6499    1.0000 </r>
       <r>   -5.3404    1.0000 </r>
       <r>   -4.8060    1.0000 </r>
       <r>   -4.6468    1.0000 </r>
       <r>   -4.0823    1.0000 </r>
       <r>   -2.9973    1.0000 </r>
       <r>   -2.8334    1.0000 </r>
       <r>   -1.3529    0.0000 </r>
       <r>   -1.3297    0.0000 </r>
       <r>   -0.3464    0.0000 </r>
       <r>    0.3308    0.0000 </r>
       <r>    0.9221    0.0000 </r>
       <r>    2.0653    0.0000 </r>
      </set>
      <set comment="kpoint 4">
       <r>  -27.7356    1.0000 </r>
       <r>  -27.7314    1.0000 </r>
       <r>  -27.7311    1.0000 </r>
       <r>  -27.7249    1.0000 </r>
       <r>  -27.7222    1.0000 </r>
       <r>  -27.7082    1.0000 </r>
       <r>  -27.7067    1.0000 </r>
       <r>  -27.7045    1.0000 </r>
       <r>  -27.6911    1.0000 </r>
       <r>  -27.6868    1.0000 </r>
       <r>  -16.7575    1.0000 </r>
       <r>  -15.3282    1.0000 </r>
       <r>  -15.0227    1.0000 </r>
       <r>  -14.9612    1.0000 </r>
       <r>  -11.3936    1.0000 </r>
       <r>   -9.3354    1.0000 </r>
       <r>   -7.4296    1.0000 </r>
       <r>   -5.9286    1.0000 </r>
       <r>   -5.8738    1.0000 </r>
       <r>   -5.8253    1.0000 </r>
       <r>   -5.5574    1.0000 </r>
       <r>   -4.6832    1.0000 </r>
       <r>   -4.6338    1.0000 </r>
       <r>   -4.0198    1.0000 </r>
       <r>   -3.2176    1.0000 </r>
       <r>   -2.9609    1.0000 </r>
       <r>   -1.2594    0.0000 </r>
       <r>   -1.0107    0.0000 </r>
       <r>    0.1353    0.0000 </r>
       <r>    0.5449    0.0000 </r>
       <r>    1.1152    0.0000 </r>
       <r>    1.8991    0.0000 </r>
      </set>
      <set comment="kpoint 5">
       <r>  -27.7347    1.0000 </r>
       <r>  -27.7311    1.0000 </r>
       <r>  -27.7303    1.0000 </r>
       <r>  -27.7258    1.0000 </r>
       <r>  -27.7218    1.0000 </r>
       <r>  -27.7085    1.0000 </r>
       <r>  -27.7078    1.0000 </r>
       <r>  -27.7047    1.0000 </r>
       <r>  -27.6907    1.0000 </r>
       <r>  -27.6872    1.0000 </r>
       <r>  -16.6407    1.0000 </r>
       <r>  -15.2870    1.0000 </r>
       <r>  -15.2279    1.0000 </r>
       <r>  -14.9815    1.0000 </r>
       <r>  -11.1625    1.0000 </r>
       <r>   -9.4562    1.0000 </r>
       <r>   -7.4022    1.0000 </r>
       <r>   -6.2259    1.0000 </r>
       <r>   -5.9967    1.0000 </r>
       <r>   -5.7689    1.0000 </r>
       <r>   -5.7538    1.0000 </r>
       <r>   -4.7602    1.0000 </r>
       <r>   -4.4977    1.0000 </r>
       <r>   -3.9386    1.0000 </r>
       <r>   -3.4581    1.0000 </r>
       <r>   -3.1043    1.0000 </r>
       <r>   -1.1255    0.0000 </r>
       <r>   -0.6684    0.0000 </r>
       <r>    0.7255    0.0000 </r>
       <r>    0.7953    0.0000 </r>
       <r>    1.2980    0.0000 </r>
       <r>    1.7314    0.0000 </r>
      </set>
      <set comment="kpoint 6">
       <r>  -27.7336    1.0000 </r>
       <r>  -27.7307    1.0000 </r>
       <r>  -27.7297    1.0000 </r>
       <r>  -27.7269    1.0000 </r>
       <r>  -27.7209    1.0000 </r>
       <r>  -27.7106    1.0000 </r>
       <r>  -27.7073    1.0000 </r>
       <r>  -27.7050    1.0000 </r>
       <r>  -27.6903    1.0000 </r>
       <r>  -27.6876    1.0000 </r>
       <r>  -16.4942    1.0000 </r>
       <r>  -15.4524    1.0000 </r>
       <r>  -15.2391    1.0000 </r>
       <r>  -15.0093    1.0000 </r>
       <r>  -10.9019    1.0000 </r>
       <r>   -9.6224    1.0000 </r>
       <r>   -7.3521    1.0000 </r>
       <r>   -6.5112    1.0000 </r>
       <r>   -6.0850    1.0000 </r>
       <r>   -5.9425    1.0000 </r>
       <r>   -5.6498    1.0000 </r>
       <r>   -4.8766    1.0000 </r>
       <r>   -4.3936    1.0000 </r>
       <r>   -3.8431    1.0000 </r>
       <r>   -3.6912    1.0000 </r>
       <r>   -3.2470    1.0000 </r>
       <r>   -0.9322    0.0000 </r>
       <r>   -0.4009    0.0000 </r>
       <r>    1.0453    0.0000 </r>
       <r>    1.3778    0.0000 </r>
       <r>    1.4120    0.0000 </r>
       <r>    1.6057    0.0000 </r>
      </set>
      <set comment="kpoint 7">
       <r>  -27.7323    1.0000 </r>
       <r>  -27.7302    1.0000 </r>
       <r>  -27.7294    1.0000 </r>
       <r>  -27.7282    1.0000 </r>
       <r>  -27.7195    1.0000 </r>
       <r>  -27.7129    1.0000 </r>
       <r>  -27.7068    1.0000 </r>
       <r>  -27.7053    1.0000 </r>
       <r>  -27.6898    1.0000 </r>
       <r>  -27.6881    1.0000 </r>
       <r>  -16.3209    1.0000 </r>
       <r>  -15.6832    1.0000 </r>
       <r>  -15.1877    1.0000 </r>
       <r>  -15.0450    1.0000 </r>
       <r>  -10.6256    1.0000 </r>
       <r>   -9.8321    1.0000 </r>
       <r>   -7.2697    1.0000 </r>
       <r>   -6.7659    1.0000 </r>
       <r>   -6.1383    1.0000 </r>
       <r>   -6.0642    1.0000 </r>
       <r>   -5.5158    1.0000 </r>
       <r>   -5.0244    1.0000 </r>
       <r>   -4.3020    1.0000 </r>
       <r>   -3.8979    1.0000 </r>
       <r>   -3.7374    1.0000 </r>
       <r>   -3.3812    1.0000 </r>
       <r>   -0.7038    0.0000 </r>
       <r>   -0.2754    0.0000 </r>
       <r>    1.2557    0.0000 </r>
       <r>    1.4479    0.0000 </r>
       <r>    1.4954    0.0000 </r>
       <r>    1.5550    0.0000 </r>
      </set>
      <set comment="kpoint 8">
       <r>  -27.7309    1.0000 </r>
       <r>  -27.7298    1.0000 </r>
       <r>  -27.7296    1.0000 </r>
       <r>  -27.7295    1.0000 </r>
       <r>  -27.7175    1.0000 </r>
       <r>  -27.7152    1.0000 </r>
       <r>  -27.7063    1.0000 </r>
       <r>  -27.7058    1.0000 </r>
       <r>  -27.6893    1.0000 </r>
       <r>  -27.6887    1.0000 </r>
       <r>  -16.1244    1.0000 </r>
       <r>  -15.9098    1.0000 </r>
       <r>  -15.1362    1.0000 </r>
       <r>  -15.0878    1.0000 </r>
       <r>  -10.3465    1.0000 </r>
       <r>  -10.0775    1.0000 </r>
       <r>   -7.1471    1.0000 </r>
       <r>   -6.9794    1.0000 </r>
       <r>   -6.1557    1.0000 </r>
       <r>   -6.1332    1.0000 </r>
       <r>   -5.3589    1.0000 </r>
       <r>   -5.1904    1.0000 </r>
       <r>   -4.1995    1.0000 </r>
       <r>   -4.0678    1.0000 </r>
       <r>   -3.6248    1.0000 </r>
       <r>   -3.5065    1.0000 </r>
       <r>   -0.4802    0.0000 </r>
       <r>   -0.3157    0.0000 </r>
       <r>    1.3988    0.0000 </r>
       <r>    1.4464    0.0000 </r>
       <r>    1.4531    0.0000 </r>
       <r>    1.4815    0.0000 </r>
      </set>
      <set comment="kpoint 9">
       <r>  -27.7367    1.0000 </r>
       <r>  -27.7325    1.0000 </r>
       <r>  -27.7318    1.0000 </r>
       <r>  -27.7236    1.0000 </r>
       <r>  -27.7224    1.0000 </r>
       <r>  -27.7088    1.0000 </r>
       <r>  -27.7046    1.0000 </r>
       <r>  -27.7044    1.0000 </r>
       <r>  -27.6914    1.0000 </r>
       <r>  -27.6864    1.0000 </r>
       <r>  -16.8920    1.0000 </r>
       <r>  -15.3771    1.0000 </r>
       <r>  -14.9897    1.0000 </r>
       <r>  -14.7113    1.0000 </r>
       <r>  -11.6801    1.0000 </r>
       <r>   -9.2143    1.0000 </r>
       <r>   -7.4354    1.0000 </r>
       <r>   -5.9166    1.0000 </r>
       <r>   -5.4344    1.0000 </r>
       <r>   -5.4169    1.0000 </r>
       <r>   -5.1916    1.0000 </r>
       <r>   -5.0741    1.0000 </r>
       <r>   -4.6418    1.0000 </r>
       <r>   -4.1041    1.0000 </r>
       <r>   -2.8001    1.0000 </r>
       <r>   -2.7839    1.0000 </r>
       <r>   -1.6004    0.0000 </r>
       <r>   -1.3321    0.0000 </r>
       <r>   -0.6524    0.0000 </r>
       <r>    0.1487    0.0000 </r>
       <r>    0.7631    0.0000 </r>
       <r>    2.0167    0.0000 </r>
      </set>
      <set comment="kpoint 10">
       <r>  -27.7366    1.0000 </r>
       <r>  -27.7323    1.0000 </r>
       <r>  -27.7317    1.0000 </r>
       <r>  -27.7237    1.0000 </r>
       <r>  -27.7224    1.0000 </r>
       <r>  -27.7087    1.0000 </r>
       <r>  -27.7050    1.0000 </r>
       <r>  -27.7043    1.0000 </r>
       <r>  -27.6914    1.0000 </r>
       <r>  -27.6865    1.0000 </r>
       <r>  -16.8750    1.0000 </r>
       <r>  -15.3705    1.0000 </r>
       <r>  -14.9952    1.0000 </r>
       <r>  -14.7452    1.0000 </r>
       <r>  -11.6413    1.0000 </r>
       <r>   -9.2298    1.0000 </r>
       <r>   -7.4306    1.0000 </r>
       <r>   -5.9222    1.0000 </r>
       <r>   -5.5581    1.0000 </r>
       <r>   -5.5244    1.0000 </r>
       <r>   -5.1672    1.0000 </r>
       <r>   -4.9667    1.0000 </r>
       <r>   -4.6458    1.0000 </r>
       <r>   -4.0916    1.0000 </r>
       <r>   -2.9387    1.0000 </r>
       <r>   -2.7239    1.0000 </r>
       <r>   -1.5570    0.0000 </r>
       <r>   -1.3270    0.0000 </r>
       <r>   -0.5146    0.0000 </r>
       <r>    0.1992    0.0000 </r>
       <r>    0.8132    0.0000 </r>
       <r>    1.9987    0.0000 </r>
      </set>
      <set comment="kpoint 11">
       <r>  -27.7362    1.0000 </r>
       <r>  -27.7318    1.0000 </r>
       <r>  -27.7315    1.0000 </r>
       <r>  -27.7242    1.0000 </r>
       <r>  -27.7224    1.0000 </r>
       <r>  -27.7085    1.0000 </r>
       <r>  -27.7058    1.0000 </r>
       <r>  -27.7043    1.0000 </r>
       <r>  -27.6912    1.0000 </r>
       <r>  -27.6866    1.0000 </r>
       <r>  -16.8240    1.0000 </r>
       <r>  -15.3512    1.0000 </r>
       <r>  -15.0183    1.0000 </r>
       <r>  -14.8346    1.0000 </r>
       <r>  -11.5305    1.0000 </r>
       <r>   -9.2783    1.0000 </r>
       <r>   -7.4159    1.0000 </r>
       <r>   -5.9493    1.0000 </r>
       <r>   -5.8198    1.0000 </r>
       <r>   -5.6475    1.0000 </r>
       <r>   -5.2269    1.0000 </r>
       <r>   -4.7832    1.0000 </r>
       <r>   -4.6617    1.0000 </r>
       <r>   -4.0539    1.0000 </r>
       <r>   -3.1366    1.0000 </r>
       <r>   -2.7451    1.0000 </r>
       <r>   -1.4017    0.0000 </r>
       <r>   -1.3003    0.0000 </r>
       <r>   -0.1582    0.0000 </r>
       <r>    0.3399    0.0000 </r>
       <r>    0.9524    0.0000 </r>
       <r>    1.8826    0.0000 </r>
      </set>
      <set comment="kpoint 12">
       <r>  -27.7356    1.0000 </r>
       <r>  -27.7312    1.0000 </r>
       <r>  -27.7311    1.0000 </r>
       <r>  -27.7248    1.0000 </r>
       <r>  -27.7222    1.0000 </r>
       <r>  -27.7082    1.0000 </r>
       <r>  -27.7071    1.0000 </r>
       <r>  -27.7044    1.0000 </r>
       <r>  -27.6910    1.0000 </r>
       <r>  -27.6869    1.0000 </r>
       <r>  -16.7402    1.0000 </r>
       <r>  -15.3206    1.0000 </r>
       <r>  -15.0962    1.0000 </r>
       <r>  -14.9282    1.0000 </r>
       <r>  -11.3610    1.0000 </r>
       <r>   -9.3644    1.0000 </r>
       <r>   -7.3897    1.0000 </r>
       <r>   -6.0998    1.0000 </r>
       <r>   -6.0160    1.0000 </r>
       <r>   -5.6970    1.0000 </r>
       <r>   -5.3885    1.0000 </r>
       <r>   -4.7074    1.0000 </r>
       <r>   -4.6154    1.0000 </r>
       <r>   -3.9908    1.0000 </r>
       <r>   -3.3563    1.0000 </r>
       <r>   -2.8380    1.0000 </r>
       <r>   -1.2286    0.0000 </r>
       <r>   -1.1367    0.0000 </r>
       <r>    0.3268    0.0000 </r>
       <r>    0.5439    0.0000 </r>
       <r>    1.1450    0.0000 </r>
       <r>    1.7221    0.0000 </r>
      </set>
      <set comment="kpoint 13">
       <r>  -27.7348    1.0000 </r>
       <r>  -27.7307    1.0000 </r>
       <r>  -27.7305    1.0000 </r>
       <r>  -27.7256    1.0000 </r>
       <r>  -27.7218    1.0000 </r>
       <r>  -27.7089    1.0000 </r>
       <r>  -27.7077    1.0000 </r>
       <r>  -27.7046    1.0000 </r>
       <r>  -27.6907    1.0000 </r>
       <r>  -27.6872    1.0000 </r>
       <r>  -16.6249    1.0000 </r>
       <r>  -15.2808    1.0000 </r>
       <r>  -15.2610    1.0000 </r>
       <r>  -14.9774    1.0000 </r>
       <r>  -11.1482    1.0000 </r>
       <r>   -9.4931    1.0000 </r>
       <r>   -7.3487    1.0000 </r>
       <r>   -6.3614    1.0000 </r>
       <r>   -6.0969    1.0000 </r>
       <r>   -5.6734    1.0000 </r>
       <r>   -5.5961    1.0000 </r>
       <r>   -4.7956    1.0000 </r>
       <r>   -4.4848    1.0000 </r>
       <r>   -3.9046    1.0000 </r>
       <r>   -3.5723    1.0000 </r>
       <r>   -2.9734    1.0000 </r>
       <r>   -1.0974    0.0000 </r>
       <r>   -0.8231    0.0000 </r>
       <r>    0.7786    0.0000 </r>
       <r>    0.8759    0.0000 </r>
       <r>    1.3337    0.0000 </r>
       <r>    1.5800    0.0000 </r>
      </set>
      <set comment="kpoint 14">
       <r>  -27.7339    1.0000 </r>
       <r>  -27.7302    1.0000 </r>
       <r>  -27.7301    1.0000 </r>
       <r>  -27.7265    1.0000 </r>
       <r>  -27.7210    1.0000 </r>
       <r>  -27.7109    1.0000 </r>
       <r>  -27.7072    1.0000 </r>
       <r>  -27.7049    1.0000 </r>
       <r>  -27.6902    1.0000 </r>
       <r>  -27.6876    1.0000 </r>
       <r>  -16.4805    1.0000 </r>
       <r>  -15.4681    1.0000 </r>
       <r>  -15.2346    1.0000 </r>
       <r>  -15.0118    1.0000 </r>
       <r>  -10.9061    1.0000 </r>
       <r>   -9.6659    1.0000 </r>
       <r>   -7.2886    1.0000 </r>
       <r>   -6.5907    1.0000 </r>
       <r>   -6.1551    1.0000 </r>
       <r>   -5.8006    1.0000 </r>
       <r>   -5.6048    1.0000 </r>
       <r>   -4.9226    1.0000 </r>
       <r>   -4.3856    1.0000 </r>
       <r>   -3.8005    1.0000 </r>
       <r>   -3.7688    1.0000 </r>
       <r>   -3.1256    1.0000 </r>
       <r>   -0.9130    0.0000 </r>
       <r>   -0.5459    0.0000 </r>
       <r>    1.0085    0.0000 </r>
       <r>    1.3728    0.0000 </r>
       <r>    1.4605    0.0000 </r>
       <r>    1.5558    0.0000 </r>
      </set>
      <set comment="kpoint 15">
       <r>  -27.7328    1.0000 </r>
       <r>  -27.7303    1.0000 </r>
       <r>  -27.7296    1.0000 </r>
       <r>  -27.7273    1.0000 </r>
       <r>  -27.7196    1.0000 </r>
       <r>  -27.7132    1.0000 </r>
       <r>  -27.7067    1.0000 </r>
       <r>  -27.7052    1.0000 </r>
       <r>  -27.6897    1.0000 </r>
       <r>  -27.6881    1.0000 </r>
       <r>  -16.3099    1.0000 </r>
       <r>  -15.6884    1.0000 </r>
       <r>  -15.1853    1.0000 </r>
       <r>  -15.0482    1.0000 </r>
       <r>  -10.6466    1.0000 </r>
       <r>   -9.8784    1.0000 </r>
       <r>   -7.2046    1.0000 </r>
       <r>   -6.7870    1.0000 </r>
       <r>   -6.1764    1.0000 </r>
       <r>   -5.9697    1.0000 </r>
       <r>   -5.5037    1.0000 </r>
       <r>   -5.0733    1.0000 </r>
       <r>   -4.2980    1.0000 </r>
       <r>   -3.9398    1.0000 </r>
       <r>   -3.6840    1.0000 </r>
       <r>   -3.2778    1.0000 </r>
       <r>   -0.7026    0.0000 </r>
       <r>   -0.3868    0.0000 </r>
       <r>    1.2004    0.0000 </r>
       <r>    1.4235    0.0000 </r>
       <r>    1.5096    0.0000 </r>
       <r>    1.6020    0.0000 </r>
      </set>
      <set comment="kpoint 16">
       <r>  -27.7318    1.0000 </r>
       <r>  -27.7309    1.0000 </r>
       <r>  -27.7289    1.0000 </r>
       <r>  -27.7282    1.0000 </r>
       <r>  -27.7177    1.0000 </r>
       <r>  -27.7155    1.0000 </r>
       <r>  -27.7062    1.0000 </r>
       <r>  -27.7057    1.0000 </r>
       <r>  -27.6892    1.0000 </r>
       <r>  -27.6887    1.0000 </r>
       <r>  -16.1173    1.0000 </r>
       <r>  -15.9079    1.0000 </r>
       <r>  -15.1360    1.0000 </r>
       <r>  -15.0897    1.0000 </r>
       <r>  -10.3810    1.0000 </r>
       <r>  -10.1208    1.0000 </r>
       <r>   -7.0934    1.0000 </r>
       <r>   -6.9541    1.0000 </r>
       <r>   -6.1558    1.0000 </r>
       <r>   -6.0885    1.0000 </r>
       <r>   -5.3765    1.0000 </r>
       <r>   -5.2297    1.0000 </r>
       <r>   -4.2018    1.0000 </r>
       <r>   -4.0840    1.0000 </r>
       <r>   -3.5577    1.0000 </r>
       <r>   -3.4224    1.0000 </r>
       <r>   -0.5080    0.0000 </r>
       <r>   -0.3834    0.0000 </r>
       <r>    1.3411    0.0000 </r>
       <r>    1.4338    0.0000 </r>
       <r>    1.4959    0.0000 </r>
       <r>    1.5056    0.0000 </r>
      </set>
      <set comment="kpoint 17">
       <r>  -27.7363    1.0000 </r>
       <r>  -27.7320    1.0000 </r>
       <r>  -27.7314    1.0000 </r>
       <r>  -27.7234    1.0000 </r>
       <r>  -27.7228    1.0000 </r>
       <r>  -27.7085    1.0000 </r>
       <r>  -27.7057    1.0000 </r>
       <r>  -27.7045    1.0000 </r>
       <r>  -27.6912    1.0000 </r>
       <r>  -27.6867    1.0000 </r>
       <r>  -16.8353    1.0000 </r>
       <r>  -15.3492    1.0000 </r>
       <r>  -15.1318    1.0000 </r>
       <r>  -14.7420    1.0000 </r>
       <r>  -11.5004    1.0000 </r>
       <r>   -9.2654    1.0000 </r>
       <r>   -7.3884    1.0000 </r>
       <r>   -5.9762    1.0000 </r>
       <r>   -5.5789    1.0000 </r>
       <r>   -5.4116    1.0000 </r>
       <r>   -5.4087    1.0000 </r>
       <r>   -4.9814    1.0000 </r>
       <r>   -4.6475    1.0000 </r>
       <r>   -4.0166    1.0000 </r>
       <r>   -2.9638    1.0000 </r>
       <r>   -2.8777    1.0000 </r>
       <r>   -1.3038    0.0000 </r>
       <r>   -1.2531    0.0000 </r>
       <r>   -0.2864    0.0000 </r>
       <r>    0.1971    0.0000 </r>
       <r>    0.8572    0.0000 </r>
       <r>    1.9442    0.0000 </r>
      </set>
      <set comment="kpoint 18">
       <r>  -27.7363    1.0000 </r>
       <r>  -27.7318    1.0000 </r>
       <r>  -27.7313    1.0000 </r>
       <r>  -27.7236    1.0000 </r>
       <r>  -27.7227    1.0000 </r>
       <r>  -27.7084    1.0000 </r>
       <r>  -27.7060    1.0000 </r>
       <r>  -27.7044    1.0000 </r>
       <r>  -27.6912    1.0000 </r>
       <r>  -27.6867    1.0000 </r>
       <r>  -16.8188    1.0000 </r>
       <r>  -15.3433    1.0000 </r>
       <r>  -15.1394    1.0000 </r>
       <r>  -14.7661    1.0000 </r>
       <r>  -11.4728    1.0000 </r>
       <r>   -9.2853    1.0000 </r>
       <r>   -7.3751    1.0000 </r>
       <r>   -5.9984    1.0000 </r>
       <r>   -5.7956    1.0000 </r>
       <r>   -5.4726    1.0000 </r>
       <r>   -5.2518    1.0000 </r>
       <r>   -4.8878    1.0000 </r>
       <r>   -4.6622    1.0000 </r>
       <r>   -4.0056    1.0000 </r>
       <r>   -3.1277    1.0000 </r>
       <r>   -2.7640    1.0000 </r>
       <r>   -1.3579    0.0000 </r>
       <r>   -1.2452    0.0000 </r>
       <r>   -0.1193    0.0000 </r>
       <r>    0.2422    0.0000 </r>
       <r>    0.9044    0.0000 </r>
       <r>    1.8233    0.0000 </r>
      </set>
      <set comment="kpoint 19">
       <r>  -27.7360    1.0000 </r>
       <r>  -27.7315    1.0000 </r>
       <r>  -27.7310    1.0000 </r>
       <r>  -27.7241    1.0000 </r>
       <r>  -27.7226    1.0000 </r>
       <r>  -27.7082    1.0000 </r>
       <r>  -27.7069    1.0000 </r>
       <r>  -27.7043    1.0000 </r>
       <r>  -27.6910    1.0000 </r>
       <r>  -27.6868    1.0000 </r>
       <r>  -16.7696    1.0000 </r>
       <r>  -15.3258    1.0000 </r>
       <r>  -15.1671    1.0000 </r>
       <r>  -14.8301    1.0000 </r>
       <r>  -11.3928    1.0000 </r>
       <r>   -9.3464    1.0000 </r>
       <r>   -7.3360    1.0000 </r>
       <r>   -6.0820    1.0000 </r>
       <r>   -6.0687    1.0000 </r>
       <r>   -5.5539    1.0000 </r>
       <r>   -5.1429    1.0000 </r>
       <r>   -4.7181    1.0000 </r>
       <r>   -4.7044    1.0000 </r>
       <r>   -3.9686    1.0000 </r>
       <r>   -3.3470    1.0000 </r>
       <r>   -2.6885    1.0000 </r>
       <r>   -1.4006    0.0000 </r>
       <r>   -1.2129    0.0000 </r>
       <r>    0.2613    0.0000 </r>
       <r>    0.3660    0.0000 </r>
       <r>    1.0377    0.0000 </r>
       <r>    1.6606    0.0000 </r>
      </set>
      <set comment="kpoint 20">
       <r>  -27.7356    1.0000 </r>
       <r>  -27.7311    1.0000 </r>
       <r>  -27.7305    1.0000 </r>
       <r>  -27.7246    1.0000 </r>
       <r>  -27.7224    1.0000 </r>
       <r>  -27.7083    1.0000 </r>
       <r>  -27.7079    1.0000 </r>
       <r>  -27.7043    1.0000 </r>
       <r>  -27.6908    1.0000 </r>
       <r>  -27.6870    1.0000 </r>
       <r>  -16.6887    1.0000 </r>
       <r>  -15.2982    1.0000 </r>
       <r>  -15.2312    1.0000 </r>
       <r>  -14.9088    1.0000 </r>
       <r>  -11.2672    1.0000 </r>
       <r>   -9.4511    1.0000 </r>
       <r>   -7.2735    1.0000 </r>
       <r>   -6.3420    1.0000 </r>
       <r>   -6.1706    1.0000 </r>
       <r>   -5.5812    1.0000 </r>
       <r>   -5.1728    1.0000 </r>
       <r>   -4.7783    1.0000 </r>
       <r>   -4.5663    1.0000 </r>
       <r>   -3.8984    1.0000 </r>
       <r>   -3.5580    1.0000 </r>
       <r>   -2.6948    1.0000 </r>
       <r>   -1.3167    0.0000 </r>
       <r>   -1.1400    0.0000 </r>
       <r>    0.5419    0.0000 </r>
       <r>    0.7097    0.0000 </r>
       <r>    1.2293    0.0000 </r>
       <r>    1.5210    0.0000 </r>
      </set>
      <set comment="kpoint 21">
       <r>  -27.7351    1.0000 </r>
       <r>  -27.7309    1.0000 </r>
       <r>  -27.7299    1.0000 </r>
       <r>  -27.7250    1.0000 </r>
       <r>  -27.7220    1.0000 </r>
       <r>  -27.7100    1.0000 </r>
       <r>  -27.7074    1.0000 </r>
       <r>  -27.7044    1.0000 </r>
       <r>  -27.6904    1.0000 </r>
       <r>  -27.6873    1.0000 </r>
       <r>  -16.5779    1.0000 </r>
       <r>  -15.3493    1.0000 </r>
       <r>  -15.2626    1.0000 </r>
       <r>  -14.9734    1.0000 </r>
       <r>  -11.1045    1.0000 </r>
       <r>   -9.5997    1.0000 </r>
       <r>   -7.1935    1.0000 </r>
       <r>   -6.5534    1.0000 </r>
       <r>   -6.2605    1.0000 </r>
       <r>   -5.5661    1.0000 </r>
       <r>   -5.3126    1.0000 </r>
       <r>   -4.8953    1.0000 </r>
       <r>   -4.4563    1.0000 </r>
       <r>   -3.7940    1.0000 </r>
       <r>   -3.7399    1.0000 </r>
       <r>   -2.7728    1.0000 </r>
       <r>   -1.1132    0.0000 </r>
       <r>   -1.0195    0.0000 </r>
       <r>    0.7402    0.0000 </r>
       <r>    1.0915    0.0000 </r>
       <r>    1.4276    0.0000 </r>
       <r>    1.5011    0.0000 </r>
      </set>
      <set comment="kpoint 22">
       <r>  -27.7345    1.0000 </r>
       <r>  -27.7310    1.0000 </r>
       <r>  -27.7292    1.0000 </r>
       <r>  -27.7255    1.0000 </r>
       <r>  -27.7212    1.0000 </r>
       <r>  -27.7119    1.0000 </r>
       <r>  -27.7069    1.0000 </r>
       <r>  -27.7047    1.0000 </r>
       <r>  -27.6900    1.0000 </r>
       <r>  -27.6877    1.0000 </r>
       <r>  -16.4397    1.0000 </r>
       <r>  -15.5146    1.0000 </r>
       <r>  -15.2217    1.0000 </r>
       <r>  -15.0191    1.0000 </r>
       <r>  -10.9126    1.0000 </r>
       <r>   -9.7872    1.0000 </r>
       <r>   -7.1074    1.0000 </r>
       <r>   -6.7114    1.0000 </r>
       <r>   -6.2993    1.0000 </r>
       <r>   -5.5272    1.0000 </r>
       <r>   -5.5147    1.0000 </r>
       <r>   -5.0412    1.0000 </r>
       <r>   -4.3763    1.0000 </r>
       <r>   -3.8902    1.0000 </r>
       <r>   -3.6654    1.0000 </r>
       <r>   -2.8991    1.0000 </r>
       <r>   -0.8654    0.0000 </r>
       <r>   -0.8646    0.0000 </r>
       <r>    0.9354    0.0000 </r>
       <r>    1.2039    0.0000 </r>
       <r>    1.5699    0.0000 </r>
       <r>    1.7839    0.0000 </r>
      </set>
      <set comment="kpoint 23">
       <r>  -27.7337    1.0000 </r>
       <r>  -27.7315    1.0000 </r>
       <r>  -27.7284    1.0000 </r>
       <r>  -27.7261    1.0000 </r>
       <r>  -27.7199    1.0000 </r>
       <r>  -27.7140    1.0000 </r>
       <r>  -27.7064    1.0000 </r>
       <r>  -27.7050    1.0000 </r>
       <r>  -27.6896    1.0000 </r>
       <r>  -27.6881    1.0000 </r>
       <r>  -16.2778    1.0000 </r>
       <r>  -15.7050    1.0000 </r>
       <r>  -15.1784    1.0000 </r>
       <r>  -15.0571    1.0000 </r>
       <r>  -10.6988    1.0000 </r>
       <r>  -10.0033    1.0000 </r>
       <r>   -7.0295    1.0000 </r>
       <r>   -6.8230    1.0000 </r>
       <r>   -6.2618    1.0000 </r>
       <r>   -5.7410    1.0000 </r>
       <r>   -5.4725    1.0000 </r>
       <r>   -5.1854    1.0000 </r>
       <r>   -4.3038    1.0000 </r>
       <r>   -4.0172    1.0000 </r>
       <r>   -3.5226    1.0000 </r>
       <r>   -3.0507    1.0000 </r>
       <r>   -0.7082    0.0000 </r>
       <r>   -0.6632    0.0000 </r>
       <r>    1.1111    0.0000 </r>
       <r>    1.2544    0.0000 </r>
       <r>    1.6200    0.0000 </r>
       <r>    1.7389    0.0000 </r>
      </set>
      <set comment="kpoint 24">
       <r>  -27.7329    1.0000 </r>
       <r>  -27.7321    1.0000 </r>
       <r>  -27.7275    1.0000 </r>
       <r>  -27.7268    1.0000 </r>
       <r>  -27.7182    1.0000 </r>
       <r>  -27.7161    1.0000 </r>
       <r>  -27.7059    1.0000 </r>
       <r>  -27.7054    1.0000 </r>
       <r>  -27.6891    1.0000 </r>
       <r>  -27.6886    1.0000 </r>
       <r>  -16.0968    1.0000 </r>
       <r>  -15.9031    1.0000 </r>
       <r>  -15.1355    1.0000 </r>
       <r>  -15.0950    1.0000 </r>
       <r>  -10.4703    1.0000 </r>
       <r>  -10.2350    1.0000 </r>
       <r>   -6.9648    1.0000 </r>
       <r>   -6.9019    1.0000 </r>
       <r>   -6.1430    1.0000 </r>
       <r>   -5.9602    1.0000 </r>
       <r>   -5.4012    1.0000 </r>
       <r>   -5.3071    1.0000 </r>
       <r>   -4.2230    1.0000 </r>
       <r>   -4.1276    1.0000 </r>
       <r>   -3.3702    1.0000 </r>
       <r>   -3.2111    1.0000 </r>
       <r>   -0.5948    0.0000 </r>
       <r>   -0.5696    0.0000 </r>
       <r>    1.2571    0.0000 </r>
       <r>    1.3149    0.0000 </r>
       <r>    1.5936    0.0000 </r>
       <r>    1.5990    0.0000 </r>
      </set>
      <set comment="kpoint 25">
       <r>  -27.7357    1.0000 </r>
       <r>  -27.7314    1.0000 </r>
       <r>  -27.7307    1.0000 </r>
       <r>  -27.7235    1.0000 </r>
       <r>  -27.7229    1.0000 </r>
       <r>  -27.7081    1.0000 </r>
       <r>  -27.7073    1.0000 </r>
       <r>  -27.7047    1.0000 </r>
       <r>  -27.6910    1.0000 </r>
       <r>  -27.6870    1.0000 </r>
       <r>  -16.7417    1.0000 </r>
       <r>  -15.3344    1.0000 </r>
       <r>  -15.3044    1.0000 </r>
       <r>  -14.7909    1.0000 </r>
       <r>  -11.2378    1.0000 </r>
       <r>   -9.3590    1.0000 </r>
       <r>   -7.3069    1.0000 </r>
       <r>   -6.0530    1.0000 </r>
       <r>   -5.7822    1.0000 </r>
       <r>   -5.6984    1.0000 </r>
       <r>   -5.3613    1.0000 </r>
       <r>   -4.8445    1.0000 </r>
       <r>   -4.6855    1.0000 </r>
       <r>   -3.8888    1.0000 </r>
       <r>   -3.1999    1.0000 </r>
       <r>   -2.9788    1.0000 </r>
       <r>   -1.1171    0.0000 </r>
       <r>   -0.9279    0.0000 </r>
       <r>    0.2521    0.0000 </r>
       <r>    0.2756    0.0000 </r>
       <r>    0.9884    0.0000 </r>
       <r>    1.6781    0.0000 </r>
      </set>
      <set comment="kpoint 26">
       <r>  -27.7357    1.0000 </r>
       <r>  -27.7314    1.0000 </r>
       <r>  -27.7306    1.0000 </r>
       <r>  -27.7236    1.0000 </r>
       <r>  -27.7229    1.0000 </r>
       <r>  -27.7081    1.0000 </r>
       <r>  -27.7077    1.0000 </r>
       <r>  -27.7046    1.0000 </r>
       <r>  -27.6909    1.0000 </r>
       <r>  -27.6871    1.0000 </r>
       <r>  -16.7261    1.0000 </r>
       <r>  -15.3399    1.0000 </r>
       <r>  -15.2994    1.0000 </r>
       <r>  -14.8075    1.0000 </r>
       <r>  -11.2252    1.0000 </r>
       <r>   -9.3855    1.0000 </r>
       <r>   -7.2822    1.0000 </r>
       <r>   -6.0824    1.0000 </r>
       <r>   -6.0462    1.0000 </r>
       <r>   -5.4407    1.0000 </r>
       <r>   -5.4116    1.0000 </r>
       <r>   -4.7659    1.0000 </r>
       <r>   -4.7085    1.0000 </r>
       <r>   -3.8760    1.0000 </r>
       <r>   -3.3447    1.0000 </r>
       <r>   -2.8571    1.0000 </r>
       <r>   -1.1068    0.0000 </r>
       <r>   -1.0421    0.0000 </r>
       <r>    0.3112    0.0000 </r>
       <r>    0.4142    0.0000 </r>
       <r>    1.0327    0.0000 </r>
       <r>    1.5825    0.0000 </r>
      </set>
      <set comment="kpoint 27">
       <r>  -27.7357    1.0000 </r>
       <r>  -27.7313    1.0000 </r>
       <r>  -27.7302    1.0000 </r>
       <r>  -27.7239    1.0000 </r>
       <r>  -27.7227    1.0000 </r>
       <r>  -27.7086    1.0000 </r>
       <r>  -27.7078    1.0000 </r>
       <r>  -27.7045    1.0000 </r>
       <r>  -27.6907    1.0000 </r>
       <r>  -27.6872    1.0000 </r>
       <r>  -16.6799    1.0000 </r>
       <r>  -15.3591    1.0000 </r>
       <r>  -15.2850    1.0000 </r>
       <r>  -14.8534    1.0000 </r>
       <r>  -11.1869    1.0000 </r>
       <r>   -9.4643    1.0000 </r>
       <r>   -7.2095    1.0000 </r>
       <r>   -6.3171    1.0000 </r>
       <r>   -6.1699    1.0000 </r>
       <r>   -5.4803    1.0000 </r>
       <r>   -5.2030    1.0000 </r>
       <r>   -4.7774    1.0000 </r>
       <r>   -4.6197    1.0000 </r>
       <r>   -3.8303    1.0000 </r>
       <r>   -3.5533    1.0000 </r>
       <r>   -2.7150    1.0000 </r>
       <r>   -1.2370    0.0000 </r>
       <r>   -1.0718    0.0000 </r>
       <r>    0.4082    0.0000 </r>
       <r>    0.7484    0.0000 </r>
       <r>    1.1604    0.0000 </r>
       <r>    1.4561    0.0000 </r>
      </set>
      <set comment="kpoint 28">
       <r>  -27.7355    1.0000 </r>
       <r>  -27.7314    1.0000 </r>
       <r>  -27.7295    1.0000 </r>
       <r>  -27.7240    1.0000 </r>
       <r>  -27.7226    1.0000 </r>
       <r>  -27.7099    1.0000 </r>
       <r>  -27.7075    1.0000 </r>
       <r>  -27.7043    1.0000 </r>
       <r>  -27.6904    1.0000 </r>
       <r>  -27.6873    1.0000 </r>
       <r>  -16.6041    1.0000 </r>
       <r>  -15.4006    1.0000 </r>
       <r>  -15.2624    1.0000 </r>
       <r>  -14.9163    1.0000 </r>
       <r>  -11.1219    1.0000 </r>
       <r>   -9.5929    1.0000 </r>
       <r>   -7.0946    1.0000 </r>
       <r>   -6.5360    1.0000 </r>
       <r>   -6.2952    1.0000 </r>
       <r>   -5.5050    1.0000 </r>
       <r>   -5.0763    1.0000 </r>
       <r>   -4.8898    1.0000 </r>
       <r>   -4.4989    1.0000 </r>
       <r>   -3.7389    1.0000 </r>
       <r>   -3.7361    1.0000 </r>
       <r>   -2.6355    1.0000 </r>
       <r>   -1.3505    0.0000 </r>
       <r>   -1.0057    0.0000 </r>
       <r>    0.5454    0.0000 </r>
       <r>    1.0245    0.0000 </r>
       <r>    1.3497    0.0000 </r>
       <r>    1.4468    0.0000 </r>
      </set>
      <set comment="kpoint 29">
       <r>  -27.7353    1.0000 </r>
       <r>  -27.7316    1.0000 </r>
       <r>  -27.7288    1.0000 </r>
       <r>  -27.7241    1.0000 </r>
       <r>  -27.7223    1.0000 </r>
       <r>  -27.7115    1.0000 </r>
       <r>  -27.7070    1.0000 </r>
       <r>  -27.7044    1.0000 </r>
       <r>  -27.6901    1.0000 </r>
       <r>  -27.6875    1.0000 </r>
       <r>  -16.5010    1.0000 </r>
       <r>  -15.4756    1.0000 </r>
       <r>  -15.2338    1.0000 </r>
       <r>  -14.9795    1.0000 </r>
       <r>  -11.0290    1.0000 </r>
       <r>   -9.7634    1.0000 </r>
       <r>   -6.9531    1.0000 </r>
       <r>   -6.6941    1.0000 </r>
       <r>   -6.4115    1.0000 </r>
       <r>   -5.4935    1.0000 </r>
       <r>   -5.0884    1.0000 </r>
       <r>   -5.0365    1.0000 </r>
       <r>   -4.4247    1.0000 </r>
       <r>   -3.8798    1.0000 </r>
       <r>   -3.6043    1.0000 </r>
       <r>   -2.6296    1.0000 </r>
       <r>   -1.3259    0.0000 </r>
       <r>   -0.9126    0.0000 </r>
       <r>    0.7044    0.0000 </r>
       <r>    1.0669    0.0000 </r>
       <r>    1.5519    0.0000 </r>
       <r>    1.6892    0.0000 </r>
      </set>
      <set comment="kpoint 30">
       <r>  -27.7350    1.0000 </r>
       <r>  -27.7320    1.0000 </r>
       <r>  -27.7279    1.0000 </r>
       <r>  -27.7243    1.0000 </r>
       <r>  -27.7216    1.0000 </r>
       <r>  -27.7133    1.0000 </r>
       <r>  -27.7065    1.0000 </r>
       <r>  -27.7045    1.0000 </r>
       <r>  -27.6897    1.0000 </r>
       <r>  -27.6878    1.0000 </r>
       <r>  -16.3736    1.0000 </r>
       <r>  -15.5896    1.0000 </r>
       <r>  -15.2014    1.0000 </r>
       <r>  -15.0307    1.0000 </r>
       <r>  -10.9075    1.0000 </r>
       <r>   -9.9626    1.0000 </r>
       <r>   -6.8363    1.0000 </r>
       <r>   -6.7947    1.0000 </r>
       <r>   -6.4454    1.0000 </r>
       <r>   -5.4644    1.0000 </r>
       <r>   -5.2659    1.0000 </r>
       <r>   -5.1499    1.0000 </r>
       <r>   -4.3766    1.0000 </r>
       <r>   -3.9953    1.0000 </r>
       <r>   -3.4456    1.0000 </r>
       <r>   -2.6915    1.0000 </r>
       <r>   -1.1845    0.0000 </r>
       <r>   -0.8146    0.0000 </r>
       <r>    0.8734    0.0000 </r>
       <r>    1.0628    0.0000 </r>
       <r>    1.6985    0.0000 </r>
       <r>    1.9526    0.0000 </r>
      </set>
      <set comment="kpoint 31">
       <r>  -27.7345    1.0000 </r>
       <r>  -27.7326    1.0000 </r>
       <r>  -27.7270    1.0000 </r>
       <r>  -27.7248    1.0000 </r>
       <r>  -27.7204    1.0000 </r>
       <r>  -27.7152    1.0000 </r>
       <r>  -27.7060    1.0000 </r>
       <r>  -27.7047    1.0000 </r>
       <r>  -27.6893    1.0000 </r>
       <r>  -27.6881    1.0000 </r>
       <r>  -16.2265    1.0000 </r>
       <r>  -15.7351    1.0000 </r>
       <r>  -15.1679    1.0000 </r>
       <r>  -15.0698    1.0000 </r>
       <r>  -10.7579    1.0000 </r>
       <r>  -10.1749    1.0000 </r>
       <r>   -6.8475    1.0000 </r>
       <r>   -6.8195    1.0000 </r>
       <r>   -6.3142    1.0000 </r>
       <r>   -5.5212    1.0000 </r>
       <r>   -5.4280    1.0000 </r>
       <r>   -5.2478    1.0000 </r>
       <r>   -4.3289    1.0000 </r>
       <r>   -4.0967    1.0000 </r>
       <r>   -3.2785    1.0000 </r>
       <r>   -2.8045    1.0000 </r>
       <r>   -0.9958    0.0000 </r>
       <r>   -0.7478    0.0000 </r>
       <r>    1.0412    0.0000 </r>
       <r>    1.1089    0.0000 </r>
       <r>    1.7370    0.0000 </r>
       <r>    1.8401    0.0000 </r>
      </set>
      <set comment="kpoint 32">
       <r>  -27.7339    1.0000 </r>
       <r>  -27.7332    1.0000 </r>
       <r>  -27.7262    1.0000 </r>
       <r>  -27.7254    1.0000 </r>
       <r>  -27.7188    1.0000 </r>
       <r>  -27.7171    1.0000 </r>
       <r>  -27.7055    1.0000 </r>
       <r>  -27.7051    1.0000 </r>
       <r>  -27.6889    1.0000 </r>
       <r>  -27.6885    1.0000 </r>
       <r>  -16.0654    1.0000 </r>
       <r>  -15.8981    1.0000 </r>
       <r>  -15.1349    1.0000 </r>
       <r>  -15.1029    1.0000 </r>
       <r>  -10.5823    1.0000 </r>
       <r>  -10.3853    1.0000 </r>
       <r>   -6.8620    1.0000 </r>
       <r>   -6.8472    1.0000 </r>
       <r>   -6.0768    1.0000 </r>
       <r>   -5.8015    1.0000 </r>
       <r>   -5.3846    1.0000 </r>
       <r>   -5.3269    1.0000 </r>
       <r>   -4.2670    1.0000 </r>
       <r>   -4.1883    1.0000 </r>
       <r>   -3.1108    1.0000 </r>
       <r>   -2.9494    1.0000 </r>
       <r>   -0.8345    0.0000 </r>
       <r>   -0.7481    0.0000 </r>
       <r>    1.1744    0.0000 </r>
       <r>    1.1862    0.0000 </r>
       <r>    1.6875    0.0000 </r>
       <r>    1.7044    0.0000 </r>
      </set>
      <set comment="kpoint 33">
       <r>  -27.7349    1.0000 </r>
       <r>  -27.7312    1.0000 </r>
       <r>  -27.7299    1.0000 </r>
       <r>  -27.7244    1.0000 </r>
       <r>  -27.7218    1.0000 </r>
       <r>  -27.7095    1.0000 </r>
       <r>  -27.7076    1.0000 </r>
       <r>  -27.7050    1.0000 </r>
       <r>  -27.6905    1.0000 </r>
       <r>  -27.6876    1.0000 </r>
       <r>  -16.6127    1.0000 </r>
       <r>  -15.5676    1.0000 </r>
       <r>  -15.2447    1.0000 </r>
       <r>  -14.8549    1.0000 </r>
       <r>  -10.9263    1.0000 </r>
       <r>   -9.5046    1.0000 </r>
       <r>   -7.1877    1.0000 </r>
       <r>   -6.1294    1.0000 </r>
       <r>   -6.0068    1.0000 </r>
       <r>   -5.9727    1.0000 </r>
       <r>   -5.2901    1.0000 </r>
       <r>   -4.7566    1.0000 </r>
       <r>   -4.6735    1.0000 </r>
       <r>   -3.7403    1.0000 </r>
       <r>   -3.4634    1.0000 </r>
       <r>   -3.0880    1.0000 </r>
       <r>   -0.9249    0.0000 </r>
       <r>   -0.5641    0.0000 </r>
       <r>    0.3826    0.0000 </r>
       <r>    0.9104    0.0000 </r>
       <r>    1.1218    0.0000 </r>
       <r>    1.4004    0.0000 </r>
      </set>
      <set comment="kpoint 34">
       <r>  -27.7350    1.0000 </r>
       <r>  -27.7313    1.0000 </r>
       <r>  -27.7297    1.0000 </r>
       <r>  -27.7243    1.0000 </r>
       <r>  -27.7219    1.0000 </r>
       <r>  -27.7098    1.0000 </r>
       <r>  -27.7076    1.0000 </r>
       <r>  -27.7049    1.0000 </r>
       <r>  -27.6905    1.0000 </r>
       <r>  -27.6876    1.0000 </r>
       <r>  -16.5986    1.0000 </r>
       <r>  -15.5690    1.0000 </r>
       <r>  -15.2412    1.0000 </r>
       <r>  -14.8661    1.0000 </r>
       <r>  -10.9296    1.0000 </r>
       <r>   -9.5378    1.0000 </r>
       <r>   -7.1526    1.0000 </r>
       <r>   -6.2690    1.0000 </r>
       <r>   -6.1545    1.0000 </r>
       <r>   -5.6828    1.0000 </r>
       <r>   -5.3391    1.0000 </r>
       <r>   -4.7899    1.0000 </r>
       <r>   -4.6111    1.0000 </r>
       <r>   -3.7204    1.0000 </r>
       <r>   -3.5713    1.0000 </r>
       <r>   -2.9757    1.0000 </r>
       <r>   -0.9160    0.0000 </r>
       <r>   -0.6924    0.0000 </r>
       <r>    0.4062    0.0000 </r>
       <r>    1.0167    0.0000 </r>
       <r>    1.1642    0.0000 </r>
       <r>    1.3563    0.0000 </r>
      </set>
      <set comment="kpoint 35">
       <r>  -27.7351    1.0000 </r>
       <r>  -27.7315    1.0000 </r>
       <r>  -27.7292    1.0000 </r>
       <r>  -27.7241    1.0000 </r>
       <r>  -27.7220    1.0000 </r>
       <r>  -27.7107    1.0000 </r>
       <r>  -27.7073    1.0000 </r>
       <r>  -27.7047    1.0000 </r>
       <r>  -27.6903    1.0000 </r>
       <r>  -27.6876    1.0000 </r>
       <r>  -16.5566    1.0000 </r>
       <r>  -15.5752    1.0000 </r>
       <r>  -15.2311    1.0000 </r>
       <r>  -14.8980    1.0000 </r>
       <r>  -10.9360    1.0000 </r>
       <r>   -9.6337    1.0000 </r>
       <r>   -7.0507    1.0000 </r>
       <r>   -6.4967    1.0000 </r>
       <r>   -6.2322    1.0000 </r>
       <r>   -5.4175    1.0000 </r>
       <r>   -5.3854    1.0000 </r>
       <r>   -4.8862    1.0000 </r>
       <r>   -4.4988    1.0000 </r>
       <r>   -3.7404    1.0000 </r>
       <r>   -3.6523    1.0000 </r>
       <r>   -2.7982    1.0000 </r>
       <r>   -0.9598    0.0000 </r>
       <r>   -0.8899    0.0000 </r>
       <r>    0.4721    0.0000 </r>
       <r>    1.1124    0.0000 </r>
       <r>    1.2867    0.0000 </r>
       <r>    1.4238    0.0000 </r>
[...]
       <r>    1.3303    0.0000 </r>
       <r>    1.4536    0.0000 </r>
      </set>
      <set comment="kpoint 54">
       <r>  -27.7350    1.0000 </r>
       <r>  -27.7345    1.0000 </r>
       <r>  -27.7244    1.0000 </r>
       <r>  -27.7234    1.0000 </r>
       <r>  -27.7201    1.0000 </r>
       <r>  -27.7184    1.0000 </r>
       <r>  -27.7051    1.0000 </r>
       <r>  -27.7047    1.0000 </r>
       <r>  -27.6887    1.0000 </r>
       <r>  -27.6884    1.0000 </r>
       <r>  -16.0577    1.0000 </r>
       <r>  -15.9308    1.0000 </r>
       <r>  -15.1180    1.0000 </r>
       <r>  -15.0906    1.0000 </r>
       <r>  -10.6974    1.0000 </r>
       <r>  -10.5476    1.0000 </r>
       <r>   -6.8214    1.0000 </r>
       <r>   -6.7768    1.0000 </r>
       <r>   -5.8196    1.0000 </r>
       <r>   -5.6315    1.0000 </r>
       <r>   -5.2674    1.0000 </r>
       <r>   -5.0950    1.0000 </r>
       <r>   -4.3029    1.0000 </r>
       <r>   -4.2384    1.0000 </r>
       <r>   -2.7067    1.0000 </r>
       <r>   -2.5777    1.0000 </r>
       <r>   -1.2565    0.0000 </r>
       <r>   -1.0617    0.0000 </r>
       <r>    1.1122    0.0000 </r>
       <r>    1.1503    0.0000 </r>
       <r>    1.3894    0.0000 </r>
       <r>    1.4446    0.0000 </r>
      </set>
      <set comment="kpoint 55">
       <r>  -27.7352    1.0000 </r>
       <r>  -27.7349    1.0000 </r>
       <r>  -27.7235    1.0000 </r>
       <r>  -27.7227    1.0000 </r>
       <r>  -27.7207    1.0000 </r>
       <r>  -27.7194    1.0000 </r>
       <r>  -27.7048    1.0000 </r>
       <r>  -27.7046    1.0000 </r>
       <r>  -27.6885    1.0000 </r>
       <r>  -27.6884    1.0000 </r>
       <r>  -15.9979    1.0000 </r>
       <r>  -15.9159    1.0000 </r>
       <r>  -15.1269    1.0000 </r>
       <r>  -15.1129    1.0000 </r>
       <r>  -10.7590    1.0000 </r>
       <r>  -10.6665    1.0000 </r>
       <r>   -6.8448    1.0000 </r>
       <r>   -6.8151    1.0000 </r>
       <r>   -5.7837    1.0000 </r>
       <r>   -5.6887    1.0000 </r>
       <r>   -5.1141    1.0000 </r>
       <r>   -4.9663    1.0000 </r>
       <r>   -4.3308    1.0000 </r>
       <r>   -4.2841    1.0000 </r>
       <r>   -2.5840    1.0000 </r>
       <r>   -2.5112    1.0000 </r>
       <r>   -1.3941    0.0000 </r>
       <r>   -1.2452    0.0000 </r>
       <r>    1.1769    0.0000 </r>
       <r>    1.2194    0.0000 </r>
       <r>    1.4145    0.0000 </r>
       <r>    1.4243    0.0000 </r>
      </set>
      <set comment="kpoint 56">
       <r>  -27.7353    1.0000 </r>
       <r>  -27.7352    1.0000 </r>
       <r>  -27.7228    1.0000 </r>
       <r>  -27.7223    1.0000 </r>
       <r>  -27.7209    1.0000 </r>
       <r>  -27.7203    1.0000 </r>
       <r>  -27.7046    1.0000 </r>
       <r>  -27.7045    1.0000 </r>
       <r>  -27.6884    1.0000 </r>
       <r>  -27.6884    1.0000 </r>
       <r>  -15.9497    1.0000 </r>
       <r>  -15.9212    1.0000 </r>
       <r>  -15.1314    1.0000 </r>
       <r>  -15.1273    1.0000 </r>
       <r>  -10.7763    1.0000 </r>
       <r>  -10.7451    1.0000 </r>
       <r>   -6.8545    1.0000 </r>
       <r>   -6.8444    1.0000 </r>
       <r>   -5.7551    1.0000 </r>
       <r>   -5.7264    1.0000 </r>
       <r>   -4.9863    1.0000 </r>
       <r>   -4.9297    1.0000 </r>
       <r>   -4.3348    1.0000 </r>
       <r>   -4.3163    1.0000 </r>
       <r>   -2.5155    1.0000 </r>
       <r>   -2.4939    1.0000 </r>
       <r>   -1.4330    0.0000 </r>
       <r>   -1.3783    0.0000 </r>
       <r>    1.2199    0.0000 </r>
       <r>    1.2545    0.0000 </r>
       <r>    1.4045    0.0000 </r>
       <r>    1.4232    0.0000 </r>
      </set>
     </set>
    </set>
   </array>
  </eigenvalues>
  <separator name="orbital magnetization" >
   <v name="MAGDIPOLOUT">      0.00000000      0.00000000      0.00000000</v>
  </separator>
  <dos>
   <i name="efermi">     -2.33179246 </i>
   <total>
    <array>
     <dimension dim="1">gridpoints</dimension>
     <dimension dim="2">spin</dimension>
     <field>energy</field>
     <field>total</field>
     <field>integrated</field>
     <set>
      <set comment="spin 1">
       <r>   -29.2270     0.0000     0.0000 </r>
       <r>   -29.1177     0.0000     0.0000 </r>
       <r>   -29.0084     0.0000     0.0000 </r>
       <r>   -28.8991     0.0000     0.0000 </r>
       <r>   -28.7899     0.0000     0.0000 </r>
       <r>   -28.6806     0.0000     0.0000 </r>
       <r>   -28.5713     0.0000     0.0000 </r>
       <r>   -28.4620     0.0000     0.0000 </r>
       <r>   -28.3528     0.0000     0.0000 </r>
       <r>   -28.2435     0.0000     0.0000 </r>
       <r>   -28.1342     0.0000     0.0000 </r>
       <r>   -28.0249     0.0000     0.0000 </r>
       <r>   -27.9157     0.0000     0.0000 </r>
       <r>   -27.8064     0.0000     0.0000 </r>
       <r>   -27.6971   142.2173    15.5407 </r>
       <r>   -27.5878    40.8082    20.0000 </r>
       <r>   -27.4786     0.0000    20.0000 </r>
       <r>   -27.3693     0.0000    20.0000 </r>
       <r>   -27.2600     0.0000    20.0000 </r>
       <r>   -27.1507     0.0000    20.0000 </r>
       <r>   -27.0415     0.0000    20.0000 </r>
       <r>   -26.9322     0.0000    20.0000 </r>
       <r>   -26.8229     0.0000    20.0000 </r>
       <r>   -26.7136     0.0000    20.0000 </r>
       <r>   -26.6044     0.0000    20.0000 </r>
       <r>   -26.4951     0.0000    20.0000 </r>
       <r>   -26.3858     0.0000    20.0000 </r>
       <r>   -26.2765     0.0000    20.0000 </r>
       <r>   -26.1673     0.0000    20.0000 </r>
       <r>   -26.0580     0.0000    20.0000 </r>
       <r>   -25.9487     0.0000    20.0000 </r>
       <r>   -25.8394     0.0000    20.0000 </r>
       <r>   -25.7302     0.0000    20.0000 </r>
       <r>   -25.6209     0.0000    20.0000 </r>
       <r>   -25.5116     0.0000    20.0000 </r>
       <r>   -25.4023     0.0000    20.0000 </r>
       <r>   -25.2931     0.0000    20.0000 </r>
       <r>   -25.1838     0.0000    20.0000 </r>
       <r>   -25.0745     0.0000    20.0000 </r>
       <r>   -24.9653     0.0000    20.0000 </r>
       <r>   -24.8560     0.0000    20.0000 </r>
       <r>   -24.7467     0.0000    20.0000 </r>
       <r>   -24.6374     0.0000    20.0000 </r>
       <r>   -24.5282     0.0000    20.0000 </r>
       <r>   -24.4189     0.0000    20.0000 </r>
       <r>   -24.3096     0.0000    20.0000 </r>
       <r>   -24.2003     0.0000    20.0000 </r>
       <r>   -24.0911     0.0000    20.0000 </r>
       <r>   -23.9818     0.0000    20.0000 </r>
       <r>   -23.8725     0.0000    20.0000 </r>
       <r>   -23.7632     0.0000    20.0000 </r>
       <r>   -23.6540     0.0000    20.0000 </r>
       <r>   -23.5447     0.0000    20.0000 </r>
       <r>   -23.4354     0.0000    20.0000 </r>
       <r>   -23.3261     0.0000    20.0000 </r>
       <r>   -23.2169     0.0000    20.0000 </r>
       <r>   -23.1076     0.0000    20.0000 </r>
       <r>   -22.9983     0.0000    20.0000 </r>
       <r>   -22.8890     0.0000    20.0000 </r>
       <r>   -22.7798     0.0000    20.0000 </r>
       <r>   -22.6705     0.0000    20.0000 </r>
       <r>   -22.5612     0.0000    20.0000 </r>
       <r>   -22.4519     0.0000    20.0000 </r>
       <r>   -22.3427     0.0000    20.0000 </r>
       <r>   -22.2334     0.0000    20.0000 </r>
       <r>   -22.1241     0.0000    20.0000 </r>
       <r>   -22.0148     0.0000    20.0000 </r>
       <r>   -21.9056     0.0000    20.0000 </r>
       <r>   -21.7963     0.0000    20.0000 </r>
       <r>   -21.6870     0.0000    20.0000 </r>
       <r>   -21.5777     0.0000    20.0000 </r>
       <r>   -21.4685     0.0000    20.0000 </r>
       <r>   -21.3592     0.0000    20.0000 </r>
       <r>   -21.2499     0.0000    20.0000 </r>
       <r>   -21.1406     0.0000    20.0000 </r>
       <r>   -21.0314     0.0000    20.0000 </r>
       <r>   -20.9221     0.0000    20.0000 </r>
       <r>   -20.8128     0.0000    20.0000 </r>
       <r>   -20.7036     0.0000    20.0000 </r>
       <r>   -20.5943     0.0000    20.0000 </r>
       <r>   -20.4850     0.0000    20.0000 </r>
       <r>   -20.3757     0.0000    20.0000 </r>
       <r>   -20.2665     0.0000    20.0000 </r>
       <r>   -20.1572     0.0000    20.0000 </r>
       <r>   -20.0479     0.0000    20.0000 </r>
       <r>   -19.9386     0.0000    20.0000 </r>
       <r>   -19.8294     0.0000    20.0000 </r>
       <r>   -19.7201     0.0000    20.0000 </r>
       <r>   -19.6108     0.0000    20.0000 </r>
       <r>   -19.5015     0.0000    20.0000 </r>
       <r>   -19.3923     0.0000    20.0000 </r>
       <r>   -19.2830     0.0000    20.0000 </r>
       <r>   -19.1737     0.0000    20.0000 </r>
       <r>   -19.0644     0.0000    20.0000 </r>
       <r>   -18.9552     0.0000    20.0000 </r>
       <r>   -18.8459     0.0000    20.0000 </r>
       <r>   -18.7366     0.0000    20.0000 </r>
       <r>   -18.6273     0.0000    20.0000 </r>
       <r>   -18.5181     0.0000    20.0000 </r>
       <r>   -18.4088     0.0000    20.0000 </r>
       <r>   -18.2995     0.0000    20.0000 </r>
       <r>   -18.1902     0.0000    20.0000 </r>
       <r>   -18.0810     0.0000    20.0000 </r>
       <r>   -17.9717     0.0000    20.0000 </r>
       <r>   -17.8624     0.0000    20.0000 </r>
       <r>   -17.7531     0.0000    20.0000 </r>
       <r>   -17.6439     0.0000    20.0000 </r>
       <r>   -17.5346     0.0000    20.0000 </r>
       <r>   -17.4253     0.0000    20.0000 </r>
       <r>   -17.3160     0.0000    20.0000 </r>
       <r>   -17.2068     0.0000    20.0000 </r>
       <r>   -17.0975     0.0000    20.0000 </r>
       <r>   -16.9882     0.0000    20.0000 </r>
       <r>   -16.8789     0.5546    20.0606 </r>
       <r>   -16.7697     1.6512    20.2410 </r>
       <r>   -16.6604     1.9953    20.4591 </r>
       <r>   -16.5511     2.1330    20.6922 </r>
       <r>   -16.4418     1.9122    20.9011 </r>
       <r>   -16.3326     1.9672    21.1161 </r>
       <r>   -16.2233     2.6414    21.4047 </r>
       <r>   -16.1140     2.1657    21.6414 </r>
       <r>   -16.0048     3.2067    21.9918 </r>
       <r>   -15.8955     4.2644    22.4578 </r>
       <r>   -15.7862     2.8500    22.7692 </r>
       <r>   -15.6769     2.1216    23.0011 </r>
       <r>   -15.5677     1.8721    23.2056 </r>
       <r>   -15.4584     1.4735    23.3666 </r>
       <r>   -15.3491     2.6652    23.6579 </r>
       <r>   -15.2398     6.0935    24.3237 </r>
       <r>   -15.1306    10.2027    25.4386 </r>
       <r>   -15.0213    11.7628    26.7240 </r>
       <r>   -14.9120     7.0559    27.4950 </r>
       <r>   -14.8027     2.9126    27.8133 </r>
       <r>   -14.6935     1.6607    27.9948 </r>
       <r>   -14.5842     0.0476    28.0000 </r>
       <r>   -14.4749     0.0000    28.0000 </r>
       <r>   -14.3656     0.0000    28.0000 </r>
       <r>   -14.2564     0.0000    28.0000 </r>
       <r>   -14.1471     0.0000    28.0000 </r>
       <r>   -14.0378     0.0000    28.0000 </r>
       <r>   -13.9285     0.0000    28.0000 </r>
       <r>   -13.8193     0.0000    28.0000 </r>
       <r>   -13.7100     0.0000    28.0000 </r>
       <r>   -13.6007     0.0000    28.0000 </r>
       <r>   -13.4914     0.0000    28.0000 </r>
       <r>   -13.3822     0.0000    28.0000 </r>
       <r>   -13.2729     0.0000    28.0000 </r>
       <r>   -13.1636     0.0000    28.0000 </r>
       <r>   -13.0543     0.0000    28.0000 </r>
       <r>   -12.9451     0.0000    28.0000 </r>
       <r>   -12.8358     0.0000    28.0000 </r>
       <r>   -12.7265     0.0000    28.0000 </r>
       <r>   -12.6172     0.0000    28.0000 </r>
       <r>   -12.5080     0.0000    28.0000 </r>
       <r>   -12.3987     0.0000    28.0000 </r>
       <r>   -12.2894     0.0000    28.0000 </r>
       <r>   -12.1801     0.0000    28.0000 </r>
       <r>   -12.0709     0.0000    28.0000 </r>
       <r>   -11.9616     0.0000    28.0000 </r>
       <r>   -11.8523     0.0000    28.0000 </r>
       <r>   -11.7430     0.0516    28.0056 </r>
       <r>   -11.6338     0.6814    28.0801 </r>
       <r>   -11.5245     0.5572    28.1410 </r>
       <r>   -11.4152     0.7139    28.2190 </r>
       <r>   -11.3060     0.9067    28.3181 </r>
       <r>   -11.1967     1.0221    28.4298 </r>
       <r>   -11.0874     1.5594    28.6002 </r>
       <r>   -10.9781     0.4221    28.6463 </r>
       <r>   -10.8689     3.2571    29.0022 </r>
       <r>   -10.7596     2.4515    29.2701 </r>
       <r>   -10.6503     3.6215    29.6658 </r>
       <r>   -10.5410     2.4041    29.9285 </r>
       <r>   -10.4318     1.4091    30.0825 </r>
       <r>   -10.3225     2.4396    30.3491 </r>
       <r>   -10.2132     1.2907    30.4902 </r>
       <r>   -10.1039     1.6591    30.6715 </r>
       <r>    -9.9947     1.2626    30.8094 </r>
       <r>    -9.8854     1.3463    30.9565 </r>
       <r>    -9.7761     1.4345    31.1133 </r>
       <r>    -9.6668     1.2562    31.2506 </r>
       <r>    -9.5576     1.5357    31.4184 </r>
       <r>    -9.4483     1.5888    31.5920 </r>
       <r>    -9.3390     1.5083    31.7568 </r>
       <r>    -9.2297     1.6099    31.9327 </r>
       <r>    -9.1205     0.6155    32.0000 </r>
       <r>    -9.0112     0.0000    32.0000 </r>
       <r>    -8.9019     0.0000    32.0000 </r>
       <r>    -8.7926     0.0000    32.0000 </r>
       <r>    -8.6834     0.0000    32.0000 </r>
       <r>    -8.5741     0.0000    32.0000 </r>
       <r>    -8.4648     0.0000    32.0000 </r>
       <r>    -8.3555     0.0000    32.0000 </r>
       <r>    -8.2463     0.0000    32.0000 </r>
       <r>    -8.1370     0.0000    32.0000 </r>
       <r>    -8.0277     0.0000    32.0000 </r>
       <r>    -7.9184     0.0000    32.0000 </r>
       <r>    -7.8092     0.0000    32.0000 </r>
       <r>    -7.6999     0.0000    32.0000 </r>
       <r>    -7.5906     0.0000    32.0000 </r>
       <r>    -7.4813     0.0044    32.0005 </r>
       <r>    -7.3721     2.5299    32.2769 </r>
       <r>    -7.2628     2.4400    32.5436 </r>
       <r>    -7.1535     1.7389    32.7336 </r>
       <r>    -7.0443     1.7855    32.9287 </r>
       <r>    -6.9350     2.2217    33.1715 </r>
       <r>    -6.8257     6.5544    33.8877 </r>
       <r>    -6.7164     7.9669    34.7583 </r>
       <r>    -6.6072     3.4966    35.1404 </r>
       <r>    -6.4979     1.8759    35.3454 </r>
       <r>    -6.3886     1.9485    35.5583 </r>
       <r>    -6.2793     2.9377    35.8793 </r>
       <r>    -6.1701     5.1531    36.4424 </r>
       <r>    -6.0608     6.7425    37.1792 </r>
       <r>    -5.9515     3.8613    37.6012 </r>
       <r>    -5.8422     3.4633    37.9796 </r>
       <r>    -5.7330     4.2182    38.4406 </r>
       <r>    -5.6237     4.6543    38.9492 </r>
       <r>    -5.5144     5.3879    39.5379 </r>
       <r>    -5.4051     7.3716    40.3434 </r>
       <r>    -5.2959     7.5485    41.1683 </r>
       <r>    -5.1866     6.1192    41.8370 </r>
       <r>    -5.0773     6.3067    42.5261 </r>
       <r>    -4.9680     5.3617    43.1120 </r>
       <r>    -4.8588     4.0508    43.5547 </r>
       <r>    -4.7495     2.9754    43.8798 </r>
       <r>    -4.6402     3.8187    44.2971 </r>
       <r>    -4.5309     2.0762    44.5240 </r>
       <r>    -4.4217     2.5443    44.8020 </r>
       <r>    -4.3124     6.8826    45.5541 </r>
       <r>    -4.2031     5.9928    46.2090 </r>
       <r>    -4.0938     3.8041    46.6247 </r>
       <r>    -3.9846     5.1137    47.1835 </r>
       <r>    -3.8753     3.7274    47.5908 </r>
       <r>    -3.7660     2.4994    47.8639 </r>
       <r>    -3.6567     3.5295    48.2496 </r>
       <r>    -3.5475     2.9589    48.5729 </r>
       <r>    -3.4382     2.4624    48.8420 </r>
       <r>    -3.3289     2.9372    49.1629 </r>
       <r>    -3.2196     2.5114    49.4374 </r>
       <r>    -3.1104     2.6904    49.7314 </r>
       <r>    -3.0011     2.5052    50.0051 </r>
       <r>    -2.8918     3.4505    50.3822 </r>
       <r>    -2.7825     3.5206    50.7669 </r>
       <r>    -2.6733     5.2045    51.3356 </r>
       <r>    -2.5640     3.6031    51.7293 </r>
       <r>    -2.4547     2.4758    51.9999 </r>
       <r>    -2.3455     0.0011    52.0000 </r>
       <r>    -2.2362     0.0000    52.0000 </r>
       <r>    -2.1269     0.0000    52.0000 </r>
       <r>    -2.0176     0.0000    52.0000 </r>
       <r>    -1.9084     0.0000    52.0000 </r>
       <r>    -1.7991     0.0000    52.0000 </r>
       <r>    -1.6898     0.0922    52.0101 </r>
       <r>    -1.5805     0.3790    52.0515 </r>
       <r>    -1.4713     0.3748    52.0924 </r>
       <r>    -1.3620     3.4463    52.4690 </r>
       <r>    -1.2527     4.7355    52.9865 </r>
       <r>    -1.1434     3.6824    53.3889 </r>
       <r>    -1.0342     3.8309    53.8075 </r>
       <r>    -0.9249     3.3783    54.1767 </r>
       <r>    -0.8156     4.8287    54.7043 </r>
       <r>    -0.7063     3.4442    55.0807 </r>
       <r>    -0.5971     3.4265    55.4551 </r>
       <r>    -0.4878     2.7251    55.7529 </r>
       <r>    -0.3785     1.7427    55.9434 </r>
       <r>    -0.2692     1.6359    56.1221 </r>
       <r>    -0.1600     0.2723    56.1519 </r>
       <r>    -0.0507     0.5812    56.2154 </r>
       <r>     0.0586     0.0000    56.2154 </r>
       <r>     0.1679     0.4812    56.2680 </r>
       <r>     0.2771     1.7240    56.4564 </r>
       <r>     0.3864     1.9790    56.6726 </r>
       <r>     0.4957     1.5342    56.8403 </r>
       <r>     0.6050     2.6217    57.1268 </r>
       <r>     0.7142     1.7374    57.3166 </r>
       <r>     0.8235     3.3724    57.6851 </r>
       <r>     0.9328     3.2333    58.0384 </r>
       <r>     1.0421     6.0057    58.6947 </r>
       <r>     1.1513     8.5995    59.6344 </r>
       <r>     1.2606     5.7359    60.2612 </r>
       <r>     1.3699     5.9472    60.9111 </r>
       <r>     1.4792     8.4908    61.8389 </r>
       <r>     1.5884     5.1261    62.3991 </r>
       <r>     1.6977     6.0302    63.0580 </r>
       <r>     1.8070     4.2705    63.5247 </r>
       <r>     1.9162     2.7360    63.8237 </r>
       <r>     2.0255     1.3004    63.9658 </r>
       <r>     2.1348     0.3132    64.0000 </r>
       <r>     2.2441     0.0000    64.0000 </r>
       <r>     2.3533     0.0000    64.0000 </r>
       <r>     2.4626     0.0000    64.0000 </r>
       <r>     2.5719     0.0000    64.0000 </r>
       <r>     2.6812     0.0000    64.0000 </r>
       <r>     2.7904     0.0000    64.0000 </r>
       <r>     2.8997     0.0000    64.0000 </r>
       <r>     3.0090     0.0000    64.0000 </r>
       <r>     3.1183     0.0000    64.0000 </r>
       <r>     3.2275     0.0000    64.0000 </r>
       <r>     3.3368     0.0000    64.0000 </r>
       <r>     3.4461     0.0000    64.0000 </r>
       <r>     3.5554     0.0000    64.0000 </r>
      </set>
     </set>
    </array>
   </total>
  </dos>
 </calculation>
 <structure name="finalpos" >
  <crystal>
   <varray name="basis" >
    <v>       4.83192500       0.00000000       0.00000000 </v>
    <v>       0.00000000       5.57120200       0.00000000 </v>
    <v>       0.00000000       0.00000000      18.07929100 </v>
   </varray>
   <i name="volume">    486.68782843 </i>
   <varray name="rec_basis" >
    <v>       0.20695685       0.00000000       0.00000000 </v>
    <v>       0.00000000       0.17949448       0.00000000 </v>
    <v>       0.00000000       0.00000000       0.05531190 </v>
   </varray>
  </crystal>
  <varray name="positions" >
   <v>       0.50000000       0.50000000       0.50000000 </v>
   <v>      -0.00000000       0.00000000       0.50000000 </v>
   <v>       0.25000000       0.25000000       0.41467889 </v>
   <v>       0.75000000       0.75000000       0.41467889 </v>
   <v>       0.75000000       0.25000000       0.58532111 </v>
   <v>       0.25000000       0.75000000       0.58532111 </v>
  </varray>
 </structure>
</modeling>
